/*--------------------------------*- C++ -*----------------------------------*\
| =========                 |                                                 |
| \\      /  F ield         | foam-extend: Open Source CFD                    |
|  \\    /   O peration     | Version:     4.0                                |
|   \\  /    A nd           | Web:         http://www.foam-extend.org         |
|    \\/     M anipulation  |                                                 |
\*---------------------------------------------------------------------------*/
FoamFile
{
    version     2.0;
    format      ascii;
    class       volScalarField;
    location    "1550";
    object      alphat;
}
// * * * * * * * * * * * * * * * * * * * * * * * * * * * * * * * * * * * * * //

dimensions      [1 -1 -1 0 0 0 0];

internalField   nonuniform List<scalar> 
34480
(
0.00188849
0.00188723
0.00188706
0.0018879
0.00189001
0.00189392
0.00190145
0.0019197
0.00195894
0.00203015
0.0159152
0.0151067
0.0148071
0.0145376
0.0129166
0.00823707
0.00340439
0.00134782
0.000984831
0.00145488
0.0442495
0.0425901
0.0409026
0.0374578
0.028648
0.0146653
0.00511304
0.00182764
0.001241
0.00181207
0.0483994
0.0462405
0.0442993
0.0402598
0.0296858
0.0141452
0.00478819
0.00177462
0.00128756
0.00197813
0.0477249
0.0453041
0.0435391
0.0396976
0.0288298
0.013176
0.00440419
0.00168372
0.00129912
0.00209724
0.0459793
0.0434942
0.0418334
0.0380463
0.0268199
0.0116055
0.00385469
0.00155266
0.00130554
0.00222483
0.0438525
0.0415287
0.0400685
0.0364543
0.0252578
0.0105445
0.00349162
0.00146061
0.00131299
0.00233429
0.0364024
0.03471
0.0336804
0.0309328
0.0214174
0.00863405
0.00281062
0.00123939
0.00123611
0.00234101
0.0124285
0.0121087
0.0120055
0.0117289
0.00993091
0.0051253
0.00167703
0.000736668
0.000834288
0.00178636
0.00180117
0.00180108
0.00180274
0.00180601
0.00181079
0.0018169
0.00182492
0.00183614
0.00185268
0.00181393
0.00188855
0.00188668
0.00188608
0.0018866
0.00188846
0.00189191
0.00189742
0.00190687
0.00192456
0.00196537
0.0149489
0.014313
0.0141206
0.014304
0.0147157
0.0147672
0.0129435
0.00764239
0.00249472
0.00204518
0.040728
0.039498
0.0388312
0.0382943
0.0366825
0.0319735
0.0229953
0.0112903
0.00328105
0.00280277
0.0448055
0.0431346
0.0423305
0.0417582
0.0399164
0.0344193
0.024196
0.0114338
0.0033004
0.00317047
0.0446419
0.0426833
0.0419369
0.0415787
0.0400958
0.0348259
0.0244438
0.0112789
0.00323783
0.00345201
0.0434302
0.0413615
0.0406332
0.0404089
0.0391942
0.0341995
0.0239492
0.0108449
0.00316546
0.00378318
0.041828
0.0398421
0.0392043
0.0390639
0.0380869
0.0334563
0.0235304
0.0105499
0.00312898
0.00409941
0.0351387
0.0336655
0.0331964
0.0331785
0.0326693
0.0293539
0.0210898
0.00938229
0.00285429
0.00417145
0.012367
0.0120598
0.0119986
0.0120565
0.0121869
0.0120314
0.0106121
0.00545498
0.00170678
0.00280101
0.00179657
0.00179411
0.00179361
0.0017948
0.00179759
0.00180169
0.00180786
0.00181767
0.00184193
0.00188921
0.00188407
0.00188246
0.00188192
0.00188238
0.00188398
0.00188675
0.00189074
0.00189673
0.00190566
0.00191918
0.014054
0.0136365
0.0135019
0.0136525
0.0140919
0.0147346
0.01514
0.0142137
0.010111
0.00583673
0.0371994
0.0362299
0.0358907
0.0360373
0.0363556
0.0359383
0.0330078
0.0253589
0.0133427
0.00709936
0.0410709
0.0397649
0.0393339
0.03956
0.0400579
0.0397074
0.0361895
0.0266122
0.0125388
0.00720485
0.0413014
0.0397839
0.0393671
0.0397068
0.0405114
0.040643
0.0373536
0.0266867
0.0114183
0.00717784
0.0405622
0.0389527
0.0385161
0.0389196
0.0399482
0.0405675
0.0376901
0.026171
0.0103039
0.00725007
0.0394578
0.0378895
0.0374959
0.0379036
0.0390345
0.0400131
0.0376441
0.0255255
0.00938007
0.00733388
0.0336184
0.0324543
0.0321446
0.0324615
0.033402
0.034563
0.0334104
0.0226375
0.00796868
0.0070446
0.0122605
0.0120049
0.0119606
0.0120211
0.012217
0.0124514
0.012606
0.0106474
0.004489
0.00445718
0.00178923
0.00178632
0.00178545
0.00178634
0.00178903
0.00179338
0.0018004
0.00181222
0.00183894
0.00189244
0.00187589
0.00187476
0.00187438
0.00187473
0.00187589
0.00187777
0.00188009
0.00188317
0.00188712
0.00189179
0.0134649
0.0132158
0.0131244
0.0132205
0.0135123
0.0139707
0.0144474
0.014864
0.0145948
0.0128624
0.0340299
0.0333448
0.0331485
0.0333511
0.0339182
0.034599
0.0346282
0.0324092
0.025687
0.0173829
0.0376365
0.0366935
0.0364243
0.0367157
0.0375248
0.0385326
0.0385938
0.0352907
0.0257927
0.0167234
0.0381844
0.0370902
0.036821
0.0371775
0.0381907
0.039572
0.0399687
0.0361409
0.0246332
0.0158829
0.0378648
0.0366871
0.0363847
0.0367804
0.0379398
0.0396834
0.0405337
0.0363472
0.0231416
0.0153375
0.0372057
0.0360291
0.0357474
0.0361356
0.0373381
0.0392772
0.0405113
0.0360563
0.0215228
0.0148493
0.0322039
0.0313215
0.0310911
0.031378
0.0322853
0.0339159
0.0354044
0.0319972
0.0185279
0.0137267
0.0121947
0.0119842
0.0119516
0.0119979
0.012147
0.0123393
0.0125456
0.0126738
0.00958914
0.0083211
0.0017803
0.00177726
0.00177625
0.00177706
0.00177976
0.00178443
0.00179201
0.00180471
0.00183085
0.0018782
0.00186482
0.00186413
0.00186389
0.00186414
0.00186489
0.00186601
0.0018672
0.00186862
0.0018702
0.00187167
0.0131839
0.0130455
0.0129849
0.0130448
0.0132252
0.0134884
0.013721
0.0140107
0.0142931
0.0144159
0.0314995
0.0310972
0.03099
0.0311152
0.0314995
0.0321154
0.0328053
0.0330905
0.0316416
0.0274628
0.0347673
0.0341635
0.0339936
0.0341893
0.0347853
0.0357712
0.0368743
0.0371089
0.0340981
0.0274715
0.0355106
0.0347856
0.0346085
0.0348492
0.0355929
0.0368594
0.0383217
0.0385812
0.0342348
0.0263074
0.03551
0.0346981
0.0344824
0.0347584
0.0356186
0.0371588
0.0390436
0.0394551
0.0338292
0.025399
0.0352013
0.0343563
0.0341479
0.0344242
0.0353271
0.0369981
0.0391496
0.0396366
0.0328216
0.0244477
0.0309607
0.0303125
0.0301368
0.0303446
0.0310142
0.0323193
0.0341921
0.0350278
0.0289295
0.0222981
0.0121767
0.012003
0.0119793
0.0120108
0.0121125
0.0122322
0.0123025
0.0126974
0.0125753
0.0122139
0.00176994
0.00176688
0.00176581
0.00176656
0.00176923
0.00177397
0.00178161
0.00179398
0.00181669
0.00185331
0.00185139
0.00185104
0.00185092
0.00185107
0.00185151
0.00185208
0.0018526
0.00185319
0.00185376
0.00185416
0.0131432
0.0130756
0.0130374
0.0130768
0.0131895
0.013331
0.0134233
0.0135391
0.0136597
0.0137519
0.0297434
0.0295489
0.0295005
0.0295606
0.0297547
0.0300846
0.0305418
0.0310957
0.0314217
0.0310607
0.0326024
0.0322604
0.0321609
0.0322681
0.0326142
0.0332377
0.0341496
0.0351933
0.0354837
0.033949
0.0333852
0.0329463
0.0328379
0.0329769
0.0334316
0.0342643
0.0355074
0.0369052
0.0369242
0.0340688
0.0335721
0.0330476
0.032901
0.0330727
0.0336276
0.034681
0.0363044
0.0381499
0.0378611
0.0338528
0.0334972
0.0329207
0.0327735
0.0329521
0.0335578
0.0347282
0.0365733
0.0386877
0.0379512
0.0331055
0.0299088
0.0294529
0.0293251
0.0294655
0.029919
0.0308144
0.0322735
0.0342158
0.0337685
0.0299592
0.0122099
0.0120673
0.0120521
0.012072
0.0121359
0.0121903
0.0121423
0.0123368
0.0127483
0.0136408
0.001758
0.00175504
0.00175396
0.00175465
0.00175721
0.00176181
0.00176906
0.00178032
0.00179879
0.00182526
0.00183598
0.00183586
0.00183583
0.00183591
0.00183614
0.00183637
0.00183656
0.00183675
0.00183692
0.00183697
0.0132666
0.0132464
0.0132252
0.0132522
0.0133224
0.0133878
0.0134279
0.0134708
0.0135022
0.0134926
0.0286839
0.028606
0.0285902
0.0286154
0.0286982
0.0288336
0.0290268
0.0292934
0.0295769
0.0297952
0.0311264
0.0309482
0.0308933
0.030946
0.0311244
0.0314497
0.0319512
0.0326501
0.0333531
0.0337492
0.0318247
0.0315777
0.0315163
0.031589
0.0318396
0.0323031
0.0330393
0.0340995
0.0350984
0.0353941
0.0320803
0.0317594
0.0316646
0.031764
0.0320945
0.0327262
0.0337615
0.035303
0.0366653
0.0367273
0.0321314
0.0317553
0.0316563
0.0317642
0.0321445
0.0328798
0.0341034
0.0359705
0.0374834
0.0371095
0.0290754
0.0287679
0.0286794
0.028769
0.0290575
0.029618
0.0305421
0.0321147
0.0335604
0.0335525
0.0123028
0.0121851
0.0121773
0.0121885
0.0122232
0.0122233
0.0121017
0.0121047
0.0122916
0.0129874
0.00174433
0.00174157
0.00174054
0.00174117
0.00174355
0.00174779
0.00175433
0.00176406
0.00177847
0.00179703
0.00181884
0.00181886
0.00181887
0.00181891
0.00181901
0.00181906
0.0018191
0.00181913
0.00181914
0.00181907
0.0134962
0.0135105
0.0135029
0.0135219
0.0135631
0.0135895
0.013609
0.0136258
0.013627
0.0135853
0.0281274
0.0281047
0.0281043
0.0281145
0.0281457
0.0281914
0.028257
0.0283466
0.0284453
0.02853
0.0302024
0.0301126
0.0300831
0.030108
0.030196
0.0303539
0.0305924
0.0309239
0.0313007
0.0316342
0.0307573
0.0306251
0.0305926
0.0306283
0.0307587
0.0309958
0.0313672
0.0319158
0.0325606
0.0331333
0.0310016
0.0308136
0.0307548
0.0308097
0.0309974
0.0313503
0.0319225
0.0328126
0.033886
0.0348259
0.0310986
0.0308623
0.0307986
0.0308605
0.0310889
0.0315228
0.0322353
0.0333878
0.0347774
0.0359166
0.028465
0.0282658
0.0282076
0.0282618
0.028435
0.02876
0.0292748
0.0302075
0.0314678
0.0327057
0.0124615
0.012363
0.0123613
0.0123662
0.0123794
0.0123375
0.0121802
0.0120728
0.0120526
0.0123156
0.00172882
0.00172634
0.0017254
0.00172596
0.00172808
0.00173183
0.00173747
0.0017455
0.00175637
0.00176917
0.00180005
0.00180016
0.0018002
0.00180022
0.00180024
0.00180022
0.0018002
0.00180017
0.00180013
0.00180001
0.0137978
0.0138396
0.0138434
0.0138569
0.0138764
0.0138874
0.0138984
0.0139051
0.0138955
0.013843
0.0278882
0.0278896
0.0278957
0.0279002
0.0279098
0.0279223
0.027941
0.0279653
0.0279893
0.0280042
0.0296651
0.0296191
0.0296029
0.0296149
0.029659
0.0297362
0.0298484
0.0299954
0.0301567
0.0302922
0.0300725
0.0300033
0.0299869
0.0300039
0.0300704
0.0301884
0.0303665
0.0306168
0.0309116
0.0311797
0.0302678
0.0301606
0.0301252
0.0301548
0.0302588
0.0304499
0.0307492
0.0311964
0.0317578
0.0323121
0.0303629
0.030218
0.0301785
0.0302127
0.0303464
0.0305941
0.0309865
0.0316009
0.0323942
0.0331933
0.0280638
0.0279394
0.0279033
0.0279343
0.0280317
0.028205
0.0284637
0.0289347
0.0296395
0.0304991
0.0126911
0.0126065
0.0126101
0.0126105
0.0126079
0.0125365
0.0123698
0.0122155
0.012089
0.012148
0.00171137
0.00170923
0.0017084
0.00170889
0.00171072
0.00171389
0.00171856
0.00172492
0.00173289
0.00174155
0.00177969
0.00177982
0.00177988
0.00177988
0.00177987
0.00177984
0.0017798
0.00177975
0.0017797
0.00177957
0.0141694
0.0142223
0.0142362
0.0142457
0.0142522
0.0142594
0.0142662
0.0142683
0.0142537
0.0141957
0.0278365
0.0278456
0.0278541
0.0278566
0.0278584
0.0278609
0.0278648
0.0278693
0.0278712
0.027867
0.0293741
0.0293492
0.0293397
0.0293459
0.0293692
0.0294094
0.0294654
0.0295341
0.0296048
0.0296578
0.0296587
0.0296221
0.0296137
0.0296219
0.0296564
0.0297163
0.029803
0.0299168
0.0300439
0.0301491
0.0297973
0.0297369
0.0297159
0.0297319
0.0297893
0.0298921
0.0300475
0.0302653
0.0305304
0.0307789
0.0298702
0.0297822
0.0297582
0.0297768
0.0298545
0.0299945
0.0302078
0.0305222
0.0309175
0.0312949
0.0278445
0.0277693
0.0277483
0.027765
0.0278153
0.0278964
0.0280121
0.0282242
0.0285537
0.028972
0.0129959
0.0129209
0.0129289
0.0129263
0.0129121
0.0128236
0.0126642
0.0125019
0.0123363
0.012335
0.00169192
0.00169015
0.00168945
0.00168986
0.00169137
0.00169395
0.00169766
0.00170251
0.00170821
0.00171397
0.00175771
0.00175784
0.0017579
0.0017579
0.00175789
0.00175785
0.00175781
0.00175777
0.00175772
0.0017576
0.0146078
0.0146647
0.0146826
0.0146895
0.0146945
0.0146997
0.014704
0.0147032
0.0146857
0.0146236
0.0278893
0.0278998
0.0279078
0.02791
0.0279105
0.0279105
0.0279105
0.0279097
0.0279061
0.0278974
0.0292288
0.0292142
0.0292084
0.0292118
0.029225
0.0292475
0.0292778
0.0293132
0.0293476
0.0293708
0.029423
0.0294025
0.0293978
0.0294021
0.029421
0.0294532
0.029498
0.0295532
0.0296108
0.0296549
0.0295132
0.029479
0.0294665
0.0294753
0.0295074
0.0295635
0.0296453
0.0297532
0.0298785
0.0299906
0.0295613
0.0295074
0.0294927
0.0295032
0.0295489
0.0296287
0.0297464
0.0299091
0.0301029
0.0302735
0.0277727
0.0277283
0.0277173
0.0277256
0.027748
0.0277769
0.0278195
0.0279022
0.0280378
0.0282324
0.0133805
0.0133121
0.013324
0.0133193
0.013296
0.0132027
0.0130605
0.0129114
0.0127437
0.0127428
0.00167043
0.00166902
0.00166846
0.00166879
0.00166999
0.001672
0.00167485
0.00167843
0.00168239
0.00168616
0.00173407
0.00173418
0.00173424
0.00173424
0.00173423
0.0017342
0.00173417
0.00173413
0.00173409
0.00173398
0.0151178
0.0151784
0.0151976
0.0152044
0.0152087
0.0152124
0.015215
0.0152123
0.0151925
0.0151265
0.0279986
0.0280092
0.0280163
0.0280185
0.0280188
0.0280185
0.0280178
0.028016
0.0280113
0.0280017
0.0291641
0.0291549
0.0291513
0.0291533
0.0291612
0.0291744
0.0291918
0.0292116
0.0292303
0.0292418
0.0292965
0.029284
0.029281
0.0292835
0.0292947
0.0293135
0.0293388
0.0293684
0.0293975
0.0294187
0.0293517
0.029332
0.0293245
0.0293295
0.0293479
0.0293793
0.0294235
0.0294788
0.0295403
0.029595
0.0293814
0.0293474
0.0293383
0.0293446
0.0293722
0.0294193
0.0294864
0.029574
0.0296723
0.0297549
0.0278125
0.0277869
0.0277822
0.0277857
0.0277924
0.0277959
0.0278041
0.0278276
0.0278732
0.0279716
0.0138518
0.0137876
0.0138034
0.013797
0.0137657
0.01368
0.0135601
0.0134341
0.0132824
0.0133044
0.00164689
0.00164581
0.00164538
0.00164563
0.00164654
0.00164806
0.00165017
0.00165272
0.00165541
0.00165784
0.00170868
0.00170878
0.00170883
0.00170883
0.00170882
0.0017088
0.00170878
0.00170875
0.00170872
0.00170861
0.015711
0.0157754
0.0157956
0.0158023
0.0158061
0.0158088
0.0158101
0.0158061
0.0157846
0.0157147
0.0281385
0.0281487
0.028155
0.0281571
0.0281575
0.0281574
0.0281568
0.0281551
0.0281506
0.0281408
0.0291409
0.0291352
0.0291329
0.0291341
0.0291388
0.0291466
0.0291569
0.0291684
0.0291792
0.0291854
0.0292329
0.0292247
0.0292224
0.029224
0.0292311
0.0292431
0.0292588
0.0292764
0.029293
0.029305
0.0292655
0.0292538
0.0292492
0.0292522
0.029263
0.0292811
0.0293058
0.0293353
0.0293669
0.0293961
0.0292853
0.029263
0.0292572
0.0292614
0.0292788
0.0293079
0.0293479
0.0293979
0.029451
0.029496
0.027932
0.027917
0.0279162
0.0279171
0.0279154
0.0279097
0.0279042
0.0279036
0.0279114
0.0279697
0.0144198
0.0143589
0.0143788
0.0143708
0.0143339
0.0142663
0.0141704
0.0140703
0.0139415
0.0139923
0.00162128
0.00162049
0.00162017
0.00162036
0.00162102
0.00162213
0.00162363
0.00162539
0.00162717
0.00162872
0.00168146
0.00168156
0.0016816
0.0016816
0.00168159
0.00168158
0.00168156
0.00168154
0.00168151
0.00168141
0.0164053
0.0164737
0.0164948
0.0165014
0.0165049
0.0165069
0.0165073
0.0165024
0.0164796
0.0164054
0.0282948
0.0283045
0.0283099
0.0283119
0.0283125
0.0283125
0.0283122
0.0283109
0.0283069
0.0282973
0.0291376
0.0291342
0.0291329
0.0291335
0.0291362
0.0291407
0.0291465
0.0291531
0.0291595
0.0291631
0.0292033
0.0291975
0.0291956
0.0291967
0.0292016
0.0292097
0.0292201
0.0292314
0.0292418
0.0292495
0.0292223
0.0292151
0.0292122
0.029214
0.0292205
0.0292313
0.0292455
0.0292619
0.0292789
0.0292957
0.0292395
0.0292243
0.0292204
0.0292234
0.0292349
0.0292538
0.0292789
0.0293092
0.02934
0.0293682
0.0281061
0.0280945
0.0280958
0.0280954
0.0280911
0.0280842
0.0280753
0.0280671
0.0280611
0.0281027
0.0151149
0.0150452
0.0150678
0.015058
0.0150289
0.0149786
0.0149061
0.014831
0.0147259
0.0148042
0.0015936
0.00159304
0.00159282
0.00159295
0.00159341
0.00159419
0.00159523
0.0015964
0.00159754
0.00159851
0.00165234
0.00165243
0.00165246
0.00165246
0.00165246
0.00165245
0.00165244
0.00165242
0.0016524
0.0016523
0.0172266
0.0172995
0.0173212
0.0173276
0.017331
0.0173324
0.0173322
0.0173268
0.0173031
0.0172242
0.0284595
0.0284685
0.0284731
0.0284749
0.0284755
0.0284758
0.0284758
0.0284748
0.0284716
0.0284625
0.0291428
0.0291409
0.0291402
0.0291406
0.0291419
0.0291442
0.0291473
0.0291509
0.0291546
0.0291569
0.0291906
0.0291865
0.0291849
0.0291857
0.029189
0.0291946
0.0292017
0.0292094
0.0292163
0.0292215
0.0292017
0.0291971
0.0291952
0.0291963
0.0292003
0.0292068
0.0292152
0.0292246
0.0292342
0.0292445
0.0292207
0.02921
0.0292074
0.0292097
0.0292176
0.0292303
0.0292467
0.0292659
0.029285
0.0293049
0.0283121
0.0283012
0.0283023
0.028302
0.0282988
0.0282933
0.0282854
0.0282768
0.0282674
0.0283014
0.0159633
0.0158861
0.0159029
0.0158967
0.0158772
0.0158428
0.0157921
0.0157389
0.0156557
0.015757
0.00156385
0.00156346
0.00156331
0.0015634
0.00156372
0.00156424
0.00156493
0.00156568
0.0015664
0.001567
0.00162128
0.00162136
0.00162138
0.00162138
0.00162138
0.00162138
0.00162137
0.00162135
0.00162133
0.00162124
0.0182118
0.0182899
0.0183115
0.0183176
0.0183213
0.0183223
0.0183217
0.0183162
0.018292
0.018208
0.0286266
0.0286348
0.0286385
0.02864
0.0286406
0.028641
0.0286413
0.0286408
0.0286384
0.0286302
0.0291505
0.0291497
0.0291494
0.0291496
0.0291501
0.0291511
0.0291524
0.0291541
0.0291562
0.0291579
0.0291854
0.0291824
0.0291811
0.0291815
0.0291838
0.0291876
0.0291925
0.0291977
0.0292024
0.0292061
0.0291915
0.0291885
0.0291872
0.0291879
0.0291903
0.0291943
0.0291993
0.0292048
0.0292104
0.0292169
0.0292139
0.0292063
0.0292045
0.0292062
0.0292117
0.0292203
0.0292312
0.0292437
0.0292559
0.0292709
0.028531
0.0285206
0.0285213
0.0285213
0.0285195
0.0285161
0.0285108
0.0285045
0.0284959
0.0285253
0.0170034
0.0169206
0.0169314
0.0169285
0.0169176
0.0168975
0.0168666
0.0168318
0.0167684
0.016886
0.00153205
0.00153179
0.00153169
0.00153175
0.00153196
0.0015323
0.00153274
0.0015332
0.00153364
0.00153399
0.00158834
0.0015884
0.00158842
0.00158843
0.00158843
0.00158842
0.00158841
0.0015884
0.00158838
0.00158829
0.0194152
0.0194991
0.0195212
0.0195269
0.0195296
0.0195302
0.0195295
0.0195242
0.0195003
0.0194107
0.02879
0.028797
0.0287998
0.0288008
0.0288014
0.0288019
0.0288024
0.0288024
0.028801
0.0287942
0.0291579
0.0291576
0.0291576
0.0291576
0.0291578
0.0291579
0.0291583
0.0291589
0.02916
0.0291614
0.0291822
0.0291801
0.029179
0.0291792
0.0291806
0.0291831
0.0291864
0.0291898
0.0291931
0.0291957
0.0291852
0.0291831
0.0291822
0.0291825
0.029184
0.0291864
0.0291894
0.0291926
0.0291959
0.0292
0.0292092
0.0292039
0.0292027
0.0292039
0.0292076
0.0292134
0.0292204
0.0292284
0.0292362
0.0292476
0.0287452
0.0287357
0.028736
0.0287362
0.0287356
0.0287342
0.0287315
0.0287279
0.0287214
0.0287467
0.018292
0.0182062
0.0182108
0.0182107
0.0182075
0.0182005
0.0181879
0.0181683
0.0181232
0.018249
0.00149828
0.00149812
0.00149806
0.00149809
0.00149822
0.00149843
0.0014987
0.00149898
0.00149924
0.00149945
0.00155373
0.00155379
0.00155381
0.00155381
0.00155381
0.0015538
0.0015538
0.00155378
0.00155376
0.00155368
0.0209193
0.0210087
0.0210312
0.0210363
0.0210374
0.0210375
0.0210367
0.021032
0.0210094
0.0209143
0.0289412
0.0289464
0.028948
0.0289485
0.0289489
0.0289495
0.0289503
0.0289508
0.0289504
0.0289461
0.029163
0.0291629
0.0291631
0.0291631
0.0291631
0.0291629
0.0291628
0.0291629
0.0291633
0.0291645
0.0291786
0.029177
0.0291762
0.0291762
0.0291771
0.0291786
0.0291806
0.0291828
0.029185
0.0291869
0.0291793
0.029178
0.0291773
0.0291774
0.0291783
0.0291796
0.0291813
0.0291831
0.029185
0.0291875
0.0292004
0.029197
0.0291961
0.029197
0.0291993
0.0292028
0.0292071
0.0292118
0.0292165
0.0292247
0.0289353
0.0289272
0.0289273
0.0289276
0.0289277
0.0289275
0.0289266
0.028925
0.0289208
0.0289416
0.0199125
0.0198272
0.0198246
0.0198267
0.0198307
0.0198362
0.0198416
0.0198355
0.0198102
0.0199326
0.00146275
0.00146265
0.0014626
0.00146263
0.00146271
0.00146283
0.001463
0.00146316
0.00146333
0.00146343
0.00151767
0.00151771
0.00151771
0.00151771
0.00151771
0.00151771
0.00151771
0.0015177
0.00151769
0.00151764
0.0228572
0.0229491
0.0229689
0.022973
0.0229738
0.0229737
0.0229728
0.0229688
0.0229489
0.0228509
0.0290679
0.0290706
0.0290709
0.0290709
0.0290711
0.0290716
0.0290725
0.0290735
0.0290743
0.0290731
0.0291652
0.0291652
0.0291653
0.0291653
0.0291653
0.0291651
0.029165
0.0291649
0.0291649
0.0291658
0.0291742
0.0291731
0.0291725
0.0291725
0.029173
0.0291739
0.029175
0.0291763
0.0291778
0.0291791
0.0291737
0.0291729
0.0291725
0.0291725
0.0291729
0.0291736
0.0291745
0.0291755
0.0291765
0.0291778
0.029186
0.029184
0.0291835
0.0291839
0.0291852
0.0291871
0.0291894
0.0291919
0.0291945
0.0291995
0.02908
0.0290739
0.0290739
0.0290741
0.0290743
0.0290744
0.0290742
0.0290738
0.0290718
0.0290875
0.0220123
0.0219339
0.0219319
0.0219337
0.0219368
0.021941
0.0219452
0.0219481
0.021949
0.022052
0.00142557
0.00142551
0.00142548
0.00142549
0.00142554
0.00142562
0.00142572
0.00142582
0.00142594
0.001426
0.00147928
0.00147928
0.00147926
0.00147926
0.00147925
0.00147926
0.00147927
0.00147928
0.00147931
0.00147933
0.0254662
0.0255467
0.0255606
0.0255634
0.025564
0.0255637
0.0255626
0.0255593
0.0255445
0.0254562
0.0291567
0.0291564
0.0291557
0.0291552
0.0291552
0.0291557
0.0291566
0.0291579
0.0291596
0.0291615
0.0291653
0.0291653
0.0291653
0.0291654
0.0291654
0.0291654
0.0291654
0.0291653
0.0291653
0.0291656
0.0291708
0.0291702
0.0291698
0.0291698
0.0291701
0.0291706
0.0291713
0.0291721
0.0291729
0.0291738
0.0291703
0.0291698
0.0291695
0.0291696
0.0291698
0.0291703
0.0291708
0.0291714
0.029172
0.0291727
0.0291723
0.0291714
0.0291711
0.0291713
0.029172
0.0291731
0.0291743
0.0291756
0.0291769
0.0291791
0.0291677
0.029164
0.0291635
0.0291634
0.0291634
0.0291634
0.0291633
0.0291634
0.0291636
0.0291736
0.0249074
0.0248486
0.0248475
0.0248487
0.0248507
0.0248535
0.0248563
0.0248581
0.0248584
0.0249352
0.00138599
0.00138593
0.00138591
0.00138592
0.00138596
0.00138603
0.0013861
0.00138618
0.00138626
0.00138631
0.00234406
0.00236494
0.00235472
0.0023208
0.00141079
0.0014338
0.00143116
0.00142634
0.00188744
0.00192951
0.00192037
0.00189569
0.00227441
0.00233256
0.00231303
0.00226679
0.00262186
0.002693
0.00266099
0.00259649
0.00296327
0.00304556
0.00300533
0.00293183
0.0032453
0.00333574
0.00329343
0.00322011
0.00341292
0.00350971
0.00346967
0.00340101
0.00304457
0.00313408
0.00309525
0.00303953
0.00237483
0.00239148
0.00235662
0.0022754
0.00202754
0.00203325
0.00203437
0.00203136
0.00235403
0.00243441
0.00233448
0.00214267
0.00330914
0.00342371
0.00329328
0.00305539
0.00407295
0.0042414
0.00408273
0.00378471
0.00485485
0.00509076
0.00489612
0.00452033
0.00582967
0.00615562
0.00591399
0.00542925
0.00679556
0.00720917
0.00690744
0.00630948
0.00749271
0.00799064
0.00763241
0.00693751
0.00591627
0.00635284
0.006
0.00540339
0.00218174
0.00221408
0.00220723
0.00217146
0.00193324
0.00193529
0.00193545
0.00193419
0.00406671
0.00404238
0.00405285
0.00414399
0.00499229
0.00497382
0.00499398
0.0050983
0.00549736
0.00551711
0.00553692
0.00558673
0.00601249
0.00606656
0.00606974
0.00602815
0.00675561
0.00685227
0.00681244
0.00663452
0.00751344
0.00763675
0.00752297
0.00718508
0.00805107
0.00821144
0.00802401
0.00752524
0.00612414
0.00626382
0.00608787
0.00560699
0.00204813
0.00206523
0.00206332
0.00204557
0.00189453
0.00189475
0.00189488
0.00189491
0.0102412
0.0099627
0.0100987
0.0106134
0.0119489
0.011615
0.011918
0.0128116
0.0114422
0.0112612
0.0116334
0.0125285
0.0110921
0.0110309
0.0114278
0.0122582
0.0112102
0.0112526
0.0116427
0.0123696
0.0114061
0.0115076
0.0118461
0.0124245
0.0113555
0.0115325
0.0118024
0.0121733
0.00801827
0.00820267
0.00832572
0.00836696
0.0019569
0.00196735
0.00196833
0.00196033
0.00187261
0.00187265
0.00187268
0.0018727
0.0144918
0.0144319
0.0144601
0.0145694
0.0238433
0.0235199
0.0237077
0.0243348
0.022248
0.021956
0.0223087
0.0232355
0.0203837
0.0202041
0.0206839
0.0217914
0.0193336
0.0193031
0.0198738
0.021072
0.0185203
0.0185949
0.0191875
0.0203788
0.0173321
0.0175438
0.0180985
0.0191106
0.0108805
0.0111153
0.0113566
0.0116701
0.00189366
0.00190015
0.00190161
0.00189821
0.00185457
0.00185455
0.00185454
0.00185453
0.0140875
0.0140139
0.0140044
0.0140593
0.0304065
0.0302997
0.0303256
0.0304727
0.0318005
0.0315616
0.0316521
0.0320289
0.0304352
0.0301477
0.030368
0.0310264
0.0290281
0.0288098
0.0291986
0.0301279
0.0274515
0.0273232
0.0278375
0.0289655
0.0247762
0.0248406
0.0253973
0.0264742
0.0131742
0.0134059
0.0135813
0.013742
0.00184572
0.00184965
0.00185092
0.00184957
0.00183727
0.00183723
0.00183721
0.0018372
0.0137857
0.013695
0.0136773
0.0137317
0.0299186
0.0299216
0.0299359
0.0299617
0.0336786
0.0336819
0.0337143
0.0337732
0.0348278
0.0347813
0.0348422
0.0349982
0.0353489
0.0352636
0.0353996
0.0357267
0.0347101
0.034596
0.0348277
0.0353618
0.0311001
0.0311309
0.0314423
0.0320073
0.0133164
0.0135932
0.0136541
0.0135465
0.00180737
0.00180976
0.00181071
0.0018102
0.00181934
0.00181929
0.00181926
0.00181925
0.0138651
0.0137679
0.0137478
0.0138033
0.028627
0.0286202
0.028623
0.0286359
0.0317617
0.0317877
0.031805
0.0318139
0.0333192
0.0333643
0.0333969
0.0334184
0.0350545
0.0351272
0.0351882
0.0352393
0.0359202
0.035984
0.0360695
0.0361775
0.032622
0.0327792
0.0329052
0.0330036
0.0123928
0.0126488
0.012689
0.0125502
0.00177453
0.00177605
0.00177669
0.00177645
0.00180028
0.00180022
0.00180019
0.00180018
0.0141242
0.0140238
0.0140027
0.0140594
0.0280689
0.0280561
0.0280547
0.0280649
0.0303428
0.0303507
0.0303557
0.0303579
0.0312818
0.0313029
0.0313155
0.0313201
0.032559
0.0326155
0.0326465
0.0326536
0.0334939
0.0335718
0.0336149
0.033628
0.0307736
0.0309404
0.0310082
0.030985
0.0119578
0.012182
0.0122235
0.0121018
0.00174444
0.00174547
0.00174588
0.0017457
0.00177984
0.00177977
0.00177974
0.00177974
0.0144823
0.014379
0.0143571
0.0144153
0.0279215
0.027908
0.0279057
0.027915
0.029675
0.029676
0.0296769
0.0296777
0.0301798
0.0301849
0.030188
0.0301894
0.030882
0.0309045
0.0309165
0.0309183
0.0314142
0.0314468
0.0314644
0.0314686
0.0290411
0.0291505
0.0291899
0.029161
0.0120329
0.0122519
0.0122934
0.012171
0.00171557
0.00171632
0.00171657
0.00171639
0.00175787
0.0017578
0.00175776
0.00175777
0.0149174
0.0148109
0.0147883
0.0148479
0.0279475
0.0279345
0.0279321
0.0279408
0.0293782
0.0293777
0.0293777
0.0293782
0.0296636
0.0296643
0.0296648
0.0296652
0.0300325
0.0300413
0.0300458
0.030046
0.0303001
0.0303103
0.0303163
0.0303183
0.0281842
0.0282584
0.0282825
0.0282561
0.0123981
0.0126286
0.0126712
0.0125395
0.00168706
0.00168764
0.0016878
0.00168761
0.00173426
0.00173418
0.00173414
0.00173415
0.0154292
0.015319
0.0152954
0.0153569
0.0280481
0.0280358
0.0280335
0.0280415
0.029246
0.0292452
0.0292451
0.0292456
0.0294218
0.0294217
0.0294217
0.0294217
0.0296156
0.0296198
0.0296218
0.0296216
0.0297544
0.0297578
0.0297598
0.0297606
0.0278878
0.0279462
0.0279635
0.0279389
0.0129396
0.0131891
0.0132345
0.0130906
0.00165833
0.00165881
0.00165891
0.00165871
0.0017089
0.00170881
0.00170877
0.00170879
0.016028
0.0159133
0.0158886
0.0159522
0.0281833
0.0281717
0.0281695
0.0281769
0.0291882
0.0291875
0.0291874
0.0291879
0.0293065
0.0293064
0.0293063
0.0293063
0.0294085
0.029411
0.0294121
0.0294118
0.0294905
0.0294922
0.0294931
0.0294933
0.0278813
0.0279318
0.0279459
0.0279232
0.0136132
0.0138858
0.013935
0.0137775
0.00162897
0.00162938
0.00162944
0.00162924
0.00168171
0.00168161
0.00168158
0.00168159
0.0167313
0.0166113
0.0165852
0.0166513
0.0283355
0.0283248
0.0283226
0.0283293
0.0291651
0.0291645
0.0291644
0.0291649
0.0292505
0.0292505
0.0292504
0.0292503
0.0293041
0.0293058
0.0293065
0.0293062
0.0293639
0.0293655
0.0293661
0.0293659
0.0280204
0.0280655
0.0280777
0.0280569
0.014411
0.0147094
0.014763
0.0145905
0.00159862
0.00159898
0.00159903
0.00159883
0.00165261
0.00165251
0.00165247
0.00165249
0.0175651
0.0174385
0.0174106
0.0174798
0.028496
0.0284861
0.028484
0.02849
0.0291583
0.0291578
0.0291578
0.0291582
0.0292223
0.0292223
0.0292223
0.0292222
0.0292505
0.0292517
0.0292522
0.0292519
0.0293033
0.0293049
0.0293055
0.029305
0.0282295
0.0282701
0.0282809
0.0282618
0.0153476
0.0156748
0.0157331
0.0155439
0.00156702
0.00156734
0.00156737
0.00156718
0.00162157
0.00162146
0.00162142
0.00162145
0.0185667
0.0184317
0.0184015
0.0184744
0.0286585
0.0286496
0.0286477
0.0286529
0.0291589
0.0291586
0.0291586
0.0291589
0.0292068
0.0292068
0.0292067
0.0292067
0.0292213
0.0292222
0.0292225
0.0292222
0.0292719
0.0292736
0.0292742
0.0292735
0.0284667
0.0285029
0.0285122
0.0284948
0.0164564
0.0168156
0.0168787
0.0166707
0.00153398
0.00153426
0.00153428
0.0015341
0.00158864
0.00158852
0.00158848
0.00158852
0.0197907
0.0196446
0.0196112
0.0196888
0.0288169
0.0288091
0.0288074
0.0288119
0.0291622
0.029162
0.029162
0.0291623
0.0291964
0.0291964
0.0291964
0.0291964
0.0292032
0.0292038
0.029204
0.0292037
0.0292504
0.029252
0.0292525
0.0292517
0.0287038
0.0287357
0.0287434
0.0287273
0.0177918
0.0181852
0.0182525
0.0180244
0.00149941
0.00149965
0.00149966
0.00149951
0.00155406
0.00155393
0.00155389
0.00155394
0.0213173
0.0211557
0.0211179
0.021202
0.0289644
0.0289584
0.0289569
0.0289603
0.0291652
0.0291651
0.0291652
0.0291652
0.0291877
0.0291878
0.0291878
0.0291878
0.0291897
0.0291901
0.0291901
0.0291899
0.0292282
0.0292296
0.02923
0.0292293
0.0289161
0.0289434
0.0289494
0.0289347
0.0194331
0.0198563
0.0199264
0.0196802
0.00146341
0.0014636
0.00146361
0.0014635
0.00151805
0.00151793
0.0015179
0.00151795
0.0232721
0.0230878
0.0230444
0.0231382
0.0290882
0.0290844
0.0290834
0.0290856
0.0291661
0.0291661
0.0291661
0.0291661
0.0291799
0.02918
0.0291801
0.0291801
0.029179
0.0291792
0.0291793
0.0291792
0.0292026
0.0292037
0.0292039
0.0292034
0.0290788
0.0291004
0.0291045
0.0290919
0.021522
0.0219745
0.0220415
0.0217738
0.00142609
0.00142625
0.00142626
0.00142616
0.00147978
0.00147968
0.00147967
0.00147973
0.0258488
0.02564
0.0255944
0.0257016
0.0291716
0.02917
0.0291695
0.0291704
0.0291652
0.0291651
0.0291651
0.0291651
0.0291744
0.0291745
0.0291745
0.0291746
0.029173
0.0291731
0.0291731
0.0291731
0.0291805
0.0291809
0.029181
0.0291809
0.0291756
0.0291879
0.0291898
0.0291821
0.0244722
0.0248971
0.0249467
0.0246871
0.00138668
0.00138681
0.00138681
0.00138671
0.00215542
0.00203888
0.00197448
0.00194195
0.00192284
0.00191046
0.00190228
0.0018971
0.00189377
0.00189148
0.00174787
0.0015842
0.00476749
0.00942534
0.0139344
0.0171204
0.0186292
0.0187782
0.0181447
0.017203
0.00236447
0.00257643
0.00732796
0.0155547
0.0249567
0.0330753
0.0390575
0.0428575
0.0447307
0.0451146
0.00276937
0.00360078
0.00829163
0.0178416
0.0291655
0.0385156
0.0449883
0.0487159
0.0501503
0.0499387
0.00307786
0.00394338
0.00871798
0.0193455
0.0320823
0.0419622
0.0481451
0.050996
0.051309
0.0500946
0.00338946
0.00407171
0.00893825
0.0204166
0.0342661
0.0443109
0.049888
0.0516764
0.0508992
0.0488575
0.0036313
0.00408429
0.00896732
0.0211682
0.035899
0.0457601
0.0504385
0.0510663
0.0493388