/*--------------------------------*- C++ -*----------------------------------*\
| =========                 |                                                 |
| \\      /  F ield         | foam-extend: Open Source CFD                    |
|  \\    /   O peration     | Version:     4.0                                |
|   \\  /    A nd           | Web:         http://www.foam-extend.org         |
|    \\/     M anipulation  |                                                 |
\*---------------------------------------------------------------------------*/
FoamFile
{
    version     2.0;
    format      ascii;
    class       volScalarField;
    location    "1550";
    object      divFlux;
}
// * * * * * * * * * * * * * * * * * * * * * * * * * * * * * * * * * * * * * //

dimensions      [1 -3 -1 0 0 0 0];

internalField   nonuniform List<scalar> 
34480
(
1.20076e-05
8.14873e-06
8.76019e-06
8.05843e-06
7.44655e-06
6.99367e-06
6.64403e-06
0.00209602
0.0605597
5.88988e-06
2.053e-05
2.32304e-07
3.57476e-06
3.4798e-06
3.20775e-06
3.11147e-06
3.08736e-06
3.11566e-06
0.0312499
2.98845e-06
6.56749e-06
3.70312e-07
1.68427e-06
1.21018e-06
1.17009e-06
1.21398e-06
1.23996e-06
1.31676e-06
0.00913435
1.25059e-06
2.38701e-06
3.6854e-07
9.06611e-07
3.71251e-07
4.83203e-07
4.77781e-07
5.07792e-07
5.44982e-07
0.000643671
5.17835e-07
1.76043e-06
6.16139e-07
6.54954e-07
2.80807e-08
2.30929e-07
1.95321e-07
2.10769e-07
2.28704e-07
2.24711e-07
2.17773e-07
1.06858e-06
5.10141e-07
4.32305e-07
5.75605e-08
1.29783e-07
7.44564e-08
9.82824e-08
1.06644e-07
8.7744e-08
1.01318e-07
7.77764e-07
4.11305e-07
3.22415e-07
9.0264e-08
8.36966e-08
2.82552e-08
4.97903e-08
4.12374e-08
4.50047e-08
5.1674e-08
2.4542e-08
4.39865e-09
2.65752e-08
1.69073e-08
2.43759e-08
1.50746e-08
2.52923e-08
2.31388e-08
1.98856e-08
2.36428e-08
8.33547e-08
3.69887e-08
3.99878e-08
1.72447e-08
2.63253e-08
7.28944e-09
1.48704e-08
8.70567e-09
1.26211e-08
1.71614e-08
1.83478e-07
6.74307e-08
4.80721e-08
4.35283e-09
1.18367e-08
7.94201e-09
5.88014e-09
1.02712e-08
1.03475e-08
6.03288e-09
2.82373e-05
1.04112e-05
1.04535e-05
9.97162e-06
9.48734e-06
9.11091e-06
8.84497e-06
8.70693e-06
8.72489e-06
0.00515398
8.3196e-06
3.55883e-06
5.09226e-06
4.99866e-06
4.77929e-06
4.6973e-06
4.69911e-06
4.76343e-06
4.94382e-06
0.00588897
3.14491e-06
1.10194e-07
2.60802e-06
2.0441e-06
1.92445e-06
1.99461e-06
2.13986e-06
2.20895e-06
2.38372e-06
0.000266819
4.46129e-07
1.62529e-06
2.05e-06
7.92875e-07
8.83106e-07
9.45508e-07
1.00908e-06
1.03737e-06
1.12153e-06
0.00123832
1.00932e-06
3.57161e-06
2.47229e-06
2.62265e-08
4.64349e-07
4.34411e-07
4.96174e-07
4.87351e-07
5.27694e-07
5.46417e-07
9.50691e-06
5.02619e-06
2.66029e-06
5.62896e-07
3.54073e-07
2.08291e-07
2.50034e-07
2.12071e-07
2.69681e-07
2.6056e-07
7.82415e-06
5.97654e-06
3.33526e-06
1.03123e-06
3.64994e-07
8.9592e-08
1.0876e-07
1.2258e-07
1.37677e-07
1.29105e-07
1.19063e-05
3.58916e-06
1.75599e-06
6.68106e-07
3.00978e-07
1.19267e-08
7.27527e-08
5.03476e-08
8.03346e-08
6.51494e-08
9.77667e-06
1.27824e-07
9.89217e-07
4.95576e-07
2.24709e-07
1.3553e-09
3.17141e-08
2.53248e-08
8.17829e-08
4.19418e-08
1.66728e-06
6.41254e-06
4.04044e-06
1.83078e-06
5.76988e-07
2.05735e-07
2.16526e-08
6.2828e-09
3.06331e-08
3.7191e-08
3.08522e-05
9.45849e-06
8.87752e-06
8.21488e-06
7.71119e-06
7.37296e-06
7.19236e-06
7.14428e-06
0.00152116
0.00504899
1.36339e-05
3.54398e-06
3.69979e-06
3.59402e-06
3.44142e-06
3.34455e-06
3.3098e-06
3.38138e-06
0.000952994
0.00250904
5.39793e-06
4.51299e-07
1.34035e-06
1.25102e-06
1.1529e-06
1.17883e-06
1.21859e-06
1.32123e-06
0.000240956
0.00010159
3.74748e-06
1.65002e-06
9.64344e-07
4.09015e-07
4.59865e-07
4.85109e-07
5.08571e-07
5.74469e-07
6.54193e-07
8.11739e-07
3.64962e-06
2.32633e-06
1.24841e-06
6.6751e-09
2.39625e-07
2.31988e-07
2.21636e-07
2.54163e-07
2.92092e-07
3.53586e-07
4.24105e-06
2.22175e-06
1.06989e-06
2.0883e-07
1.85863e-07
8.79077e-08
9.09765e-08
1.43097e-07
1.22704e-07
1.54807e-07
3.09375e-06
2.07102e-06
1.10795e-06
3.46835e-07
1.5804e-07
3.13705e-08
4.98495e-08
5.75052e-08
5.02895e-08
8.48911e-08
2.16777e-06
6.22877e-07
1.85002e-07
6.51388e-08
8.26807e-08
5.70212e-09
2.8669e-08
4.12216e-08
2.25709e-08
4.18675e-08
1.3272e-06
4.24203e-07
5.88571e-08
5.42133e-08
5.55813e-08
1.65592e-09
3.45223e-08
1.23834e-08
1.76391e-09
2.87288e-08
1.16985e-06
6.79503e-07
4.77981e-07
1.905e-07
9.43094e-08
4.22379e-09
9.37154e-09
1.34303e-08
2.27689e-08
2.20099e-08
2.32378e-05
8.34047e-06
8.0353e-06
7.58245e-06
7.20151e-06
6.91555e-06
6.77741e-06
6.79526e-06
0.000250965
0.0025837
1.08401e-05
4.01681e-06
3.76023e-06
3.48764e-06
3.28292e-06
3.16346e-06
3.0984e-06
3.1186e-06
0.000788278
0.00237495
7.79848e-06
6.65888e-07
1.52655e-06
1.52198e-06
1.35452e-06
1.28698e-06
1.23294e-06
1.24917e-06
0.000177696
0.000739245
5.6019e-06
1.17831e-06
8.73052e-07
5.70521e-07
5.13125e-07
4.97633e-07
4.84504e-07
5.13677e-07
0.000351629
0.00336306
5.19558e-06
2.48132e-06
1.01522e-06
1.12223e-07
1.87161e-07
2.17294e-07
2.07934e-07
2.15244e-07
0.000435161
0.0051854
4.43024e-06
2.23452e-06
9.43393e-07
1.37308e-07
1.32338e-07
1.02843e-07
6.84238e-08
1.14116e-07
0.000217183
0.00572475
3.63872e-06
2.24498e-06
1.06312e-06
2.84923e-07
1.05404e-07
4.3806e-08
4.18427e-08
5.41951e-08
4.99822e-08
0.00378189
1.36801e-06
4.18807e-07
1.63886e-07
7.17093e-08
7.5685e-08
1.016e-08
1.13012e-08
3.68486e-08
2.94494e-08
0.00207368
6.16022e-07
6.22788e-08
1.71308e-07
9.63129e-08
6.48891e-08
7.83086e-09
2.36934e-08
3.15242e-08
2.84454e-09
1.82072e-08
1.08964e-06
5.99418e-07
3.40877e-07
1.2878e-07
5.99418e-08
7.4237e-09
5.15364e-09
8.89617e-09
1.93262e-08
2.27217e-08
2.4053e-05
7.81727e-06
7.14724e-06
6.71854e-06
6.42454e-06
6.17216e-06
6.02749e-06
6.04714e-06
0.000209468
0.0011454
7.7668e-06
3.66055e-06
3.54988e-06
3.32124e-06
3.11163e-06
2.98202e-06
2.90352e-06
2.89249e-06
0.000543617
0.00109962
5.50841e-06
9.2138e-07
1.17842e-06
1.2792e-06
1.22951e-06
1.21096e-06
1.17014e-06
1.16832e-06
2.20168e-05
0.00109206
5.65109e-06
5.32886e-07
7.53301e-07
6.61901e-07
5.94741e-07
5.49882e-07
5.17172e-07
5.09501e-07
0.000594859
0.00335038
6.19488e-06
2.1342e-06
8.0709e-07
2.79883e-07
2.37888e-07
2.36275e-07
2.29284e-07
2.20484e-07
0.000883268
0.00547528
4.72298e-06
2.05932e-06
8.09852e-07
1.05659e-08
1.22085e-07
1.1815e-07
8.77354e-08
1.01809e-07
0.00120571
0.00720543
4.29858e-06
2.33649e-06
9.91473e-07
1.73123e-07
7.49071e-08
5.29673e-08
4.66553e-08
5.03056e-08
0.00027645
0.00714601
9.82307e-07
3.08096e-07
1.84283e-07
5.66366e-08
6.11538e-08
2.47421e-08
1.41335e-08
2.87461e-08
0.000519996
0.00754774
4.92211e-08
2.10556e-07
2.8183e-07
1.17598e-07
6.84119e-08
1.86663e-10
1.24131e-08
3.73637e-08
4.23102e-09
0.00552788
1.06064e-06
5.26897e-07
2.69181e-07
8.62952e-08
3.91836e-08
1.60271e-08
3.36511e-09
9.89572e-09
1.5856e-08
0.00777935
2.19838e-05
8.00142e-06
6.61244e-06
6.06389e-06
5.871e-06
5.66151e-06
5.48094e-06
5.37457e-06
5.37736e-06
0.000234063
7.5413e-06
3.12043e-06
3.07911e-06
2.96168e-06
2.81979e-06
2.71262e-06
2.63845e-06
2.62358e-06
0.000139403
0.000170862
3.28428e-06
1.22762e-06
1.06254e-06
1.05245e-06
1.01708e-06
1.02166e-06
1.0068e-06
1.01584e-06
0.000210102
0.00119712
3.64344e-06
2.87382e-07
3.90272e-07
4.39133e-07
4.58565e-07
4.55464e-07
4.5032e-07
4.50532e-07
0.000771439
0.00293243
5.80825e-06
1.77088e-06
4.48525e-07
2.53008e-07
2.18013e-07
2.12469e-07
2.09151e-07
2.06788e-07
0.00117235
0.004798
4.58107e-06
1.84626e-06
5.74711e-07
4.47378e-08
1.092e-07
1.06098e-07
9.34124e-08
9.66336e-08
0.00178527
0.00678477
4.77569e-06
2.39026e-06
8.27788e-07
8.473e-08
5.28104e-08
5.05835e-08
4.75435e-08
4.74375e-08
0.00130713
0.00749376
7.45504e-07
2.89726e-07
1.7542e-07
3.93851e-08
4.88974e-08
2.58326e-08
2.08379e-08
2.55781e-08
0.00204058
0.00899581
4.20066e-07
4.70088e-07
3.58365e-07
1.25837e-07
5.93467e-08
9.89111e-09
6.16025e-09
3.28258e-08
0.000727362
0.00880969
1.02281e-06
4.87118e-07
2.22456e-07
6.04722e-08
2.45229e-08
1.90351e-08
4.32134e-09
9.99475e-09
0.00187127
0.0108265
1.45803e-05
8.80634e-06
6.02499e-06
5.02141e-06
4.95489e-06
4.93919e-06
4.88339e-06
4.87849e-06
4.98548e-06
1.25333e-05
8.23801e-06
2.93332e-06
2.71513e-06
2.59291e-06
2.49047e-06
2.40685e-06
2.34012e-06
2.30829e-06
1.18837e-05
0.000133933
2.34829e-06
1.55067e-06
1.30627e-06
1.18498e-06
1.07774e-06
1.02776e-06
9.78429e-07
9.55212e-07
0.00026179
0.00103983
2.4699e-06
3.40112e-07
4.72189e-07
4.38055e-07
4.31918e-07
4.22873e-07
4.14124e-07
4.07937e-07
0.000758888
0.00233828
4.90729e-06
1.19073e-06
2.46106e-07
2.09306e-07
1.9173e-07
1.87759e-07
1.82858e-07
1.84337e-07
0.0011719
0.00379658
4.15903e-06
1.4864e-06
3.62996e-07
5.57858e-08
9.52684e-08
8.976e-08
8.49171e-08
8.66547e-08
0.00192721
0.0056198
5.11814e-06
2.32193e-06
6.28172e-07
2.49744e-08
3.52928e-08
4.2588e-08
4.29166e-08
4.19307e-08
0.00169972
0.00646031
6.08032e-07
2.86463e-07
1.41812e-07
3.26212e-08
3.88319e-08
1.86618e-08
2.04363e-08
2.32164e-08
0.00267619
0.00831909
8.88864e-07
7.20204e-07
4.00472e-07
1.23193e-07
4.1862e-08
1.29592e-08
5.6999e-09
2.6725e-08
0.00171931
0.00865565
9.89482e-07
4.66693e-07
1.82305e-07
4.30562e-08
1.23722e-08
1.77943e-08
3.20396e-09
8.94643e-09
0.00267496
0.0102437
2.56088e-07
1.20513e-05
6.92975e-06
4.47109e-06
4.06443e-06
4.08255e-06
4.09254e-06
4.0549e-06
4.02417e-06
4.29416e-06
7.63789e-06
2.93886e-06
2.5346e-06
2.34076e-06
2.23732e-06
2.16793e-06
2.11109e-06
2.0849e-06
1.15039e-05
0.000134873
1.40143e-06
1.11854e-06
1.02825e-06
1.00207e-06
9.49393e-07
9.20497e-07
8.84425e-07
8.67076e-07
0.00019218
0.00070943
1.21019e-06
6.12725e-07
5.65917e-07
4.84741e-07
4.49136e-07
4.24873e-07
4.06567e-07
3.90849e-07
0.000580357
0.0016379
3.79139e-06
5.58284e-07
2.249e-07
2.26354e-07
2.05537e-07
1.95443e-07
1.82324e-07
1.79928e-07
0.000927821
0.00271022
3.50923e-06
9.91947e-07
2.58409e-07
7.92856e-08
1.01624e-07
9.17954e-08
8.55749e-08
8.48875e-08
0.00170218
0.00427044
5.33861e-06
2.08297e-06
4.61409e-07
3.4734e-08
3.82166e-08
4.26462e-08
4.33182e-08
4.0691e-08
0.0015802
0.0050059
5.62669e-07
2.12336e-07
1.24685e-07
1.8366e-08
4.20932e-08
1.87509e-08
2.02905e-08
2.26e-08
0.00266203
0.00685546
1.45508e-06
9.19872e-07
4.28256e-07
9.82034e-08
3.03433e-08
1.64214e-08
7.29839e-09
2.21201e-08
0.0018648
0.00697521
1.00027e-06
4.30647e-07
1.55616e-07
2.14453e-08
7.56083e-09
1.7367e-08
4.926e-09
9.76035e-09
0.00274468
0.00835542
3.83294e-05
1.6594e-05
9.26015e-06
4.68517e-06
3.27962e-06
3.07349e-06
3.18439e-06
3.31481e-06
3.32947e-06
3.31845e-06
5.50161e-06
2.70558e-06
2.1736e-06
1.92401e-06
1.82439e-06
1.77912e-06
1.75251e-06
1.75401e-06
1.77085e-06
5.18968e-05
1.8261e-06
9.79689e-07
8.42794e-07
8.22857e-07
7.90346e-07
7.72326e-07
7.50703e-07
7.50397e-07
0.000100546
0.000409703
1.21021e-07
4.26372e-07
4.16915e-07
3.79535e-07
3.63305e-07
3.54657e-07
3.46861e-07
3.39407e-07
0.000370304
0.0010209
2.3042e-06
2.32444e-07
1.57884e-07
1.8264e-07
1.76542e-07
1.72306e-07
1.62156e-07
1.60549e-07
0.000622739
0.00173919
2.40623e-06
6.04798e-07
1.65113e-07
6.37386e-08
8.72851e-08
8.38666e-08
7.97132e-08
0.000154542
0.00132251
0.0029751
5.16626e-06
1.81355e-06
2.85271e-07
5.81333e-08
3.6919e-08
3.89922e-08
4.06393e-08
3.91058e-08
0.00118756
0.00347188
3.60593e-07
1.29816e-07
9.55152e-08
1.51311e-08
4.11505e-08
1.98852e-08
1.98596e-08
0.000283674
0.00228373
0.00513959
2.00957e-06
1.10679e-06
4.21102e-07
6.78484e-08
2.04707e-08
1.68227e-08
9.82873e-09
1.87745e-08
0.0015985
0.00500242
9.72258e-07
3.98704e-07
1.18105e-07
2.25774e-09
5.15447e-09
1.61237e-08
6.36854e-09
0.000216398
0.00241463
0.00621195
9.81404e-05
2.12805e-05
1.36274e-05
7.48994e-06
4.51231e-06
3.19419e-06
2.72921e-06
2.72981e-06
2.98454e-06
3.45996e-06
4.79659e-06
2.92051e-06
2.20308e-06
1.81494e-06
1.62114e-06
1.51868e-06
1.45633e-06
1.42384e-06
1.40311e-06
1.238e-06
1.91668e-06
1.00221e-06
7.93256e-07
7.48016e-07
7.1083e-07
6.81176e-07
6.53044e-07
6.52046e-07
3.23501e-05
0.000202083
2.77435e-07
4.05024e-07
3.79798e-07
3.47483e-07
3.22475e-07
3.10436e-07
3.02555e-07
2.95209e-07
0.000194136
0.000575215
1.28492e-06
5.70261e-09
1.39442e-07
1.54547e-07
1.51798e-07
1.47114e-07
1.37813e-07
1.34826e-07
0.000368856
0.00102707
1.33588e-06
2.68765e-07
1.34338e-07
5.32243e-08
6.9649e-08
7.12232e-08
6.88768e-08
0.000230753
0.000962034
0.00195175
4.79973e-06
1.49358e-06
1.41905e-07
5.9587e-08
3.3714e-08
3.07835e-08
3.44797e-08
3.44269e-08
0.000757741
0.00217336
1.42619e-08
2.68735e-08
6.63641e-08
2.68973e-08
3.35266e-08
1.78682e-08
1.62524e-08
0.000523162
0.00181537
0.00360628
2.56202e-06
1.26844e-06
3.73715e-07
4.22511e-08
8.51071e-09
1.22908e-08
1.00444e-08
1.46237e-08
0.00117369
0.00329818
9.1451e-07
3.51661e-07
6.55206e-08
8.49451e-09
1.34645e-09
1.0039e-08
5.18779e-09
0.000433736
0.00192584
0.00432197
0.000178924
1.49428e-05
1.04562e-05
7.0002e-06
5.10057e-06
3.71702e-06
2.61086e-06
1.81028e-06
1.32285e-06
1.14309e-06
2.5605e-06
2.61569e-06
1.91732e-06
1.59797e-06
1.42954e-06
1.31148e-06
1.2311e-06
1.19844e-06
1.21238e-06
1.20365e-06
1.32665e-06
9.42049e-07
6.70178e-07
6.17143e-07
5.91873e-07
5.63555e-07
5.33514e-07
5.12508e-07
7.0033e-07
8.37724e-05
4.62327e-07
3.44367e-07
3.26382e-07
3.10626e-07
2.88113e-07
2.73553e-07
2.65454e-07
2.566e-07
6.57214e-05
0.000284156
6.74528e-07
1.18744e-07
1.34743e-07
1.39634e-07
1.40012e-07
1.3348e-07
1.24266e-07
1.17608e-07
0.000190266
0.000563568
3.8719e-07
4.00914e-08
1.40071e-07
5.82872e-08
6.25945e-08
6.39475e-08
6.25945e-08
0.000232616
0.000676401
0.00124017
4.33252e-06
1.14799e-06
5.2179e-08
6.16036e-08
3.8312e-08
2.95746e-08
3.05318e-08
3.10718e-08
0.000394088
0.00123175
3.98118e-07
1.18441e-07
7.39317e-08
2.97538e-08
2.86273e-08
1.89302e-08
1.44245e-05
0.000582179
0.00138999
0.00244432
3.16907e-06
1.35297e-06
3.19928e-07
9.37776e-09
5.06038e-09
1.04019e-08
9.21711e-09
1.26309e-08
0.000732397
0.00198846
8.24941e-07
2.47856e-07
1.85731e-08
2.15367e-08
5.30135e-09
8.61469e-09
6.44261e-09
0.00046334
0.00142726
0.00285326
0.000123634
9.09897e-06
3.68683e-06
2.38354e-06
3.87487e-06
5.32941e-06
5.86702e-06
5.58779e-06
4.83223e-06
3.88893e-06
2.50161e-06
2.28189e-06
1.46404e-06
1.26709e-06
1.28018e-06
1.26586e-06
1.19866e-06
1.10725e-06
1.01333e-06
9.50608e-07
4.38683e-07
9.00486e-07
5.53676e-07
4.90676e-07
4.90655e-07
4.80798e-07
4.60182e-07
4.34637e-07
1.2705e-06
3.1865e-05
4.98261e-07
2.59575e-07
2.37107e-07
2.3786e-07
2.28979e-07
2.19225e-07
2.13424e-07
2.08581e-07
1.96859e-07
0.000105886
3.23404e-07
1.46119e-07
1.09538e-07
1.07572e-07
1.13351e-07
1.12559e-07
1.05959e-07
1.01647e-07
8.12614e-05
0.000284354
3.68317e-07
4.81024e-08
1.3173e-07
5.44425e-08
4.83078e-08
5.15933e-08
9.83703e-06
0.000206352
0.000468051
0.000773771
3.72787e-06
8.56546e-07
1.99643e-08
4.49709e-08
3.70537e-08
2.471e-08
2.44591e-08
2.66266e-08
0.000120789
0.000602645
9.81826e-07
2.25861e-07
9.50344e-08
3.25885e-08
2.08016e-08
1.88097e-08
0.000191357
0.000557987
0.00104908
0.00163442
3.68576e-06
1.40248e-06
2.40013e-07
1.53823e-08
4.98432e-09
8.79257e-09
9.48328e-09
1.02487e-08
0.000349661
0.0010566
5.76493e-07
1.16911e-07
3.27528e-08
1.99871e-08
8.69301e-09
6.98178e-09
6.07484e-09
0.000405492
0.000997578
0.00180302
5.35867e-05
1.86368e-05
4.35262e-07
1.34973e-05
1.60519e-05
1.33108e-05
9.01441e-06
4.92935e-06
1.58707e-06
1.12679e-06
2.178e-06
2.64937e-06
9.17692e-07
2.3373e-07
2.5449e-07
4.66959e-07
6.48073e-07
7.35886e-07
6.7697e-07
4.00628e-07
4.3398e-07
9.54621e-07
4.77568e-07
3.37144e-07
3.30348e-07
3.40656e-07
3.42775e-07
3.48445e-07
2.2635e-05
2.21944e-05
5.46016e-07
2.5216e-07
1.91979e-07
1.84741e-07
1.78887e-07
1.72158e-07
1.65015e-07
1.6441e-07
1.55056e-07
4.17555e-06
2.1231e-07
1.56481e-07
9.76304e-08
8.35858e-08
8.84673e-08
8.96945e-08
8.57948e-08
8.4213e-08
2.78139e-05
0.000131994
7.46764e-07
6.73152e-08
1.26159e-07
5.8701e-08
4.07089e-08
4.07327e-08
5.96589e-05
0.000174447
0.000324565
0.000480151
3.17545e-06
5.92567e-07
6.13629e-08
2.57287e-08
3.39161e-08
2.24411e-08
1.85595e-08
2.05745e-08
2.19532e-08
0.000209063
1.78488e-05
2.82185e-07
1.25859e-07
3.27962e-08
8.72401e-09
9.99031e-05
0.00028318
0.000504053
0.000795848
0.00109726
4.17327e-06
1.39454e-06
1.46974e-07
2.82528e-08
3.31467e-09
5.27571e-09
6.99379e-09
8.34743e-09
5.61274e-05
0.000436129
1.95247e-07
5.28945e-08
6.12144e-08
8.04951e-09
7.98588e-09
5.04287e-09
2.98713e-05
0.000319644
0.000664573
0.00109707
0.000125515
0.0001272
0.000101246
6.15873e-05
3.22378e-05
1.39644e-05
3.69658e-06
1.65893e-06
4.4993e-06
6.39873e-06
9.18032e-06
5.28591e-06
2.83192e-06
9.50148e-07
1.13666e-07
3.91088e-08
1.56103e-07
5.33549e-07
1.04054e-06
1.57874e-06
4.31804e-05
3.4444e-06
1.25388e-06
3.35027e-06
8.61605e-06
1.57679e-05
2.55373e-05
3.182e-05
5.16581e-05
3.40676e-05
3.3647e-07
2.41619e-07
1.67128e-07
1.43185e-07
1.35154e-07
1.31664e-07
1.23383e-07
1.20321e-07
1.25645e-07
9.94516e-08
1.63626e-07
1.37459e-07
8.6324e-08
6.46733e-08
6.50029e-08
6.71832e-08
6.57635e-08
6.38113e-08
1.291e-05
6.12616e-05
1.35798e-06
2.18504e-08
1.01199e-07
6.05821e-08
3.82437e-08
2.73714e-05
8.14967e-05
0.000144726
0.000228552
0.000300851
2.66355e-06
3.61082e-07
7.8617e-08
6.07325e-09
2.93606e-08
2.1493e-08
1.67409e-08
1.67606e-08
2.09606e-08
2.04007e-08
0.000230877
8.5483e-05
6.14106e-05
8.06542e-05
0.000127807
0.000204975
0.000321054
0.000445467
0.000616534
0.000753805
4.61386e-06
1.31871e-06
6.13706e-08
3.70095e-08
7.1954e-09
4.64636e-09
5.90475e-09
6.88887e-09
8.63125e-09
5.29538e-05
3.64013e-07
2.21491e-07
5.29881e-08
1.13873e-09
7.67536e-09
6.01902e-09
7.08275e-05
0.000232388
0.00042205
0.000641808
0.00231719
3.81873e-06
2.94605e-05
4.32691e-05
4.18378e-05
3.38707e-05
2.49017e-05
1.72712e-05
1.16018e-05
7.69113e-06
1.12471e-05
9.54e-06
7.4865e-06
4.96554e-06
2.74781e-06
1.18949e-06
1.74732e-07
5.22835e-07
1.08388e-06
1.64841e-06
0.000149288
7.5225e-05
1.51461e-05
1.65018e-05
3.50293e-05
4.69856e-05
5.63776e-05
6.05615e-05
7.66591e-05
5.23653e-05
1.26762e-07
2.28879e-07
1.59039e-07
1.22922e-07
1.06466e-07
9.96053e-08
9.21126e-08
7.89144e-08
6.98818e-08
6.01449e-08
1.5717e-07
1.06081e-07
7.66675e-08
5.41363e-08
4.77493e-08
4.78907e-08
4.57224e-08
1.69213e-06
1.82704e-05
3.67777e-05
1.70386e-05
6.20896e-06
9.51953e-06
1.65913e-05
3.02515e-05
5.20599e-05
8.29396e-05
0.00011597
0.000161292
0.000190712
2.16521e-06
1.58397e-07
7.59997e-08
1.60945e-08
1.92657e-08
1.87158e-08
1.14018e-08
8.1939e-09
7.02072e-09
1.29762e-08
0.0004806
0.000198401
0.000143068
0.000160569
0.000199684
0.000252676
0.000323981
0.000390384
0.000490734
0.000538802
4.93491e-06
1.19631e-06
2.58565e-08
3.09708e-08
9.85367e-09
4.94933e-09
3.01459e-09
2.00973e-09
2.50466e-09
3.95755e-09
1.01482e-06
3.25157e-07
2.0416e-08
9.56871e-09
1.42981e-09
2.5709e-09
6.75391e-05
0.000147476
0.000244766
0.000348244
0.000332182
0.00023842
0.000188637
0.000108983
5.49013e-05
2.3269e-05
5.94114e-06
3.15823e-06
7.92089e-06
1.07173e-05
2.20391e-05
4.48725e-06
1.07209e-06
3.69829e-06
3.86575e-06
3.08283e-06
2.07273e-06
1.0622e-06
1.76375e-08
1.24156e-06
0.000275979
0.00016998
4.58673e-05
1.14446e-05
4.17127e-05
5.77133e-05
6.70754e-05
7.11053e-05
8.39751e-05
6.28294e-05
1.20365e-07
1.38428e-07
1.25303e-07
1.03345e-07
8.84429e-08
8.52732e-08
8.50049e-08
8.59251e-08
7.87295e-08
6.00182e-08
1.1337e-05
6.14353e-08
5.4446e-08
4.20889e-08
1.5622e-06
5.26716e-06
1.09028e-05
1.68372e-05
2.46652e-05
2.94959e-05
2.19505e-05
8.21886e-06
1.42257e-05
2.4025e-05
3.5517e-05
4.90862e-05
6.54414e-05
8.16805e-05
0.000104554
0.000114865
1.61819e-06
2.27838e-08
4.50564e-08
2.99581e-08
4.90781e-09
1.50813e-08
1.36669e-08
1.25933e-08
1.01564e-08
3.01378e-09
0.000767128
0.000293775
0.000181852
0.000185629
0.000215364
0.000252069
0.000295516
0.00033097
0.00039027
0.000396425
5.12652e-06
9.95951e-07
9.15474e-08
1.38869e-08
7.98914e-09
6.14871e-09
5.25638e-09
4.51742e-09
4.29434e-09
2.17642e-09
1.56304e-06
3.24491e-07
2.70058e-08
2.3261e-09
3.70642e-10
3.87257e-09
3.23668e-05
6.41371e-05
0.000109316
0.000150808
0.00620157
0.00020586
0.000186788
0.000138219
9.85878e-05
6.97493e-05
4.91278e-05
3.42195e-05
2.31466e-05
1.42913e-05
3.40855e-05
3.65132e-05
2.09936e-05
1.00852e-05
3.85103e-06
4.41865e-07
1.49061e-06
2.78933e-06
3.99233e-06
5.27262e-06
0.000450619
0.000323903
0.000118543
3.39295e-05
7.55034e-06
2.68744e-05
3.60872e-05
4.08311e-05
4.92344e-05
4.3859e-05
3.94215e-08
8.7091e-09
4.78228e-08
6.4041e-08
6.60252e-08
6.59183e-08
6.99936e-08
7.70155e-08
8.70554e-08
7.73944e-08
4.5093e-05
2.35107e-05
9.29358e-06
2.03246e-06
2.71282e-06
6.46157e-06
9.86096e-06
1.28135e-05
1.63272e-05
1.75174e-05
6.4703e-06
4.12742e-06
8.03566e-07
8.64409e-06
1.62105e-05
2.33824e-05
3.05948e-05
3.73313e-05
4.64141e-05
5.02945e-05
9.61535e-07
1.54079e-07
1.44795e-08
2.16876e-08
5.82983e-09
4.51495e-09
5.92488e-09
4.64169e-09
8.25365e-09
5.79918e-09
0.00105505
0.000342938
0.00015644
0.000138568
0.000157902
0.000183139
0.000209222
0.000229524
0.000262379
0.000258922
4.99143e-06
7.16918e-07
1.17419e-07
3.96624e-09
3.20151e-09
2.6312e-09
2.68305e-09
2.08681e-09
3.33113e-09
4.38134e-09
1.77224e-06
1.98194e-07
4.25831e-08
8.64969e-09
1.04557e-09
1.63964e-09
2.18619e-09
5.46447e-06
2.34073e-05
3.31832e-05
0.00611338
5.48124e-05
7.31468e-05
6.50306e-05
5.21546e-05
3.96986e-05
2.9058e-05
2.0377e-05
1.33919e-05
7.64595e-06
3.51851e-06
4.0622e-05
2.91536e-05
1.99649e-05
1.34798e-05
8.8523e-06
5.35603e-06
2.41247e-06
5.64526e-07
4.18497e-06
0.000613923
0.000528655
0.000245843
0.000142217
9.52312e-05
7.5827e-05
6.84618e-05
6.47037e-05
6.38771e-05
4.10564e-05
3.19495e-07
1.2499e-07
4.49217e-08
5.25762e-09
1.11448e-08
1.75622e-08
1.96277e-08
2.10305e-08
2.63544e-08
4.47192e-08
5.41502e-05
3.80153e-05
2.32419e-05
1.60724e-05
1.19656e-05
9.54892e-06
8.0902e-06
7.08203e-06
6.70136e-06
5.13939e-06
1.93981e-05
2.24388e-05
1.92832e-05
1.50122e-05
1.15702e-05
9.08617e-06
7.39377e-06
6.18798e-06
5.70759e-06
4.16637e-06
2.92279e-07
1.54651e-07
4.92773e-08
2.44472e-09
4.72744e-09
1.10454e-09
3.53453e-09
3.32835e-09
1.6789e-09
6.35759e-09
0.00110128
0.00025245
1.66052e-05
2.0448e-05
1.24504e-05
2.3088e-06
1.53504e-05
2.53398e-05
3.45091e-05
4.14683e-05
4.28692e-06
3.88104e-07
9.67699e-08
1.47727e-08
2.89189e-10
9.76013e-10
1.4098e-09
1.59054e-09
6.02477e-11
5.82405e-10
1.93743e-06
2.02087e-07
1.04269e-08
5.62212e-09
3.9653e-09
2.58849e-07
1.55301e-06
2.39291e-06
6.69954e-06
7.11834e-06
0.00472383
0.000989625
0.000777102
0.000583417
0.000453852
0.000361205
0.000291107
0.000242264
0.00017244
0.000100655
0.000107137
1.67368e-05
1.28097e-05
9.04835e-06
5.73403e-06
2.82549e-06
1.13808e-07
2.67541e-06
5.84582e-06
9.11601e-06
0.000489741
0.000593159
0.000339689
0.000258114
0.000224011
0.000211826
0.000209298
0.000210628
0.000220551
0.000184011
6.44699e-07
1.03627e-07
4.92258e-08
2.84327e-08
2.0752e-08
2.30111e-08
2.80733e-08
3.61646e-08
4.89588e-08
6.95536e-08
4.04025e-05
3.41273e-05
2.63331e-05
2.26891e-05
2.07892e-05
1.99981e-05
1.99749e-05
2.03999e-05
2.22596e-05
2.18235e-05
2.75963e-05
2.55245e-05
2.39115e-05
2.24816e-05
2.16669e-05
2.14595e-05
2.18761e-05
2.27686e-05
2.56662e-05
2.69437e-05
1.17488e-07
8.9662e-08
4.51527e-08
1.04599e-08
1.01313e-09
6.16093e-10
1.21849e-09
2.32746e-09
1.30064e-09
1.73719e-09
0.000488521
4.29567e-05
0.000208294
0.000238544
0.000237992
0.000232853
0.000230052
0.000229869
0.000242337
0.000229481
2.83599e-06
7.12315e-08
2.34115e-08
4.46947e-09
1.45622e-10
6.16093e-10
3.47252e-10
6.49698e-10
1.61304e-09
2.16118e-09
0.000219779
0.00025699
0.000210434
0.00017563
0.000154046
0.000142009
0.000136346
0.000131296
0.000138484
0.000125911
0.000133603
0.00173831
0.0015694
0.0014446
0.00135127
0.00127992
0.00122469
0.00118305
0.00114103
0.00116536
5.53375e-06
7.84146e-06
5.06226e-06
2.87329e-06
1.22791e-06
9.10802e-08
1.27823e-06
2.48215e-06
3.80067e-06
4.79198e-06
0.000106529
0.00028308
0.000215175
0.000196897
0.000190032
0.00018839
0.00018966
0.000193639
0.000204375
0.000207865
2.53471e-07
2.35301e-08
3.656e-09
7.01608e-09
1.4204e-08
1.78027e-08
2.20028e-08
2.72816e-08
3.25031e-08
3.71614e-08
1.62497e-05
1.40986e-05
1.24077e-05
1.15677e-05
1.11412e-05
1.10195e-05
1.11944e-05
1.16777e-05
1.32832e-05
1.58058e-05
1.15836e-05
9.8039e-06
9.33908e-06
9.104e-06
8.98789e-06
8.97826e-06
9.13797e-06
9.53392e-06
1.12199e-05
1.40214e-05
1.97006e-07
4.81485e-08
2.50479e-08
8.75658e-09
2.92734e-09
1.34912e-09
1.65459e-10
3.691e-10
1.46367e-09
5.98197e-10
0.000174909
0.000196037
0.000218429
0.000222079
0.000221756
0.000221129
0.000221695
0.000223862
0.000236421
0.000241808
7.67453e-07
4.17581e-09
2.49924e-09
1.07259e-09
5.20674e-10
6.24809e-10
5.93568e-10
4.06126e-10
8.01838e-10
1.61409e-09
0.00134028
0.00123535
0.00116528
0.00112267
0.00109705
0.00108204
0.00107395
0.00106854
0.00107977
0.00103159
0.720002
0.420781
0.41404
0.574847
0.276954
0.153433
0.108919
0.0951629
0.370994
0.394392
0.499739
0.782204
0.607226
0.589524
0.693474
1.05168
0.807271
0.777192
0.888301
1.37457
0.887183
0.83156
1.00363
1.63592
0.906644
0.814212
1.06887
1.84526
0.859053
0.745218
1.06199
1.91461
0.733244
0.633987
0.972897
1.81181
0.59453
0.523297
0.874523
1.6639
0.0732428
0.00286618
1.70688e-05
0.0195627
0.0470276
0.00265303
1.29256e-05
0.00643882
0.0511953
0.00675099
7.22256e-06
0.0374418
0.118833
0.0162474
3.89452e-06
0.0568471
0.200689
0.0294952
2.00539e-06
0.0777715
0.266199
0.0415301
1.02414e-06
0.0979932
0.315764
0.0503165
5.5492e-07
0.123288
0.340576
0.0568266
3.4835e-07
0.141895
0.335229
0.0628632
0.00875889
0.149519
0.313626
0.0816861
0.0366336
0.145985
0.0436515
0.0270741
0.022634
0.0256284
0.0251246
0.0112277
0.00625228
0.00416647
0.0340423
0.0255122
0.0286024
0.0497344
0.0770359
0.0460946
0.047295
0.0785552
0.131009
0.0699273
0.0705653
0.118679
0.177676
0.0879621
0.0892147
0.153803
0.215932
0.100416
0.103845
0.186673
0.239289
0.105942
0.112094
0.209253
0.242336
0.0993376
0.109786
0.215111
0.232401
0.0919797
0.108303
0.209471
0.0055369
0.00311033
0.00235408
0.00276418
0.00373189
0.00139675
0.000435557
0.000258925
0.0100771
0.00746326
0.00760363
0.012623
0.0252972
0.016
0.0152705
0.0227799
0.0479867
0.0279751
0.0267722
0.0383135
0.0724225
0.0399737
0.0388593
0.0547273
0.0962241
0.0505531
0.0503016
0.0717401
0.11616
0.0590435
0.0603196
0.0873271
0.124814
0.0589641
0.0638649
0.0954919
0.124831
0.0587206
0.0697158
0.101356
0.00173748
0.00121049
0.000967532
0.00102989
0.000758451
0.00013148
0.000347163
0.000963442
0.00549794
0.00526791
0.00595777
0.00835388
0.012405
0.0102991
0.0103863
0.0134513
0.0229657
0.0174656
0.0168767
0.0211092
0.0354185
0.0251272
0.0239528
0.0293237
0.0483751
0.032265
0.0309308
0.0377679
0.0612154
0.0389901
0.038086
0.0466138
0.0695739
0.0413209
0.0428343
0.0527886
0.0745869
0.0448699
0.0510056
0.0602845
0.000259621
0.000160066
0.000109573
0.000120223
0.000225664
0.000322032
0.000474671
0.000780986
0.00319889
0.00306807
0.00352335
0.0047077
0.00662111
0.00595916
0.00624683
0.00772332
0.0116875
0.0100634
0.01007
0.011995
0.0180068
0.0147876
0.0143976
0.0166998
0.0246499
0.0193427
0.0186418
0.021303
0.0322823
0.0242966
0.0235446
0.0267023
0.038507
0.0272459
0.0277714
0.0310603
0.0423574
0.0301093
0.0333538
0.0356714
4.5538e-06
4.01153e-06
7.35332e-06
1.31771e-05
0.000362266
0.000310388
0.000353356
0.000521536
0.0020546
0.00188438
0.00213468
0.0028122
0.00407744
0.00371183
0.00393925
0.00478021
0.00685146
0.00619619
0.00634944
0.00740565
0.0103864
0.00919261
0.0091629
0.010386
0.0138445
0.0119986
0.011786
0.0130816
0.0183763
0.0154658
0.0151397
0.0166457
0.0223383
0.0180081
0.0182887
0.0195502
0.0245412
0.0199496
0.021592
0.0221662
1.66387e-05
6.12412e-06
5.87941e-06
6.08908e-06
0.00024757
0.000164527
0.000165638
0.000250216
0.00118459
0.0010141
0.00112496
0.00149014
0.00247494
0.00220934
0.00233168
0.00280903
0.00413333
0.00375571
0.00387031
0.00448317
0.00637476
0.00576673
0.00580914
0.00653734
0.00831725
0.00752803
0.00748819
0.00820287
0.011187
0.00998035
0.00986937
0.0107105
0.0130912
0.0114905
0.0116321
0.0121846
0.0145033
0.0130182
0.0138418
0.0140103
1.02392e-05
3.29896e-06
3.12423e-06
3.20108e-06
0.000115795
4.24607e-05
3.28302e-05
7.55969e-05
0.000621828
0.000475854
0.00051609
0.000715665
0.00144479
0.00125158
0.00130747
0.00157348
0.00243725
0.00219993
0.00226361
0.00261573
0.00394118
0.00358124
0.00361521
0.00406248
0.00506348
0.00467789
0.00467484
0.00508225
0.00700771
0.00643949
0.00639919
0.00691077
0.0076462
0.0070845
0.00713499
0.00741787
0.00875518
0.00840485
0.00881055
0.00888262
1.22961e-05
4.16756e-06
3.86254e-06
3.78217e-06
1.62261e-05
1.10683e-06
1.12166e-06
1.28793e-06
0.000275524
0.000160339
0.000167292
0.00027737
0.000799801
0.000661918
0.000682383
0.000825807
0.00137496
0.00121955
0.00124958
0.00144669
0.00238645
0.00215468
0.00217148
0.00244621
0.00298227
0.00278646
0.00278585
0.00300808
0.00435785
0.0040584
0.00403895
0.00436396
0.00445658
0.00426002
0.00426899
0.00442811
0.00533375
0.00533082
0.0055288
0.00556905
3.30381e-06
1.48623e-06
1.59272e-06
1.85207e-06
2.44203e-06
7.11555e-07
6.72419e-07
7.49521e-07
8.3073e-05
3.24632e-07
3.57398e-07
5.28551e-05
0.000414403
0.000320217
0.000323991
0.000397024
0.000739461
0.000636672
0.000648889
0.000757633
0.00142669
0.00126724
0.00127266
0.00144398
0.00168392
0.00158328
0.0015806
0.00169151
0.00269291
0.002509
0.00249717
0.00271224
0.00255068
0.00247475
0.00246833
0.00255623
0.00323301
0.00330075
0.00340177
0.003422
9.66757e-06
1.21678e-06
8.56366e-07
5.29173e-07
2.65842e-06
1.04762e-06
1.04842e-06
1.17366e-06
8.18648e-07
2.06384e-07
1.48274e-07
1.45752e-07
0.000192265
0.000132885
0.000129963
0.000161736
0.000369633
0.000303529
0.000307471
0.000365884
0.000841433
0.000728582
0.00072814
0.000836788
0.00089021
0.000843077
0.000839533
0.000884368
0.00166049
0.00153039
0.00152248
0.00167152
0.00138297
0.00134829
0.00133781
0.0013803
0.00192314
0.0019818
0.00203901
0.00204367
1.61904e-05
6.64285e-06
6.38485e-06
6.74234e-06
1.69506e-07
2.96716e-07
3.22682e-07
3.76381e-07
6.84521e-07
3.62138e-07
3.66234e-07
3.94541e-07
7.14742e-05
3.89788e-05
3.45037e-05
4.24633e-05
0.000166832
0.000126422
0.00012735
0.000158117
0.000490138
0.000410481
0.000407772
0.000477775
0.000413506
0.000400337
0.000397398
0.000403665
0.0010226
0.000921991
0.000916651
0.00102507
0.000666411
0.000651443
0.000641129
0.000653563
0.00110812