/*--------------------------------*- C++ -*----------------------------------*\
| =========                 |                                                 |
| \\      /  F ield         | foam-extend: Open Source CFD                    |
|  \\    /   O peration     | Version:     4.0                                |
|   \\  /    A nd           | Web:         http://www.foam-extend.org         |
|    \\/     M anipulation  |                                                 |
\*---------------------------------------------------------------------------*/
FoamFile
{
    version     2.0;
    format      ascii;
    class       volScalarField;
    location    "1550";
    object      epsilon;
}
// * * * * * * * * * * * * * * * * * * * * * * * * * * * * * * * * * * * * * //

dimensions      [0 2 -3 0 0 0 0];

internalField   nonuniform List<scalar> 
34480
(
4930.48
4928.45
4928.34
4929.84
4933.06
4938.25
4950.87
5004.43
5194.11
5725.09
654.957
601.779
600.887
652.849
838.353
1575.69
5099.61
22851.9
103715
382378
617.738
522.266
508.684
568.337
809.109
1828.35
7041.89
35124.6
172559
699297
523.941
438.681
426.695
484.398
733.055
1882.6
8219.04
44415.6
232234
1.011e+06
456.001
384.227
376.818
432.569
684.176
1926.72
9176.88
52589.7
289176
1.33354e+06
392.023
332.409
326.192
378.042
627.852
1955.49
10119.6
61038.3
350592
1.69845e+06
352.912
302.458
298.068
346.069
591.055
1962.04
10723.4
67186.7
400271
2.02229e+06
321.116
281.878
277.482
317.261
533.891
1819.91
10347.9
66967.1
412538
2.16696e+06
459.886
435.81
433.202
458.596
596.847
1409.61
6838.73
43680.4
275876
1.49784e+06
5708.85
5709.09
5714.55
5726.51
5743.32
5763.4
5787.57
5823.46
5889.78
5958.25
4855.93
4853.4
4852.91
4854.4
4858.41
4865.46
4876.61
4902.7
4965.28
5185.61
511.813
479.012
473.39
487.505
531.871
648.236
1002.45
2354.15
11801.5
103644
446.373
383.399
369.729
389.142
457.902
645.102
1228.9
3566.43
21360.8
197662
399.05
338.189
324.753
344.46
415.877
619.49
1293.47
4288.18
30236.6
294784
365.403
310.726
300.2
319.399
390.286
598.257
1320.72
4810.15
38716.2
396518
326.006
278.658
268.856
286.127
351.843
553.573
1293.03
5177.88
47343.5
508545
302.285
260.609
252.431
267.678
328.61
520.968
1255.16
5358.21
54205.5
607737
282.932
249.794
242.118
253.725
301.335
456.29
1073.87
4825.32
54976.4
651880
432.719
410.833
405.731
413.187
443.264
531.373
847.629
2978.99
36384.8
467379
5591.34
5587.04
5587.56
5594.2
5605.87
5620.47
5639.8
5672.76
5740.36
5913.12
4770.82
4768.4
4767.64
4768.47
4771.1
4775.28
4780.13
4790.91
4814.96
4869.96
399.794
386.379
383.721
388.475
403.588
438.908
526.914
758.49
1516.94
5758.92
307.767
276.567
269.738
278.918
309.316
378.911
550.014
1029.87
2859.85
14991.3
289.918
256.121
248.451
259.025
294.156
378.018
596.707
1279.24
4409.49
28925.9
280.574
247.631
241.182
252.13
289.202
379.906
628.444
1480.52
6140.4
47819.4
261.122
230.876
224.383
234.77
270.428
361.302
624.65
1624.63
8150.26
73163.7
250.379
222.359
216.764
226.242
260.292
348.861
616.632
1723.43
10163.9
101604
242.957
219.988
214.573
222.189
249.494
321.948
549.509
1593.45
11040.6
122889
402.623
386.282
382.531
388.172
408.577
461.369
606.777
1234.86
7678.18
92074.9
5481.65
5474.56
5472.27
5475.86
5484.65
5496.66
5513.14
5543.88
5616.31
5801.64
4674.81
4673.29
4672.85
4673.5
4675.3
4677.64
4678.67
4681.47
4688.87
4704.96
328.448
324.342
323.524
324.614
328.682
338.997
364.99
421.596
541.312
940.541
219.119
205.866
203.011
207.055
220.445
248.737
308.893
445.15
772.278
2086.31
214.241
197.519
193.581
199.102
217.048
256.518
345.284
565.321
1169.65
4142.74
217.399
199.356
195.763
201.959
222.544
269.052
379.222
675.631
1611.2
7157.34
210.579
192.627
188.584
194.968
216.173
266.205
391.779
761.233
2117.53
11602.9
208.401
190.613
186.962
193.106
214.478
265.955
400.756
826.89
2633.12
17127.1
209.91
194.628
190.903
196.189
214.239
258.744
379.536
794.725
2860.19
21852.2
375.612
363.628
360.795
364.981
379.921
416.797
508.491
782.298
2180.38
16543.4
5359.65
5352.57
5350.02
5353.09
5361.35
5373.75
5390.86
5421.69
5488.46
5631.64
4569.42
4568.72
4568.56
4568.97
4569.95
4570.71
4569.42
4568.28
4568.22
4569.97
285.532
284.804
284.707
284.469
284.451
286.146
293.381
307.399
329.8
376.061
167.806
162.779
161.731
163.152
168.188
178.416
198.221
237.42
308.215
484.397
166.361
158.625
156.658
159.156
167.409
184.642
219.445
294.141
443.232
890.074
173.815
164.495
162.555
165.644
176.086
198.412
245.879
356.334
601.476
1498.54
173.537
163.334
160.836
164.379
176.103
202.31
261.294
410.729
783.868
2435.8
176.026
165.115
162.739
166.36
178.98
207.756
275.182
457.331
966.394
3641.71
183.31
173.424
170.853
174.229
185.542
212.083
276.531
463.353
1058.44
4747.28
351.297
342.697
340.517
343.401
353.924
379.094
437.981
581.277
1009.15
3814.13
5229.97
5223.05
5220.33
5222.92
5230.53
5242.64
5259.28
5287.64
5343.29
5445.63
4455.61
4455.53
4455.6
4455.83
4456.21
4455.93
4453.91
4451.82
4450.05
4448.96
259.831
259.926
260.012
259.484
258.476
258.03
259.939
263.322
268.093
275.373
139.395
137.738
137.463
137.849
139.467
142.717
148.636
159.188
175.242
203.121
137.479
134.086
133.155
134.202
137.755
144.826
157.776
182.343
222.571
303.125
144.99
140.444
139.487
140.915
145.883
155.934
175.245
215.125
286.393
458.229
147.317
141.785
140.328
142.19
148.344
161.365
187.781
247.205
364.08
702.086
151.742
145.332
143.881
145.905
153.024
168.375
200.712
278.196
444.14
1014.4
162.248
156.14
154.463
156.539
163.359
178.604
212.05
297.344
500.363
1320.83
329.428
323.534
321.931
323.881
331.203
348.414
386.896
467.417
639.779
1290.52
5092.01
5085.49
5082.79
5085
5091.91
5103.21
5118.69
5143.59
5186.63
5253.88
4334.1
4334.44
4334.65
4334.76
4334.76
4333.83
4331.97
4329.96
4328.14
4326.8
243.826
243.794
243.825
243.34
242.396
241.919
242.289
243.037
244.164
245.972
123.96
123.538
123.541
123.579
123.968
124.82
126.374
128.979
132.53
137.232
120.636
119.189
118.76
119.175
120.65
123.475
128.236
136.253
147.591
163.801
126.636
124.521
124.093
124.705
126.959
131.299
138.92
152.919
174.414
210.637
129.484
126.595
125.781
126.714
129.819
136.073
147.616
170.668
209.311
285.92
134.25
130.613
129.773
130.843
134.712
142.642
157.784
189.987
247.84
381.675
146.159
142.552
141.509
142.734
146.69
155.188
172.303
210.871
286.934
490.007
310.101
306.255
305.102
306.393
311.456
323.389
349.011
396.178
479.843
667.489
4945.55
4939.62
4937.08
4938.95
4945.07
4955.13
4968.87
4989.85
5022.3
5066.14
4205.4
4205.99
4206.3
4206.34
4206.11
4205.05
4203.55
4201.96
4200.53
4199.46
232.926
232.517
232.421
232.057
231.448
231.248
231.271
231.431
231.833
232.828
115.589
115.56
115.635
115.585
115.593
115.709
115.987
116.504
117.21
118.003
111.037
110.424
110.226
110.386
110.993
112.128
113.924
116.651
120.094
123.825
115.276
114.338
114.171
114.415
115.402
117.229
120.225
125.173
131.948
140.404
117.744
116.288
115.85
116.301
117.824
120.773
125.827
134.833
148.258
167.61
122.073
120.072
119.611
120.15
122.197
126.222
133.322
146.743
167.941
202.476
134.227
132.204
131.587
132.285
134.505
139.14
147.917
165.466
195.861
252.232
293.122
290.765
289.941
290.796
294.332
302.859
320.243
348.874
394
462.571
4790.42
4785.24
4782.96
4784.53
4789.78
4798.31
4809.99
4826.97
4850.83
4879.76
4069.85
4070.59
4070.94
4070.94
4070.59
4069.7
4068.6
4067.45
4066.42
4065.63
224.51
223.722
223.497
223.248
222.983
222.931
222.914
222.984
223.28
224.176
111
111.058
111.131
111.074
111
110.928
110.88
110.889
110.962
111.07
105.696
105.427
105.332
105.393
105.65
106.122
106.834
107.83
108.986
109.993
108.437
108.041
107.991
108.08
108.5
109.256
110.439
112.233
114.493
116.727
110.259
109.55
109.324
109.535
110.265
111.638
113.875
117.498
122.472
128.124
113.872
112.798
112.559
112.819
113.884
115.911
119.289
125.044
133.3
143.413
125.603
124.54
124.195
124.583
125.791
128.277
132.807
140.955
153.812
171.876
278.148
276.83
276.23
276.812
279.351
285.679
297.659
315.595
341.418
371.257
4626.59
4622.27
4620.32
4621.6
4625.95
4632.86
4642.37
4655.58
4672.67
4691.64
3927.84
3928.5
3928.88
3928.85
3928.5
3927.88
3927.12
3926.32
3925.62
3925.05
216.933
216.035
215.702
215.538
215.483
215.462
215.465
215.545
215.849
216.744
108.39
108.448
108.498
108.456
108.385
108.292
108.195
108.115
108.078
108.083
102.807
102.677
102.627
102.652
102.768
102.978
103.284
103.684
104.121
104.442
104.445
104.284
104.277
104.305
104.483
104.795
105.27
105.941
106.733
107.402
105.648
105.317
105.204
105.301
105.644
106.276
107.272
108.771
110.718
112.652
108.533
107.964
107.847
107.969
108.52
109.544
111.182
113.744
117.159
120.586
119.496
118.987
118.809
119.021
119.66
120.98
123.316
127.167
132.821
139.538
264.734
264.115
263.655
264.076
265.984
270.828
279.171
290.686
306.045
320.238
4454.22
4450.77
4449.19
4450.21
4453.65
4459
4466.45
4476.33
4488.22
4500.47
3779.5
3780.02
3780.35
3780.32
3780.09
3779.67
3779.16
3778.63
3778.17
3777.75
209.487
208.602
208.261
208.153
208.118
208.114
208.136
208.233
208.55
209.443
106.792
106.832
106.863
106.835
106.781
106.709
106.632
106.564
106.531
106.539
101.294
101.222
101.193
101.205
101.262
101.364
101.51
101.691
101.883
102.004
102.194
102.127
102.131
102.139
102.217
102.353
102.555
102.823
103.118
103.345
102.917
102.768
102.713
102.758
102.917
103.204
103.648
104.28
105.069
105.824
105.175
104.873
104.818
104.876
105.166
105.694
106.509
107.7
109.186
110.505
115.219
115.012
114.929
115.046
115.378
116.075
117.262
119.091
121.6
124.401
252.399
252.231
251.849
252.182
253.704
257.442
263.273
270.78
280.184
287.025
4273.58
4270.96
4269.75
4270.52
4273.12
4277.1
4282.7
4289.83
4297.86
4305.62
3624.97
3625.39
3625.64
3625.63
3625.49
3625.22
3624.89
3624.54
3624.25
3623.92
201.826
200.969
200.658
200.564
200.536
200.54
200.572
200.674
200.993
201.87
105.698
105.718
105.736
105.717
105.682
105.635
105.585
105.544
105.533
105.554
100.529
100.485
100.468
100.474
100.504
100.558
100.633
100.725
100.822
100.877
100.976
100.942
100.945
100.948
100.987
101.056
101.154
101.278
101.403
101.497
101.369
101.305
101.279
101.299
101.372
101.503
101.7
101.97
102.296
102.627
103.137
102.97
102.945
102.976
103.136
103.421
103.845
104.43
105.114
105.686
112.207
112.153
112.123
112.189
112.361
112.724
113.309
114.165
115.244
116.511
240.678
240.788
240.441
240.728
242.022
244.828
248.882
253.8
259.681
262.751
4085.09
4083.22
4082.35
4082.91
4084.75
4087.63
4091.67
4096.62
4101.88
4106.69
3464.46
3464.8
3465
3465
3464.92
3464.75
3464.53
3464.31
3464.12
3463.85
193.771
192.949
192.668
192.585
192.56
192.566
192.598
192.697
193.008
193.858
104.847
104.854
104.861
104.85
104.828
104.801
104.774
104.753
104.759
104.79
100.158
100.131
100.121
100.124
100.14
100.168
100.208
100.256
100.31
100.339
100.348
100.324
100.322
100.324
100.349
100.392
100.452
100.523
100.589
100.642
100.536
100.508
100.496
100.506
100.54
100.599
100.687
100.803
100.941
101.103
101.94
101.839
101.827
101.848
101.943
102.109
102.344
102.655
102.995
103.282
110.022
110.039
110.036
110.075
110.167
110.347
110.617
110.999
111.417
112.033
229.158
229.426
229.083
229.349
230.476
232.443
235.222
238.426
242.149
243.2
3889.32
3888.06
3887.49
3887.87
3889.1
3891.15
3893.94
3897.24
3900.57
3903.49
3298.26
3298.55
3298.7
3298.7
3298.66
3298.55
3298.42
3298.28
3298.15
3297.92
185.214
184.432
184.179
184.107
184.083
184.087
184.115
184.205
184.502
185.318
104.113
104.112
104.112
104.105
104.094
104.08
104.067
104.061
104.078
104.114
99.9889
99.9727
99.9684
99.9698
99.9771
99.9898
100.008
100.032
100.063
100.081
100.043
100.022
100.016
100.018
100.037
100.069
100.113
100.162
100.207
100.245
100.114
100.102
100.096
100.1
100.117
100.145
100.185
100.236
100.295
100.384
101.25
101.184
101.177
101.193
101.256
101.36
101.502
101.683
101.87
102.043
108.333
108.387
108.397
108.423
108.47
108.55
108.659
108.811
108.923
109.25
217.279
217.795
217.472
217.731
218.543
219.887
221.745
223.802
226.16
226.126
3687.02
3686.17
3685.83
3686.07
3686.9
3688.28
3690.14
3692.23
3694.25
3696
3126.76
3127.01
3127.12
3127.13
3127.11
3127.05
3126.96
3126.87
3126.79
3126.57
176.071
175.333
175.11
175.049
175.023
175.025
175.047
175.125
175.404
176.182
103.437
103.431
103.427
103.423
103.418
103.413
103.41
103.412
103.436
103.474
99.9206
99.9129
99.9122
99.9126
99.9143
99.9173
99.9228
99.932
99.9493
99.9613
99.9092
99.8904
99.8824
99.8839
99.8985
99.9245
99.9587
99.9965
100.031
100.061
99.9197
99.9127
99.9088
99.9111
99.9196
99.9338
99.9531
99.977
100.003
100.058
100.85
100.803
100.797
100.811
100.855
100.926
101.019
101.133
101.247
101.37
106.925
106.993
107.012
107.029
107.049
107.078
107.109
107.152
107.128
107.324
204.805
205.459
205.263
205.445
205.988
206.871
208.066
209.354
210.826
210.238
3478.96
3478.42
3478.2
3478.36
3478.9
3479.79
3480.95
3482.22
3483.38
3484.4
2950.51
2950.72
2950.8
2950.81
2950.81
2950.77
2950.72
2950.66
2950.6
2950.4
166.263
165.572
165.381
165.332
165.304
165.303
165.318
165.382
165.639
166.378
102.796
102.787
102.781
102.778
102.777
102.777
102.781
102.788
102.814
102.855
99.9038
99.9015
99.9029
99.9027
99.9011
99.8987
99.8968
99.8976
99.906
99.9162
99.8626
99.8461
99.8377
99.8387
99.8499
99.87
99.8963
99.9252
99.9519
99.9769
99.8449
99.8394
99.8363
99.8373
99.8422
99.8503
99.8606
99.8729
99.8854
99.9204
100.603
100.568
100.563
100.574
100.606
100.656
100.719
100.795
100.869
100.966
105.661
105.725
105.748
105.759
105.766
105.772
105.768
105.766
105.688
105.822
191.564
192.269
192.175
192.298
192.64
193.186
193.906
194.682
195.562
194.743
3266.02
3265.69
3265.56
3265.67
3266
3266.53
3267.22
3267.94
3268.54
3269.13
2770.23
2770.41
2770.46
2770.48
2770.47
2770.45
2770.42
2770.38
2770.33
2770.15
155.694
155.054
154.887
154.851
154.832
154.83
154.838
154.887
155.116
155.813
102.183
102.173
102.165
102.163
102.164
102.168
102.174
102.184
102.21
102.253
99.9129
99.913
99.915
99.9144
99.9115
99.9069
99.9019
99.8988
99.902
99.9121
99.859
99.8453
99.8379
99.8382
99.8462
99.8605
99.8794
99.9003
99.9203
99.9406
99.832
99.8271
99.8245
99.8247
99.8275
99.8324
99.8382
99.8448
99.8511
99.8738
100.427
100.4
100.395
100.403
100.425
100.459
100.502
100.552
100.601
100.678
104.461
104.513
104.535
104.543
104.545
104.542
104.525
104.507
104.417
104.52
177.414
178.098
178.083
178.162
178.358
178.659
179.037
179.472
179.943
179.1
3049.27
3049.08
3049.01
3049.08
3049.26
3049.55
3049.93
3050.3
3050.58
3050.9
2586.91
2587.05
2587.1
2587.11
2587.11
2587.09
2587.07
2587.04
2587
2586.84
144.23
143.652
143.512
143.487
143.483
143.48
143.482
143.514
143.705
144.356
101.607
101.594
101.586
101.584
101.586
101.591
101.599
101.609
101.632
101.676
99.9319
99.9318
99.9332
99.9324
99.9295
99.9251
99.9202
99.9166
99.9172
99.9278
99.8766
99.8662
99.8606
99.8604
99.8654
99.8745
99.8866
99.9004
99.9144
99.9299
99.8516
99.8477
99.8456
99.8454
99.8467
99.8492
99.8521
99.8551
99.8581
99.8715
100.27
100.25
100.246
100.251
100.265
100.286
100.312
100.342
100.373
100.432
103.294
103.33
103.348
103.353
103.352
103.345
103.327
103.306
103.226
103.308
162.195
162.804
162.852
162.899
162.986
163.107
163.236
163.434
163.605
162.88
2830.01
2829.91
2829.88
2829.91
2830
2830.14
2830.33
2830.49
2830.6
2830.76
2401.68
2401.8
2401.83
2401.83
2401.83
2401.83
2401.81
2401.79
2401.76
2401.63
131.644
131.152
131.06
131.05
131.049
131.045
131.04
131.054
131.186
131.769
101.085
101.07
101.063
101.06
101.062
101.066
101.074
101.084
101.101
101.142
99.949
99.9471
99.9473
99.9464
99.9444
99.9416
99.9385
99.9363
99.9365
99.9465
99.907
99.9001
99.8965
99.8962
99.8988
99.9038
99.9106
99.9186
99.9274
99.938
99.8896
99.8872
99.8858
99.8854
99.8857
99.8864
99.8871
99.8878
99.8886
99.8948
100.117
100.104
100.101
100.103
100.11
100.121
100.134
100.148
100.166
100.205
102.171
102.19
102.201
102.202
102.198
102.189
102.172
102.153
102.099
102.16
145.441
145.918
145.952
145.988
146.048
146.128
146.21
146.268
146.2
145.678
2609.66
2609.61
2609.6
2609.62
2609.65
2609.69
2609.74
2609.79
2609.82
2609.89
2215
2215.07
2215.08
2215.08
2215.08
2215.08
2215.07
2215.07
2215.07
2215.01
117.387
117.05
117.02
117.025
117.027
117.022
117.012
117.004
117.048
117.476
100.624
100.607
100.6
100.597
100.597
100.6
100.607
100.616
100.629
100.663
99.9656
99.9634
99.9628
99.9621
99.9611
99.96
99.9589
99.9583
99.9589
99.9653
99.9499
99.9461
99.9443
99.9441
99.9453
99.9477
99.9509
99.9548
99.9593
99.965
99.9404
99.9394
99.9387
99.9384
99.9382
99.9381
99.9378
99.9373
99.937
99.9386
100.008
100.003
100.001
100.002
100.005
100.009
100.013
100.018
100.025
100.043
101.126
101.128
101.131
101.129
101.123
101.114
101.101
101.089
101.07
101.114
125.755
126.038
126.056
126.076
126.109
126.151
126.193
126.217
126.167
125.824
2388.96
2388.94
2388.94
2388.95
2388.95
2388.95
2388.95
2388.94
2388.93
2388.97
7182.8
7293.05
7249.31
7042.85
658920
683852
689410
697283
1.4975e+06
1.58416e+06
1.59167e+06
1.57174e+06
2.52523e+06
2.70344e+06
2.70089e+06
2.61933e+06
3.76055e+06
4.05551e+06
4.02917e+06
3.86755e+06
5.30694e+06
5.75e+06
5.69848e+06
5.48572e+06
6.86651e+06
7.46505e+06
7.40124e+06
7.20462e+06
7.8799e+06
8.60723e+06
8.55248e+06
8.42448e+06
5.61671e+06
6.1756e+06
6.11149e+06
6.07766e+06
7902.24
8149.84
7987.58
7568.77
5748.77
5801.55
5804.08
5764.94
308518
324613
345272
377226
689288
780763
824794
861623
1.17786e+06
1.40264e+06
1.4658e+06
1.49164e+06
1.76328e+06
2.17709e+06
2.25094e+06
2.2643e+06
2.45826e+06
3.11149e+06
3.21076e+06
3.24664e+06
3.13083e+06
4.03885e+06
4.19964e+06
4.31839e+06
3.57203e+06
4.70211e+06
4.94334e+06
5.17808e+06
2.80547e+06
3.81658e+06
4.00511e+06
4.31806e+06
7125.25
7356.66
7285.75
7065.52
4937.7
4948.65
4947.8
4938.09
21659.3
25956.8
24593
19962.4
61570.4
73406.2
68673.1
55723.6
128747
152828
140872
114014
228350
270506
246234
199399
372340
441860
401317
326341
545231
648387
591468
485275
702614
839124
769316
636615
584224
696549
629063
524401
6343.67
6430.91
6408.61
6313.34
4715.89
4718.01
4718.57
4717.77
1594.55
1711.52
1680.06
1545.12
4698.92
5173.15
5013.11
4434.83
11231.8
12505.8
11926.6
10213.3
22556.1
25253.8
23698.4
19744.2
41692
46920.6
43524.1
35532.7
68290.6
76974.9
70784.4
57118
97142.8
109886
100416
80405.1
83331.6
93728.8
84164.4
67238
5903.5
5945.17
5942.28
5904.39
4567.92
4568.82
4569.04
4568.51
423.402
436.338
438.591
431.669
710.33
757.281
761.782
731.561
1595.36
1737.13
1729.57
1610.49
3204.04
3529.58
3458.65
3118.68
6140.55
6823.4
6582.84
5757.91
10498
11692.7
11107.7
9471.22
15690
17551.8
16459.5
13720.9
13856.6
15391.7
14108.3
11581.9
5578.28
5600.29
5601.78
5586.18
4444.88
4445.62
4445.7
4445.08
275.648
278.521
279.232
277.972
226.427
231.526
233.351
232.307
385.679
403.161
407.389
400.613
674.163
717.937
722.159
696.158
1215.27
1316.49
1312.59
1233.46
2023.61
2211.19
2175.39
1991.07
3046.5
3359.63
3260.94
2903.66
2928.21
3182.09
3022.15
2663.13
5317.78
5328.55
5330.69
5325.13
4322.54
4323.25
4323.31
4322.68
241.815
243.719
244.118
243.061
140.16
140.911
141.263
141.248
175.896
178.587
179.711
179.455
243.23
250.241
252.466
250.764
368.99
386.579
390.285
383.145
549.189
582.581
585.184
565.674
795.361
854.701
851.801
806.825
984.432
1029.33
1009.83
962.13
5095.42
5100.3
5102.15
5100.9
4195.41
4196.11
4196.16
4195.56
228.122
229.839
230.177
229.167
118.201
118.336
118.389
118.365
125.863
126.308
126.529
126.555
146.037
147.257
147.795
147.773
183.406
186.899
188.155
187.594
233.763
240.286
242.024
240.24
314.541
327.064
328.978
323.433
542.902
548.507
545.97
542.3
4893.33
4895.34
4896.62
4896.81
4061.85
4062.51
4062.56
4062.01
219.512
221.165
221.493
220.518
110.894
110.949
110.957
110.918
110.35
110.42
110.455
110.463
117.766
117.971
118.077
118.109
131.708
132.508
132.855
132.822
149.862
151.203
151.734
151.694
187.323
190.238
191.071
190.416
400.096
397.093
396.333
398.997
4698.14
4698.83
4699.6
4700.09
3921.55
3922.16
3922.21
3921.69
212.213
213.811
214.132
213.194
107.871
107.918
107.922
107.882
104.485
104.49
104.491
104.49
107.574
107.591
107.603
107.614
113.653
113.867
113.963
113.955
121.951
122.192
122.325
122.403
144.56
145.248
145.503
145.444
335.26
330.164
329.375
332.79
4503.52
4503.61
4504.04
4504.49
3774.52
3775.07
3775.12
3774.65
205.07
206.61
206.921
206.021
106.339
106.387
106.392
106.354
101.988
101.985
101.981
101.979
103.356
103.346
103.341
103.343
106.196
106.27
106.3
106.287
110.759
110.765
110.787
110.84
126.717
126.838
126.886
126.882
297.531
292.014
291.102
294.415
4306.83
4306.7
4306.92
4307.26
3620.96
3621.46
3621.5
3621.07
197.67
199.148
199.449
198.587
105.371
105.417
105.423
105.388
100.852
100.849
100.847
100.846
101.487
101.478
101.472
101.471
102.815
102.852
102.863
102.849
105.71
105.676
105.671
105.701
117.991
117.963
117.941
117.93
271.374
265.918
264.96
268.07
4106.87
4106.69
4106.8
4107.02
3461.18
3461.61
3461.64
3461.26
189.845
191.259
191.548
190.726
104.624
104.668
104.674
104.641
100.317
100.316
100.314
100.313
100.635
100.63
100.626
100.624
101.223
101.246
101.251
101.24
103.284
103.254
103.245
103.261
113.189
113.125
113.083
113.061
250.771
245.523
244.574
247.492
3903.04
3902.91
3902.96
3903.07
3295.53
3295.9
3295.91
3295.59
181.505
182.851
183.129
182.35
103.966
104.007
104.013
103.983
100.064
100.063
100.063
100.062
100.244
100.241
100.238
100.236
100.468
100.485
100.488
100.479
102.068
102.05
102.043
102.048
110.239
110.176
110.129
110.098
232.941
227.953
227.041
229.782
3695.15
3695.11
3695.13
3695.14
3124.49
3124.79
3124.8
3124.52
172.582
173.861
174.127
173.392
103.349
103.387
103.392
103.365
99.9506
99.9513
99.951
99.9499
100.063
100.062
100.06
100.059
100.119
100.131
100.133
100.125
101.422
101.415
101.41
101.409
108.201
108.15
108.104
108.065
216.422
211.721
210.863
213.431
3483.29
3483.37
3483.38
3483.3
2948.65
2948.88
2948.86
2948.64
163.008
164.218
164.475
163.786
102.757
102.793
102.798
102.772
99.9125
99.9144
99.9145
99.9128
99.9813
99.9811
99.9801
99.9786
99.9639
99.9725
99.9733
99.9668
101.036
101.039
101.037
101.03
106.607
106.574
106.534
106.484
200.36
195.979
195.189
197.577
3267.86
3268.05
3268.06
3267.9
2768.76
2768.91
2768.89
2768.7
152.697
153.843
154.091
153.449
102.19
102.224
102.229
102.205
99.9157
99.9188
99.9191
99.9167
99.9461
99.9466
99.9461
99.945
99.903
99.9086
99.9088
99.9037
100.757
100.767
100.766
100.757
105.211
105.202
105.168
105.108
184.196
180.189
179.486
181.67
3049.54
3049.82
3049.83
3049.62
2585.85
2585.93
2585.88
2585.75
141.547
142.638
142.882
142.284
101.648
101.681
101.685
101.661
99.9374
99.9415
99.942
99.939
99.9361
99.937
99.9369
99.9362
99.8886
99.8918
99.8916
99.8883
100.507
100.52
100.521
100.51
103.88
103.895
103.87
103.803
167.504
163.99
163.396
165.315
2829.38
2829.71
2829.72
2829.5
2401.11
2401.09
2401.03
2400.96
129.375
130.426
130.666
130.104
101.141
101.169
101.172
101.15
99.9584
99.9628
99.9633
99.9603
99.9437
99.9447
99.945
99.9447
99.9024
99.9035
99.9033
99.9018
100.264
100.276
100.278
100.269
102.559
102.585
102.57
102.51
149.598
146.652
146.21
147.847
2608.68
2609.05
2609.07
2608.83
2214.99
2214.83
2214.78
2214.82
115.749
116.731
116.937
116.405
100.667
100.683
100.684
100.669
99.9726
99.9753
99.9757
99.9739
99.9689
99.9697
99.97
99.9701
99.9401
99.9402
99.94
99.9398
100.075
100.081
100.083
100.078
101.291
101.299
101.292
101.267
128.318
126.296
126.059
127.218
2388.18
2388.57
2388.57
2388.31
6105.05
5442.41
5172.82
5076.74
5021.95
4983.46
4957.89
4943.56
4935.58
4930.82
798265
193182
33392
11726.4
5296.83
2833.71
1747.49
1211.19
927.318
764.395
1.42387e+06
246902
44237.8
15120.7
6770.6
3633.33
2197.57
1458.24
1046.55
801.643
1.99506e+06
239346
46747.1
15008.1
6476.99
3387.04
1997.75
1295.52
911.462
687.443
2.45774e+06
252498
48910.6
14550.3
6092.31
3098.54
1789.67
1142.84
794.37
595.849
2.92919e+06
276265
51115.7
13964.2
5633.34
2765.59
1559.71
980.009
676.582
507.678
3.31095e+06
294814
51973
13152.9
5154.39
2465.56
1374.42
860.68
595.055
449.972
3.39455e+06
287220
47674.2
10994.6
4161.12
1945.19
1092.15
699.752
502.564
394.51
2.33991e+06
182033
27355.7
5707.7
2273.84
1237.22
857.573
671.287
567.934
506.403
6015.83
5992.62
5846.89
5822.49
5779.1
5754.81
5735.53
5725.29
5718.37
5712.4
5442.85
5174.92
5045.06
4972.52
4926.98
4896.99
4877.56
4866.03
4859.81
4855.86
180176
44879.2
13609.5
5320.78
2634.09
1566.13
1064.27
801.815
655.734
571.903
375571
86383.5
23460.9
8287.58
3886.6
2185.82
1382.32
954.965
709.783
564.907
594851
126203
30691.8
9647.06
4224.93
2259.3
1370.96
914.642
660.676
514.754
830198
164952
36413.6
10412
4314.24
2217.74
1308.88
856.593
609.66
471.428
1.10941e+06
207137
41737.4
10858.2
4244.01
2089.55
1197.55
768.096
541.539
418.065
1.38834e+06
244354
45337.4
10845
4053.1
1937.75
1094.79
698.999
492.837
382.65
1.56353e+06
258565
43979.5
9548.32
3393.76
1584.28
900.123
587.402
429.677
345.618
1.18154e+06
178629
26840
5247.25
1965.87
1090.9
771.322
614.946
526.391
476.153
6252.24
5952.49
5792.42
5733.61
5682.75
5652
5629.71
5616.11
5606.54
5598.21
4903.83
4869.04
4841.59
4818.8
4800.98
4788.08
4779.48
4774.32
4771.45
4769.38
9197.75
4175.18
2298.58
1432.52
985.114
735.563
590.931
504.7
452.038
420.279
23994.5
9563.76
4649.72
2546.23
1541.35
1009.55
712.055
537.794
430.63
364.324
45430.6
15960.4
6937.04
3409.96
1897.2
1158.08
770.776
555.09
428.05
352.329
73579.4
22899.2
9009.76
4054.36
2118.32
1231.32
791.05
556.103
421.127
342.944
112026
31036.2
11037.8
4546.32
2233.84
1236.07
766.54
525.836
393.199
318.739
156004
38859.5
12573.4
4792.84
2250.45
1205.2
734.255
500.239
373.234
303.353
191431
42856.3
12516.5
4383.5
1973.86
1036.14
635.903
442.817
341.607
286.06
141594
27742.9
7301.24
2546.27
1307.31
842.618
642.471
536.374
472.835
436.193
6017.82
5835.42
5710.84
5637.02
5583.94
5550.82
5527.81
5512.14
5500.56
5490.57
4712.89
4704.54
4695.38
4687.14
4680.9
4676.64
4673.99
4672.64
4672.3
4671.89
1208.08
906.559
708.958
570.518
479.246
420.717
383.112
358.389
341.72
331.474
3028.73
1919.63
1270.49
860.736
612.252
460.754
366.962
307.393
267.957
242.099
6220.73
3481.38
2057.52
1251.94
812.549
564.36
419.94
332.869
278.105
243.773
10746.2
5351.25
2878.04
1610.06
978.337
643.851
459.922
354.333
289.705
250.274
17344.8
7666.48
3760.92
1938.4
1104.63
688.723
472.33
353.542
284.268
243.481
25218
9946.62
4495.86
2165.05
1178.27
709.287
476.125
352.671
281.801
240.838
32095
11239.9
4657.92
2094.29
1100.15
652.445
441.393
332.855
272.7
238.031
23535.5
7364.87
2960.8
1442.88
905.813
663.352
542.435
472.51
427.775
401.372
5788.6
5660.12
5561.4
5497.53
5453.45
5424.58
5403.87
5389.02
5377.81
5368.32
4567.5
4566.29
4565.05
4564.08
4563.51
4563.26
4563.29
4563.66
4564.57
4565.39
412.824
383.066
356.767
334.953
318.489
306.416
297.549
290.907
285.826
282.604
637.892
512.691
411.848
334.572
279.753
241.909
216.001
198.088
185.146
176.087
1287.44
926.284
666.381
486.285
369.758
294.848
246.513
214.822
193.359
179.164
2276.26
1481.95
973.429
652.766
462.684
348.664
279.485
236.577
208.245
189.884
3814.33
2241.16
1346.81
830.415
548.614
390.057
299.28
245.577
212.032
191.167
5703.24
3044.29
1696.04
977.991
614.51
420.614
314.806
254.67
217.605
194.883
7459.13
3599.37
1860.74
1011.96
616.497
416.888
313.266
255.837
221.731
200.982
5660.84
2636.45
1435.76
903.849
665.667
539.203
466.707
421.075
389.855
371.036
5535.26
5459.24
5393.98
5347.6
5313.69
5289.44
5271.18
5257.48
5246.91
5238.08
4444.72
4444.84
4445.14
4445.62
4446.21
4446.85
4447.51
4448.31
4449.52
4450.94
277.947
274.955
271.482
268.041
265.004
262.429
260.264
258.41
256.785
255.495
225.981
210.945
195.025
180.69
169.154
160.363
153.824
148.929
144.997
142.033
373.205
321.92
273.298
233.352
203.608
182.234
167.047
156.191
148.23
142.704
613.262
488.135
382.105
302.874
248.749
212.543
188.416
172.188
160.486
152.41
1013.18
737.84
529.272
386.512
296.542
240.127
204.604
181.79
166.383
156.271
1522.04
1022.71
681.213
465.797
339.788
265.092
220.277
192.71
174.242
162.209
2045.14
1266.87
790.026
514.121
364.796
280.819
232.565
203.474
184.85
172.941
1813.99
1182.14
824.685
628.537
519.641
452.545
408.995
379.401
357.835
344.598
5302.95
5261.31
5221.48
5189.6
5164.18
5144.45
5128.88
5116.73
5107.13
5099.24
4322.44
4322.71
4323.16
4323.77
4324.46
4325.14
4325.8
4326.56
4327.7
4329.15
244.214
244.058
243.71
243.232
242.707
242.165
241.611
241.022
240.378
239.622
140.692
138.633
136.07
133.483
131.207
129.344
127.872
126.685
125.568
124.635
176.576
168.303
158.732
149.716
142.163
136.137
131.418
127.728
124.803
122.705
241.592
220.149
197.604
178.235
163.29
152.196
144.069
138.132
133.413
129.952
355.625
303.694
254.568
215.758
187.95
168.523
155.011
145.542
138.615
133.868
503.8
404.346
318.074
255.282
213.384
185.714
167.361
155.083
146.091
139.886
680.984
513.349
382.454
294.753
240.069
205.586
183.545
169.06
159.095
152.466
826.48
675.06
558.978
481.049
428.593
391.824
365.331
346.089
331.239
321.969
5091.42
5069.54
5045.75
5024.16
5005.47
4989.94
4977.14
4966.79
4958.41
4951.63
4195.33
4195.54
4195.88
4196.34
4196.85
4197.36
4197.83
4198.38
4199.31
4200.58
230.469
230.7
230.803
230.81
230.747
230.618
230.421
230.134
229.73
229.093
118.347
118.084
117.719
117.313
116.938
116.631
116.399
116.202
115.92
115.631
126.161
124.622
122.567
120.387
118.355
116.568
115.036
113.738
112.641
111.848
146.6
142.557
137.536
132.66
128.458
125.016
122.267
120.107
118.209
116.733
183.55
172.783
160.737
149.892
141.126
134.311
129.093
125.128
122.016
119.829
231.537
210.495
188.303
169.844
155.862
145.559
138.02
132.568
128.213
125.054
302.791
263.951
227.206
198.813
178.492
164.123
153.97
146.76
141.486
137.891
515.366
472.484
430.089
396.015
369.21
348.343
331.967
319.375
309.15
302.687
4892.19
4880.43
4866.05
4851.6
4838.18
4826.38
4816.26
4807.8
4800.78
4795.18
4061.77
4061.92
4062.13
4062.43
4062.77
4063.08
4063.36
4063.7
4064.4
4065.46
221.811
222.079
222.226
222.293
222.296
222.237
222.105
221.875
221.509
220.876
110.954
110.945
110.934
110.916
110.91
110.927
110.967
111.003
110.951
110.854
110.385
110.047
109.542
108.947
108.34
107.763
107.23
106.748
106.322
106.018
117.928
117.078
115.867
114.555
113.311
112.207
111.264
110.483
109.715
109.077
132.011
129.423
126.181
122.893
119.936
117.414
115.323
113.625
112.219
111.226
150.399
145.521
139.417
133.662
128.763
124.778
121.608
119.165
117.05
115.443
186.068
175.859
164.746