/*--------------------------------*- C++ -*----------------------------------*\
| =========                 |                                                 |
| \\      /  F ield         | foam-extend: Open Source CFD                    |
|  \\    /   O peration     | Version:     4.0                                |
|   \\  /    A nd           | Web:         http://www.foam-extend.org         |
|    \\/     M anipulation  |                                                 |
\*---------------------------------------------------------------------------*/
FoamFile
{
    version     2.0;
    format      ascii;
    class       volScalarField;
    location    "1550";
    object      k;
}
// * * * * * * * * * * * * * * * * * * * * * * * * * * * * * * * * * * * * * //

dimensions      [0 2 -2 0 0 0 0];

internalField   nonuniform List<scalar> 
34480
(
8.76695
8.76453
8.7644
8.76618
8.77001
8.77617
8.79111
8.8544
9.07676
9.68529
9.2728
8.66181
8.56928
8.84893
9.44798
10.3352
11.9352
15.8494
28.738
67.0225
15.0227
13.5549
13.1098
13.2589
13.83
14.8642
17.2003
22.9011
41.6401
101.417
14.4754
12.9493
12.5
12.6949
13.4058
14.821
17.9945
25.3999
49.2543
127.798
13.4152
12.0005
11.6501
11.9174
12.7689
14.479
18.2487
26.9479
55.2723
151.59
12.2094
10.9367
10.6246
10.9066
11.798
13.691
17.9319
27.8936
61.0595
176.665
11.3187
10.199
9.94454
10.2196
11.1144
13.0795
17.5803
28.4106
65.5125
198.009
9.83419
8.9982
8.7935
9.00925
9.72166
11.3915
15.4846
26.1164
64.5335
205.568
6.88054
6.61205
6.56342
6.6734
7.00272
7.72725
9.72715
16.269
43.4001
149.627
9.23821
9.23847
9.24435
9.25724
9.27536
9.29697
9.32293
9.36144
9.43238
9.50534
8.67836
8.67534
8.67475
8.67653
8.68132
8.68972
8.70298
8.734
8.80818
9.06687
7.92507
7.5055
7.41217
7.56987
8.01678
8.85935
10.3014
12.105
15.427
41.173
12.223
11.1611
10.8692
11.0729
11.7518
13.0136
15.2125
18.1164
23.7881
66.4218
12.1275
10.9599
10.6414
10.885
11.6901
13.2406
16.0215
20.0059
28.3898
86.1959
11.5889
10.4555
10.1888
10.4649
11.3573
13.098
16.286
21.0653
31.8399
104.315
10.7976
9.74751
9.49216
9.76589
10.6636
12.4894
15.9576
21.4454
34.8339
123.721
10.2088
9.25675
9.03953
9.29292
10.1657
11.9928
15.5982
21.5415
37.1032
140.965
9.05
8.32817
8.14404
8.33543
9.01263
10.5093
13.655
19.2764
35.6965
147.358
6.6434
6.39606
6.34186
6.41597
6.68047
7.26523
8.61135
11.5582
22.4858
102.397
9.111
9.10632
9.10689
9.1141
9.12677
9.14261
9.16356
9.19923
9.27217
9.45729
8.57666
8.57376
8.57285
8.57384
8.577
8.58201
8.58782
8.60073
8.62949
8.69508
6.7796
6.56799
6.51386
6.58978
6.82118
7.26839
8.0634
9.35824
11.1351
16.4371
9.68339
9.06343
8.91009
9.07786
9.59771
10.5531
12.1692
14.566
17.547
29.1813
9.88105
9.14315
8.95776
9.17175
9.83106
11.0868
13.2795
16.6358
21.1126
40.7669
9.75278
8.99761
8.8347
9.07138
9.8095
11.2526
13.8551
17.9328
23.7754
52.2624
9.32568
8.5982
8.43058
8.66833
9.42212
10.967
13.8804
18.6101
26.02
64.9142
9.01176
8.32724
8.18088
8.40327
9.14412
10.711
13.7943
18.9473
27.7423
76.9373
8.19238
7.66396
7.53464
7.70485
8.27934
9.56083
12.2651
17.1549
26.6461
82.8837
6.3725
6.18023
6.14039
6.20127
6.41203
6.87456
7.92284
10.3654
16.6949
57.1018
8.99145
8.9837
8.98119
8.98511
8.99472
9.00785
9.02585
9.05936
9.1381
9.33805
8.46122
8.45938
8.45885
8.45963
8.46181
8.46463
8.46587
8.46925
8.47818
8.49756
6.00685
5.91589
5.88868
5.91954
6.01982
6.21265
6.54976
7.13196
7.99649
9.88176
7.80386
7.49101
7.41797
7.5135
7.81513
8.37835
9.33033
10.8192
12.6585
17.0753
8.11974
7.70204
7.59812
7.73563
8.16172
8.98403
10.418
12.7232
15.5983
23.5569
8.24298
7.7841
7.68704
7.84481
8.3428
9.33
11.1166
14.0797
17.8834
30.1298
8.08038
7.61169
7.50191
7.66875
8.19793
9.29639
11.3816
14.9894
19.8617
37.6425
7.97301
7.50845
7.40883
7.57018
8.10665
9.25143
11.5167
15.5704
21.3638
44.9669
7.4434
7.07294
6.98082
7.10913
7.53263
8.47792
10.4753
14.3763
20.6481
48.7734
6.1308
5.98378
5.95387
5.99979
6.15706
6.49489
7.22311
8.98306
12.9779
33.0376
8.85754
8.84974
8.84693
8.8503
8.85941
8.87307
8.89189
8.92576
8.9989
9.15474
8.33357
8.33271
8.33252
8.33302
8.33421
8.33514
8.33356
8.33219
8.33211
8.33424
5.53662
5.50198
5.48878
5.49867
5.53493
5.60387
5.71945
5.91151
6.17934
6.62202
6.56324
6.42523
6.39423
6.43456
6.57109
6.82973
7.26949
7.98154
8.88046
10.3584
6.86904
6.65199
6.59515
6.66593
6.89319
7.33593
8.11108
9.40659
11.0464
14.022
7.0993
6.83917
6.7826
6.86989
7.15529
7.72328
8.75558
10.5572
12.8861
17.7791
7.0951
6.80815
6.73627
6.83671
7.16029
7.83236
9.11169
11.461
14.613
22.2381
7.11897
6.81588
6.74765
6.84949
7.19409
7.92551
9.36935
12.1271
15.9806
26.6521
6.81227
6.56045
6.4943
6.58028
6.86211
7.4829
8.77545
11.4709
15.6893
29.0167
5.91781
5.80688
5.78412
5.8159
5.92681
6.159
6.62903
7.7397
10.1037
19.2399
8.71409
8.70639
8.70337
8.70624
8.71471
8.72815
8.74661
8.77802
8.83951
8.95202
8.19462
8.19452
8.1946
8.19488
8.19536
8.19501
8.19253
8.18997
8.18779
8.18647
5.26977
5.25819
5.25176
5.25403
5.26539
5.28735
5.32304
5.37805
5.44803
5.53797
5.80786
5.75609
5.74619
5.75964
5.81078
5.90791
6.07101
6.33465
6.67548
7.14033
6.04127
5.93717
5.90818
5.94069
6.04898
6.25761
6.61471
7.21104
7.98913
9.10861
6.28068
6.1436
6.11355
6.15719
6.30543
6.59518
7.10988
8.01979
9.23881
11.2054
6.34979
6.18385
6.1395
6.19567
6.37859
6.75091
7.44209
8.73863
10.54
13.8067
6.44099
6.25272
6.20883
6.26891
6.47606
6.90503
7.7265
9.33805
11.6526
16.3968
6.29256
6.12947
6.08461
6.13952
6.31712
6.69775
7.4582
9.07478
11.6562
17.7709
5.73245
5.65125
5.63502
5.65633
5.73251
5.88768
6.18303
6.835
8.09946
11.8453
8.56017
8.55285
8.54982
8.55229
8.56005
8.57271
8.59003
8.61786
8.66588
8.74063
8.04495
8.04537
8.04563
8.04577
8.04577
8.04462
8.04231
8.03983
8.03758
8.03592
5.12627
5.12272
5.11918
5.11912
5.12205
5.12851
5.13877
5.15341
5.16992
5.18607
5.37508
5.35985
5.35882
5.3617
5.37682
5.40621
5.45556
5.5339
5.63368
5.75142
5.52559
5.4783
5.46418
5.47797
5.52614
5.61703
5.76604
6.00351
6.30974
6.68167
5.72626
5.65845
5.64399
5.66398
5.73569
5.87185
6.1032
6.49838
7.03223
7.75179
5.81435
5.72296
5.69695
5.72653
5.82421
6.01726
6.35926
6.98293
7.86784
9.18892
5.9283
5.81625
5.78956
5.82285
5.94125
6.17863
6.61056
7.43818
8.65423
10.6635
5.88328
5.78264
5.75377
5.78713
5.89365
6.11532
6.53522
7.40049
8.80283
11.472
5.57773
5.51972
5.50875
5.52248
5.57345
5.67461
5.85793
6.22991
6.88956
8.32535
8.39522
8.38851
8.38563
8.38775
8.39468
8.40605
8.42159
8.44528
8.48185
8.53114
7.8849
7.88564
7.88602
7.88607
7.88578
7.88445
7.88259
7.8806
7.87881
7.87746
5.05177
5.05043
5.04812
5.04761
5.04825
5.05033
5.05339
5.05738
5.06118
5.06365
5.13741
5.13553
5.13743
5.13704
5.13936
5.14493
5.15559
5.17352
5.19652
5.22053
5.2191
5.19816
5.1914
5.197
5.21783
5.25634
5.31657
5.40596
5.51537
5.62757
5.36758
5.33594
5.32981
5.33826
5.37123
5.43195
5.53027
5.68766
5.89326
6.12797
5.44674
5.3986
5.38406
5.39893
5.449
5.54505
5.70673
5.98321
6.36835
6.85736
5.55734
5.49316
5.47785
5.4953
5.56047
5.68702
5.90491
6.29698
6.86486
7.64929
5.57421
5.51535
5.49782
5.51721
5.57819
5.70184
5.92498
6.35653
7.04558
8.13638
5.45346
5.41283
5.40586
5.41444
5.44798
5.5129
5.62618
5.837
6.18472
6.75853
8.21873
8.21281
8.2102
8.21199
8.218
8.22775
8.2411
8.26049
8.28769
8.3206
7.71454
7.71547
7.71592
7.71592
7.71547
7.71436
7.71297
7.71151
7.71021
7.70921
5.01348
5.0125
5.01078
5.01034
5.01063
5.01165
5.01296
5.01445
5.01557
5.01579
5.0112
5.01318
5.01556
5.01455
5.01326
5.01201
5.01164
5.01296
5.01578
5.01882
5.04449
5.03504
5.03171
5.03398
5.04311
5.0597
5.08458
5.11891
5.15823
5.19218
5.14512
5.13111
5.12895
5.13224
5.14687
5.17313
5.21397
5.27486
5.35028
5.42312
5.20518
5.18085
5.17306
5.18027
5.20515
5.25168
5.32678
5.44602
5.60536
5.77911
5.3004
5.26477
5.25647
5.26518
5.30011
5.36607
5.47441
5.65489
5.90512
6.19415
5.35062
5.3183
5.30835
5.31917
5.35243
5.41854
5.53381
5.74159
6.06227
6.49255
5.35753
5.32943
5.32529
5.33058
5.35253
5.39402
5.46402
5.58392
5.76875
6.02075
8.03027
8.02526
8.02301
8.02449
8.02952
8.03751
8.04852
8.06378
8.08349
8.10536
7.53403
7.53487
7.53536
7.53532
7.53487
7.53408
7.5331
7.53208
7.53119
7.53046
4.99309
4.99218
4.99084
4.99056
4.99091
4.99169
4.99263
4.99363
4.99433
4.99431
4.94602
4.94852
4.95054
4.94971
4.94795
4.94556
4.94309
4.94103
4.93975
4.93909
4.94914
4.94451
4.94275
4.94373
4.94796
4.95557
4.96656
4.98078
4.99609
5.00738
5.01279
5.00677
5.00623
5.00741
5.01383
5.02515
5.04219
5.06598
5.09378
5.11716
5.05333
5.04148
5.03746
5.04088
5.05298
5.07512
5.10977
5.16122
5.22711
5.2916
5.13008
5.11067
5.10639
5.11061
5.1291
5.1632
5.21714
5.30063
5.41033
5.51873
5.19582
5.17947
5.17431
5.18013
5.19732
5.231
5.28859
5.38629
5.53157
5.70631
5.28632
5.26692
5.26468
5.26801
5.28252
5.30931
5.35279
5.42166
5.51993
5.64019
7.82955
7.82551
7.82365
7.82484
7.82888
7.83515
7.84387
7.85544
7.86935
7.88366
7.34313
7.3438
7.34422
7.34419
7.34389
7.34335
7.34269
7.342
7.34141
7.34086
4.98122
4.98044
4.97945
4.97929
4.97964
4.98033
4.98116
4.98201
4.98267
4.98265
4.91307
4.91514
4.91665
4.91613
4.91475
4.91279
4.91064
4.90863
4.9072
4.90638
4.89936
4.8968
4.89578
4.89625
4.8984
4.90221
4.90756
4.91415
4.92094
4.92527
4.93737
4.93468
4.93463
4.93505
4.93798
4.94311
4.95061
4.96045
4.97121
4.97946
4.96218
4.95659
4.95456
4.95619
4.96199
4.97243
4.98839
5.01081
5.03846
5.06456
5.02215
5.01154
5.00941
5.01148
5.02136
5.03919
5.06648
5.1061
5.15523
5.19875
5.09332
5.08601
5.0837
5.08676
5.09505
5.11118
5.13853
5.18296
5.24652
5.32206
5.23536
5.22183
5.22079
5.22302
5.23291
5.25061
5.27798
5.3182
5.37032
5.43146
7.61641
7.6133
7.61186
7.61277
7.61586
7.62059
7.62724
7.6357
7.64523
7.65443
7.14158
7.14213
7.14247
7.14245
7.14227
7.14191
7.14148
7.14103
7.14063
7.1402
4.97334
4.97273
4.97206
4.97197
4.97228
4.97286
4.97357
4.9743
4.97493
4.97486
4.8966
4.89814
4.89921
4.89893
4.89803
4.89674
4.8953
4.89396
4.89309
4.89261
4.87466
4.8731
4.87248
4.87273
4.87391
4.87596
4.87878
4.88217
4.88564
4.88759
4.89627
4.89486
4.89483
4.89501
4.89653
4.89919
4.90295
4.9076
4.9123
4.9158
4.91009
4.9075
4.90648
4.90727
4.91006
4.91499
4.92236
4.93227
4.94411
4.95577
4.95678
4.95077
4.94971
4.95083
4.95634
4.96603
4.98035
5.00006
5.02302
5.04228
5.02832
5.02578
5.02508
5.02666
5.03028
5.03732
5.0492
5.06816
5.09395
5.12909
5.19996
5.19035
5.19002
5.19168
5.19874
5.21083
5.22844
5.2525
5.28009
5.31313
7.39078
7.38852
7.38747
7.38814
7.39037
7.39384
7.39872
7.40467
7.41102
7.41681
6.92918
6.92964
6.9299
6.9299
6.92979
6.92957
6.92928
6.92899
6.92873
6.92837
4.96732
4.96692
4.9665
4.96647
4.96672
4.96717
4.96773
4.96832
4.96889
4.96873
4.88835
4.88948
4.89022
4.89011
4.88959
4.88883
4.888
4.88725
4.88688
4.88669
4.86318
4.8622
4.86185
4.86199
4.86263
4.86374
4.86526
4.86709
4.86904
4.87004
4.87494
4.87398
4.87385
4.87396
4.87492
4.87659
4.87886
4.88153
4.88406
4.88599
4.88185
4.88063
4.88012
4.88051
4.88188
4.88425
4.88769
4.89216
4.89737
4.90317
4.91889
4.91524
4.91468
4.9154
4.9187
4.92434
4.93235
4.94287
4.95441
4.96421
4.98857
4.98833
4.98847
4.98929
4.99061
4.99317
4.99745
5.00451
5.0131
5.03107
5.17579
5.1688
5.16886
5.17025
5.17556
5.18411
5.19581
5.21066
5.22521
5.24448
7.15272
7.15118
7.15048
7.15095
7.15245
7.15496
7.15839
7.16243
7.1665
7.17009
6.70576
6.70615
6.70636
6.70636
6.7063
6.70616
6.70598
6.70579
6.70562
6.7053
4.96221
4.96204
4.96182
4.96183
4.96201
4.96233
4.96273
4.96318
4.96371
4.96344
4.88415
4.88499
4.88549
4.88548
4.88521
4.88484
4.88444
4.8841
4.88409
4.8841
4.85839
4.85783
4.85767
4.85774
4.85805
4.85858
4.85934
4.86028
4.86141
4.86199
4.8645
4.86371
4.86348
4.86357
4.86427
4.86549
4.8671
4.86893
4.87059
4.87194
4.86742
4.86681
4.86653
4.86674
4.86744
4.86862
4.87028
4.87236
4.87473
4.87795
4.8977
4.89527
4.89493
4.89549
4.89765
4.90121
4.90606
4.9122
4.9186
4.92456
4.9646
4.9653
4.96585
4.96629
4.96658
4.96709
4.96788
4.96962
4.97066
4.98114
5.15908
5.15396
5.15424
5.15551
5.15961
5.16592
5.174
5.18353
5.19105
5.20342
6.9025
6.90144
6.901
6.9013
6.90234
6.90407
6.90638
6.909
6.91151
6.91369
6.47126
6.4716
6.47175
6.47176
6.47173
6.47165
6.47153
6.47141
6.47129
6.47099
4.9576
4.95765
4.95759
4.95764
4.95777
4.95797
4.95823
4.95853
4.95905
4.95869
4.8819
4.88255
4.88286
4.8829
4.88281
4.88268
4.88257
4.88251
4.88274
4.8829
4.8569
4.85663
4.85659
4.85662
4.85672
4.85689
4.85717
4.85758
4.85821
4.8586
4.85978
4.8591
4.85882
4.85889
4.85943
4.86037
4.8616
4.86296
4.86419
4.86524
4.86058
4.86022
4.86005
4.86015
4.86054
4.86117
4.86202
4.86305
4.86417
4.86614
4.88596
4.88422
4.88398
4.88444
4.88595
4.88837
4.89154
4.89543
4.89934
4.90362
4.94955
4.95048
4.95118
4.95145
4.95134
4.95106
4.95046
4.95007
4.94805
4.95515
5.14693
5.14316
5.14359
5.14478
5.14805
5.1529
5.15872
5.16509
5.16872
5.1775
6.64032
6.63962
6.63934
6.63955
6.64024
6.64137
6.64285
6.64446
6.64593
6.64723
6.22573
6.22602
6.22613
6.22615
6.22614
6.22609
6.22601
6.22593
6.22585
6.22557
4.95331
4.95359
4.95365
4.95374
4.95382
4.95391
4.95405
4.95424
4.95479
4.95438
4.88054
4.88103
4.88121
4.88126
4.88126
4.8813
4.88137
4.88149
4.88189
4.88221
4.85697
4.85688
4.85692
4.85692
4.85689
4.85686
4.85686
4.85695
4.85727
4.8576
4.85794
4.85737
4.85708
4.85712
4.85753
4.85824
4.85916
4.86018
4.86112
4.86197
4.85771
4.85745
4.85732
4.85737
4.85759
4.85796
4.85843
4.85897
4.85954
4.86081
4.87908
4.87778
4.87757
4.87795
4.87904
4.88073
4.88289
4.88547
4.88804
4.89141
4.93863
4.93945
4.94014
4.94034
4.94016
4.9397
4.93874
4.93772
4.93474
4.94021
5.13714
5.13438
5.13487
5.13601
5.13869
5.14253
5.14689
5.15131
5.1527
5.15947
6.36651
6.36608
6.36591
6.36605
6.36648
6.36717
6.36807
6.369
6.36979
6.37054
5.96947
5.96972
5.9698
5.96982
5.96982
5.96979
5.96974
5.96968
5.96961
5.96935
4.94922
4.94971
4.94985
4.94999
4.95004
4.95006
4.95008
4.95017
4.95078
4.95043
4.87947
4.8798
4.87986
4.87989
4.87995
4.88008
4.88026
4.8805
4.88098
4.88149
4.8577
4.8577
4.85776
4.85774
4.85766
4.85753
4.85741
4.85735
4.85748
4.85781
4.85747
4.857
4.85675
4.85677
4.85705
4.85755
4.8582
4.85892
4.85961
4.86029
4.85683
4.85662
4.85651
4.85653
4.85666
4.85687
4.85714
4.85744
4.85774
4.85855
4.8742
4.87322
4.87304
4.87331
4.87407
4.87523
4.87667
4.87837
4.88008
4.88277
4.9286
4.92915
4.92977
4.92994
4.92981
4.92941
4.92854
4.92753
4.92457
4.92906
5.12772
5.12578
5.12628
5.12735
5.12957
5.13266
5.136
5.13912
5.13918
5.14459
6.08161
6.08137
6.08128
6.08136
6.0816
6.082
6.0825
6.08298
6.08336
6.08378
5.70312
5.70333
5.7034
5.70341
5.70341
5.70339
5.70335
5.70331
5.70325
5.70301
4.94506
4.94569
4.94591
4.94609
4.94613
4.94609
4.94602
4.94601
4.94663
4.94652
4.87831
4.87843
4.87839
4.87839
4.87847
4.87863
4.87886
4.87915
4.87964
4.88037
4.85854
4.85853
4.85858
4.85855
4.85846
4.85833
4.85818
4.85809
4.85813
4.85847
4.85761
4.85726
4.85707
4.85707
4.85724
4.85755
4.85796
4.85843
4.85891
4.85943
4.85693
4.85678
4.8567
4.85669
4.85676
4.85687
4.857
4.85714
4.85728
4.85776
4.86958
4.86887
4.86872
4.86889
4.86936
4.87007
4.87095
4.87196
4.87305
4.87509
4.91731
4.91759
4.91807
4.9182
4.91811
4.91779
4.91711
4.91629
4.91384
4.91748
5.11593
5.11467
5.11514
5.11612
5.11791
5.12034
5.12288
5.125
5.12425
5.12843
5.78646
5.78634
5.78629
5.78633
5.78646
5.78665
5.7869
5.78712
5.78727
5.78749
5.42753
5.4277
5.42774
5.42775
5.42775
5.42774
5.42772
5.42768
5.42763
5.42745
4.9394
4.94004
4.94042
4.94066
4.94072
4.94063
4.94044
4.94028
4.94064
4.941
4.87671
4.87658
4.87647
4.87643
4.87648
4.87664
4.87686
4.87716
4.87759
4.87847
4.85907
4.85901
4.85901
4.85898
4.85892
4.85883
4.85873
4.85867
4.85869
4.85902
4.85808
4.85785
4.85773
4.85772
4.85781
4.85798
4.85821
4.85848
4.85878
4.85912
4.85757
4.85748
4.85743
4.85742
4.85743
4.85747
4.8575
4.85754
4.85759
4.85781
4.86464
4.8642
4.86409
4.86416
4.8644
4.86476
4.86519
4.86568
4.86627
4.86762
4.90359
4.90362
4.90391
4.90396
4.90383
4.90352
4.90297
4.90234
4.90072
4.90341
5.09471
5.09403
5.09442
5.09523
5.09656
5.09833
5.10011
5.10135
5.10017
5.10292
5.48206
5.482
5.48199
5.482
5.48204
5.4821
5.48218
5.48224
5.48229
5.48239
5.1425
5.1426
5.14261
5.14262
5.14262
5.14261
5.14261
5.1426
5.1426
5.14251
4.92462
4.9252
4.92583
4.92616
4.92624
4.92612
4.92582
4.9254
4.92498
4.92558
4.87362
4.87327
4.87306
4.87296
4.87298
4.87309
4.87329
4.87358
4.874
4.87487
4.85935
4.85928
4.85926
4.85924
4.85921
4.85917
4.85914
4.85912
4.85914
4.85935
4.85892
4.8588
4.85874
4.85873
4.85877
4.85885
4.85895
4.85908
4.85923
4.85942
4.85862
4.85858
4.85856
4.85855
4.85854
4.85854
4.85853
4.85852
4.85851
4.85856
4.86079
4.8606
4.86055
4.86057
4.86066
4.86079
4.86094
4.86111
4.86134
4.86195
4.8869
4.88673
4.88679
4.88673
4.88655
4.88624
4.88582
4.8854
4.88484
4.88658
5.04069
5.04041
5.04066
5.04117
5.04196
5.04299
5.04401
5.04455
5.04353
5.04452
5.16845
5.16842
5.16843
5.16843
5.16844
5.16844
5.16844
5.16843
5.1684
5.16846
11.2678
11.3828
11.3373
11.121
82.8098
84.8857
85.3452
85.9944
143.144
148.615
149.084
147.838
202.8
212.232
212.099
207.807
264.466
278.121
276.915
269.459
332.735
351.006
348.906
340.165
395.086
417.724
415.34
407.949
433.057
459.311
457.361
452.784
345.555
368.114
365.563
364.211
11.4755
11.714
11.558
11.1504
9.71313
9.77249
9.77533
9.73134
76.0792
79.3206
80.0805
80.2013
133.898
144.814
145.914
143.746
192.919
214.541
215.073
209.171
256.145
290.975
290.023
280.065
329.495
380.234
378.459
365.581
399.548
466.536
465.567
452.531
445.984
527.429
528.466
517.268
350.394
422.707
420.799
415.958
10.7105
10.9411
10.8707
10.6505
8.77658
8.78954
8.78854
8.77704
26.538
28.9543
28.2169
25.7077
49.3604
53.7661
52.1012
47.4262
74.5885
81.3463
78.2249
70.7073
103.463
113
107.818
96.7329
139.446
152.803
145.173
129.278
177.303
194.658
184.496
163.472
207.499
228.661
216.4
190.865
164.684
181.563
170.083
149.253
9.91215
10.0028
9.97969
9.88054
8.51174
8.51429
8.51495
8.51399
11.4739
11.7235
11.6939
11.4966
21.2149
21.9422
21.8785
21.3358
32
33.4864
33.2337
31.9172
44.5141
46.9462
46.2806
43.7575
60.6376
64.4035
63.0817
58.7644
78.0559
83.1645
80.8952
74.4503
92.5672
99.1117
95.8224
87.1307
71.9212
77.0559
73.5435
65.9445
9.44816
9.49257
9.4895
9.44911
8.33275
8.33384
8.3341
8.33346
7.04284
7.13444
7.15964
7.12972
11.6797
11.9761
12.059
11.9727
16.8731
17.4875
17.5877
17.3207
22.8387
23.858
23.8933
23.289
30.7149
32.3388
32.2251
31.0359
39.2235
41.4561
41.0371
39.0575
46.2579
49.1909
48.3724
45.3925
34.3956
36.6114
35.4205
32.5416
9.0979
9.12182
9.12343
9.10649
8.18243
8.18335
8.18344
8.18268
5.6073
5.62159
5.62681
5.62507
7.45709
7.52699
7.55966
7.56095
9.93874
10.1223
10.1894
10.1642
12.8348
13.1802
13.2662
13.1656
16.797
17.4127
17.5021
17.2342
21.0455
21.941
21.9636
21.4344
24.476
25.7261
25.6237
24.6877
17.4782
18.3707
18.0158
17.0128
8.8124
8.8243
8.82666
8.82053
8.03159
8.03248
8.03255
8.03177
5.19727
5.20046
5.20132
5.20033
5.82374
5.83949
5.84809
5.85026
6.91497
6.9677
6.99275
6.9938
8.25952
8.37144
8.41556
8.4058
10.2339
10.461
10.5305
10.4817
12.3581
12.705
12.7747
12.6557
14.0514
14.5698
14.6159
14.3519
10.2203
10.5556
10.4768
10.186
8.565
8.57047
8.57254
8.57114
7.87334
7.87421
7.87428
7.87353
5.06341
5.06456
5.06457
5.06363
5.23341
5.23573
5.23713
5.23777
5.68436
5.69659
5.70304
5.70438
6.2658
6.29591
6.3103
6.31179
7.19409
7.26928
7.29968
7.29397
8.21505
8.3354
8.37491
8.35629
9.06745
9.26709
9.31126
9.24605
7.33796
7.45011
7.44384
7.37795
8.33701
8.33929
8.34075
8.34097
7.70535
7.70618
7.70625
7.70554
5.0134
5.01432
5.01425
5.01333
5.02044
5.02052
5.02054
5.02057
5.20454
5.20677
5.20799
5.20833
5.45541
5.46185
5.46533
5.46641
5.88049
5.90319
5.91357
5.91341
6.35856
6.39396
6.40904
6.40934
6.80556
6.87627
6.8985
6.88395
6.19781
6.23139
6.23557
6.22514
8.11381
8.1146
8.11549
8.11605
7.52687
7.52765
7.52772
7.52706
4.9914
4.99225
4.99219
4.99131
4.93896
4.93883
4.93871
4.93861
5.00962
5.00978
5.00986
5.00989
5.12346
5.12424
5.12473
5.12509
5.32329
5.33011
5.3333
5.33321
5.55944
5.56761
5.57207
5.57413
5.81355
5.83801
5.8469
5.84273
5.69806
5.70541
5.70796
5.70877
7.88815
7.88826
7.88876
7.88929
7.33754
7.33826
7.33832
7.33771
4.97962
4.9804
4.98035
4.9795
4.90612
4.90607
4.90598
4.90585
4.92537
4.92522
4.92512
4.92511
4.98025
4.98002
4.97991
4.97997
5.0766
5.07903
5.08005
5.07973
5.20642
5.20732
5.20828
5.20965
5.36598
5.37542
5.37862
5.37597
5.45363
5.45256
5.45306
5.45536
7.65678
7.65662
7.65688
7.65729
7.13717
7.13782
7.13787
7.13731
4.97184
4.97254
4.97247
4.97167
4.89239
4.89239
4.89232
4.8922
4.88727
4.88712
4.88704
4.88704
4.91569
4.91543
4.91526
4.91523
4.9618
4.96297
4.96337
4.96301
5.04248
5.04189
5.0419
5.04264
5.15334
5.15801
5.15906
5.15652
5.32446
5.32107
5.32052
5.32244
7.4179
7.41769
7.41782
7.41809
6.92562
6.9262
6.92624
6.92574
4.9658
4.96639
4.96629
4.96553
4.8865
4.88652
4.88646
4.88634
4.86969
4.86958
4.86953
4.86955
4.88589
4.88573
4.88561
4.88556
4.90693
4.90767
4.90788
4.90756
4.96361
4.96299
4.96282
4.96318
5.04866
5.05175
5.05203
5.04948
5.25247
5.24888
5.24794
5.24922
7.17039
7.17023
7.17029
7.17042
6.70286
6.70336
6.70338
6.70293
4.96065
4.96113
4.961
4.96028
4.88393
4.88396
4.88391
4.88378
4.86171
4.86165
4.86162
4.86163
4.87196
4.87188
4.87181
4.87175
4.88058
4.88111
4.88123
4.88096
4.92471
4.92437
4.92424
4.92434
4.9961
4.99864
4.99864
4.99608
5.2104
5.20734
5.20633
5.20696
6.91345
6.91341
6.91344
6.91344
6.46889
6.4693
6.4693
6.46892
4.95609
4.95645
4.95629
4.95562
4.88281
4.88285
4.88281
4.88267
4.85845
4.85842
4.85841
4.85841
4.86535
4.86532
4.86527
4.86522
4.86804
4.86843
4.8685
4.86828
4.9047
4.90467
4.90459
4.90451
4.96892
4.97128
4.97117
4.96858
5.18426
5.18199
5.18106
5.18105
6.64661
6.64672
6.64673
6.64662
6.22384
6.22416
6.22414
6.22382
4.95203
4.95228
4.95208
4.95146
4.88229
4.88237
4.88234
4.88218
4.85761
4.85763
4.85763
4.85761
4.86212
4.86212
4.86209
4.86205
4.86218
4.86245
4.86248
4.8623
4.89322
4.89343
4.89341
4.89319
4.9533
4.95568
4.95554
4.95286
5.16627
5.16492
5.16414
5.16351
6.36965
6.3699
6.36991
6.3697
5.96806
5.96828
5.96824
5.96798
4.94844
4.9486
4.94839
4.94782
4.88189
4.88205
4.88203
4.88182
4.858
4.85806
4.85807
4.85802
4.86047
4.86049
4.86048
4.86044
4.85948
4.85966
4.85967
4.85952
4.88497
4.88535
4.88537
4.88506
4.94154
4.94404
4.94391
4.94112
5.15148
5.15114
5.15057
5.14931
6.0827
6.08307
6.08308
6.0828
5.70224
5.70235
5.70228
5.70209
4.94516
4.94533
4.94514
4.94459
4.8812
4.88146
4.88145
4.88117
4.85882
4.85892
4.85894
4.85887
4.85962
4.85965
4.85965
4.85963
4.85831
4.85842
4.85841
4.85832
4.8773
4.87774
4.8778
4.87747
4.92877
4.93142
4.93133
4.92849
5.13518
5.13605
5.13576
5.13382
5.7863
5.78675
5.78677
5.78646
5.4273
5.42727
5.42718
5.42709
4.94093
4.94131
4.94119
4.94057
4.87959
4.87993
4.87992
4.87957
4.85941
4.85953
4.85955
4.85947
4.8593
4.85934
4.85935
4.85934
4.85805
4.85809
4.85809
4.85804
4.86943
4.86983
4.86988
4.86961
4.91199
4.9144
4.91436
4.91188
5.10875
5.11111
5.11118
5.1084
5.48135
5.48186
5.48189
5.48155
5.14309
5.14285
5.14276
5.14283
4.9272
4.92809
4.92808
4.92713
4.87565
4.87587
4.87582
4.87554
4.85958
4.85965
4.85967
4.85962
4.85954
4.85957
4.85958
4.85958
4.85861
4.85861
4.85861
4.8586
4.86293
4.86315
4.86319
4.86305
4.89074
4.8919
4.89186
4.89064
5.04727
5.05077
5.05108
5.04768
5.16794
5.1685
5.16851
5.16814
10.1117
9.36608
9.05416
8.94169
8.87724
8.83183
8.80159
8.78461
8.77515
8.76951
103.678
49.1212
35.7489
29.9477
24.5468
19.9381
16.3521
13.679
11.772
10.4109
160.963
70.8705
51.0937
43.7314
37.1732
31.4046
26.5715
22.6912
19.6484
17.2751
206.431
82.6057
55.9784
46.7121
39.3398
32.7431
27.2061
22.8142
19.4245
16.8383
242.041
88.9464
58.8157
47.9454
40.0541
32.7135
26.656
21.936
18.3517
15.708
277.995
94.6743
60.9568
48.2801
39.8232
31.767
25.335
20.4499
16.8695
14.3198
307.02
98.1315
61.6685
47.7588
39.0265
30.5032
23.9295
19.0625
15.5849
13.202
315.097
93.7169
56.6044
42.2079
33.902
25.7747
19.9141
15.7887
13.0392
11.2232
224.36
56.1083
30.5303
21.1069
16.2768
12.2196
9.95188
8.61054
7.8021
7.27805
9.5689
9.54426
9.38888
9.36274
9.31616
9.29004
9.26928
9.25823
9.25077
9.24432
9.3666
9.05661
8.90446
8.81889
8.76497
8.72937
8.70626
8.69253
8.68512
8.68041
53.1031
28.6723
22.5574
19.4471
16.664
14.192
12.1569
10.5944
9.45499
8.66327
90.0027
46.2787
35.8024
31.016
27.1715
23.4966
20.277
17.6178
15.49
13.8715
122.267
58.6158
42.8648
35.6261
30.5372
25.7516
21.6811
18.4086
15.8596
13.9739
152.555
68.7676
47.8522
38.5091
32.3698
26.6631
21.9631
18.2852
15.4743
13.4651
186.419
78.8698
52.1362
40.4622
33.2434
26.6559
21.4419
17.4853
14.5825
12.5834
217.163
86.461
54.7005
41.2357
33.3404
26.1663
20.6883
16.6526
13.7639
11.8473
233.126
86.7279
51.9024
37.4707
29.5676
22.5689
17.5671
14.0774
11.7586
10.2788
167.336
54.7365
29.0529
19.3731
14.6902
11.2233
9.27218
8.12763
7.43214
7.00135
9.81795
9.50159
9.33048
9.26721
9.21233
9.17905
9.1549
9.14015
9.12976
9.12072
8.7375
8.69612
8.66341
8.6362
8.6149
8.59945
8.58915
8.58297
8.57953
8.57705
19.9479
16.5763
14.5024
12.6833
11.1127
9.80908
8.79447
8.04543
7.50668
7.13416
35.9211
28.7134
24.9252
21.6868
18.9088
16.499
14.503
12.8982
11.6227
10.661
51.0382
37.9382
31.5398
26.3455
22.2517
18.831
16.0875
13.9386
12.2797
11.0662
66.128
45.6933
36.6269
29.5867
24.3701
20.116
16.8044
14.2821
12.3716
11.019
83.2231
53.3426
41.1387
32.0759
25.726
20.6526
16.834
14.013
11.9682
10.5753
99.1143
59.1854
44.1425
33.4491
26.3277
20.6977
16.591
13.6485
11.5659
10.1952
108.398
59.7478
42.5898
30.9916
23.7572
18.2119
14.4195
11.8527
10.1671
9.09469
75.9226
36.6404
23.8624
16.2685
12.2226
9.68022
8.28802
7.4701
6.96161
6.64227
9.57098
9.37659
9.24266
9.16283
9.10522
9.06918
9.0441
9.027
9.01435
9.00343
8.50919
8.49914
8.48811
8.47817
8.47064
8.46551
8.46231
8.46068
8.46027
8.45977
10.9418
10.1339
9.28479
8.43998
7.73224
7.18904
6.78992
6.50167
6.293
6.14787
19.8685
18.0298
16.1776
14.3034
12.6862
11.3568
10.2946
9.45841
8.79894
8.30425
28.4784
24.6347
21.1905
17.9865
15.3968
13.3237
11.6998
10.4469
9.48858
8.79347
37.2433
30.6681
25.4302
20.8599
17.3623
14.6344
12.5578
11.0043
9.83719
9.01315
47.4693
36.9716
29.5222
23.3552
18.8591
15.4342
12.9102
11.0818
9.77063
8.88016
57.065
42.0752
32.5492
25.0079
19.7541
15.8262
13.0223
11.0574
9.67782
8.76665
62.7896
43.2605
32.0836
23.7069
18.2305
14.3022
11.6763
9.93816
8.80061
8.06792
42.7377
26.1999
17.9691
12.7888
10.0216
8.38978
7.47187
6.91735
6.5588
6.32824
9.32636
9.18785
9.08071
9.01104
8.96281
8.93114
8.9084
8.89206
8.87973
8.86928
8.33329
8.33181
8.3303
8.32913
8.32843
8.32813
8.32816
8.32861
8.32972
8.33072
6.99957
6.75944
6.50645
6.26773
6.06899
5.91223
5.79162
5.69979
5.63033
5.58228
11.6123
10.9267
10.1528
9.37443
8.68663
8.11351
7.65373
7.29178
7.00309
6.78498
16.4411
14.959
13.3766
11.8591
10.5704
9.51925
8.69077
8.05252
7.56431
7.21149
21.5371
18.9363
16.3584
14.0102
12.1104
10.6116
9.46944
8.62079
7.98098
7.52661
27.768
23.4454
19.508
16.0845
13.4404
11.4185
9.93015
8.8607
8.0935
7.56979
33.7343
27.3831
22.064
17.6388
14.3757
11.9516
10.2275
9.03136
8.18619
7.61979
37.3901
28.7895
22.2598
17.1509
13.6329
11.1557
9.50634
8.41964
7.69884
7.22408
24.5255
17.333
12.8075
9.95546
8.36225
7.40376
6.82905
6.46621
6.21987
6.05818
9.05222
8.96914
8.89753
8.84644
8.80901
8.78219
8.76197
8.74678
8.73505
8.72524
8.18327
8.18342
8.18379
8.18437
8.1851
8.18589
8.18669
8.18767
8.18916
8.19091
5.60857
5.56542
5.51403
5.46165
5.4142
5.37351
5.33986
5.31279
5.29214
5.27912
7.50553
7.31474
7.0663
6.80642
6.57056
6.37185
6.21143
6.08338
5.97663
5.89352
9.97859
9.47321
8.8516
8.22747
7.67789
7.22307
6.8609
6.57851
6.35863
6.19886
12.7367
11.7754
10.6619
9.59885
8.70546
7.99382
7.44874
7.04142
6.7267
6.49883
16.3274
14.6107
12.7532
11.0595
9.69632
8.6461
7.86878
7.30681
6.89637
6.61225
19.8639
17.2469
14.5825
12.2658
10.4849
9.15837
8.20999
7.54856
7.06879
6.73907
22.1162
18.4199
14.9963
12.2219
10.2359
8.84012
7.90001
7.27077
6.84087
6.55008
14.3927
11.5375
9.42673
8.05077
7.21484
6.67908
6.33202
6.10216
5.93796
5.82875
8.79714
8.75103
8.70681
8.67133
8.64299
8.62096
8.60355
8.58996
8.57921
8.57037
8.03248
8.03283
8.03339
8.03414
8.03499
8.03584
8.03665
8.03759
8.039
8.0408
5.19704
5.18892
5.17923
5.16845
5.15767
5.14752
5.13852
5.13106
5.12596
5.12402
5.83925
5.7935
5.7311
5.66369
5.60096
5.54716
5.50298
5.46645
5.43256
5.40429
6.95048
6.79275
6.58477
6.36813
6.17081
6.00249
5.86375
5.75131
5.6603
5.59344
8.29808
7.96384
7.54458
7.13155
6.77433
6.48382
6.25584
6.0806
5.93796
5.83115
10.2205
9.55422
8.76928
8.0307
7.41806
6.93737
6.57308
6.30206
6.09661
5.95164
12.1896
11.1261
9.92442
8.84792
7.99392
7.34819
6.87588
6.53772
6.28057
6.09786
13.518
11.9503
10.3389
8.99771
8.00313
7.2907
6.79489
6.45101
6.20636
6.03666
9.42529
8.38568
7.50641
6.88382
6.46104
6.16757
5.96244
5.82025
5.71337
5.64193
8.5616
8.53706
8.51033
8.48604
8.46498
8.44746
8.43301
8.42132
8.41184
8.40417
7.87424
7.8745
7.87492
7.8755
7.87614
7.87677
7.87736
7.87806
7.87922
7.8808
5.06314
5.0614
5.05941
5.05699
5.05428
5.05146
5.04882
5.04674
5.04597
5.04685
5.23582
5.22749
5.21575
5.20246
5.18987
5.17923
5.17084
5.16367
5.15472
5.14592
5.69451
5.65173
5.59162
5.52532
5.46146
5.40389
5.35368
5.31069
5.27427
5.2474
6.28724
6.18759
6.0537
5.91548
5.79026
5.68375
5.59626
5.52596
5.46435
5.41612
7.2208
6.9886
6.69955
6.4161
6.17053
5.96946
5.80975
5.68522
5.5863
5.51546
8.22825
7.83653
7.36077
6.91877
6.55317
6.26579
6.04587
5.88149
5.7486
5.65064
8.9839
8.36869
7.69551
7.113
6.65934
6.31959
6.07079
5.89005
5.7559
5.66117
7.18532
6.82296
6.4684
6.18744
5.97459
5.81492
5.69539
5.60908
5.54083
5.49539
8.33678
8.32341
8.30706
8.2906
8.27531
8.26185
8.25029
8.24063
8.2326
8.22621
7.70623
7.70641
7.70668
7.70706
7.70749
7.70788
7.70823
7.70867
7.70955
7.71089
5.01339
5.01265
5.01189
5.01101
5.00997
5.00882
5.00776
5.00705
5.00727
5.0085
5.02006
5.01906
5.01793
5.01667
5.0158
5.01566
5.01633
5.01699
5.01549
5.01293
5.20576
5.19455
5.17766
5.15756
5.13685
5.11697
5.09855
5.08187
5.06719
5.05643
5.46109
5.43454
5.39582
5.35296
5.31156
5.27426
5.24206
5.21496
5.18889
5.16729
5.89217
5.81791
5.72081
5.61917
5.52532
5.4437
5.37507
5.31876
5.27201
5.23841
6.37976
6.2524
6.08356
5.91678
5.76969
5.64698
5.54761
5.46972
5.40237
5.35077
6.80329
6.58092
6.32399
6.08697
5.88971
5.73289
5.6115
5.51916
5.44798
5.39737
6.17742
6.04622
5.90018
5.77091
5.66327
5.5766
5.5076
5.45596
5.41297
5.3847
8.11379
8.10627
8.09621
8.08523
8.07442