/*--------------------------------*- C++ -*----------------------------------*\
| =========                 |                                                 |
| \\      /  F ield         | foam-extend: Open Source CFD                    |
|  \\    /   O peration     | Version:     4.0                                |
|   \\  /    A nd           | Web:         http://www.foam-extend.org         |
|    \\/     M anipulation  |                                                 |
\*---------------------------------------------------------------------------*/
FoamFile
{
    version     2.0;
    format      ascii;
    class       volScalarField;
    location    "1550";
    object      MaU;
}
// * * * * * * * * * * * * * * * * * * * * * * * * * * * * * * * * * * * * * //

dimensions      [0 0 0 0 0 0 0];

internalField   nonuniform List<scalar> 
34480
(
0.623674
0.624672
0.625207
0.625321
0.625016
0.624219
0.622789
0.620046
0.613955
0.608161
0.627082
0.62791
0.628372
0.628406
0.62785
0.626559
0.624559
0.6216
0.614587
0.60904
0.62926
0.63002
0.630396
0.630306
0.629575
0.628233
0.626464
0.624175
0.617145
0.612037
0.629261
0.630041
0.630485
0.630527
0.63002
0.629081
0.627811
0.626236
0.619595
0.614964
0.629732
0.630616
0.631199
0.631459
0.631273
0.630811
0.630088
0.629284
0.623428
0.619284
0.629342
0.630282
0.630947
0.631335
0.631386
0.631329
0.631141
0.63116
0.626487
0.623164
0.629557
0.630638
0.631409
0.631936
0.632196
0.632479
0.632787
0.633625
0.6304
0.62788
0.628975
0.630096
0.630822
0.631234
0.631379
0.631617
0.632077
0.633456
0.631749
0.630416
0.628727
0.630004
0.630844
0.631391
0.631713
0.632113
0.632824
0.634701
0.634267
0.632842
0.624926
0.625946
0.62598
0.625103
0.623485
0.621505
0.619615
0.619081
0.618295
0.619103
0.613774
0.615236
0.61581
0.615562
0.614419
0.612105
0.607993
0.600727
0.59002
0.576169
0.618378
0.619687
0.620213
0.619953
0.618713
0.616121
0.611583
0.60374
0.591087
0.574936
0.621443
0.622668
0.623142
0.62285
0.621538
0.618901
0.614435
0.606755
0.593257
0.575931
0.622259
0.623494
0.624034
0.623875
0.622771
0.620478
0.616411
0.60916
0.595272
0.577527
0.623413
0.624723
0.625379
0.625425
0.62462
0.622779
0.619233
0.612626
0.598833
0.581245
0.623562
0.624914
0.625649
0.62583
0.625259
0.623833
0.620833
0.615013
0.601771
0.584973
0.624226
0.625685
0.626513
0.626838
0.626483
0.625429
0.622966
0.618001
0.605687
0.589963
0.623967
0.625453
0.626249
0.62649
0.62608
0.62509
0.622918
0.618672
0.607547
0.593513
0.623967
0.62556
0.626447
0.626803
0.626573
0.625816
0.624038
0.620539
0.610675
0.597442
0.620359
0.621768
0.622098
0.621435
0.619834
0.617446
0.613996
0.609198
0.599809
0.5897
0.606145
0.607712
0.608277
0.607957
0.606717
0.604398
0.600705
0.59514
0.587069
0.576881
0.611036
0.61257
0.613129
0.612754
0.611324
0.608576
0.604004
0.596749
0.585363
0.570209
0.614378
0.615911
0.616465
0.616087
0.614595
0.611669
0.60669
0.598529
0.584516
0.5647
0.615687
0.617282
0.617914
0.617649
0.616285
0.613499
0.608515
0.599929
0.583764
0.559844
0.617319
0.619003
0.619743
0.619658
0.618524
0.616045
0.611299
0.602695
0.585031
0.557823
0.617888
0.619627
0.620451
0.620498
0.619565
0.617408
0.613005
0.60468
0.58613
0.556554
0.618915
0.620747
0.62166
0.621851
0.621119
0.619288
0.615294
0.607445
0.588583
0.557341
0.618956
0.620813
0.62171
0.621845
0.621086
0.619341
0.615619
0.608299
0.589651
0.557569
0.619216
0.621136
0.622103
0.622328
0.6217
0.620149
0.61679
0.610135
0.592133
0.55865
0.61585
0.6176
0.618154
0.617621
0.615984
0.613244
0.608739
0.601314
0.583869
0.550803
0.600586
0.60196
0.602433
0.602125
0.601034
0.599103
0.596234
0.592331
0.587373
0.581842
0.605213
0.606678
0.607189
0.606781
0.605383
0.602847
0.598926
0.593274
0.585449
0.576525
0.608406
0.609991
0.610537
0.610099
0.60855
0.605663
0.601013
0.593973
0.583381
0.570447
0.609914
0.611637
0.612272
0.611898
0.610355
0.60737
0.602324
0.594282
0.581032
0.563821
0.611814
0.613664
0.614402
0.614162
0.612742
0.609857
0.604703
0.596072
0.580571
0.559363
0.612673
0.614606
0.615429
0.615296
0.614006
0.611288
0.60619
0.5973
0.580004
0.555318
0.613973
0.616001
0.616906
0.616901
0.615765
0.613268
0.608354
0.599464
0.580889
0.553259
0.614271
0.616324
0.617224
0.617182
0.616026
0.613581
0.6088
0.600082
0.580816
0.550928
0.614754
0.616842
0.617794
0.617827
0.616778
0.61447
0.609877
0.601494
0.582203
0.549779
0.611636
0.61357
0.614234
0.613726
0.611973
0.60885
0.603493
0.594504
0.575407
0.541785
0.596726
0.597808
0.598169
0.597933
0.597118
0.595735
0.5938
0.59138
0.588627
0.585907
0.600797
0.602039
0.602471
0.602116
0.600942
0.598898
0.595914
0.591969
0.58712
0.582333
0.603539
0.605013
0.605519
0.605102
0.603688
0.601153
0.597285
0.591868
0.584623
0.577002
0.604978
0.606673
0.607285
0.606883
0.605356
0.602518
0.597978
0.591281
0.581498
0.570448
0.606918
0.608798
0.609518
0.609199
0.607682
0.604741
0.599794
0.592134
0.579959
0.565322
0.607905
0.609913
0.610724
0.610481
0.609009
0.606062
0.600888
0.592561
0.578241
0.56012
0.609353
0.611479
0.612371
0.612232
0.610852
0.607993
0.602758
0.59403
0.577927
0.556546
0.609827
0.611993
0.612894
0.612729
0.611322
0.608454
0.603179
0.594265
0.576891
0.552665
0.610483
0.612674
0.613615
0.613508
0.612177
0.609397
0.604177
0.59523
0.577227
0.549929
0.607594
0.609643
0.610388
0.609902
0.608084
0.604742
0.598998
0.589528
0.5713
0.541924
0.594086
0.594891
0.595149
0.594986
0.594433
0.593523
0.592304
0.590869
0.589352
0.5879
0.597562
0.598521
0.598859
0.598582
0.597686
0.596173
0.594068
0.591465
0.588569
0.585988
0.599735
0.600988
0.601423
0.601066
0.599882
0.597828
0.594848
0.590957
0.586269
0.581841
0.600935
0.602472
0.603025
0.602645
0.601262
0.598776
0.595006
0.589824
0.583043
0.576202
0.60274
0.604517
0.605184
0.60484
0.603368
0.60062
0.59625
0.589954
0.58103
0.571444
0.603713
0.605668
0.606435
0.606131
0.60462
0.601712
0.596899
0.589693
0.57869
0.566217
0.605195
0.607302
0.608153
0.607923
0.606434
0.60348
0.598396
0.590506
0.57762
0.562239
0.605758
0.60793
0.608804
0.608551
0.607013
0.603978
0.598691
0.590332
0.57594
0.557818
0.606532
0.608734
0.609641
0.609431
0.607935
0.604927
0.599574
0.590918
0.575549
0.554434
0.603837
0.605912
0.606692
0.606222
0.604392
0.600991
0.59525
0.586098
0.570228
0.546903
0.592275
0.592863
0.593039
0.592938
0.592587
0.592025
0.591294
0.590474
0.589642
0.588809
0.595233
0.595924
0.596172
0.595975
0.595339
0.594291
0.592887
0.59124
0.589538
0.588137
0.596839
0.597831
0.598181
0.597901
0.596979
0.595419
0.593249
0.590578
0.587628
0.585062
0.597728
0.59903
0.599504
0.599175
0.59801
0.595975
0.593023
0.58921
0.584674
0.580477
0.599283
0.600863
0.601452
0.601124
0.599801
0.597406
0.593779
0.588872
0.582594
0.576423
0.600137
0.601936
0.602633
0.602313
0.600879
0.598211
0.594017
0.588123
0.580039
0.571665
0.601561
0.603548
0.604332
0.604056
0.602579
0.599751
0.595138
0.588417
0.578593
0.567875
0.602128
0.604207
0.605028
0.604726
0.603173
0.600194
0.595257
0.587894
0.576579
0.563533
0.602967
0.605094
0.605946
0.605673
0.604126
0.601114
0.596012
0.588194
0.575791
0.560201
0.600424
0.60244
0.603216
0.602767
0.600989
0.597691
0.592271
0.583973
0.57093
0.553414
0.591002
0.591439
0.591558
0.591499
0.591287
0.590954
0.59053
0.590067
0.589602
0.589068
0.593563
0.594034
0.594208
0.594076
0.59365
0.592959
0.59206
0.591047
0.590052
0.589274
0.594671
0.595411
0.595677
0.595472
0.594794
0.59367
0.59216
0.590385
0.588551
0.587052
0.595251
0.596293
0.596677
0.596414
0.595489
0.59391
0.591707
0.589002
0.586024
0.583454
0.596501
0.597833
0.598331
0.598044
0.596925
0.594953
0.592089
0.588418
0.58411
0.580169
0.597174
0.598747
0.599355
0.599052
0.597775
0.595467
0.591999
0.587384
0.581619
0.576072
0.598475
0.600265
0.600963
0.600677
0.599306
0.596759
0.592796
0.58733
0.580089
0.572755
0.598973
0.60088
0.601625
0.601309
0.599835
0.597083
0.592723
0.586553
0.577984
0.568817
0.599838
0.601813
0.602591
0.602291
0.600791
0.597952
0.593356
0.586663
0.577055
0.565913
0.597404
0.599286
0.600025
0.599604
0.597941
0.59488
0.590006
0.582855
0.572586
0.559954
0.590075
0.590414
0.590496
0.590464
0.59034
0.590148
0.589907
0.589648
0.589381
0.588999
0.592354
0.592663
0.59278
0.592697
0.592423
0.591985
0.591427
0.590816
0.590235
0.589795
0.593055
0.593581
0.593774
0.593631
0.593156
0.592381
0.591368
0.590219
0.58909
0.588207
0.593375
0.59417
0.594468
0.594268
0.59357
0.5924
0.590819
0.588956
0.587026
0.585448
0.594316
0.595386
0.595789
0.595553
0.594655
0.593107
0.590938
0.588281
0.585374
0.582869
0.594782
0.596097
0.596605
0.596339
0.595262
0.593362
0.590616
0.587132
0.583104
0.579463
0.59593
0.597474
0.598073
0.597805
0.5966
0.594421
0.591168
0.586892
0.581683
0.576733
0.596302
0.597979
0.598633
0.598328
0.597002
0.594587
0.590912
0.585955
0.579645
0.573324
0.597167
0.598934
0.599621
0.599323
0.597945
0.595403
0.591455
0.585972
0.578759
0.570994
0.594804
0.596492
0.597167
0.596786
0.595286
0.592563
0.588363
0.582461
0.574646
0.565819
0.589374
0.589652
0.589709
0.589693
0.589622
0.589514
0.589378
0.589233
0.589073
0.588773
0.591462
0.59166
0.591738
0.591687
0.591517
0.591247
0.590909
0.590545
0.590204
0.589947
0.591844
0.592203
0.592337
0.592242
0.591922
0.591407
0.590747
0.59002
0.58933
0.588806
0.591977
0.592558
0.59278
0.592636
0.592131
0.591298
0.590199
0.588948
0.587708
0.586736
0.592631
0.593455
0.593767
0.593584
0.592895
0.591729
0.590145
0.588276
0.586341
0.584751
0.592897
0.59395
0.594359
0.594138
0.593271
0.591773
0.58968
0.587131
0.584364
0.58199
0.593887
0.595167
0.595663
0.595429
0.59442
0.592637
0.590071
0.586837
0.583162
0.579857
0.594095
0.595512
0.596065
0.595791
0.594652
0.592625
0.589653
0.585812
0.581274
0.576984
0.594953
0.596475
0.597062
0.596788
0.595582
0.593406
0.590152
0.585829
0.580553
0.575252
0.592629
0.594084
0.594676
0.594342
0.59304
0.590712
0.587232
0.582544
0.576765
0.570756
0.588825
0.589064
0.589106
0.589099
0.589059
0.588999
0.588922
0.58884
0.58874
0.588486
0.590789
0.590916
0.590967
0.590938
0.590835
0.590672
0.59047
0.590254
0.590052
0.589897
0.590922
0.591159
0.591248
0.591187
0.590979
0.590647
0.590228
0.589776
0.589357
0.589045
0.590946
0.591356
0.591516
0.591417
0.591065
0.590491
0.589748
0.588924
0.588135
0.587533
0.591351
0.591961
0.592194
0.592058
0.59155
0.590703
0.589581
0.588299
0.587028
0.586021
0.591443
0.592253
0.592571
0.592397
0.591727
0.590591
0.589048
0.587234
0.585361
0.583823
0.592292
0.593314
0.59371
0.593516
0.592708
0.591307
0.589353
0.58698
0.584433
0.582247
0.592311
0.593463
0.593913
0.593679
0.592744
0.591111
0.588794
0.585915
0.582717
0.579848
0.593173
0.594437
0.594922
0.594684
0.593673
0.591888
0.589306
0.586011
0.582239
0.578682
0.590862
0.592066
0.592566
0.592284
0.591195
0.58928
0.5865
0.582905
0.578738
0.574741
0.588385
0.588598
0.588629
0.588628
0.588605
0.588571
0.588528
0.588481
0.588415
0.58819
0.590275
0.590356
0.590391
0.590375
0.590314
0.590217
0.590097
0.589969
0.589846
0.589746
0.590201
0.590353
0.59041
0.590371
0.59024
0.590031
0.589772
0.589496
0.589245
0.589057
0.590193
0.590474
0.590586
0.590521
0.590284
0.589899
0.589409
0.588876
0.588376
0.588001
0.590387
0.590823
0.59099
0.590893
0.590531
0.589937
0.589165
0.588305
0.587481
0.586845
0.590342
0.590943
0.591181
0.59105
0.590552
0.58972
0.588617
0.587358
0.586108
0.585118
0.59108
0.591866
0.592171
0.59202
0.591398
0.590337
0.588897
0.587203
0.585466
0.584032
0.590896
0.591795
0.592149
0.591959
0.59122
0.589956
0.58821
0.586117
0.583908
0.582015
0.591787
0.592801
0.593187
0.592992
0.592179
0.590771
0.588793
0.58636
0.58372
0.581367
0.589468
0.590424
0.59083
0.590601
0.589725
0.588207
0.586063
0.583393
0.58046
0.577858
0.588026
0.58822
0.588243
0.588245
0.588231
0.588213
0.588188
0.588161
0.588115
0.587911
0.58988
0.589935
0.58996
0.589951
0.589915
0.589858
0.589787
0.589709
0.589631
0.589561
0.589618
0.589713
0.589748
0.589724
0.589642
0.589514
0.589357
0.589192
0.589043
0.588931
0.589647
0.589836
0.589913
0.589872
0.589717
0.589466
0.589149
0.588809
0.588493
0.588257
0.589665
0.589965
0.590081
0.590014
0.589765
0.58936
0.588843
0.588279
0.587751
0.587352
0.589523
0.589953
0.590125
0.59003
0.589673
0.589084
0.588318
0.587464
0.586642
0.586009
0.590182
0.590766
0.590994
0.59088
0.59042
0.589645
0.588616
0.587438
0.586273
0.585339
0.589786
0.590462
0.590729
0.590582
0.590021
0.589076
0.587803
0.586325
0.584828
0.583597
0.590749
0.591534
0.591831
0.591678
0.591051
0.589981
0.588517
0.586773
0.584962
0.583425
0.588398
0.589126
0.589445
0.589265
0.588585
0.587426
0.585828
0.583906
0.581888
0.580231
0.587729
0.587906
0.587923
0.587926
0.587918
0.587908
0.587894
0.587878
0.587845
0.587659
0.589587
0.589626
0.589645
0.589641
0.58962
0.589586
0.589543
0.589494
0.589441
0.589386
0.589128
0.589184
0.589204
0.589189
0.58914
0.589063
0.58897
0.588874
0.588788
0.588721
0.589259
0.589384
0.589437
0.589412
0.589313
0.589153
0.588952
0.588737
0.588539
0.588387
0.589124
0.589324
0.589402
0.589356
0.58919
0.588922
0.588584
0.588223
0.587891
0.587642
0.588924
0.589222
0.589342
0.589276
0.589028
0.588624
0.588106
0.58754
0.587008
0.586606
0.589534
0.589954
0.590118
0.590037
0.589708
0.589161
0.588448
0.587649
0.586882
0.586277
0.588918
0.589406
0.589601
0.58949
0.58908
0.588399
0.587499
0.586485
0.58549
0.584702
0.590009
0.590597
0.590817
0.590703
0.590237
0.589454
0.588406
0.587191
0.585975
0.58498
0.587597
0.588126
0.588367
0.588231
0.587724
0.58687
0.585717
0.584377
0.583018
0.581989
0.587473
0.587634
0.587647
0.58765
0.587645
0.58764
0.587632
0.587622
0.587598
0.58743
0.589388
0.589419
0.589435
0.589433
0.589421
0.5894
0.589373
0.589341
0.589301
0.589252
0.588697
0.588729
0.588739
0.588728
0.588698
0.588654
0.588601
0.588548
0.588501
0.588462
0.588991
0.589073
0.589109
0.589095
0.589034
0.588934
0.588808
0.588674
0.588549
0.58845
0.588723
0.588852
0.588902
0.588872
0.588764
0.588591
0.588377
0.58815
0.587945
0.587792
0.588498
0.588699
0.588781
0.588737
0.58857
0.588301
0.58796
0.587593
0.587253
0.587
0.589081
0.589372
0.589486
0.589429
0.589202
0.588829
0.58835
0.587823
0.587329
0.58694
0.588232
0.58857
0.588707
0.588628
0.588338
0.587863
0.587247
0.58657
0.585921
0.585428
0.58952
0.589947
0.590105
0.590023
0.58969
0.589137
0.588411
0.587588
0.58679
0.58615
0.586996
0.587363
0.587539
0.58744
0.587075
0.586469
0.585665
0.584757
0.583863
0.583243
0.58722
0.587363
0.587372
0.587374
0.587372
0.587369
0.587365
0.587359
0.587342
0.587194
0.58929
0.589318
0.589331
0.589332
0.589324
0.58931
0.589292
0.589268
0.589235
0.589186
0.588304
0.588319
0.588322
0.588314
0.588296
0.588271
0.588243
0.588216
0.588192
0.588173
0.588819
0.588872
0.588896
0.588888
0.588851
0.58879
0.588713
0.588631
0.588553
0.588486
0.588437
0.588517
0.588549
0.58853
0.588461
0.588353
0.58822
0.588081
0.587956
0.587864
0.588218
0.58835
0.588404
0.588376
0.588268
0.588093
0.587874
0.587641
0.587426
0.587268
0.588776
0.58897
0.589045
0.589006
0.588855
0.588609
0.588297
0.58796
0.58765
0.587405
0.587683
0.587909
0.588003
0.587948
0.587751
0.587431
0.58702
0.586579
0.586162
0.585863
0.589248
0.589549
0.589658
0.589602
0.589373
0.588997
0.58851
0.587969
0.587457
0.587046
0.586509
0.586752
0.586877
0.586808
0.586555
0.586139
0.585595
0.585
0.584422
0.584065
0.58687
0.586993
0.586997
0.586999
0.586998
0.586997
0.586996
0.586993
0.586983
0.586858
0.589318
0.589345
0.589357
0.589358
0.589354
0.589344
0.58933
0.58931
0.589279
0.589225
0.587947
0.587952
0.587952
0.587946
0.587935
0.587922
0.587907
0.587894
0.587884
0.587877
0.588724
0.588758
0.588772
0.588767
0.588744
0.588708
0.588663
0.588614
0.588569
0.588523
0.588258
0.588307
0.588327
0.588316
0.588274
0.588208
0.588127
0.588042
0.587967
0.587911
0.588071
0.588156
0.588192
0.588175
0.588107
0.587996
0.587858
0.587712
0.587577
0.587478
0.58859
0.588712
0.588759
0.588732
0.588634
0.588477
0.588281
0.588072
0.587887
0.587736
0.587269
0.587416
0.58748
0.587445
0.587315
0.587105
0.586837
0.586554
0.586286
0.58611
0.589187
0.589393
0.589465
0.589427
0.589275
0.589028
0.588713
0.588366
0.588048
0.587781
0.586001
0.586153
0.586241
0.586194
0.586026
0.58575
0.585392
0.585012
0.584642
0.584449
0.586202
0.586297
0.586299
0.5863
0.586301
0.586301
0.586302
0.586302
0.5863
0.586203
0.589539
0.589568
0.589576
0.589577
0.589574
0.589567
0.589556
0.58954
0.589512
0.589451
0.587671
0.587674
0.587676
0.587675
0.58767
0.587661
0.587651
0.587642
0.587634
0.587631
0.58869
0.588708
0.588713
0.588708
0.588694
0.588674
0.588649
0.588623
0.588601
0.588574
0.588184
0.588215
0.588229
0.588224
0.588199
0.588158
0.588109
0.588057
0.58801
0.587974
0.588049
0.588105
0.588129
0.588118
0.588076
0.588007
0.587921
0.58783
0.587745
0.58768
0.588508
0.588578
0.588605
0.588586
0.588524
0.588426
0.588306
0.588181
0.588076
0.587991
0.587066
0.587165
0.587211
0.58719
0.587107
0.586971
0.586798
0.586614
0.586434
0.586326
0.589389
0.589523
0.589569
0.589542
0.589443
0.589284
0.589086
0.588872
0.588683
0.588508
0.585241
0.585335
0.585397
0.585367
0.585257
0.585077
0.584845
0.584606
0.584363
0.58427
0.584904
0.584969
0.584972
0.584975
0.584976
0.584977
0.584976
0.584975
0.584975
0.584906
0.590094
0.590113
0.59011
0.590105
0.5901
0.590096
0.590093
0.59009
0.590077
0.59002
0.58759
0.587605
0.587618
0.587623
0.587623
0.587616
0.587604
0.587589
0.587569
0.587553
0.588688
0.588691
0.588689
0.588683
0.588674
0.588662
0.58865
0.58864
0.588635
0.588627
0.588198
0.588221
0.588232
0.58823
0.588215
0.588189
0.588158
0.588124
0.588092
0.588066
0.588123
0.58816
0.588176
0.58817
0.588143
0.5881
0.588045
0.587986
0.587931
0.587886
0.588506
0.588545
0.588558
0.588545
0.588504
0.588442
0.588367
0.588293
0.588236
0.588195
0.587228
0.587305
0.587341
0.58733
0.587276
0.587186
0.587071
0.586945
0.586812
0.586723
0.589979
0.590054
0.590079
0.590058
0.589992
0.589889
0.589763
0.589635
0.589534
0.589436
0.583956
0.584019
0.584064
0.584044
0.583971
0.583852
0.583699
0.583543
0.583373
0.583326
0.583076
0.583117
0.583129
0.583136
0.583139
0.583136
0.583129
0.583116
0.5831
0.583044
0.591015
0.590988
0.590959
0.590939
0.590931
0.590931
0.590943
0.590965
0.590997
0.591003
0.58777
0.587807
0.587831
0.587843
0.587845
0.587839
0.587823
0.587798
0.587761
0.587714
0.588674
0.588667
0.58866
0.588653
0.588646
0.588638
0.588632
0.58863
0.588635
0.588645
0.58825
0.588268
0.588277
0.588276
0.588265
0.588247
0.588224
0.588199
0.588174
0.588152
0.588215
0.588242
0.588254
0.58825
0.588231
0.588199
0.58816
0.588118
0.588078
0.588044
0.588524
0.588547
0.588555
0.588544
0.588515
0.588469
0.588416
0.588364
0.588328
0.588313
0.587744
0.587816
0.587847
0.58784
0.587801
0.587734
0.587648
0.587552
0.587442
0.587342
0.590933
0.590961
0.590973
0.590954
0.590903
0.590827
0.590738
0.590654
0.590606
0.590604
0.582265
0.582323
0.582356
0.582342
0.582286
0.582197
0.582085
0.581969
0.581841
0.5818
0.439108
0.418359
0.425264
0.466218
0.391345
0.36811
0.379149
0.436379
0.348169
0.321024
0.338357
0.417275
0.31011
0.280714
0.305042
0.406362
0.27864
0.248574
0.280134
0.403955
0.251545
0.222026
0.261857
0.401119
0.229834
0.202186
0.250804
0.398485
0.209453
0.18533
0.242785
0.396392
0.191516
0.173485
0.239203
0.398024
0.172059
0.162176
0.23489
0.393523
0.49918
0.488982
0.489307
0.499019
0.468697
0.456082
0.457226
0.469901
0.43783
0.42111
0.423317
0.440886
0.40882
0.387853
0.391444
0.414159
0.384167
0.358702
0.363954
0.392014
0.36213
0.331778
0.337818
0.371139
0.344255
0.308914
0.314788
0.353205
0.327819
0.287679
0.293103
0.336511
0.314283
0.270108
0.275077
0.322878
0.298928
0.252327
0.254906
0.305239
0.566563
0.564347
0.563816
0.564949
0.548806
0.545109
0.544414
0.546714
0.528829
0.522933
0.522124
0.526457
0.506601
0.498333
0.497531
0.504363
0.485613
0.47489
0.474261
0.483992
0.464546
0.451238
0.450826
0.463566
0.445616
0.42964
0.429404
0.445091
0.426988
0.408465
0.408372
0.426825
0.410734
0.39053
0.390482
0.410858
0.391826
0.372108
0.371336
0.39124
0.579024
0.577939
0.57759
0.577941
0.569392
0.56798
0.567489
0.567853
0.557541
0.555056
0.554338
0.555237
0.542779
0.538988
0.538082
0.539805
0.528353
0.523113
0.522093
0.524946
0.512798
0.505982
0.504906
0.50915
0.498203
0.48974
0.488647
0.494484
0.482897
0.472863
0.471809
0.479316
0.46868
0.4577
0.456694
0.465502
0.450847
0.440913
0.439646
0.447994
0.58589
0.585299
0.585099
0.585287
0.58006
0.579579
0.579349
0.579358
0.572588
0.571648
0.571224
0.571295
0.562495
0.560859
0.560206
0.560472
0.552548
0.550043
0.54917
0.5498
0.541262
0.537747
0.536679
0.537856
0.530539
0.525925
0.524705
0.526615
0.518762
0.513072
0.511772
0.51456
0.507597
0.501254
0.49995
0.503523
0.492855
0.487652
0.48622
0.48924
0.58847
0.587993
0.587847
0.588032
0.585022
0.58481
0.584701
0.584692
0.579944
0.579523
0.579306
0.579288
0.572731
0.571969
0.571591
0.571583
0.565686
0.564454
0.563886
0.56394
0.557378
0.555551
0.554777
0.554973
0.549557
0.547041
0.546074
0.546521
0.540666
0.537443
0.536336
0.537153
0.532248
0.528576
0.527431
0.528657
0.520347
0.517793
0.51657
0.517129
0.589597
0.589165
0.589042
0.589229
0.587714
0.587621
0.587569
0.58756
0.584183
0.583988
0.58388
0.58386
0.578823
0.578453
0.578251
0.578213
0.573629
0.573008
0.572679
0.57263
0.567287
0.56633
0.565844
0.565803
0.561453
0.560086
0.559433
0.559442
0.554661
0.552853
0.552058
0.55219
0.548505
0.546387
0.545532
0.545854
0.538842
0.537838
0.536937
0.536496
0.589932
0.589515
0.589401
0.58959
0.589059
0.589012
0.588985
0.588979
0.586604
0.586506
0.586451
0.586439
0.582596
0.582405
0.582295
0.582268
0.578707
0.578377
0.578191
0.578145
0.573754
0.573234
0.572945
0.572879
0.569323
0.568563
0.568155
0.568081
0.564051
0.563028
0.562508
0.56246
0.559646
0.558419
0.557834
0.557855
0.551615
0.551522
0.550924
0.550142
0.589892
0.589481
0.58937
0.58956
0.589679
0.589653
0.589638
0.589634
0.587966
0.587914
0.587885
0.587877
0.584976
0.584872
0.584811
0.584794
0.582063
0.581882
0.581777
0.581745
0.578179
0.577888
0.577718
0.577667
0.57482
0.574388
0.574139
0.574071
0.57068
0.570092
0.569767
0.569695
0.56754
0.566824
0.566445
0.566389
0.560734
0.561161
0.560796
0.559941
0.589671
0.589261
0.589151
0.589343
0.58988
0.589865
0.589855
0.589851
0.588669
0.58864
0.588624
0.588619
0.58646
0.5864
0.586364
0.586353
0.584284
0.58418
0.584118
0.584098
0.581245
0.581076
0.580975
0.580941
0.578747
0.578493
0.578343
0.578293
0.57547
0.575126
0.574926
0.574867
0.573269
0.572845
0.572606
0.572548
0.567406
0.568117
0.56791
0.567075
0.589378
0.588966
0.588857
0.58905
0.589854
0.589843
0.589836
0.589833
0.588964
0.588948
0.588939
0.588936
0.587364
0.587327
0.587305
0.587298
0.585739
0.585678
0.585641
0.585629
0.583373
0.583272
0.583211
0.583189
0.581574
0.58142
0.581328
0.581295
0.578952
0.578746
0.578623
0.578583
0.577489
0.577233
0.577085
0.577042
0.572358
0.573211
0.573102
0.572315
0.589067
0.588653
0.588544
0.588738
0.589715
0.589707
0.589701
0.589698
0.589009
0.589
0.588994
0.588993
0.587892
0.587868
0.587854
0.587849
0.58667
0.586633
0.58661
0.586603
0.584838
0.584776
0.584737
0.584724
0.583608
0.583513
0.583454
0.583434
0.581469
0.581344
0.581268
0.581242
0.580614
0.580456
0.580364
0.580337
0.576051
0.576957
0.576908
0.576176
0.588767
0.58835
0.588241
0.588438
0.589535
0.589528
0.589522
0.58952
0.588902
0.588896
0.588894
0.588893
0.588183
0.588167
0.588157
0.588154
0.587241
0.587218
0.587204
0.5872
0.58583
0.58579
0.585766
0.585758
0.585063
0.585002
0.584965
0.584953
0.583259
0.583181
0.583134
0.583118
0.582928
0.582827
0.58277
0.582756
0.578797
0.579702
0.579685
0.579011
0.588488
0.588067
0.587959
0.588159
0.58936
0.589352
0.589347
0.589344
0.588704
0.588701
0.5887
0.588701
0.588333
0.588321
0.588314
0.588312
0.58757
0.587556
0.587548
0.587546
0.586489
0.586463
0.586447
0.586442
0.586093
0.586053
0.58603
0.586023
0.584492
0.584443
0.584414
0.584404
0.584636
0.58457
0.584535
0.584529
0.580822
0.581686
0.581687
0.581074
0.588225
0.587802
0.587696
0.587899
0.589222
0.589213
0.589207
0.589204
0.588452
0.58845
0.588451
0.588452
0.588407
0.588398
0.588392
0.588391
0.587744
0.587735
0.587731
0.58773
0.58692
0.586902
0.586892
0.58689
0.586815
0.586788
0.586774
0.586771
0.585298
0.585267
0.585249
0.585243
0.5859
0.585855
0.585833
0.585834
0.582285
0.583081
0.58309
0.582543
0.587946
0.587522
0.58742
0.587628
0.589149
0.589139
0.589132
0.589129
0.588167
0.588167
0.588168
0.58817
0.588451
0.588443
0.588438
0.588438
0.58783
0.587824
0.587822
0.587822
0.587211
0.587198
0.587191
0.58719
0.587319
0.587302
0.587294
0.587294
0.585782
0.585762
0.58575
0.585748
0.586853
0.586821
0.586808
0.586814
0.583287
0.583992
0.584002
0.583528
0.587554
0.587134
0.587041
0.587253
0.58918
0.589167
0.589158
0.589155
0.587873
0.587873
0.587875
0.587877
0.588494
0.588488
0.588485
0.588486
0.587884
0.587879
0.587878
0.587879
0.587432
0.587422
0.587417
0.587417
0.587682
0.587672
0.587668
0.58767
0.586055
0.58604
0.586032
0.586031
0.587625
0.5876
0.587592
0.587603
0.583841
0.584432
0.584441
0.584048
0.586823
0.586419
0.58634
0.586553
0.589392
0.589376
0.589366
0.589364
0.587624
0.587622
0.587623
0.587624
0.588554
0.588549
0.588548
0.588551
0.587949
0.587944
0.587942
0.587944
0.58764
0.58763
0.587626
0.587628
0.587964
0.58796
0.58796
0.587963
0.586269
0.586254
0.586246
0.586246
0.588379
0.588357
0.588353
0.588368
0.583824
0.58428
0.584284
0.583981
0.585408
0.585053
0.584997
0.585194
0.58995
0.589931
0.589923
0.589926
0.587524
0.587517
0.587514
0.587513
0.588621
0.588619
0.588621
0.588625
0.588039
0.588033
0.588032
0.588033
0.587848
0.587839
0.587836
0.587839
0.588194
0.588196
0.588198
0.5882
0.586626
0.586602
0.586592
0.586597
0.589352
0.589337
0.589337
0.589354
0.583008
0.583297
0.583295
0.583101
0.583335
0.583114
0.583088
0.583213
0.590966
0.590958
0.590961
0.590976
0.58764
0.587624
0.587614
0.58761
0.588659
0.588662
0.588666
0.588671
0.588125
0.58812
0.588118
0.588119
0.588011
0.588003
0.588001
0.588004
0.588337
0.588342
0.588345
0.588345
0.587172
0.587132
0.587121
0.587135
0.59067
0.59068
0.590687
0.590692
0.581522
0.581596
0.581591
0.581548
0.595155
0.603609
0.60761
0.610711
0.613834
0.61659
0.618827
0.620574
0.62194
0.623086
0.59608
0.599412
0.606831
0.611876
0.616338
0.619723
0.622186
0.623949
0.625193
0.626137
0.599936
0.596289
0.60727
0.612981
0.61826
0.621854
0.62442
0.626241
0.627493
0.628385
0.603348
0.592414
0.607026
0.612596
0.618453
0.621999
0.624553
0.62633
0.627546
0.628411
0.607837
0.590403
0.607774
0.613074
0.619377
0.622776
0.625303
0.626996
0.628123
0.628907
0.610921
0.587747
0.607519
0.612347
0.619106
0.622322
0.624862
0.626508
0.627641
0.628465
0.614919
0.586484
0.608347
0.612462
0.619627
0.622581
0.625139
0.626727
0.627833
0.628632
0.616486
0.583433
0.607357
0.610705
0.61838
0.621137
0.623857
0.625529
0.626834
0.627869
0.618149
0.581951
0.607806
0.60982
0.617638
0.619927
0.622877
0.624698
0.626205
0.627432
0.602605
0.566088
0.594588
0.596947
0.606638
0.610509
0.615159
0.618272
0.620833
0.622851
0.537742
0.559805
0.576148
0.587772
0.595733
0.601276
0.605281
0.608272
0.61058
0.612499
0.524028
0.554566
0.576646
0.590589
0.599439
0.605428
0.609669
0.612744
0.614986
0.616649
0.513765
0.551436
0.577751
0.592762
0.602212
0.608472
0.612859
0.615999
0.618235
0.61983
0.50538
0.548407
0.577928
0.593261
0.603116
0.609454
0.613851
0.616955
0.619145
0.620697
0.500925
0.547591
0.579196
0.594583
0.604729
0.611019
0.615359
0.618365
0.620453
0.621916
0.497732
0.546523
0.579614
0.594769
0.605157
0.611327
0.615611
0.618532
0.62058
0.622045
0.497336
0.546956
0.581124
0.595756
0.60631
0.61226
0.616467
0.61929
0.621278
0.622703
0.496542
0.54601
0.581082
0.595018
0.605766
0.611501
0.615736
0.618577
0.620687
0.622284
0.497035
0.546333
0.582263
0.594941
0.605484
0.610748
0.615079
0.618039
0.620318
0.6221
0.487954
0.5363
0.572981
0.585171
0.596736
0.603019
0.608542
0.612432
0.615473
0.617739
0.568852
0.575124
0.581199
0.586574
0.591157
0.594988
0.598161
0.600782
0.602974
0.604865
0.555613
0.567002
0.577184
0.585508
0.592174
0.597421
0.601515
0.604696
0.607158
0.609032
0.542532
0.559701
0.574066
0.584952
0.593259
0.599508
0.604213
0.607761
0.610415
0.61236
0.529383
0.552283
0.570633
0.583625
0.593205
0.600115
0.605173
0.608904
0.611653
0.613642
0.519465
0.547434
0.569215
0.583791
0.594291
0.601586
0.606814
0.610591
0.613338
0.6153
0.510626
0.542909
0.567632
0.583334
0.594509
0.60201
0.607318
0.611099
0.613849
0.615833
0.504603
0.540391
0.567568
0.583957
0.595588
0.603124
0.608436
0.612173
0.614895
0.616858
0.498915
0.537361
0.566604
0.583307
0.595257
0.602743
0.608085
0.611849
0.614663
0.61676
0.495212
0.536025
0.567004
0.583373
0.595209
0.602411
0.607812
0.611676
0.61462
0.616866
0.485126
0.527135
0.559321
0.575633
0.588168
0.596095
0.602313
0.606841
0.610318
0.612841
0.578662
0.58107
0.583974
0.586921
0.589698
0.59221
0.594431
0.596372
0.598086
0.599646
0.569885
0.574648
0.580061
0.585202
0.589738
0.593597
0.596817
0.599471
0.601627
0.60333
0.55937
0.567445
0.575852
0.583274
0.589494
0.594561
0.598634
0.601873
0.604407
0.606336
0.547062
0.559162
0.570903
0.580584
0.588338
0.594401
0.599121
0.602778
0.605587
0.607689
0.536378
0.55277
0.567795
0.579483
0.588516
0.595326
0.600487
0.604395
0.60735
0.609528
0.525768
0.54647
0.564618
0.578012
0.588091
0.595447
0.600911
0.604981
0.608041
0.6103
0.517242
0.542069
0.563068
0.577811
0.588694
0.596395
0.602039
0.606185
0.609292
0.611574
0.508872
0.537457
0.560998
0.576728
0.588207
0.596108
0.601888
0.606126
0.609339
0.611742
0.502364
0.534577
0.560318
0.57645
0.58813
0.596012
0.601906
0.606252
0.609571
0.612093
0.49147
0.526279
0.553469
0.569989
0.582308
0.590756
0.597224
0.602042
0.605732
0.608379
0.585154
0.585917
0.58708
0.588445
0.58988
0.591296
0.592642
0.593895
0.595075
0.596228
0.579817
0.581671
0.584189
0.586912
0.589583
0.592065
0.594291
0.596237
0.597892
0.599249
0.572285
0.575686
0.579994
0.584381
0.588472
0.592097
0.595211
0.597824
0.599963
0.601658
0.562478
0.568088
0.574655
0.580912
0.586463
0.591177
0.595086
0.598273
0.600827
0.602811
0.553366
0.561654
0.570712
0.578846
0.58576
0.59141
0.595955
0.599568
0.602412
0.60458
0.543578
0.55487
0.566527
0.576446
0.584584
0.591015
0.596063
0.600001
0.60307
0.605402
0.535135
0.549615
0.563845
0.575358
0.584534
0.591565
0.596981
0.601138
0.604352
0.606772
0.526447
0.544138
0.560816
0.573664
0.583675
0.591144
0.59684
0.601185
0.604551
0.607105