/*--------------------------------*- C++ -*----------------------------------*\
| =========                 |                                                 |
| \\      /  F ield         | foam-extend: Open Source CFD                    |
|  \\    /   O peration     | Version:     4.0                                |
|   \\  /    A nd           | Web:         http://www.foam-extend.org         |
|    \\/     M anipulation  |                                                 |
\*---------------------------------------------------------------------------*/
FoamFile
{
    version     2.0;
    format      ascii;
    class       volScalarField;
    location    "1550";
    object      p;
}
// * * * * * * * * * * * * * * * * * * * * * * * * * * * * * * * * * * * * * //

dimensions      [1 -1 -2 0 0 0 0];

internalField   nonuniform List<scalar> 
34480
(
107975
107875
107835
107850
107935
108117
108460
109142
110107
110453
107835
107736
107696
107707
107787
107963
108301
108971
110004
109978
107696
107593
107553
107555
107620
107767
108065
108666
109695
109119
107624
107520
107474
107464
107506
107608
107848
108351
109312
108159
107544
107428
107374
107347
107364
107422
107603
108001
108859
107165
107561
107446
107386
107350
107348
107368
107494
107783
108503
106284
107468
107340
107273
107225
107207
107198
107275
107465
108024
105348
107557
107434
107371
107338
107335
107337
107399
107517
107894
104752
107457
107329
107261
107223
107222
107233
107286
107346
107518
104004
107550
107436
107422
107488
107626
107817
108061
108296
108465
104467
108736
108611
108566
108591
108696
108899
109234
109762
110576
111643
108530
108398
108351
108377
108491
108716
109103
109756
110896
112498
108331
108194
108148
108168
108276
108494
108888
109594
110974
112960
108205
108063
108010
108019
108111
108304
108675
109371
110891
113130
108081
107928
107865
107857
107928
108086
108419
109071
110659
113043
108060
107906
107836
107817
107869
107994
108283
108866
110458
112874
107937
107771
107693
107660
107694
107788
108033
108542
110090
112479
108002
107840
107763
107739
107780
107874
108100
108542
109993
112263
107889
107722
107639
107607
107638
107726
107933
108326
109631
111821
107970
107815
107774
107819
107952
108164
108495
108991
110244
112229
109304
109190
109151
109179
109282
109468
109753
110154
110684
111295
109091
108959
108915
108950
109074
109305
109669
110212
111027
112034
108873
108730
108685
108720
108852
109100
109509
110158
111253
112681
108716
108563
108511
108539
108666
108914
109342
110050
111369
113178
108562
108396
108337
108351
108465
108696
109121
109848
111335
113471
108511
108342
108275
108280
108381
108591
108999
109715
111313
113700
108362
108182
108109
108101
108187
108374
108757
109444
111106
113689
108405
108228
108154
108152
108241
108426
108797
109452
111115
113808
108280
108099
108019
108008
108083
108254
108606
109235
110836
113645
108347
108175
108123
108167
108312
108565
108992
109687
111252
114060
109702
109614
109583
109607
109687
109825
110023
110276
110569
110850
109524
109407
109368
109401
109510
109705
109993
110384
110890
111409
109327
109189
109146
109182
109309
109538
109895
110408
111162
112000
109165
109011
108959
108992
109125
109374
109781
110395
111392
112577
109004
108833
108773
108796
108925
109176
109609
110290
111500
113027
108936
108758
108690
108706
108828
109074
109517
110235
111622
113459
108773
108582
108508
108514
108625
108858
109298
110032
111556
113678
108799
108610
108535
108544
108658
108891
109332
110070
111674
114022
108663
108470
108390
108392
108497
108719
109148
109887
111502
114078
108716
108530
108470
108511
108664
108942
109421
110207
111814
114532
109976
109915
109893
109910
109966
110060
110187
110339
110500
110638
109843
109751
109720
109746
109833
109981
110190
110454
110758
111034
109688
109567
109529
109561
109671
109863
110148
110525
111007
111479
109540
109397
109349
109382
109506
109733
110082
110571
111257
111979
109387
109222
109165
109193
109322
109566
109963
110541
111429
112422
109315
109139
109073
109097
109227
109479
109907
110553
111629
112895
109147
108956
108884
108899
109025
109276
109721
110415
111655
113195
109164
108972
108897
108916
109045
109302
109762
110490
111854
113637
109020
108823
108745
108759
108882
109135
109596
110350
111779
113820
109062
108871
108806
108846
109003
109293
109789
110585
112037
114276
110165
110125
110112
110122
110159
110218
110295
110382
110467
110534
110074
110006
109983
110003
110066
110170
110312
110481
110659
110808
109965
109868
109836
109862
109950
110100
110312
110577
110879
111147
109841
109718
109675
109705
109813
110003
110284
110653
111110
111544
109708
109559
109507
109535
109655
109874
110212
110675
111298
111928
109642
109478
109417
109443
109570
109809
110192
110736
111527
112368
109479
109296
109228
109249
109378
109626
110041
110652
111601
112669
109493
109307
109235
109259
109394
109654
110096
110759
111844
113129
109346
109153
109079
109099
109232
109494
109947
110653
111832
113362
109381
109192
109125
109164
109319
109608
110088
110834
112057
113774
110299
110274
110266
110273
110295
110330
110375
110424
110469
110504
110239
110192
110176
110189
110232
110303
110394
110499
110603
110684
110175
110100
110076
110095
110162
110272
110422
110601
110790
110946
110077
109976
109940
109965
110053
110204
110418
110685
110987
111252
109970
109842
109797
109823
109927
110111
110384
110738
111168
111568
109917
109771
109716
109743
109858
110070
110394
110830
111398
111952
109764
109597
109535
109559
109681
109911
110276
110785
111489
112217
109782
109609
109543
109570
109700
109947
110346
110917
111746
112651
109635
109454
109385
109409
109541
109795
110213
110834
111761
112870
109667
109488
109423
109460
109608
109881
110323
110981
111961
113220
110397
110383
110378
110382
110395
110415
110441
110468
110492
110510
110357
110327
110316
110325
110353
110398
110455
110518
110578
110623
110331
110277
110259
110273
110320
110398
110500
110617
110734
110825
110256
110179
110150
110169
110237
110351
110507
110694
110891
111054
110178
110073
110036
110058
110143
110291
110501
110762
111054
111310
110141
110017
109970
109994
110094
110272
110533
110869
111269
111635
110002
109856
109802
109825
109935
110136
110441
110848
111359
111854
110030
109875
109816
109843
109963
110184
110527
110995
111613
112242
109885
109720
109658
109683
109808
110040
110407
110926
111631
112413
109918
109754
109694
109728
109863
110111
110499
111053
111810
112703
110473
110465
110462
110464
110472
110483
110498
110512
110526
110535
110444
110425
110418
110423
110441
110469
110504
110541
110576
110601
110448
110411
110398
110407
110440
110492
110559
110633
110705
110758
110391
110333
110312
110326
110376
110458
110568
110695
110822
110923
110339
110258
110228
110246
110312
110425
110581
110767
110963
111126
110319
110218
110180
110201
110283
110425
110628
110877
111154
111395
110195
110072
110027
110048
110142
110309
110554
110867
111231
111565
110236
110103
110052
110077
110182
110372
110654
111023
111472
111903
110094
109950
109896
109920
110032
110235
110542
110958
111479
112019
110132
109988
109934
109964
110084
110300
110627
111074
111640
112259
110535
110530
110529
110530
110534
110540
110548
110556
110563
110568
110509
110497
110493
110496
110507
110524
110545
110567
110587
110601
110536
110511
110502
110509
110530
110564
110607
110654
110697
110728
110491
110450
110434
110444
110479
110537
110612
110696
110777
110839
110463
110401
110379
110392
110442
110525
110637
110766
110895
110999
110458
110379
110349
110365
110430
110540
110691
110870
111060
111216
110348
110248
110212
110230
110306
110440
110629
110862
111116
111339
110403
110294
110252
110274
110362
110517
110741
111021
111341
111631
110265
110143
110098
110120
110215
110384
110632
110954
111330
111695
110311
110189
110142
110168
110270
110451
110716
111064
111477
111896
110586
110583
110583
110583
110586
110589
110593
110598
110602
110604
110558
110552
110549
110551
110557
110567
110580
110593
110604
110613
110604
110588
110582
110586
110600
110622
110648
110677
110703
110721
110564
110535
110524
110531
110555
110594
110644
110699
110750
110789
110556
110511
110495
110505
110541
110600
110678
110765
110849
110914
110563
110504
110481
110493
110542
110624
110733
110859
110986
111087
110466
110388
110359
110374
110434
110537
110678
110846
111020
111167
110537
110451
110417
110435
110506
110628
110799
111006
111229
111421
110400
110301
110264
110282
110360
110496
110689
110930
111196
111439
110456
110356
110318
110339
110423
110568
110776
111038
111332
111611
110631
110629
110629
110629
110630
110632
110634
110637
110639
110640
110597
110593
110591
110592
110596
110602
110609
110617
110624
110629
110658
110648
110645
110647
110656
110669
110685
110702
110718
110728
110617
110598
110590
110595
110610
110636
110669
110704
110736
110760
110626
110595
110583
110590
110615
110656
110708
110766
110820
110861
110641
110598
110582
110591
110626
110685
110762
110848
110933
110997
110554
110496
110474
110485
110530
110606
110708
110827
110944
111040
110642
110576
110550
110564
110619
110712
110838
110986
111139
111263
110503
110425
110396
110411
110472
110577
110722
110897
111081
111241
110572
110493
110463
110480
110546
110659
110816
111007
111211
111394
110670
110668
110669
110669
110669
110670
110672
110673
110674
110674
110626
110624
110623
110624
110626
110629
110634
110638
110643
110646
110703
110697
110695
110696
110701
110709
110719
110729
110738
110743
110655
110643
110638
110640
110650
110667
110688
110710
110730
110746
110678
110657
110649
110654
110671
110698
110733
110770
110805
110830
110699
110669
110657
110663
110688
110729
110782
110840
110895
110935
110619
110576
110560
110569
110601
110656
110728
110809
110886
110949
110723
110675
110656
110666
110707
110775
110865
110968
111071
111150
110579
110519
110498
110509
110555
110633
110738
110862
110986
111091
110663
110604
110580
110593
110643
110728
110843
110978
111117
111235
110705
110704
110705
110704
110705
110705
110706
110707
110707
110707
110648
110647
110646
110646
110648
110650
110653
110656
110658
110661
110741
110737
110736
110737
110740
110745
110751
110756
110761
110763
110683
110674
110671
110672
110679
110689
110702
110716
110729
110739
110717
110703
110698
110701
110712
110730
110753
110776
110798
110813
110740
110720
110711
110716
110733
110760
110795
110833
110869
110894
110666
110636
110624
110630
110653
110691
110740
110794
110844
110884
110786
110752
110738
110746
110775
110823
110886
110956
111024
111073
110632
110587
110572
110580
110614
110669
110743
110828
110911
110978
110735
110692
110674
110684
110720
110781
110863
110956
111048
111123
110739
110738
110739
110738
110739
110739
110739
110739
110739
110739
110662
110661
110661
110661
110662
110663
110665
110667
110669
110671
110775
110773
110772
110773
110775
110778
110781
110784
110786
110786
110701
110696
110694
110694
110698
110705
110713
110722
110729
110736
110746
110737
110734
110736
110743
110754
110768
110783
110796
110805
110768
110755
110749
110752
110763
110781
110804
110828
110851
110866
110698
110678
110671
110675
110690
110715
110748
110783
110814
110840
110835
110813
110803
110809
110829
110862
110904
110950
110994
111023
110665
110633
110622
110628
110652
110690
110741
110797
110850
110894
110794
110763
110751
110758
110783
110826
110882
110943
111004
111050
110776
110775
110776
110776
110776
110776
110776
110776
110776
110775
110667
110667
110666
110666
110667
110668
110669
110671
110673
110675
110805
110805
110805
110805
110806
110808
110809
110811
110812
110810
110713
110710
110709
110709
110711
110715
110720
110725
110730
110734
110765
110760
110757
110759
110763
110770
110779
110788
110795
110801
110784
110776
110772
110774
110781
110793
110807
110822
110837
110846
110721
110708
110703
110706
110716
110732
110753
110775
110794
110810
110873
110859
110852
110856
110869
110891
110919
110948
110977
110994
110682
110660
110652
110656
110672
110698
110731
110767
110801
110830
110848
110828
110819
110824
110841
110870
110907
110947
110985
111013
110829
110828
110829
110829
110829
110829
110828
110828
110827
110827
110661
110661
110660
110660
110660
110661
110662
110664
110665
110669
110831
110831
110831
110831
110832
110833
110834
110834
110835
110833
110720
110718
110718
110718
110719
110722
110724
110727
110730
110733
110775
110772
110770
110771
110773
110778
110783
110788
110793
110796
110790
110784
110782
110783
110787
110794
110804
110813
110822
110828
110735
110727
110724
110726
110733
110743
110756
110769
110780
110789
110898
110888
110883
110886
110894
110909
110927
110946
110965
110974
110680
110665
110661
110663
110674
110690
110711
110734
110755
110774
110913
110899
110893
110896
110908
110927
110951
110976
111001
111017
110923
110922
110923
110923
110923
110923
110922
110922
110921
110920
110636
110634
110634
110634
110634
110635
110636
110637
110639
110642
110845
110844
110844
110844
110844
110844
110845
110846
110847
110846
110724
110723
110723
110723
110724
110726
110727
110728
110729
110730
110776
110774
110773
110773
110774
110777
110780
110784
110787
110789
110785
110781
110780
110780
110783
110788
110793
110799
110805
110809
110741
110737
110735
110737
110741
110747
110755
110763
110769
110774
110896
110889
110886
110887
110892
110902
110914
110926
110940
110946
110653
110644
110641
110643
110650
110660
110674
110688
110699
110712
111012
111004
110999
111001
111009
111021
111037
111053
111070
111078
111085
111085
111085
111084
111084
111084
111084
111084
111084
111084
110575
110575
110576
110577
110578
110578
110578
110577
110577
110579
110833
110831
110829
110828
110828
110829
110830
110832
110834
110836
110727
110727
110727
110728
110729
110730
110730
110730
110730
110730
110771
110769
110768
110768
110769
110771
110773
110776
110778
110780
110775
110772
110771
110772
110774
110777
110780
110784
110788
110792
110742
110740
110739
110740
110743
110747
110752
110757
110760
110762
110854
110848
110845
110845
110849
110855
110864
110873
110883
110890
110587
110583
110581
110583
110588
110595
110604
110612
110618
110624
111169
111163
111160
111161
111166
111175
111185
111197
111209
111214
111268
111266
111264
111263
111263
111264
111264
111266
111268
111272
110493
110498
110502
110504
110505
110505
110503
110501
110496
110489
110799
110795
110793
110792
110792
110792
110794
110796
110800
110805
110733
110734
110734
110735
110735
110736
110736
110737
110736
110734
110766
110765
110764
110764
110765
110766
110768
110770
110772
110774
110768
110766
110765
110766
110767
110770
110773
110776
110779
110782
110745
110743
110742
110743
110746
110749
110754
110758
110761
110761
110791
110785
110782
110783
110786
110791
110798
110806
110815
110824
110503
110502
110501
110503
110507
110513
110520
110527
110530
110526
111336
111331
111329
111330
111334
111341
111350
111360
111369
111374
122714
123927
123752
122478
125946
127352
126952
125330
128890
130477
129889
127899
131058
132761
131987
129718
132723
134505
133557
131084
134074
135915
134959
132365
135001
136875
136051
133390
135825
137705
137044
134345
135741
137593
137076
134385
135330
137168
136910
134373
113016
113206
113244
113124
115302
115673
115732
115442
117560
118113
118171
117662
119702
120421
120467
119712
121655
122511
122526
121514
123509
124475
124454
123226
125045
126095
126044
124658
126550
127659
127590
126095
127331
128470
128400
126853
127979
129152
129130
127632
111816
111905
111932
111906
113140
113307
113347
113280
114594
114860
114913
114783
116072
116444
116504
116291
117497
117972
118030
117713
118975
119550
119601
119167
120267
120935
120975
120422
121649
122393
122423
121756
122469
123260
123284
122523
123288
124116
124157
123340
110965
110988
110999
110999
111718
111772
111792
111784
112639
112743
112776
112751
113671
113840
113888
113834
114700
114941
115003
114904
115829
116148
116220
116065
116834
117230
117310
117085
117992
118460
118542
118244
118706
119224
119311
118948
119482
120043
120147
119744
110683
110693
110698
110698
111156
111179
111190
111190
111740
111789
111808
111804
112447
112531
112562
112552
113173
113299
113344
113320
114011
114188
114245
114201
114748
114979
115048
114974
115668
115951
116031
115920
116247
116571
116663
116519
116924
117285
117396
117229
110552
110556
110559
110559
110856
110865
110870
110872
111251
111272
111282
111284
111745
111784
111802
111804
112266
112330
112359
112359
112897
112992
113033
113028
113434
113565
113617
113602
114164
114331
114394
114364
114623
114821
114898
114853
115175
115400
115492
115435
110512
110514
110515
110516
110708
110713
110715
110716
110996
111006
111011
111013
111348
111367
111378
111381
111732
111765
111783
111787
112214
112265
112292
112297
112603
112677
112714
112717
113185
113283
113329
113328
113535
113654
113711
113704
113968
114105
114172
114160
110514
110515
110516
110516
110636
110638
110639
110640
110851
110856
110859
110860
111105
111115
111121
111123
111396
111413
111424
111427
111773
111801
111818
111823
112057
112099
112122
112129
112526
112583
112614
112620
112773
112845
112884
112888
113111
113194
113238
113240
110537
110538
110538
110538
110608
110609
110610
110610
110773
110775
110777
110777
110952
110958
110961
110963
111174
111184
111190
111193
111473
111489
111499
111503
111678
111703
111718
111723
112062
112096
112116
112122
112221
112264
112289
112295
112487
112538
112566
112571
110569
110570
110570
110570
110605
110606
110606
110607
110736
110738
110738
110739
110857
110860
110862
110863
111027
111033
111037
111038
111263
111272
111279
111281
111406
111420
111429
111433
111724
111745
111757
111761
111813
111840
111855
111860
112029
112059
112077
112082
110605
110605
110605
110605
110615
110615
110616
110616
110725
110726
110727
110727
110799
110801
110803
110804
110931
110935
110937
110938
111116
111122
111126
111127
111208
111216
111222
111225
111477
111489
111497
111500
111510
111527
111537
111540
111690
111709
111720
111723
110640
110640
110640
110640
110631
110631
110631
110631
110730
110731
110731
110731
110767
110768
110769
110770
110871
110873
110875
110875
111015
111019
111021
111022
111065
111071
111074
111076
111298
111306
111311
111313
111285
111296
111302
111304
111442
111454
111461
111463
110675
110675
110675
110675
110647
110647
110647
110648
110745
110745
110745
110745
110750
110750
110751
110751
110836
110837
110838
110838
110947
110950
110951
110952
110964
110967
110970
110971
111172
111177
111180
111181
111119
111126
111130
111131
111264
111271
111276
111277
110707
110707
110707
110707
110662
110662
110662
110662
110764
110764
110764
110764
110741
110742
110742
110743
110816
110817
110817
110818
110902
110904
110905
110905
110893
110895
110897
110898
111087
111090
111092
111093
110997
111001
111004
111005
111141
111145
111148
111149
110739
110739
110739
110739
110672
110672
110672
110672
110787
110787
110787
110786
110737
110738
110738
110738
110807
110807
110807
110807
110872
110873
110874
110874
110845
110846
110847
110847
111033
111034
111035
111036
110907
110909
110911
110912
111061
111063
111065
111066
110775
110775
110775
110775
110676
110676
110676
110676
110811
110811
110811
110810
110735
110735
110735
110735
110802
110802
110802
110802
110850
110851
110852
110852
110812
110812
110812
110813
111000
111002
111002
111002
110838
110840
110841
110841
111019
111020
111021
111022
110826
110826
110826
110826
110669
110669
110669
110670
110834
110834
110834
110833
110732
110732
110732
110732
110797
110797
110797
110798
110832
110832
110833
110833
110788
110788
110788
110789
110980
110981
110981
110981
110779
110781
110781
110782
111019
111019
111020
111020
110919
110919
110919
110919
110642
110642
110642
110643
110848
110848
110848
110848
110728
110728
110728
110728
110790
110790
110791
110791
110812
110813
110813
110813
110770
110770
110770
110770
110954
110955
110955
110955
110715
110715
110716
110716
111079
111078
111079
111080
111083
111083
111083
111083
110576
110576
110576
110576
110842
110843
110843
110843
110726
110726
110726
110726
110781
110782
110782
110782
110794
110795
110795
110795
110758
110757
110757
110757
110904
110906
110907
110906
110620
110619
110619
110619
111220
111220
111220
111221
111273
111274
111274
111275
110473
110470
110469
110469
110815
110817
110818
110818
110730
110729
110729
110729
110776
110776
110776
110776
110784
110784
110784
110784
110757
110755
110755
110756
110841
110845
110846
110845
110502
110496
110495
110499
111396
111399
111399
111396
116092
113578
111654
110366
109560
109040
108686
108435
108256
108120
117150
113969
111600
110199
109374
108848
108499
108258
108089
107964
117514
114009
111333
110012
109187
108667
108318
108076
107912
107806
117500
113909
111008
109852
109046
108560
108227
107998
107840
107733
117217
113691
110702
109676
108878
108427
108108
107893
107743
107647
116850
113567
110535
109643
108846
108434
108126
107922
107775
107671
116210
113311
110246
109493
108688
108317
108014
107820
107675
107578
115790
113337
110239
109629
108809
108473
108162
107964
107806
107684
115066
113005
109928
109499
108702
108413
108093
107890
107725
107594
115505
113703
110600
110195
109276
108883
108450
108159
107923
107722
112568
111823
111162
110610
110155
109785
109485
109245
109052
108901
114191
112826
111692
110837
110194
109711
109347
109070
108858
108699
115491
113539
111998
110923
110136
109571
109161
108859
108637
108487
116480
114029
112149
110944
110075
109477
109052
108745
108519
108365
117108
114297
112146
110864
109944
109338
108911
108607
108383
108236
117585
114548
112181
110868
109918
109319
108895
108598
108376
108222
117734
114581
112036
110730
109759
109177
108757
108467
108246
108097
117946
114785
112104
110839
109857
109294
108871
108577
108348
108178
117727
114589
111862
110705
109753
109221
108792
108491
108254
108075
118133
115102
112339
111203
110176
109571
109063
108698
108413
108182
111749
111434
111080
110741
110434
110166
109937
109743
109582
109452
112921
112280
111611
111031
110557
110175
109866
109617
109417
109262
114120
113070
112046
111224
110586
110096
109720
109428
109204
109045
115234
113750
112392
111377
110616
110054
109633
109315
109072
108899
116164
114247
112583
111414
110559
109949
109502
109171
108919
108746
117038
114723
112785
111502
110577
109941
109479
109141
108885
108703
117637
114965
112788
111426
110450
109801
109331
108992
108732
108553
118289
115330
112960
111562
110552
109900
109421
109075
108808
108611
118460
115284
112827
111467
110467
109825
109335
108979
108703
108496
118964
115703
113200
111835
110779
110084
109539
109138
108828
108586
110977
110880
110746
110593
110436
110285
110144
110017
109906
109812
111710
111482
111194
110900
110622
110372
110151
109961
109800
109671
112580
112145
111636
111158
110737
110380
110083
109838
109640
109492
113516
112828
112076
111415
110859
110409
110046
109757
109527
109354
114381
113403
112398
111566
110893
110367
109957
109636
109383
109202
115276
113991
112735
111752
110981
110399
109954
109612
109345
109147
115971
114373
112876
111766
110914
110291
109820
109465
109186
108987
116763
114875
113165
111961
111048
110397
109905
109535
109245
109028
117139
115004
113162
111923
110984
110318
109808
109425
109126
108901
117745
115433
113494
112207
111216
110508
109959
109544
109222
108972
110690
110650
110588
110512
110429
110344
110261
110183
110112
110050
111163
111067
110929
110772
110609
110451
110304
110171
110054
109957
111745
111553
111296
111022
110758
110515
110299
110111
109952
109829
112444
112118
111709
111300
110923
110591
110307
110068
109869
109714
113137
112644
112059
111507
111019
110607
110264
109982
109751
109579
113911
113221
112447
111755
111165
110683
110291
109976
109721
109527
114541
113633
112662
111838
111156
110615
110184
109844
109569
109367
115312
114182
113023
112086
111327
110739
110275
109912
109623
109401
115750
114415
113116
112102
111289
110667
110177
109797
109496
109267
116349
114835
113422
112340
111474
110814
110293
109889
109571
109323
110556
110538
110510
110472
110430
110384
110337
110292
110249
110212
110863
110820
110752
110668
110576
110481
110389
110302
110223
110155
111265
111178
111047
110893
110732
110574
110425
110290
110171
110077
111769
111614
111395
111150
110906
110674
110464
110278
110119
109990
112297
112051
111720
111371
111035
110730
110460
110229
110032
109881
112924
112563
112103
111642
111215
110840
110517
110246
110019
109842
113439
112941
112339
111763
111248
110808
110439
110134
109882
109691
114122
113474
112727
112044
111448
110952
110542
110209
109938
109725
114535
113738
112864
112091
111430
110890
110449
110096
109810
109588
115057
114121
113145
112302
111590
111014
110546
110171
109872
109636
110514
110505
110491
110472
110449
110424
110399
110373
110348
110326
110712
110690
110654
110608
110556
110500
110443
110389
110338
110294
111004
110959
110888
110799
110701
110600
110501
110408
110325
110257
111366
111287
111165
111018
110860
110704
110555
110418
110297
110196
111762
111634
111444
111225
110999
110780
110579
110398
110240
110116
112257
112064
111792
111491
111191
110911
110658
110436
110246
110093
112655
112381
112012
111622
111246
110905
110604
110347
110127
109957
113232
112864
112391
111911
111462
111065
110722
110432
110191
109998
113573
113103
112529
111967
111454
111011
110635
110324
110066
109862
113997
113435
112783
112159
111601
111124
110723
110393
110122
109906
110515
110511
110503
110493
110481
110468
110453
110439
110425
110413
110638
110626
110607
110582
110552
110519
110486
110453
110421
110393
110855
110831
110791
110739
110679
110616
110552
110491
110434
110389
111116
111073
111002
110913
110813
110709
110606
110510
110422
110347
111416
111345
111233
111095
110945
110793
110647
110512
110392
110295
111806
111699
111534
111339
111132
110929
110739
110567
110415
110289
112104
111949
111722
111461
111193
110938
110703
110495
110313
110170
112580
112369
112070
111740
111412
111107
110832
110593
110388
110221
112831
112554
112183
111788
111406
111059
110752
110490
110267
110088
113169
112836
112408
111965
111544
111166
110837
110557
110323
110133
110537
110535
110531
110526
110519
110512
110504
110497
110489
110482
110609
110603
110593
110578
110561
110543
110523
110503
110484
110466
110775
110761
110738
110707
110671
110632
110592
110552
110516
110486
110959
110934
110892
110837
110774
110707
110638
110572
110511
110457
111187
111146
111077
110990
110892
110789
110687
110590
110501
110428
111494
111432
111330
111203
111064
110921
110782
110653
110537
110438
111711
111620
111478
111304
111118
110932
110756
110595
110450
110334
112103
111978
111789
111566
111332
111105
110894
110704
110538
110398
112268
112104
111866
111595
111319
111057
110816
110605
110419
110269
112538
112340
112064
111757
111450
111162
110902
110675
110480
110318
110569
110568
110566
110563
110560
110556
110552
110547
110543
110539
110606
110603
110597
110589
110579
110568
110557
110545
110534
110523
110737
110729
110715
110697
110676
110652
110627
110602
110578
110560
110861
110846
110821
110788
110748
110705
110660
110616
110574
110537
111035
111010
110968
110913
110849
110780
110710
110643
110580
110528
111276
111238
111175
111093
111000
110902
110803
110710
110624
110549
111427
111372
111282
111167
111040
110908
110779
110659
110548
110458
111751
111676
111555
111406
111244
111080
110923
110777
110647
110535
111846
111748
111596
111413
111218
111026
110843
110679
110531
110409
112065
111947
111770
111561
111343
111131
110932
110754
110598
110466
110605
110604
110603
110601
110600
110597
110595
110593
110590
110588
110616
110614
110611
110606
110601
110594
110588
110581
110574
110567
110726
110721
110713
110702
110689
110674
110659
110643
110629
110619
110802
110794
110779
110758
110733
110706
110677
110648
110621
110596
110936
110921
110895
110860
110819
110774
110727
110681
110637
110602
111124
111101
111062
111009
110947
110881
110813
110747
110685
110630
111221
111187
111130
111055
110969
110878
110786
110699
110617
110549
111494
111448
111371
111273
111162
111046
110933
110825
110727
110641
111532
111472
111375
111253
111119
110981
110847
110723
110609
110514
111715
111643
111530
111391
111240
111087
110940
110805
110684
110581
110640
110640
110639
110638
110637
110636
110635
110634
110632
110631
110631
110630
110628
110626
110623
110619
110615
110611
110607
110603
110730
110727
110722
110716
110708
110699
110690
110680
110672
110667
110769
110764
110755
110742
110727
110710
110692
110673
110655
110638
110874
110865
110849
110827
110800
110771
110740
110710
110680
110657
111020
111006
110981
110947
110907
110863
110817
110772
110729
110690
111074
111053
111016
110967
110910
110848
110785
110723
110664
110616
111309
111281
111232
111167
111093
111013
110933
110856
110785
110720
111300
111262
111200
111120
111029
110933
110837
110746
110661
110590
111458
111415
111343
111251
111148
111042
110937
110838
110747
110668
110674
110674
110674
110673
110673
110672
110671
110671
110670
110670
110648
110647
110646
110645
110643
110641
110639
110637
110634
110630
110744
110742
110739
110735
110730
110725
110720
110714
110709
110707
110751
110748
110743
110735
110726
110715
110704
110692
110681
110670
110837
110832
110821
110808
110791
110772
110753
110733
110713
110698
110950
110942
110926
110904
110879
110850
110819
110789
110760
110733
110970
110956
110933
110902
110864
110823
110780
110737
110696
110662
111179
111161
111130
111089
111039
110986
110931
110877
110827
110780
111128
111105
111065
111013
110952
110886
110820
110756
110694
110642
111275
111248
111202
111143
111075
111002
110929
110858
110793
110735
110707
110707
110707
110706
110706
110706
110705
110705
110705
110705
110662
110662
110662
110661
110660
110659
110658
110656
110654
110651
110763
110762
110760
110758
110755
110752
110748
110745
110742
110742
110743
110741
110738
110733
110727
110721
110714
110707
110699
110692
110817
110814
110807
110799
110788
110777
110764
110751
110739
110730
110904
110899
110889
110875
110859
110840
110821
110801
110781
110763
110897
110889
110874