/*--------------------------------*- C++ -*----------------------------------*\
| =========                 |                                                 |
| \\      /  F ield         | foam-extend: Open Source CFD                    |
|  \\    /   O peration     | Version:     4.0                                |
|   \\  /    A nd           | Web:         http://www.foam-extend.org         |
|    \\/     M anipulation  |                                                 |
\*---------------------------------------------------------------------------*/
FoamFile
{
    version     2.0;
    format      ascii;
    class       surfaceScalarField;
    location    "1550";
    object      phi;
}
// * * * * * * * * * * * * * * * * * * * * * * * * * * * * * * * * * * * * * //

dimensions      [1 0 -1 0 0 0 0];

internalField   nonuniform List<scalar> 
97302
(
-0.000109785
9.54116e-07
-0.000869346
0.000878615
-0.000119596
1.14379e-06
-0.00087035
0.000879017
-0.000129516
1.20321e-06
-0.000870877
0.000879593
-0.000140115
1.14157e-06
-0.000870917
0.000880374
-0.00015222
9.49869e-07
-0.000870466
0.000881621
-0.000167311
6.17959e-07
-0.000869301
0.000883774
-0.00018848
1.19326e-07
-0.000866816
0.000887866
-0.00022273
-5.90442e-07
-0.000861192
0.000896032
-0.000271303
-1.63389e-06
-0.000851408
0.000901615
-4.39107e-06
-0.000823913
-0.000352965
0.000909966
-0.000150899
1.61047e-06
-0.00116575
0.00117584
-0.000161167
1.97348e-06
-0.00116671
0.00117614
-0.000171508
2.09242e-06
-0.0011673
0.00117675
-0.00018246
2.00083e-06
-0.00116733
0.00117742
-0.000194818
1.68383e-06
-0.00116653
0.00117816
-0.000210298
1.13014e-06
-0.00116453
0.0011795
-0.000232749
2.8213e-07
-0.00116094
0.00118323
-0.00027155
-9.55515e-07
-0.00115415
0.00119332
-0.000328327
-2.88615e-06
-0.00114186
0.00119989
-7.45009e-06
-0.00110397
-0.000432738
0.00121144
-0.000191211
1.91129e-06
-0.00146108
0.00147191
-0.000201776
2.40822e-06
-0.00146209
0.00147222
-0.000212291
2.58982e-06
-0.00146272
0.00147274
-0.000223263
2.51333e-06
-0.00146252
0.00147298
-0.000235621
2.16087e-06
-0.00146118
0.00147306
-0.000251496
1.52188e-06
-0.00145852
0.001474
-0.000275373
5.17241e-07
-0.00145465
0.00147829
-0.000318342
-9.51627e-07
-0.00144808
0.00149105
-0.000381671
-3.33711e-06
-0.00143493
0.00149871
-9.12025e-06
-0.00138623
-0.000500666
0.00150689
-0.000231451
2.10725e-06
-0.00175245
0.00176371
-0.000242309
2.74345e-06
-0.00175369
0.00176421
-0.000253118
3.00324e-06
-0.00175457
0.00176496
-0.000264404
2.96714e-06
-0.00175457
0.0017654
-0.000277159
2.6066e-06
-0.0017534
0.00176571
-0.000293705
1.91295e-06
-0.00175098
0.00176713
-0.000318854
7.84065e-07
-0.00174743
0.00177231
-0.000364957
-8.71809e-07
-0.00174121
0.00178724
-0.000432973
-3.65901e-06
-0.00172761
0.00179595
-1.061e-05
-0.00166778
-0.000560734
0.00179703
-0.000271596
2.34374e-06
-0.00204499
0.00205644
-0.000282624
3.04865e-06
-0.0020466
0.00205733
-0.000293602
3.34573e-06
-0.00204798
0.00205862
-0.000305082
3.32557e-06
-0.00204846
0.00205958
-0.000318124
2.95732e-06
-0.00204782
0.00206051
-0.00033517
2.23201e-06
-0.00204602
0.00206275
-0.000361324
1.03325e-06
-0.00204311
0.00206902
-0.000409962
-7.23025e-07
-0.00203759
0.00208608
-0.00048192
-3.79132e-06
-0.00202434
0.00209643
-1.1842e-05
-0.00195271
-0.000615157
0.00208718
-0.000312312
2.42938e-06
-0.00233615
0.0023479
-0.000323444
3.15941e-06
-0.00233821
0.00234923
-0.000334489
3.44414e-06
-0.00233998
0.00235093
-0.000346026
3.39631e-06
-0.00234087
0.00235234
-0.000359167
2.9939e-06
-0.00234075
0.00235385
-0.000376439
2.2368e-06
-0.0023397
0.00235697
-0.000403218
1.00727e-06
-0.00233772
0.00236452
-0.000453749
-7.61202e-07
-0.0023333
0.00238387
-0.000529013
-3.88878e-06
-0.00232157
0.00239693
-1.28115e-05
-0.00223784
-0.000665773
0.00237557
-0.000352851
2.40414e-06
-0.00262715
0.00263902
-0.000363924
3.04193e-06
-0.0026298
0.00264099
-0.000374892
3.2561e-06
-0.00263212
0.00264328
-0.000386338
3.12277e-06
-0.00263347
0.00264519
-0.000399426
2.64676e-06
-0.00263392
0.00264736
-0.000416717
1.82073e-06
-0.00263369
0.0026514
-0.000443832
5.80894e-07
-0.00263285
0.00266039
-0.000495704
-1.08876e-06
-0.00263004
0.00268224
-0.000573753
-3.83996e-06
-0.00262096
0.00269896
-1.29708e-05
-0.0025249
-0.00071252
0.00266383
-0.000394658
2.03707e-06
-0.00291871
0.00293102
-0.000405783
2.48615e-06
-0.00292194
0.00293362
-0.000416749
2.51459e-06
-0.00292438
0.00293609
-0.000428145
2.17609e-06
-0.00292567
0.00293801
-0.000441097
1.5067e-06
-0.00292602
0.00294011
-0.000458111
5.04392e-07
-0.00292595
0.00294428
-0.000484953
-8.02691e-07
-0.00292581
0.00295403
-0.000537016
-2.34409e-06
-0.00292444
0.00297776
-0.000616533
-4.13347e-06
-0.00291872
0.00299853
-1.21283e-05
-0.00281217
-0.000755699
0.0029505
-0.000435863
1.07318e-06
-0.00320661
0.00321905
-0.000446562
1.14066e-06
-0.00321069
0.00322273
-0.000457133
8.49831e-07
-0.00321374
0.00322598
-0.000468225
1.16665e-07
-0.00321564
0.00322879
-0.000481005
-9.4206e-07
-0.00321678
0.00323201
-0.000497861
-2.30124e-06
-0.00321773
0.00323739
-0.000524556
-3.77552e-06
-0.003219
0.00324867
-0.000576347
-5.08987e-06
-0.00321994
0.00327448
-0.000655798
-5.49755e-06
-0.00321661
0.00329743
-1.01892e-05
-0.0030993
-0.000792455
0.00323402
-0.000477281
-0.00347519
0.00348821
-0.00048862
-0.00347877
0.00349125
-0.0004998
-0.00347946
0.00349149
-0.000511503
-0.00347689
0.00348871
-0.000524768
-0.00347174
0.00348407
-0.000541727
-0.00346506
0.00347972
-0.000567612
-0.00345803
0.00348014
-0.000616615
-0.00345213
0.00349604
-0.000689704
-0.00344855
0.00351614
-0.00333963
-0.000818713
0.00345845
1.43979e-05
8.92012e-07
-0.000860896
5.31764e-06
1.11697e-06
-0.000862387
-3.78388e-06
1.19795e-06
-0.000862973
-1.30904e-05
1.14055e-06
-0.000862751
-2.28013e-05
9.34916e-07
-0.00086169
-3.31349e-05
5.62665e-07
-0.00085953
-4.42387e-05
-1.03849e-08
-0.000855702
-5.55319e-05
-8.63113e-07
-0.000849036
-6.62308e-05
-2.19156e-06
-0.000838517
-3.96294e-06
-0.000822265
-6.39152e-05
1.54148e-05
1.52202e-06
-0.00115591
5.40005e-06
1.93902e-06
-0.00115751
-4.60483e-06
2.09309e-06
-0.00115819
-1.49173e-05
2.01422e-06
-0.00115789
-2.58028e-05
1.68064e-06
-0.00115639
-3.76242e-05
1.07006e-06
-0.00115322
-5.12182e-05
1.20637e-07
-0.00114748
-6.76284e-05
-1.28395e-06
-0.00113732
-8.82539e-05
-3.53112e-06
-0.00111989
-6.59841e-06
-0.00109095
-9.8645e-05
1.67436e-05
1.84032e-06
-0.00145004
6.01746e-06
2.40515e-06
-0.00145183
-4.61653e-06
2.62876e-06
-0.00145262
-1.54906e-05
2.5665e-06
-0.0014522
-2.69429e-05
2.18547e-06
-0.00145023
-3.97076e-05
1.46206e-06
-0.00144615
-5.55304e-05
3.04277e-07
-0.00143901
-7.71398e-05
-1.40998e-06
-0.00142635
-0.000108624
-4.26599e-06
-0.00140271
-8.37987e-06
-0.00135919
-0.000133884
1.79567e-05
2.05505e-06
-0.00174072
6.74706e-06
2.7768e-06
-0.00174285
-4.3716e-06
3.08738e-06
-0.00174391
-1.57954e-05
3.07083e-06
-0.00174365
-2.79805e-05
2.67999e-06
-0.00174171
-4.1919e-05
1.89335e-06
-0.00173747
-5.99216e-05
5.78242e-07
-0.0017297
-8.61106e-05
-1.37908e-06
-0.00171505
-0.000128038
-4.77228e-06
-0.00168517
-9.88501e-06
-0.00162531
-0.000169
1.90673e-05
2.30515e-06
-0.00203286
7.57105e-06
3.10501e-06
-0.00203543
-3.82767e-06
3.45897e-06
-0.00203696
-1.55862e-05
3.46438e-06
-0.00203709
-2.82987e-05
3.06997e-06
-0.00203549
-4.31433e-05
2.25369e-06
-0.00203154
-6.28962e-05
8.43803e-07
-0.00202363
-9.2976e-05
-1.26371e-06
-0.00200762
-0.000144875
-5.05134e-06
-0.00197217
-1.10404e-05
-0.00189504
-0.000201395
1.97669e-05
2.42348e-06
-0.0023236
8.09349e-06
3.25754e-06
-0.00232669
-3.43539e-06
3.60681e-06
-0.0023286
-1.53358e-05
3.59485e-06
-0.0023291
-2.8322e-05
3.17732e-06
-0.00232787
-4.37358e-05
2.34208e-06
-0.00232437
-6.47821e-05
8.97464e-07
-0.00231673
-9.80482e-05
-1.25062e-06
-0.00230005
-0.00015934
-5.18385e-06
-0.00226014
-1.18592e-05
-0.00216555
-0.000230806
2.01752e-05
2.38994e-06
-0.00261432
8.52484e-06
3.13014e-06
-0.00261802
-2.95311e-06
3.41409e-06
-0.00262045
-1.47916e-05
3.32931e-06
-0.00262137
-2.78349e-05
2.87084e-06
-0.00262057
-4.35356e-05
2.00929e-06
-0.00261766
-6.54771e-05
5.69157e-07
-0.00261058
-0.000101286
-1.54363e-06
-0.00259394
-0.00017126
-5.2237e-06
-0.00255095
-1.22275e-05
-0.00243898
-0.000256814
1.99145e-05
2.04681e-06
-0.00290545
8.26279e-06
2.60195e-06
-0.00290976
-3.10805e-06
2.73045e-06
-0.00291232
-1.47789e-05
2.49313e-06
-0.00291316
-2.76494e-05
1.92083e-06
-0.0029122
-4.32459e-05
9.80456e-07
-0.00290933
-6.54522e-05
-4.20413e-07
-0.00290261
-0.000102729
-2.39106e-06
-0.00288632
-0.000180106
-5.20376e-06
-0.00284137
-1.18836e-05
-0.00271318
-0.000279438
1.93842e-05
1.07918e-06
-0.00319308
8.20214e-06
1.22407e-06
-0.00319813
-2.66394e-06
1.06407e-06
-0.00320121
-1.38261e-05
4.79782e-07
-0.00320247
-2.63388e-05
-3.97811e-07
-0.00320195
-4.1839e-05
-1.57811e-06
-0.00319967
-6.44151e-05
-3.00298e-06
-0.00319384
-0.000103019
-4.66689e-06
-0.00317906
-0.000186357
-6.14047e-06
-0.00313234
-1.00672e-05
-0.00298559
-0.000301886
1.82299e-05
-0.00346138
6.79585e-06
-0.00346611
-4.11964e-06
-0.00346748
-1.52065e-05
-0.00346533
-2.74064e-05
-0.00345994
-4.2325e-05
-0.00345172
-6.38839e-05
-0.00343947
-0.000101269
-0.00341941
-0.000186008
-0.00336995
-0.00321567
-0.000320034
1.20281e-05
7.81323e-07
-0.000854231
4.42745e-06
1.02165e-06
-0.000855808
-3.28877e-06
1.10987e-06
-0.000856367
-1.10307e-05
1.04564e-06
-0.000856055
-1.8675e-05
8.22451e-07
-0.000854868
-2.5977e-05
4.24476e-07
-0.000852653
-3.2385e-05
-1.70323e-07
-0.000849124
-3.6595e-05
-9.99968e-07
-0.000843826
-3.67266e-05
-2.14837e-06
-0.000836237
-3.42715e-06
-0.000826591
-2.8974e-05
1.38827e-05
1.37121e-06
-0.00114741
4.85993e-06
1.81208e-06
-0.00114928
-4.22438e-06
1.97547e-06
-0.00114997
-1.34613e-05
1.88512e-06
-0.00114949
-2.2857e-05
1.51965e-06
-0.00114769
-3.2261e-05
8.54514e-07
-0.00114424
-4.12728e-05
-1.6385e-07
-0.00113847
-4.87405e-05
-1.60811e-06
-0.00112924
-5.21999e-05
-3.69378e-06
-0.00111489
-6.1175e-06
-0.00109569
-4.47616e-05
1.59863e-05
1.72472e-06
-0.00143989
5.78816e-06
2.32061e-06
-0.00144214
-4.40494e-06
2.55429e-06
-0.00144301
-1.47886e-05
2.4741e-06
-0.0014424
-2.54586e-05
2.0423e-06
-0.00144008
-3.64784e-05
1.22366e-06
-0.0014355
-4.79622e-05
-7.67828e-08
-0.00142761
-5.94417e-05
-1.957e-06
-0.00141452
-6.85074e-05
-4.82747e-06
-0.00139251
-8.34942e-06
-0.00136051
-6.49526e-05
1.76329e-05
1.98992e-06
-0.00172953
6.64595e-06
2.75388e-06
-0.00173229
-4.3324e-06
3.07669e-06
-0.00173345
-1.56136e-05
3.0377e-06
-0.00173293
-2.74439e-05
2.58306e-06
-0.00173042
-4.01534e-05
1.67512e-06
-0.00172521
-5.43034e-05
1.65744e-07
-0.00171579
-7.00862e-05
-2.06583e-06
-0.00169916
-8.57935e-05
-5.6827e-06
-0.00166861
-1.03133e-05
-0.0016209
-8.824e-05
1.90342e-05
2.28513e-06
-0.00202099
7.53835e-06
3.13406e-06
-0.00202432
-3.92776e-06
3.50432e-06
-0.00202592
-1.57837e-05
3.48852e-06
-0.00202569
-2.84552e-05
3.02795e-06
-0.00202327
-4.25251e-05
2.08073e-06
-0.00201787
-5.90068e-05
4.43608e-07
-0.00200742
-7.88903e-05
-2.03246e-06
-0.00198777
-0.000101927
-6.27585e-06
-0.00194854
-1.19458e-05
-0.00188321
-0.000112125
1.99682e-05
2.45241e-06
-0.00231111
8.13562e-06
3.33997e-06
-0.00231506
-3.613e-06
3.71015e-06
-0.00231706
-1.57914e-05
3.68439e-06
-0.00231712
-2.89833e-05
3.20641e-06
-0.00231485
-4.40216e-05
2.24286e-06
-0.0023095
-6.24064e-05
5.60305e-07
-0.00229846
-8.60327e-05
-2.01376e-06
-0.00227644
-0.000116861
-6.6124e-06
-0.00222898
-1.31556e-05
-0.00214497
-0.000136238
2.05167e-05
2.44225e-06
-0.0026014
8.6038e-06
3.23586e-06
-0.002606
-3.18659e-06
3.54659e-06
-0.0026085
-1.54142e-05
3.4613e-06
-0.00260892
-2.8829e-05
2.96683e-06
-0.00260692
-4.44743e-05
2.01698e-06
-0.00260179
-6.43347e-05
3.76032e-07
-0.00259053
-9.12416e-05
-2.17909e-06
-0.00256686
-0.000129967
-6.74313e-06
-0.00251209
-1.39274e-05
-0.00240889
-0.000159287
2.03385e-05
2.11044e-06
-0.00289205
8.39549e-06
2.71511e-06
-0.0028973
-3.31082e-06
2.88703e-06
-0.00289996
-1.54032e-05
2.69004e-06
-0.0029003
-2.87268e-05
2.14002e-06
-0.00289805
-4.45139e-05
1.1902e-06
-0.00289271
-6.52183e-05
-3.11446e-07
-0.00288122
-9.45668e-05
-2.63063e-06
-0.00285652
-0.000140676
-6.38482e-06
-0.00279562
-1.37219e-05
-0.00267347
-0.000180596
1.97256e-05
1.15646e-06
-0.00317935
8.23503e-06
1.33383e-06
-0.00318526
-2.97105e-06
1.25364e-06
-0.00318837
-1.45204e-05
7.78593e-07
-0.00318901
-2.74158e-05
3.22567e-08
-0.00318695
-4.31328e-05
-1.0064e-06
-0.00318175
-6.46304e-05
-2.32908e-06
-0.00317033
-9.6423e-05
-4.0821e-06
-0.00314582
-0.000148889
-6.36249e-06
-0.00307989
-1.15046e-05
-0.00293609
-0.0002006
1.85646e-05
-0.00344751
6.99148e-06
-0.0034532
-4.10666e-06
-0.00345512
-1.54412e-05
-0.00345321
-2.79057e-05
-0.00344745
-4.29857e-05
-0.00343765
-6.36813e-05
-0.0034211
-9.53954e-05
-0.00339178
-0.000150676
-0.00332104
-0.00316247
-0.000215375
9.33562e-06
6.13029e-07
-0.000849406
3.46681e-06
8.56814e-07
-0.000850796
-2.58347e-06
9.49096e-07
-0.000851265
-8.54194e-06
8.832e-07
-0.000850979
-1.41019e-05
6.57772e-07
-0.000849966
-1.88409e-05
2.63913e-07
-0.000848178
-2.21165e-05
-3.05338e-07
-0.000845543
-2.28906e-05
-1.05227e-06
-0.000842
-1.95802e-05
-1.97352e-06
-0.000837574
-2.85788e-06
-0.000832727
-1.05863e-05
1.17284e-05
1.12597e-06
-0.00114058
4.1125e-06
1.57704e-06
-0.00114239
-3.63244e-06
1.74559e-06
-0.00114302
-1.1369e-05
1.64772e-06
-0.00114252
-1.88811e-05
1.2664e-06
-0.00114079
-2.578e-05
5.83612e-07
-0.00113766
-3.13065e-05
-4.32226e-07
-0.00113282
-3.39431e-05
-1.80344e-06
-0.00112586
-3.08512e-05
-3.59056e-06
-0.00111636
-5.40744e-06
-0.00110584
-1.816e-05
1.44364e-05
1.50421e-06
-0.00143113
5.26301e-06
2.11652e-06
-0.00143351
-3.97733e-06
2.35308e-06
-0.00143437
-1.32855e-05
2.25235e-06
-0.0014337
-2.25555e-05
1.7783e-06
-0.00143133
-3.14927e-05
8.96251e-07
-0.00142687
-3.94198e-05
-4.71346e-07
-0.00141965
-4.47274e-05
-2.37749e-06
-0.00140864
-4.349e-05
-5.01692e-06
-0.00139232
-7.87652e-06
-0.00137281
-2.87163e-05
1.65205e-05
1.82176e-06
-0.00171944
6.22903e-06
2.61482e-06
-0.0017225
-4.12562e-06
2.94151e-06
-0.00172368
-1.46814e-05
2.87211e-06
-0.001723
-2.54838e-05
2.35324e-06
-0.00172019
-3.64445e-05
1.34296e-06
-0.0017147
-4.70963e-05
-2.94918e-07
-0.00170531
-5.58556e-05
-2.65295e-06
-0.00169013
-5.78713e-05
-6.15406e-06
-0.00166546
-1.01516e-05
-0.0016336
-4.28921e-05
1.82679e-05
2.16784e-06
-0.00200991
7.19092e-06
3.05527e-06
-0.00201368
-3.91783e-06
3.4333e-06
-0.0020153
-1.53353e-05
3.38428e-06
-0.00201478
-2.72991e-05
2.84795e-06
-0.0020118
-3.99713e-05
1.77307e-06
-0.00200563
-5.31895e-05
-4.12171e-08
-0.00199446
-6.55877e-05
-2.74099e-06
-0.00197529
-7.19205e-05
-7.02799e-06
-0.00194133
-1.21677e-05
-0.00189447
-5.86357e-05
1.94972e-05
2.39529e-06
-0.00229919
7.87011e-06
3.32747e-06
-0.00230371
-3.73076e-06
3.71025e-06
-0.00230573
-1.57086e-05
3.6573e-06
-0.00230541
-2.84777e-05
3.1059e-06
-0.00230234
-4.24759e-05
2.00839e-06
-0.00229573
-5.79438e-05
1.20287e-07
-0.00228315
-7.39446e-05
-2.75672e-06
-0.00226043
-8.55192e-05
-7.58051e-06
-0.00221685
-1.37418e-05
-0.0021531
-7.5809e-05
2.02508e-05
2.42928e-06
-0.00258884
8.38832e-06
3.26904e-06
-0.00259408
-3.4016e-06
3.59768e-06
-0.00259659
-1.56006e-05
3.49629e-06
-0.00259656
-2.88108e-05
2.9425e-06
-0.00259355
-4.37301e-05
1.87852e-06
-0.00258674
-6.10601e-05
4.44335e-08
-0.00257313
-8.04349e-05
-2.8435e-06
-0.0025474
-9.78627e-05
-7.83171e-06
-0.00249441
-1.48745e-05
-0.00241248
-9.31409e-05
2.02292e-05
2.12594e-06
-0.00287889
8.26419e-06
2.77339e-06
-0.00288484
-3.51648e-06
2.97547e-06
-0.00288755
-1.56796e-05
2.79762e-06
-0.00288744
-2.89402e-05
2.23783e-06
-0.00288408
-4.42453e-05
1.24138e-06
-0.00287677
-6.28236e-05
-3.85256e-07
-0.00286221
-8.50245e-05
-3.00351e-06
-0.00283416
-0.000108501
-7.313e-06
-0.00277266
-1.48143e-05
-0.00267193
-0.000110103
1.96819e-05
1.20585e-06
-0.00316578
8.11117e-06
1.41104e-06
-0.00317232
-3.23072e-06
1.39573e-06
-0.00317545
-1.49113e-05
1.00562e-06
-0.00317554
-2.77846e-05
3.52582e-07
-0.00317219
-4.3031e-05
-6.00317e-07
-0.00316466
-6.25012e-05
-1.88729e-06
-0.00314936
-8.76556e-05
-3.74349e-06
-0.00311992
-0.000117046
-6.48705e-06
-0.00305133
-1.22077e-05
-0.00292909
-0.000126661
1.85956e-05
-0.00343384
7.06384e-06
-0.00344026
-4.0592e-06
-0.00344261
-1.5445e-05
-0.00344082
-2.78644e-05
-0.00343467
-4.25377e-05
-0.00342358
-6.14168e-05
-0.00340411
-8.70545e-05
-0.00336988
-0.000119679
-0.0032949
-0.00315494
-0.000139424
6.85082e-06
4.2853e-07
-0.000846066
2.57725e-06
6.59339e-07
-0.000847182
-1.89571e-06
7.50152e-07
-0.000847543
-6.23769e-06
6.87942e-07
-0.000847325
-1.01041e-05
4.76284e-07
-0.000846576
-1.309e-05
1.14264e-07
-0.000845306
-1.47019e-05
-3.89718e-07
-0.000843541
-1.43358e-05
-1.01446e-06
-0.000841352
-1.1321e-05
-1.71441e-06
-0.000838874
-2.32353e-06
-0.000836357
-5.36707e-06
9.38948e-06
8.3228e-07
-0.00113538
3.301e-06
1.27259e-06
-0.00113691
-2.96386e-06
1.43951e-06
-0.00113745
-9.12528e-06
1.34058e-06
-0.00113701
-1.48409e-05
9.64516e-07
-0.00113556
-1.96413e-05
3.04651e-07
-0.00113305
-2.28111e-05
-6.44159e-07
-0.00112939
-2.32469e-05
-1.86021e-06
-0.00112458
-1.92855e-05
-3.30087e-06
-0.00111874
-4.62165e-06
-0.00111305
-9.77167e-06
1.24567e-05
1.20487e-06
-0.00142397
4.59467e-06
1.81377e-06
-0.00142619
-3.4006e-06
2.04687e-06
-0.00142699
-1.13465e-05
1.93059e-06
-0.00142634
-1.89683e-05
1.43418e-06
-0.00142417
-2.57939e-05
5.33125e-07
-0.00142027
-3.09474e-05
-8.1899e-07
-0.00141432
-3.28502e-05
-2.62465e-06
-0.00140597
-2.8615e-05
-4.9046e-06
-0.00139495
-7.12357e-06
-0.00138353
-1.53931e-05
1.48887e-05
1.5565e-06
-0.00171076
5.64054e-06
2.36256e-06
-0.0017138
-3.74667e-06
2.68764e-06
-0.00171494
-1.32072e-05
2.58995e-06
-0.0017142
-2.25772e-05
2.02107e-06
-0.00171141
-3.14916e-05
9.45538e-07
-0.0017062
-3.90581e-05
-7.39382e-07
-0.00169783
-4.33448e-05
-3.07599e-06
-0.00168539
-4.00308e-05
-6.24504e-06
-0.00166743
-9.51506e-06
-0.0016474
-2.38486e-05
1.69681e-05
1.94541e-06
-0.00199999
6.6656e-06
2.85924e-06
-0.00200388
-3.74167e-06
3.2402e-06
-0.00200545
-1.43316e-05
3.15667e-06
-0.00200476
-2.51108e-05
2.55107e-06
-0.00200155
-3.59026e-05
1.37272e-06
-0.00199526
-4.59292e-05
-5.49318e-07
-0.00198462
-5.30595e-05
-3.31817e-06
-0.00196791
-5.1656e-05
-7.34879e-06
-0.00194163
-1.17453e-05
-0.00191026
-3.36433e-05
1.85087e-05
2.23335e-06
-0.00228822
7.42663e-06
3.20217e-06
-0.00229297
-3.70218e-06
3.59344e-06
-0.00229496
-1.50997e-05
3.50943e-06
-0.00229437
-2.69436e-05
2.88501e-06
-0.00229083
-3.93011e-05
1.66618e-06
-0.00228367
-5.16463e-05
-3.72692e-07
-0.00227098
-6.18613e-05
-3.40457e-06
-0.00225012
-6.33623e-05
-8.09464e-06
-0.0022146
-1.35627e-05
-0.00216964
-4.50115e-05
1.94998e-05
2.32471e-06
-0.00257702
8.00083e-06
3.20685e-06
-0.00258259
-3.49372e-06
3.55062e-06
-0.00258506
-1.5311e-05
3.42871e-06
-0.00258466
-2.78223e-05
2.81104e-06
-0.00258096
-4.13529e-05
1.63106e-06
-0.00257317
-5.57302e-05
-3.6632e-07
-0.00255876
-6.9026e-05
-3.45583e-06
-0.00253405
-7.42104e-05
-8.46273e-06
-0.00248886
-1.49291e-05
-0.00242846
-5.68604e-05
1.96814e-05
2.06098e-06
-0.00286633
7.97449e-06
2.752e-06
-0.00287268
-3.62013e-06
2.97998e-06
-0.00287539
-1.5542e-05
2.81291e-06
-0.0028749
-2.82885e-05
2.23208e-06
-0.00287075
-4.24389e-05
1.17423e-06
-0.00286216
-5.82945e-05
-5.7268e-07
-0.00284615
-7.43805e-05
-3.39111e-06
-0.00281814
-8.38657e-05
-7.89302e-06
-0.00276374
-1.49912e-05
-0.00268668
-6.90525e-05
1.92592e-05
1.20628e-06
-0.00315268
7.85967e-06
1.44006e-06
-0.00315961
-3.38844e-06
1.48161e-06
-0.0031627
-1.49335e-05
1.16051e-06
-0.00316234
-2.74207e-05
5.77642e-07
-0.00315805
-4.1636e-05
-3.19764e-07
-0.00314896
-5.83785e-05
-1.59869e-06
-0.00313159
-7.72775e-05
-3.52974e-06
-0.00310088
-9.15554e-05
-6.4667e-06
-0.00303848
-1.20701e-05
-0.00294207
-8.14914e-05
1.82819e-05
-0.00342066
6.99526e-06
-0.00342753
-3.96766e-06
-0.00343016
-1.51849e-05
-0.00342844
-2.72517e-05
-0.00342203
-4.10392e-05
-0.00341011
-5.74938e-05
-0.00338926
-7.70823e-05
-0.00335382
-9.41505e-05
-0.0032843
-0.00317029
-9.08668e-05
4.8178e-06
2.55956e-07
-0.000843813
1.84444e-06
4.60828e-07
-0.000844669
-1.31248e-06
5.45266e-07
-0.000844931
-4.34401e-06
4.90812e-07
-0.000844785
-6.94353e-06
3.04914e-07
-0.000844281
-8.78843e-06
-7.43558e-09
-0.000843454
-9.54955e-06
-4.27962e-07
-0.000842352
-8.91232e-06
-9.24781e-07
-0.000841064
-6.64731e-06
-1.44161e-06
-0.000839698
-1.86088e-06
-0.000838295
-2.8482e-06
7.17048e-06
5.31542e-07
-0.00113156
2.52143e-06
9.4039e-07
-0.00113274
-2.31965e-06
1.09859e-06
-0.00113316
-7.02145e-06
1.00548e-06
-0.00113282
-1.12114e-05
6.5535e-07
-0.00113172
-1.44483e-05
5.27138e-08
-0.00112988
-1.61729e-05
-7.85931e-07
-0.00112731
-1.57047e-05
-1.81241e-06
-0.00112416
-1.22621e-05
-2.93874e-06
-0.00112068
-3.89694e-06
-0.00111762
-5.65747e-06
1.03339e-05
8.65689e-07
-0.00141834
3.87056e-06
1.44758e-06
-0.00142023
-2.77105e-06
1.66989e-06
-0.00142092
-9.28612e-06
1.54642e-06
-0.00142037
-1.53011e-05
1.0533e-06
-0.00141856
-2.0296e-05
1.80426e-07
-0.00141541
-2.34737e-05
-1.08437e-06
-0.00141084
-2.36592e-05
-2.70174e-06
-0.00140489
-1.91474e-05
-4.59302e-06
-0.00139781
-6.29615e-06
-0.00139119
-9.09559e-06
1.29504e-05
1.22265e-06
-0.0017036
4.94857e-06
2.01945e-06
-0.00170637
-3.25784e-06
2.33626e-06
-0.0017074
-1.14294e-05
2.21776e-06
-0.0017067
-1.92393e-05
1.62375e-06
-0.00170417
-2.6173e-05
5.32649e-07
-0.00169962
-3.12715e-05
-1.1141e-06
-0.0016927
-3.28816e-05
-3.30568e-06
-0.00168318
-2.80218e-05
-6.04908e-06
-0.00167084
-8.66333e-06
-0.0016585
-1.45485e-05
1.52778e-05
1.63572e-06
-0.00199145
6.01383e-06
2.55665e-06
-0.00199515
-3.42735e-06
2.9344e-06
-0.0019966
-1.29266e-05
2.82128e-06
-0.00199586
-2.22801e-05
2.1665e-06
-0.00199274
-3.10702e-05
9.28982e-07
-0.00198687
-3.82836e-05
-1.01457e-06
-0.00197751
-4.18687e-05
-3.70743e-06
-0.00196393
-3.73933e-05
-7.31779e-06
-0.00194484
-1.09602e-05
-0.00192448
-2.0875e-05
1.70931e-05
1.97413e-06
-0.00227847
6.8442e-06
2.96474e-06
-0.00228313
-3.53006e-06
3.35921e-06
-0.00228501
-1.40509e-05
3.24589e-06
-0.00228427
-2.46565e-05
2.56202e-06
-0.00228062
-3.51015e-05
1.25677e-06
-0.00227355
-4.44555e-05
-8.53134e-07
-0.00226179
-5.04325e-05
-3.88521e-06
-0.00224397
-4.72073e-05
-8.21096e-06
-0.00221694
-1.2883e-05
-0.0021864
-2.85184e-05
1.83158e-05
2.12806e-06
-0.00256624
7.47071e-06
3.04325e-06
-0.00257182
-3.44883e-06
3.39847e-06
-0.00257418
-1.45805e-05
3.25633e-06
-0.00257354
-2.60435e-05
2.58301e-06
-0.00256952
-3.78062e-05
1.3109e-06
-0.00256146
-4.91373e-05
-7.85558e-07
-0.00254749
-5.76771e-05
-3.92789e-06
-0.00252547
-5.64385e-05
-8.66551e-06
-0.00248964
-1.43288e-05
-0.00244697
-3.64865e-05
1.87199e-05
1.91004e-06
-0.00285468
7.54556e-06
2.64143e-06
-0.0028611
-3.6012e-06
2.89076e-06
-0.00286373
-1.49917e-05
2.72927e-06
-0.00286298
-2.68754e-05
2.12516e-06
-0.00285841
-3.94468e-05
1.01358e-06
-0.00284929
-5.23155e-05
-8.1056e-07
-0.00283326
-6.33302e-05
-3.693e-06
-0.00280736
-6.48561e-05
-8.08073e-06
-0.0027628
-1.44193e-05
-0.00270647
-4.49784e-05
1.84553e-05
1.15094e-06
-0.00314038
7.483e-06
1.41174e-06
-0.00314741
-3.42868e-06
1.50164e-06
-0.0031504
-1.45673e-05
1.23498e-06
-0.0031497
-2.63442e-05
7.03476e-07
-0.00314485
-3.91457e-05
-1.56814e-07
-0.00313498
-5.2925e-05
-1.43026e-06
-0.00311719
-6.62929e-05
-3.37032e-06
-0.00308784
-7.12559e-05
-6.28049e-06
-0.00303532
-1.12802e-05
-0.00296285
-5.36162e-05
1.76153e-05
-0.00340826
6.78542e-06
-0.00341529
-3.81666e-06
-0.00341806
-1.46354e-05
-0.00341639
-2.60608e-05
-0.0034099
-3.85955e-05
-0.00339773
-5.23804e-05
-0.0033769
-6.65584e-05
-0.00334302
-7.3695e-05
-0.00328344
-0.00319568
-5.95867e-05
3.29209e-06
1.12319e-07
-0.000842294
1.2894e-06
2.84238e-07
-0.000842951
-8.65005e-07
3.59138e-07
-0.000843136
-2.91873e-06
3.14501e-07
-0.000843045
-4.63133e-06
1.60398e-07
-0.000842729
-5.76969e-06
-9.51414e-08
-0.00084222
-6.1296e-06
-4.29555e-07
-0.000841562
-5.55971e-06
-8.09615e-07
-0.000840824
-4.01255e-06
-1.18342e-06
-0.000840062
-1.47049e-06
-0.00083919
-1.64724e-06
5.24924e-06
2.55639e-07
-0.00112881
1.83214e-06
6.17429e-07
-0.00112966
-1.76567e-06
7.61084e-07
-0.00112996
-5.22755e-06
6.79149e-07
-0.00112972
-8.21281e-06
3.70394e-07
-0.00112895
-1.03583e-05
-1.52376e-07
-0.00112767
-1.12705e-05
-8.59099e-07
-0.00112597
-1.05671e-05
-1.69027e-06
-0.00112398
-7.9485e-06
-2.54955e-06
-0.00112193
-3.24218e-06
-0.00112026
-3.54044e-06
8.28345e-06
5.24243e-07
-0.00141405
3.15609e-06
1.05656e-06
-0.00141554
-2.1663e-06
1.2607e-06
-0.00141609
-7.32896e-06
1.13881e-06
-0.00141567
-1.19315e-05
6.73658e-07
-0.00141426
-1.54875e-05
-1.30841e-07
-0.00141187
-1.7369e-05
-1.25878e-06
-0.00140856
-1.68177e-05
-2.64237e-06
-0.00140449
-1.29818e-05
-4.15892e-06
-0.00140004
-5.45321e-06
-0.00139618
-5.77938e-06
1.08966e-05
8.55434e-07
-0.00169789
4.20854e-06
1.61759e-06
-0.00170024
-2.72695e-06
1.91827e-06
-0.00170112
-9.55762e-06
1.78878e-06
-0.00170052
-1.5864e-05
1.19858e-06
-0.00169839
-2.10883e-05
1.42858e-07
-0.00169467
-2.43815e-05
-1.39354e-06
-0.00168927
-2.45404e-05
-3.35487e-06
-0.0016823
-1.98109e-05
-5.64375e-06
-0.00167408
-7.70172e-06
-0.00166652
-9.54082e-06
1.33432e-05
1.26748e-06
-0.00198433
5.27768e-06
2.17024e-06
-0.00198764
-3.02326e-06
2.53679e-06
-0.00198892
-1.12845e-05
2.40273e-06
-0.00198822
-1.91504e-05
1.72695e-06
-0.0019854
-2.60728e-05
4.84283e-07
-0.00198029
-3.10387e-05
-1.3951e-06
-0.00197254
-3.23982e-05
-3.89406e-06
-0.00196203
-2.72076e-05
-7.0031e-06
-0.00194867
-9.9575e-06
-0.00193561
-1.38188e-05
1.53531e-05
1.63789e-06
-0.00227007
6.15308e-06
2.62819e-06
-0.00227439
-3.24379e-06
3.01841e-06
-0.00227609
-1.26775e-05
2.88155e-06
-0.00227532
-2.189e-05
2.16153e-06
-0.00227184
-3.04215e-05
8.19294e-07
-0.00226536
-3.72047e-05
-1.27264e-06
-0.00225513
-4.02353e-05
-4.16447e-06
-0.00224067
-3.52434e-05
-7.98608e-06
-0.00222095
-1.187e-05
-0.00220058
-1.91528e-05
1.67643e-05
1.85109e-06
-0.00255673
6.818e-06
2.78269e-06
-0.00256203
-3.28119e-06
3.14335e-06
-0.0025642
-1.34819e-05
2.98442e-06
-0.00256344
-2.36771e-05
2.27279e-06
-0.00255943
-3.35548e-05
9.48689e-07
-0.00255172
-4.20958e-05
-1.16593e-06
-0.00253906
-4.70605e-05
-4.21426e-06
-0.00252046
-4.28629e-05
-8.48546e-06
-0.00249334
-1.32585e-05
-0.00246388
-2.45637e-05
1.7384e-05
1.67827e-06
-0.00284417
6.98934e-06
2.44052e-06
-0.00285036
-3.46509e-06
2.70494e-06
-0.00285284
-1.40699e-05
2.54636e-06
-0.00285194
-2.4839e-05
1.92423e-06
-0.0028473
-3.56398e-05
7.79826e-07
-0.00283832
-4.56446e-05
-1.06394e-06
-0.00282335
-5.26072e-05
-3.87293e-06
-0.00280074
-4.99824e-05
-7.90071e-06
-0.00276601
-1.3269e-05
-0.00272595
-3.04902e-05
1.72891e-05
1.03981e-06
-0.00312914
6.98505e-06
1.32233e-06
-0.00313599
-3.35357e-06
1.4514e-06
-0.00313881
-1.38345e-05
1.22675e-06
-0.0031379
-2.46397e-05
7.33665e-07
-0.00313285
-3.58072e-05
-9.64037e-08
-0.00312294
-4.67284e-05
-1.35095e-06
-0.00310598
-5.55419e-05
-3.23088e-06
-0.00307967
-5.5111e-05
-5.94702e-06
-0.0030377
-1.00999e-05
-0.00298499
-3.61376e-05
1.66073e-05
-0.00339692
6.43822e-06
-0.0034038
-3.60168e-06
-0.00340657
-1.38012e-05
-0.00340496
-2.43413e-05
-0.00339863
-3.53868e-05
-0.00338678
-4.65193e-05
-0.00336712
-5.61738e-05
-0.00333659
-5.73738e-05
-0.00328819
-0.00322346
-3.96919e-05
2.21277e-06
3.93847e-09
-0.000841257
8.94542e-07
1.41911e-07
-0.000841774
-5.4198e-07
2.06169e-07
-0.000841905
-1.90531e-06
1.71588e-07
-0.000841854
-3.02019e-06
4.98347e-08
-0.000841664
-3.7266e-06
-1.50404e-07
-0.000841363
-3.90067e-06
-4.06488e-07
-0.000840982
-3.47169e-06
-6.88938e-07
-0.000840564
-2.45041e-06
-9.55395e-07
-0.000840127
-1.15139e-06
-0.000839519
-9.70492e-07
3.69348e-06
2.38679e-08
-0.00112683
1.26088e-06
3.30564e-07
-0.00112741
-1.32547e-06
4.56179e-07
-0.00112763
-3.79825e-06
3.88431e-07
-0.00112747
-5.87643e-06
1.29169e-07
-0.00112695
-7.28374e-06
-3.04366e-07
-0.00112611
-7.75848e-06
-8.76487e-07
-0.00112502
-7.09724e-06
-1.52719e-06
-0.0011238
-5.21377e-06
-2.16921e-06
-0.0011226
-2.66438e-06
-0.00112166
-2.29203e-06
6.44716e-06
2.10159e-07
-0.00141083
2.5014e-06
6.75664e-07
-0.00141194
-1.63057e-06
8.55597e-07
-0.00141236
-5.60202e-06
7.42432e-07
-0.00141205
-9.0385e-06
3.24234e-07
-0.00141102
-1.15279e-05
-3.84817e-07
-0.0014093
-1.26111e-05
-1.35032e-06
-0.001407
-1.18319e-05
-2.4915e-06
-0.00140431
-8.82331e-06
-3.67622e-06
-0.00140154
-4.64432e-06
-0.00139928
-3.7469e-06
8.88869e-06
4.88973e-07
-0.00169346
3.4731e-06
1.19246e-06
-0.00169535
-2.20569e-06
1.46922e-06
-0.00169605
-7.74702e-06
1.33853e-06
-0.00169557
-1.2706e-05
7.79241e-07
-0.00169388
-1.65556e-05
-1.97825e-07
-0.001691
-1.86154e-05
-1.57381e-06
-0.00168699
-1.80821e-05
-3.26264e-06
-0.00168207
-1.40421e-05
-5.11669e-06
-0.00167668
-6.70526e-06
-0.00167205
-6.44978e-06
1.13139e-05
8.73265e-07
-0.00197857
4.50437e-06
1.73038e-06
-0.00198136
-2.57537e-06
2.07679e-06
-0.00198245
-9.55224e-06
1.93206e-06
-0.00198183
-1.59887e-05
1.26586e-06
-0.00197945
-2.1302e-05
7.11276e-08
-0.00197525
-2.46025e-05
-1.67322e-06
-0.00196914
-2.46847e-05
-3.90066e-06
-0.00196131
-1.9812e-05
-6.49156e-06
-0.00195217
-8.83491e-06
-0.00194384
-9.45239e-06
1.34126e-05
1.25226e-06
-0.00226306
5.39216e-06
2.21525e-06
-0.00226685
-2.87839e-06
2.59212e-06
-0.00226834
-1.11017e-05
2.44013e-06
-0.0022676
-1.8888e-05
1.71272e-06
-0.0022645
-2.56685e-05
3.87936e-07
-0.00225889
-3.04167e-05
-1.60397e-06
-0.00225045
-3.15504e-05
-4.24917e-06
-0.00223919
-2.63023e-05
-7.50414e-06
-0.00222518
-1.06475e-05
-0.00221174
-1.33331e-05
1.494e-05
1.51369e-06
-0.00254858
6.07233e-06
2.43888e-06
-0.00255338
-3.01472e-06
2.79687e-06
-0.00255532
-1.21084e-05
2.62708e-06
-0.00255453
-2.09287e-05
1.90085e-06
-0.0025508
-2.89851e-05
5.73308e-07
-0.00254385
-3.51865e-05
-1.47835e-06
-0.00253298
-3.7642e-05
-4.31334e-06
-0.00251794
-3.24333e-05
-8.01109e-06
-0.00249804
-1.18911e-05
-0.002478
-1.70714e-05
1.57444e-05
1.37857e-06
-0.00283495
6.32817e-06
2.15599e-06
-0.00284066
-3.22699e-06
2.4277e-06
-0.00284292
-1.2844e-05
2.27195e-06
-0.00284197
-2.23416e-05
1.6438e-06
-0.00283754
-3.13539e-05
4.9743e-07
-0.00282924
-3.88581e-05
-1.3038e-06
-0.00281602
-4.28034e-05
-3.93075e-06
-0.00279717
-3.8332e-05
-7.45502e-06
-0.00277104
-1.17851e-05
-0.00274308
-2.13052e-05
1.58101e-05
8.7848e-07
-0.00311918
6.38031e-06