/*--------------------------------*- C++ -*----------------------------------*\
| =========                 |                                                 |
| \\      /  F ield         | foam-extend: Open Source CFD                    |
|  \\    /   O peration     | Version:     4.0                                |
|   \\  /    A nd           | Web:         http://www.foam-extend.org         |
|    \\/     M anipulation  |                                                 |
\*---------------------------------------------------------------------------*/
FoamFile
{
    version     2.0;
    format      ascii;
    class       volScalarField;
    location    "1550";
    object      rho;
}
// * * * * * * * * * * * * * * * * * * * * * * * * * * * * * * * * * * * * * //

dimensions      [1 -3 0 0 0 0 0];

internalField   nonuniform List<scalar> 
34480
(
1.34606
1.34535
1.34524
1.3457
1.34691
1.34922
1.35343
1.36153
1.37223
1.37671
1.34698
1.34631
1.34627
1.34673
1.34789
1.35008
1.35418
1.36234
1.37419
1.37606
1.34578
1.34513
1.34514
1.34553
1.34652
1.34842
1.35224
1.36003
1.37228
1.3689
1.34468
1.34412
1.34416
1.34453
1.34541
1.347
1.35042
1.35748
1.3695
1.36057
1.34361
1.34303
1.34311
1.34342
1.34419
1.34549
1.34851
1.35481
1.36632
1.35228
1.34351
1.34304
1.34316
1.34349
1.34418
1.34526
1.3479
1.3534
1.36409
1.34526
1.34222
1.34171
1.34186
1.34216
1.34279
1.34372
1.34605
1.35087
1.36059
1.33778
1.34298
1.34265
1.34291
1.34343
1.3443
1.34544
1.34776
1.35208
1.36054
1.33383
1.34147
1.34116
1.34143
1.342
1.343
1.34439
1.3468
1.3508
1.35771
1.32793
1.33871
1.33862
1.33943
1.34093
1.34316
1.34612
1.35018
1.35569
1.36275
1.32911
1.35295
1.35185
1.35147
1.3517
1.35266
1.35448
1.35738
1.36172
1.36855
1.37748
1.35354
1.3523
1.35188
1.35213
1.35315
1.35514
1.35855
1.36425
1.37452
1.38933
1.35206
1.35073
1.35029
1.35045
1.35138
1.35326
1.35678
1.36317
1.37616
1.39523
1.35074
1.34936
1.34885
1.34891
1.3497
1.35138
1.35473
1.36114
1.37572
1.39769
1.34956
1.34805
1.34747
1.34738
1.348
1.34938
1.35242
1.35847
1.37392
1.39764
1.34934
1.34784
1.34719
1.34701
1.34747
1.34857
1.35122
1.35665
1.37231
1.39655
1.34802
1.34639
1.34568
1.34537
1.34567
1.3465
1.34877
1.35354
1.36893
1.39308
1.34874
1.34718
1.34647
1.34624
1.34662
1.34747
1.34959
1.35375
1.3683
1.39143
1.34725
1.34567
1.34491
1.34462
1.34493
1.34578
1.34779
1.35158
1.36471
1.38728
1.34458
1.34308
1.34266
1.34302
1.34418
1.34608
1.34914
1.35383
1.36649
1.38778
1.35772
1.35679
1.35648
1.35673
1.35763
1.35923
1.36164
1.36493
1.36907
1.37357
1.35826
1.35709
1.35672
1.35704
1.35815
1.36017
1.36329
1.36781
1.37445
1.38234
1.35663
1.35532
1.35493
1.35525
1.35642
1.3586
1.36215
1.3677
1.37702
1.38869
1.35507
1.35366
1.35321
1.35348
1.35464
1.35685
1.36063
1.36679
1.37821
1.39333
1.35367
1.35212
1.35161
1.35176
1.35283
1.35493
1.35873
1.36512
1.37815
1.39629
1.3532
1.35164
1.35106
1.35113
1.3521
1.35405
1.35775
1.36406
1.37821
1.39867
1.35166
1.34999
1.34936
1.34932
1.35016
1.35192
1.35544
1.36155
1.37637
1.39871
1.35221
1.35058
1.34994
1.34996
1.35083
1.35258
1.35604
1.3619
1.3768
1.40019
1.35065
1.349
1.3483
1.34823
1.34898
1.35062
1.35395
1.35971
1.37404
1.39849
1.34795
1.34635
1.34588
1.34626
1.34756
1.34986
1.35379
1.36015
1.37425
1.399
1.36102
1.36034
1.36011
1.3603
1.36097
1.3621
1.36369
1.36565
1.36779
1.36962
1.36186
1.36086
1.36053
1.36082
1.36175
1.36338
1.36577
1.3689
1.37279
1.37654
1.36044
1.35921
1.35884
1.35916
1.36025
1.36221
1.36522
1.36944
1.37557
1.38205
1.35889
1.35751
1.35706
1.35735
1.35853
1.3607
1.3642
1.36937
1.3777
1.38718
1.35747
1.35591
1.35539
1.35561
1.35677
1.359
1.36279
1.3686
1.37888
1.39138
1.35689
1.35527
1.35468
1.35484
1.35596
1.35817
1.3621
1.36829
1.38021
1.39548
1.35526
1.35351
1.35287
1.35293
1.35397
1.35609
1.36005
1.36642
1.37965
1.39753
1.35568
1.35396
1.3533
1.3534
1.35446
1.3566
1.36061
1.36708
1.38108
1.40105
1.35405
1.3523
1.35159
1.35163
1.35261
1.35466
1.35858
1.36517
1.3793
1.40135
1.35133
1.34961
1.34906
1.34942
1.35078
1.35327
1.35759
1.36461
1.37874
1.4023
1.36331
1.36287
1.36272
1.36285
1.3633
1.36405
1.36504
1.3662
1.36736
1.36826
1.36449
1.36372
1.36346
1.36368
1.3644
1.36562
1.36731
1.36938
1.37167
1.37365
1.36343
1.36239
1.36206
1.36234
1.36327
1.36488
1.36723
1.37026
1.37404
1.37759
1.36204
1.36078
1.36037
1.36066
1.36174
1.36368
1.36663
1.37065
1.37619
1.3818
1.36073
1.35926
1.35877
1.35902
1.36016
1.36229
1.36569
1.37053
1.37784
1.38574
1.36013
1.35856
1.358
1.35822
1.35938
1.36161
1.36533
1.3708
1.37979
1.39002
1.35849
1.35677
1.35615
1.3563
1.35743
1.35968
1.36359
1.36953
1.38002
1.39264
1.35885
1.35713
1.35648
1.35666
1.35783
1.36015
1.36423
1.37053
1.38216
1.39693
1.35719
1.35542
1.35474
1.35487
1.356
1.35828
1.3624
1.36901
1.38125
1.39831
1.35448
1.35273
1.35215
1.3525
1.35388
1.35647
1.36087
1.36787
1.38035
1.39931
1.36491
1.36466
1.36457
1.36465
1.36494
1.36539
1.36598
1.36663
1.36723
1.36763
1.36637
1.36582
1.36563
1.36579
1.3663
1.36714
1.36826
1.36957
1.3709
1.37196
1.36572
1.36489
1.36463
1.36484
1.36557
1.36681
1.36854
1.37064
1.37297
1.37495
1.36455
1.36348
1.36312
1.36337
1.36429
1.3659
1.36824
1.37123
1.37485
1.37816
1.36345
1.36214
1.3617
1.36194
1.36298
1.36486
1.36772
1.37154
1.37657
1.38148
1.36292
1.36148
1.36096
1.36119
1.36231
1.36438
1.36766
1.37222
1.37869
1.38536
1.36134
1.35972
1.35914
1.35933
1.36047
1.36265
1.36625
1.37141
1.37928
1.38788
1.3617
1.36005
1.35943
1.35965
1.36085
1.36315
1.36702
1.37269
1.38177
1.39224
1.36003
1.35831
1.35767
1.35786
1.35905
1.36138
1.36537
1.37148
1.38143
1.39403
1.35738
1.35567
1.35508
1.35542
1.35678
1.35933
1.36354
1.37001
1.38038
1.39469
1.36609
1.36596
1.36591
1.36596
1.36613
1.3664
1.36674
1.3671
1.36741
1.36759
1.36771
1.36734
1.36721
1.36732
1.36766
1.36821
1.36892
1.36972
1.37049
1.37108
1.36744
1.36682
1.36662
1.36678
1.36732
1.36821
1.36942
1.37082
1.37228
1.37343
1.36649
1.36564
1.36535
1.36555
1.36628
1.36754
1.3693
1.37145
1.37382
1.37584
1.36564
1.36454
1.36416
1.36438
1.36526
1.36682
1.3691
1.37201
1.37544
1.37854
1.36524
1.36398
1.36352
1.36375
1.36475
1.36656
1.3693
1.37292
1.37751
1.38185
1.36377
1.36231
1.36179
1.36199
1.36306
1.36505
1.36817
1.37244
1.3782
1.384
1.36418
1.36266
1.36209
1.36233
1.36348
1.36563
1.36908
1.37391
1.38077
1.38805
1.36254
1.36093
1.36034
1.36056
1.36173
1.36396
1.36759
1.3729
1.38064
1.38969
1.36
1.35839
1.35781
1.35813
1.35942
1.36181
1.36565
1.37129
1.37951
1.38987
1.36699
1.36695
1.36692
1.36695
1.36705
1.3672
1.36739
1.36759
1.36775
1.36781
1.36867
1.36844
1.36836
1.36843
1.36864
1.36899
1.36943
1.36991
1.37035
1.37067
1.36872
1.36828
1.36813
1.36824
1.36862
1.36924
1.37005
1.37096
1.37186
1.37254
1.36797
1.36732
1.36709
1.36725
1.3678
1.36874
1.37001
1.3715
1.37304
1.37429
1.36738
1.36648
1.36618
1.36636
1.36707
1.36831
1.37004
1.37216
1.37449
1.37647
1.36712
1.36606
1.36567
1.36588
1.36673
1.36823
1.37042
1.37318
1.37639
1.37926
1.36579
1.36452
1.36407
1.36427
1.36522
1.36693
1.36951
1.3729
1.37704
1.38097
1.36629
1.36495
1.36444
1.36468
1.36572
1.36763
1.37055
1.37449
1.37955
1.38458
1.36469
1.36324
1.36271
1.36294
1.36403
1.36604
1.36919
1.37359
1.37942
1.38576
1.36229
1.36083
1.3603
1.3606
1.36177
1.36392
1.36725
1.37196
1.37824
1.38553
1.36773
1.36773
1.36772
1.36774
1.36779
1.36788
1.36798
1.36809
1.36817
1.36817
1.36938
1.36924
1.36919
1.36923
1.36937
1.36958
1.36984
1.37012
1.37038
1.37056
1.36968
1.36938
1.36927
1.36935
1.36961
1.37002
1.37054
1.37112
1.37166
1.37206
1.36908
1.3686
1.36843
1.36854
1.36894
1.36961
1.3705
1.3715
1.37249
1.37327
1.36872
1.36803
1.36779
1.36793
1.36848
1.36942
1.37069
1.37219
1.37374
1.37501
1.36861
1.36776
1.36744
1.36761
1.3683
1.36949
1.37117
1.3732
1.37542
1.37731
1.36742
1.36636
1.36598
1.36616
1.36696
1.36838
1.37042
1.373
1.37594
1.37859
1.36803
1.3669
1.36647
1.36668
1.36758
1.3692
1.37158
1.37465
1.37831
1.38175
1.36648
1.36523
1.36477
1.36498
1.36594
1.36768
1.3703
1.37379
1.37807
1.38241
1.36428
1.363
1.36253
1.36279
1.36382
1.36567
1.36845
1.37222
1.37688
1.38189
1.36836
1.36838
1.36839
1.36839
1.36843
1.36847
1.36853
1.36858
1.36863
1.3686
1.36992
1.36984
1.36981
1.36983
1.36991
1.37004
1.3702
1.37036
1.3705
1.37061
1.37041
1.37021
1.37014
1.37019
1.37035
1.37062
1.37095
1.37131
1.37164
1.37186
1.36989
1.36955
1.36943
1.3695
1.36979
1.37025
1.37085
1.37151
1.37214
1.37262
1.36974
1.36922
1.36904
1.36915
1.36956
1.37024
1.37114
1.37217
1.37319
1.374
1.36975
1.3691
1.36885
1.36898
1.36952
1.37043
1.37167
1.37312
1.37463
1.37585
1.3687
1.36785
1.36754
1.36769
1.36834
1.36946
1.37102
1.37293
1.37497
1.37673
1.36944
1.36852
1.36816
1.36835
1.3691
1.3704
1.37227
1.37459
1.37718
1.37948
1.36793
1.36688
1.3665
1.36669
1.3675
1.36894
1.37103
1.3737
1.37677
1.37969
1.36595
1.36487
1.36447
1.3647
1.36556
1.3671
1.36934
1.37224
1.37561
1.379
1.36892
1.36895
1.36896
1.36896
1.36898
1.36901
1.36904
1.36907
1.36908
1.36904
1.37033
1.37029
1.37027
1.37029
1.37033
1.37041
1.3705
1.3706
1.37068
1.37074
1.37097
1.37084
1.3708
1.37083
1.37094
1.3711
1.37131
1.37152
1.37172
1.37185
1.37048
1.37025
1.37016
1.37022
1.37041
1.37072
1.37111
1.37154
1.37194
1.37224
1.3705
1.37014
1.37001
1.37008
1.37037
1.37085
1.37148
1.37217
1.37283
1.37334
1.37062
1.37013
1.36994
1.37004
1.37044
1.37111
1.372
1.37302
1.37403
1.37481
1.36967
1.36902
1.36878
1.3689
1.3694
1.37025
1.37141
1.37277
1.37416
1.37533
1.37056
1.36984
1.36955
1.36971
1.3703
1.37132
1.37273
1.37443
1.37623
1.37774
1.36907
1.36822
1.36792
1.36807
1.36873
1.36987
1.37148
1.37347
1.37562
1.37756
1.36735
1.36647
1.36614
1.36632
1.36703
1.36825
1.36999
1.37215
1.37454
1.37679
1.36943
1.36947
1.36948
1.36948
1.36949
1.3695
1.36952
1.36953
1.36954
1.36949
1.37066
1.37064
1.37062
1.37063
1.37066
1.37071
1.37076
1.37082
1.37086
1.3709
1.37143
1.37134
1.37132
1.37134
1.3714
1.3715
1.37163
1.37176
1.37187
1.37194
1.37091
1.37076
1.3707
1.37073
1.37086
1.37106
1.37131
1.37159
1.37184
1.37202
1.37108
1.37082
1.37073
1.37079
1.37099
1.37132
1.37173
1.37219
1.37261
1.37292
1.37126
1.37091
1.37077
1.37085
1.37113
1.37161
1.37223
1.37292
1.37359
1.37408
1.3704
1.36991
1.36974
1.36982
1.3702
1.37082
1.37165
1.3726
1.37353
1.37429
1.37143
1.37089
1.37067
1.37079
1.37124
1.37201
1.37305
1.37424
1.37547
1.37645
1.36993
1.36927
1.36904
1.36916
1.36967
1.37054
1.37174
1.37317
1.37465
1.37592
1.3685
1.36781
1.36755
1.3677
1.36825
1.36919
1.37049
1.37205
1.3737
1.37518
1.3699
1.36994
1.36995
1.36995
1.36996
1.36996
1.36997
1.36998
1.36998
1.36992
1.37091
1.3709
1.37089
1.3709
1.37091
1.37094
1.37097
1.37101
1.37103
1.37106
1.3718
1.37175
1.37174
1.37175
1.37179
1.37185
1.37192
1.372
1.37206
1.37209
1.37122
1.37112
1.37108
1.3711
1.37118
1.37131
1.37147
1.37165
1.3718
1.37192
1.37151
1.37134
1.37128
1.37131
1.37145
1.37166
1.37194
1.37223
1.3725
1.37269
1.37172
1.37148
1.37138
1.37144
1.37164
1.37196
1.37239
1.37284
1.37328
1.37359
1.37093
1.37058
1.37045
1.37052
1.37078
1.37123
1.3718
1.37245
1.37306
1.37355
1.3721
1.37171
1.37155
1.37164
1.37197
1.37253
1.37326
1.37409
1.37491
1.37552
1.37056
1.37006
1.36989
1.36998
1.37036
1.371
1.37186
1.37287
1.37386
1.37469
1.36945
1.36893
1.36873
1.36884
1.36926
1.36995
1.37089
1.37199
1.3731
1.37406
1.37035
1.37039
1.3704
1.3704
1.37041
1.37041
1.37041
1.37041
1.37041
1.37036
1.37109
1.37109
1.37108
1.37109
1.3711
1.37111
1.37113
1.37116
1.37117
1.37119
1.37212
1.3721
1.37209
1.3721
1.37212
1.37216
1.3722
1.37224
1.37227
1.37228
1.37144
1.37138
1.37135
1.37136
1.37141
1.37149
1.37159
1.3717
1.3718
1.37187
1.37183
1.37172
1.37168
1.3717
1.37179
1.37193
1.3721
1.37229
1.37245
1.37257
1.37205
1.37189
1.37182
1.37186
1.37199
1.37221
1.37249
1.37279
1.37307
1.37326
1.37131
1.37107
1.37098
1.37103
1.37121
1.37151
1.3719
1.37233
1.37272
1.37304
1.37262
1.37235
1.37223
1.3723
1.37254
1.37292
1.37343
1.37398
1.37453
1.3749
1.371
1.37063
1.3705
1.37057
1.37085
1.3713
1.3719
1.37258
1.37324
1.37378
1.37025
1.36987
1.36973
1.36981
1.37011
1.3706
1.37127
1.37201
1.37275
1.37336
1.3708
1.37084
1.37085
1.37085
1.37085
1.37085
1.37085
1.37085
1.37085
1.37079
1.37121
1.37121
1.37121
1.37121
1.37121
1.37122
1.37124
1.37126
1.37127
1.37128
1.37241
1.3724
1.3724
1.3724
1.37242
1.37244
1.37246
1.37248
1.37249
1.37248
1.37159
1.37155
1.37153
1.37154
1.37157
1.37162
1.37168
1.37175
1.3718
1.37186
1.37206
1.37199
1.37197
1.37198
1.37204
1.37213
1.37223
1.37235
1.37245
1.37251
1.37227
1.37216
1.37212
1.37214
1.37223
1.37237
1.37255
1.37274
1.37292
1.37304
1.37158
1.37142
1.37136
1.37139
1.37152
1.37172
1.37197
1.37225
1.37249
1.37269
1.37302
1.37284
1.37276
1.37281
1.37297
1.37323
1.37357
1.37393
1.37429
1.3745
1.37127
1.37101
1.37092
1.37097
1.37116
1.37147
1.37187
1.37232
1.37274
1.3731
1.37096
1.37069
1.37059
1.37065
1.37086
1.3712
1.37165
1.37214
1.37261
1.373
1.3713
1.37133
1.37134
1.37134
1.37134
1.37134
1.37134
1.37134
1.37133
1.37128
1.37125
1.37125
1.37125
1.37125
1.37125
1.37126
1.37127
1.37129
1.3713
1.37131
1.37267
1.37267
1.37267
1.37267
1.37268
1.37269
1.3727
1.37271
1.37272
1.3727
1.37169
1.37166
1.37165
1.37166
1.37168
1.3717
1.37174
1.37178
1.37181
1.37185
1.37221
1.37217
1.37215
1.37216
1.3722
1.37225
1.37232
1.37239
1.37245
1.37248
1.37239
1.37232
1.37229
1.3723
1.37236
1.37245
1.37256
1.37268
1.3728
1.37287
1.37177
1.37167
1.37163
1.37165
1.37173
1.37186
1.37202
1.37219
1.37234
1.37246
1.37333
1.37321
1.37316
1.37319
1.3733
1.37347
1.37369
1.37392
1.37415
1.37427
1.3714
1.37122
1.37116
1.37119
1.37132
1.37152
1.37179
1.37208
1.37234
1.37257
1.37166
1.37148
1.3714
1.37144
1.37158
1.37181
1.37211
1.37242
1.37273
1.37297
1.37197
1.372
1.37201
1.37201
1.37201
1.37201
1.372
1.372
1.37199
1.37194
1.37119
1.37118
1.37118
1.37118
1.37118
1.37119
1.3712
1.37121
1.37122
1.37125
1.37288
1.37289
1.37288
1.37289
1.37289
1.3729
1.3729
1.37291
1.37291
1.37288
1.37175
1.37173
1.37173
1.37173
1.37174
1.37176
1.37178
1.3718
1.37182
1.37184
1.37228
1.37226
1.37224
1.37225
1.37227
1.3723
1.37234
1.37238
1.37242
1.37244
1.37241
1.37237
1.37235
1.37235
1.37239
1.37245
1.37252
1.37259
1.37266
1.37271
1.37189
1.37183
1.37181
1.37182
1.37187
1.37195
1.37205
1.37215
1.37223
1.3723
1.3735
1.37343
1.37339
1.37341
1.37348
1.37359
1.37373
1.37388
1.37404
1.37409
1.37137
1.37125
1.37121
1.37123
1.37132
1.37145
1.37162
1.3718
1.37195
1.37211
1.37249
1.37237
1.37232
1.37234
1.37244
1.37258
1.37278
1.37297
1.37317
1.37331
1.37306
1.37309
1.37309
1.3731
1.3731
1.37309
1.37309
1.37308
1.37307
1.37303
1.37094
1.37093
1.37093
1.37093
1.37093
1.37094
1.37095
1.37096
1.37096
1.37099
1.37297
1.37297
1.37296
1.37296
1.37296
1.37296
1.37297
1.37298
1.37299
1.37297
1.37178
1.37177
1.37177
1.37178
1.37179
1.3718
1.37181
1.37181
1.37182
1.37183
1.37227
1.37225
1.37224
1.37225
1.37226
1.37228
1.3723
1.37233
1.37236
1.37237
1.37235
1.37232
1.3723
1.37231
1.37233
1.37236
1.37241
1.37246
1.3725
1.37254
1.37194
1.3719
1.37189
1.37191
1.37194
1.37199
1.37205
1.37211
1.37215
1.37219
1.37342
1.37337
1.37334
1.37335
1.37339
1.37346
1.37356
1.37366
1.37377
1.37381
1.3711
1.37103
1.37101
1.37102
1.37108
1.37116
1.37126
1.37137
1.37146
1.37157
1.37369
1.37361
1.37357
1.37359
1.37365
1.37375
1.37387
1.374
1.37413
1.37421
1.37482
1.37484
1.37484
1.37483
1.37483
1.37483
1.37483
1.37483
1.37483
1.37481
1.37036
1.37036
1.37038
1.37039
1.37039
1.37039
1.37039
1.37039
1.37038
1.37039
1.3728
1.37278
1.37276
1.37275
1.37275
1.37276
1.37277
1.37279
1.37281
1.37282
1.37181
1.37182
1.37182
1.37183
1.37184
1.37184
1.37185
1.37185
1.37184
1.37184
1.37221
1.3722
1.37219
1.37219
1.3722
1.37221
1.37223
1.37225
1.37227
1.37229
1.37224
1.37222
1.37221
1.37222
1.37223
1.37226
1.37229
1.37232
1.37235
1.37238
1.37195
1.37193
1.37193
1.37193
1.37196
1.37199
1.37203
1.37207
1.3721
1.37211
1.37295
1.37289
1.37287
1.37287
1.3729
1.37296
1.37302
1.3731
1.37319
1.37325
1.37047
1.37044
1.37043
1.37044
1.37048
1.37054
1.37061
1.37068
1.37072
1.37076
1.37544
1.37539
1.37536
1.37537
1.37541
1.37548
1.37557
1.37566
1.37577
1.37581
1.37669
1.37667
1.37665
1.37665
1.37664
1.37665
1.37666
1.37667
1.37669
1.37673
1.36962
1.36968
1.36971
1.36974
1.36974
1.36974
1.36973
1.3697
1.36965
1.36957
1.37244
1.3724
1.37238
1.37237
1.37237
1.37237
1.37238
1.37241
1.37244
1.37249
1.37189
1.37189
1.3719
1.37191
1.37191
1.37192
1.37192
1.37192
1.37191
1.3719
1.37217
1.37216
1.37215
1.37215
1.37216
1.37217
1.37219
1.37221
1.37222
1.37224
1.37219
1.37217
1.37216
1.37217
1.37218
1.3722
1.37223
1.37226
1.37228
1.37231
1.37199
1.37198
1.37197
1.37198
1.372
1.37203
1.37207
1.3721
1.37213
1.37213
1.37233
1.37227
1.37225
1.37226
1.37228
1.37233
1.37239
1.37245
1.37253
1.37261
1.36972
1.36971
1.36971
1.36972
1.36976
1.36981
1.36987
1.36993
1.36995
1.36991
1.37722
1.37718
1.37715
1.37716
1.3772
1.37726
1.37734
1.37742
1.3775
1.37754
1.47347
1.47907
1.47563
1.46845
1.50622
1.51196
1.5051
1.49434
1.53267
1.53773
1.52803
1.51473
1.55164
1.55555
1.54301
1.5277
1.56631
1.56882
1.55355
1.53673
1.57825
1.57929
1.56312
1.54436
1.58622
1.58564
1.57001
1.54891
1.59336
1.59103
1.57623
1.55284
1.59122
1.58702
1.57281
1.54737
1.58342
1.5782
1.56565
1.53907
1.37273
1.37241
1.37296
1.37402
1.39418
1.39555
1.39655
1.39621
1.41359
1.4163
1.41755
1.41563
1.43221
1.43613
1.43751
1.43367
1.44971
1.45448
1.45582
1.44992
1.46667
1.47196
1.47302
1.46543
1.48083
1.48638
1.48704
1.47835
1.49511
1.50073
1.50108
1.49176
1.50209
1.50772
1.5079
1.49836
1.50572
1.51185
1.51204
1.50284
1.37695
1.37739
1.37758
1.37759
1.38967
1.39066
1.39095
1.39079
1.40175
1.40334
1.40377
1.40341
1.41353
1.41579
1.41632
1.41561
1.42508
1.42798
1.42855
1.4273
1.4373
1.44082
1.44137
1.43944
1.44793
1.45197
1.45246
1.44975
1.45981
1.46426
1.46467
1.46117
1.46582
1.4706
1.47094
1.46658
1.46933
1.47487
1.47521
1.46984
1.3702
1.37016
1.3702
1.3703
1.37824
1.37848
1.37858
1.3786
1.38611
1.38667
1.38687
1.38682
1.39449
1.39547
1.39581
1.39564
1.40294
1.40441
1.40489
1.40449
1.41234
1.41434
1.41493
1.41421
1.42051
1.42304
1.42372
1.42258
1.43041
1.43342
1.43415
1.43254
1.43527
1.43871
1.43952
1.43742
1.43794
1.44224
1.44318
1.44039
1.36882
1.36876
1.36876
1.36883
1.37448
1.37463
1.37469
1.37469
1.37949
1.37982
1.37993
1.3799
1.38522
1.38577
1.38596
1.38591
1.39122
1.39205
1.39234
1.39223
1.39823
1.39939
1.39979
1.39958
1.40418
1.40569
1.4062
1.40583
1.41208
1.41395
1.41456
1.41399
1.41597
1.41819
1.41896
1.41819
1.418
1.421
1.42196
1.42074
1.36803
1.36794
1.36792
1.36798
1.37227
1.37232
1.37235
1.37236
1.37567
1.37579
1.37585
1.37587
1.3796
1.37986
1.37998
1.38
1.38395
1.38437
1.38456
1.38458
1.38926
1.3899
1.39017
1.39017
1.39357
1.39445
1.39482
1.39476
1.39995
1.40108
1.40154
1.4014
1.4031
1.40448
1.4051
1.4049
1.40432
1.40635
1.40714
1.4066
1.36794
1.36783
1.36781
1.36787
1.37125
1.37128
1.37129
1.3713
1.37379
1.37385
1.37389
1.3739
1.37653
1.37666
1.37673
1.37676
1.37972
1.37994
1.38006
1.3801
1.38378
1.38414
1.38432
1.38436
1.38686
1.38737
1.38762
1.38767
1.39202
1.3927
1.39303
1.39306
1.39445
1.39531
1.39576
1.39577
1.39486
1.39626
1.39682
1.39654
1.36813
1.36801
1.36799
1.36804
1.37076
1.37077
1.37078
1.37079
1.37272
1.37275
1.37277
1.37278
1.37466
1.37473
1.37477
1.37479
1.37709
1.37721
1.37728
1.37731
1.38027
1.38047
1.38058
1.38063
1.38246
1.38275
1.38292
1.38298
1.38668
1.38708
1.3873
1.38737
1.38835
1.38888
1.38918
1.38924
1.38811
1.38911
1.38949
1.38928
1.36847
1.36835
1.36832
1.36838
1.37061
1.37062
1.37062
1.37062
1.37217
1.37218
1.37219
1.3722
1.37348
1.37352
1.37355
1.37356
1.37536
1.37543
1.37547
1.37549
1.37789
1.378
1.37808
1.37811
1.37942
1.3796
1.3797
1.37975
1.38292
1.38317
1.38331
1.38337
1.38388
1.38421
1.3844
1.38445
1.38322
1.38396
1.38421
1.38402
1.36888
1.36876
1.36873
1.36879
1.37064
1.37064
1.37064
1.37064
1.37193
1.37193
1.37194
1.37194
1.37275
1.37277
1.37279
1.3728
1.37421
1.37425
1.37427
1.37429
1.37621
1.37628
1.37632
1.37635
1.37723
1.37733
1.3774
1.37743
1.38018
1.38033
1.38042
1.38046
1.38056
1.38076
1.38088
1.38092
1.37965
1.38024
1.3804
1.3802
1.36932
1.3692
1.36916
1.36922
1.37075
1.37076
1.37076
1.37076
1.37188
1.37189
1.37189
1.37189
1.37232
1.37233
1.37234
1.37235
1.37346
1.37348
1.3735
1.37351
1.37503
1.37508
1.37511
1.37512
1.37563
1.37569
1.37573
1.37576
1.37817
1.37826
1.37832
1.37834
1.37808
1.37821
1.37829
1.37832
1.37706
1.37755
1.37766
1.37746
1.36976
1.36963
1.3696
1.36966
1.37091
1.37091
1.37091
1.37091
1.37196
1.37196
1.37196
1.37196
1.37207
1.37208
1.37209
1.37209
1.373
1.37301
1.37302
1.37303
1.37423
1.37425
1.37427
1.37428
1.37448
1.37451
1.37454
1.37456
1.37671
1.37677
1.37681
1.37682
1.37625
1.37633
1.37638
1.3764
1.37524
1.37565
1.37573
1.37553
1.37019
1.37006
1.37003
1.37009
1.37106
1.37106
1.37106
1.37106
1.3721
1.3721
1.3721
1.3721
1.37195
1.37195
1.37196
1.37196
1.37273
1.37274
1.37274
1.37275
1.37368
1.3737
1.37371
1.37372
1.37366
1.37368
1.3737
1.37371
1.37569
1.37573
1.37575
1.37576
1.37489
1.37495
1.37498
1.37499
1.374
1.37436
1.37441
1.37423
1.37061
1.37048
1.37045
1.37051
1.37119
1.37119
1.37119
1.37119
1.37228
1.37228
1.37228
1.37228
1.37189
1.37189
1.37189
1.3719
1.37259
1.37259
1.37259
1.3726
1.37332
1.37334
1.37334
1.37335
1.3731
1.37311
1.37312
1.37313
1.37501
1.37503
1.37505
1.37505
1.3739
1.37394
1.37396
1.37397
1.37324
1.37355
1.37358
1.37341
1.37103
1.37091
1.37087
1.37093
1.37128
1.37128
1.37128
1.37128
1.37249
1.37249
1.37249
1.37248
1.37186
1.37186
1.37186
1.37187
1.37252
1.37252
1.37252
1.37253
1.37308
1.37309
1.37309
1.3731
1.37271
1.37272
1.37272
1.37273
1.37458
1.37459
1.3746
1.3746
1.37317
1.37319
1.37321
1.37321
1.37285
1.37312
1.37314
1.37299
1.37151
1.37138
1.37135
1.37141
1.37131
1.37131
1.37131
1.37131
1.3727
1.3727
1.3727
1.3727
1.37184
1.37184
1.37184
1.37185
1.37249
1.37249
1.37249
1.37249
1.3729
1.37291
1.37291
1.37291
1.37245
1.37245
1.37246
1.37246
1.37433
1.37434
1.37434
1.37434
1.37261
1.37263
1.37264
1.37264
1.3728
1.37303
1.37304
1.37291
1.37215
1.37202
1.37199
1.37206
1.37124
1.37124
1.37124
1.37124
1.3729
1.3729
1.37289
1.37289
1.37182
1.37182
1.37182
1.37182
1.37245
1.37245
1.37245
1.37245
1.37274
1.37274
1.37274
1.37274
1.37227
1.37227
1.37227
1.37228
1.37415
1.37416
1.37416
1.37416
1.37213
1.37214
1.37214
1.37215
1.37315
1.37333
1.37334
1.37324
1.37321
1.37309
1.37306
1.37312
1.37097
1.37097
1.37097
1.37098
1.373
1.373
1.373
1.373
1.37179
1.37179
1.37179
1.37179
1.37238
1.37238
1.37238
1.37238
1.37256
1.37256
1.37257
1.37257
1.37214
1.37213
1.37213
1.37213
1.3739
1.37391
1.37391
1.37391
1.37156
1.37156
1.37157
1.37157
1.37408
1.37421
1.37422
1.37414
1.37495
1.37485
1.37483
1.37489
1.37033
1.37032
1.37032
1.37032
1.37289
1.3729
1.3729
1.3729
1.37179
1.37178
1.37178
1.37178
1.3723
1.3723
1.3723
1.3723
1.3724
1.3724
1.3724
1.3724
1.37205
1.37204
1.37204
1.37204
1.37338
1.37341
1.37341
1.37341
1.37068
1.37067
1.37067
1.37068
1.37579
1.37587
1.37588
1.37583
1.37682
1.37677
1.37676
1.37681
1.36936
1.36932
1.3693
1.36931
1.37259
1.37261
1.37262
1.37262
1.37185
1.37184
1.37184
1.37184
1.37225
1.37225
1.37225
1.37225
1.37232
1.37232
1.37232
1.37232
1.37208
1.37207
1.37207
1.37207
1.37278
1.37281
1.37282
1.37281
1.36963
1.36956
1.36955
1.36959
1.37773
1.37779
1.37779
1.37774
1.42997
1.40548
1.38434
1.37007
1.36149
1.3562
1.35272
1.35034
1.34869
1.3475
1.44226
1.40928
1.38409
1.36928
1.36104
1.356
1.35275
1.35056
1.34908
1.34803
1.4438
1.40724
1.37974
1.36648
1.35866
1.35388
1.35075
1.34865
1.34731
1.34653
1.4406
1.40333
1.3744
1.36351
1.35624
1.35199
1.34916
1.34729
1.34608
1.34535
1.43471
1.39839
1.36959
1.36055
1.35367
1.34995
1.34739
1.34575
1.34468
1.34414
1.42745
1.39443
1.36622
1.35901
1.35243
1.34929
1.34696
1.34554
1.34458
1.34402
1.41723
1.38933
1.36167
1.3563
1.34989
1.34731
1.34515
1.34393
1.34306
1.34263
1.4093
1.38724
1.36011
1.35659
1.3503
1.34824
1.34613
1.34497
1.34407
1.34347
1.39829
1.38128
1.35526
1.35383
1.34799
1.34653
1.34448
1.34341
1.34256
1.34197
1.39518
1.38139
1.35596
1.3551
1.34839
1.34626
1.34342
1.34174
1.34041
1.33932
1.37778
1.37501
1.37167
1.36831
1.36508
1.36218
1.35968
1.3576
1.35591
1.35463
1.39545
1.38748
1.38004
1.37367
1.3684
1.36424
1.36103
1.35853
1.35658
1.35511
1.40839
1.39533
1.38415
1.37541
1.36856
1.36347
1.35973
1.35695
1.35488
1.35351
1.41802
1.40042
1.38605
1.37581
1.36807
1.36261
1.35868
1.35582
1.35369
1.35225
1.42433
1.40344
1.38638
1.37522
1.36695
1.36136
1.35739
1.35455
1.35241
1.35102
1.42913
1.40617
1.38691
1.37532
1.36675
1.36122
1.35728
1.35448
1.35236
1.35089
1.43073
1.40667
1.38558
1.37391
1.36513
1.35974
1.35583
1.35309
1.35096
1.34954
1.43302
1.40888
1.3864
1.37503
1.36618
1.36097
1.35702
1.35424
1.35205
1.35042
1.43057
1.40652
1.38369
1.37326
1.3647
1.35973
1.35574
1.35292
1.35067
1.34899
1.43096
1.40756
1.38434
1.37397
1.36475
1.35916
1.35454
1.3512
1.34858
1.34641
1.37681
1.37477
1.37222
1.36963
1.36721
1.36504
1.36316
1.36155
1.36021
1.35917
1.38898
1.38444
1.3792
1.37454
1.37069
1.36755
1.36497
1.36286
1.36112
1.35977
1.39991
1.39202
1.38365
1.37677
1.37139
1.36723
1.364
1.36148
1.35951
1.35813
1.40974
1.39817
1.38687
1.37824
1.37174
1.36689
1.36322
1.36042
1.35825
1.35672
1.41824
1.40284
1.38879
1.37874
1.37135
1.36604
1.36209
1.35914
1.35687
1.35532
1.42636
1.40733
1.39079
1.37967
1.37164
1.36605
1.36196
1.35893
1.3566
1.35495
1.43193
1.40955
1.39079
1.37891
1.37038
1.36465
1.36046
1.35741
1.35503
1.3534
1.43823
1.41313
1.39263
1.3804
1.37156
1.36578
1.36148
1.35835
1.3559
1.35409
1.43928
1.41214
1.39105
1.37919
1.37042
1.36467
1.36025
1.35702
1.3545
1.35262
1.44044
1.41238
1.39098
1.37898
1.3697
1.36348
1.35862
1.35502
1.35224
1.35
1.37024
1.36976
1.36896
1.36795
1.36684
1.36572
1.36464
1.36366
1.36279
1.3621
1.37828
1.37688
1.37494
1.37284
1.37078
1.36884
1.36708
1.36553
1.3642
1.36311
1.38592
1.38294
1.37916
1.37548
1.37215
1.36927
1.36682
1.36478
1.3631
1.36186
1.39383
1.38889
1.3831
1.37783
1.37331
1.36956
1.36652
1.36405
1.36205
1.36055
1.40135
1.39408
1.38613
1.37936
1.37377
1.36933
1.36582
1.36304
1.36081
1.35922
1.40925
1.39945
1.38933
1.38121
1.37473
1.36976
1.36591
1.36292
1.36054
1.35878
1.41531
1.40285
1.39059
1.38131
1.37407
1.3687
1.36459
1.36146
1.35895
1.35718
1.42262
1.40766
1.39353
1.3834
1.37559
1.36993
1.3656
1.3623
1.3597
1.35774
1.42536
1.40836
1.39324
1.38278
1.3747
1.36885
1.36432
1.36091
1.35821
1.35619
1.4275
1.40893
1.39297
1.38198
1.37342
1.3672
1.36236
1.35867
1.3558
1.35351
1.36868
1.36841
1.36799
1.36746
1.36687
1.36624
1.36561
1.36502
1.36449
1.36408
1.3745
1.37386
1.37292
1.37179
1.37058
1.36937
1.36822
1.36716
1.36622
1.36543
1.37947
1.37811
1.37622
1.37416
1.37212
1.37021
1.36847
1.36694
1.36562
1.36462
1.38518
1.38282
1.37972
1.37654
1.37355
1.37087
1.36854
1.36654
1.36485
1.36354
1.39103
1.38738
1.38285
1.37847
1.37452
1.37113
1.36826
1.36586
1.36387
1.3624
1.39767
1.39249
1.38639
1.38081
1.37597
1.37194
1.36863
1.36592
1.3637
1.36201
1.40296
1.396
1.38823
1.3815
1.37583
1.37126
1.36757
1.36462
1.3622
1.36044
1.40992
1.40114
1.39178
1.38406
1.37769
1.37267
1.36866
1.36548
1.36292
1.36096
1.4132
1.40284
1.39238
1.38397
1.37707
1.3717
1.36742
1.36409
1.36141
1.35938
1.41536
1.40346
1.39199
1.38291
1.37554
1.36983
1.3653
1.36174
1.35894
1.35668
1.36787
1.36774
1.36754
1.36728
1.36697
1.36664
1.3663
1.36597
1.36567
1.36545
1.3723
1.37202
1.37156
1.37096
1.37028
1.36957
1.36886
1.36818
1.36756
1.36702
1.37574
1.37514
1.3742
1.37306
1.37184
1.37062
1.36944
1.36835
1.36739
1.36663
1.37976
1.37865
1.37703
1.37518
1.37327
1.37144
1.36974
1.36821
1.36688
1.3658
1.38416
1.38236
1.37986
1.37715
1.37449
1.37202
1.3698
1.36786
1.36619
1.36492
1.38947
1.3868
1.38327
1.37963
1.37619
1.37311
1.37042
1.36812
1.36618
1.36465
1.39367
1.38992
1.38522
1.38061
1.3764
1.37275
1.36963
1.36703
1.36484
1.36319
1.39978
1.39485
1.38895
1.38342
1.3785
1.37433
1.37084
1.36796
1.3656
1.36373
1.4029
1.39686
1.38994
1.38361
1.37807
1.37348
1.36968
1.36661
1.3641
1.36216
1.40442
1.39723
1.38942
1.38246
1.37647
1.37155
1.36752
1.36427
1.36165
1.35951
1.36776
1.36768
1.36758
1.36744
1.36728
1.3671
1.36691
1.36673
1.36657
1.36648
1.37127
1.37111
1.37086
1.37053
1.37015
1.36973
1.3693
1.36888
1.36849
1.36814
1.37383
1.37351
1.37299
1.37234
1.37159
1.37081
1.37004
1.36929
1.36863
1.3681
1.37665
1.37608
1.37518
1.37407
1.37285
1.37162
1.37042
1.36931
1.36832
1.36749
1.37993
1.379
1.37757
1.37589
1.37411
1.37236
1.37071
1.36922
1.3679
1.36687
1.38409
1.38268
1.38061
1.37826
1.37588
1.3736
1.37151
1.36966
1.36805
1.36675
1.38725
1.38521
1.38237
1.37929
1.37626
1.37345
1.37094
1.36876
1.36688
1.36544
1.39241
1.38965
1.38596
1.38213
1.37846
1.37516
1.37227
1.3698
1.36772
1.36605
1.39496
1.39143
1.38692
1.38236
1.37812
1.37439
1.37119
1.36852
1.36628
1.36452
1.39571
1.39143
1.38626
1.38117
1.37653
1.37251
1.36909
1.36625
1.36391
1.36197
1.36794
1.3679
1.36784
1.36777
1.36768
1.36758
1.36748
1.36739
1.36731
1.36729
1.37077
1.37069
1.37055
1.37037
1.37015
1.36991
1.36966
1.36941
1.36917
1.36895
1.37274
1.37257
1.37227
1.37188
1.37143
1.37095
1.37045
1.36996
1.36952
1.36917
1.37474
1.37442
1.37389
1.37322
1.37244
1.37163
1.37082
1.37004
1.36933
1.36872
1.37723
1.37671
1.37587
1.3748
1.37363
1.37242
1.37124
1.37014
1.36914
1.36834
1.38051
1.37972
1.37847
1.37696
1.37532
1.37368
1.37212
1.3707
1.36943
1.36837
1.38281
1.38166
1.37992
1.37787
1.37573
1.37364
1.3717
1.36996
1.36842
1.36722
1.3871
1.38552
1.38321
1.38059
1.37793
1.37541
1.37312
1.3711
1.36937
1.36793
1.38889
1.3868
1.3839
1.38072
1.37759
1.3747
1.37211
1.36989
1.36797
1.36644
1.389
1.38647
1.38311
1.37953
1.37606
1.37291
1.37013
1.36776
1.36575
1.36405
1.36828
1.36825
1.36822
1.36818
1.36814
1.36808
1.36803
1.36798
1.36795
1.36797
1.37061
1.37057
1.37049
1.37039
1.37027
1.37013
1.36999
1.36984
1.3697
1.36956
1.37217
1.37207
1.3719
1.37167
1.3714
1.3711
1.37079
1.37047
1.37019
1.36997
1.37353
1.37335
1.37303
1.37261
1.37213
1.3716
1.37106
1.37054
1.37004
1.36961
1.37545
1.37514
1.37462
1.37395
1.37318
1.37236
1.37154
1.37075
1.37003
1.36944
1.37804
1.37758
1.3768
1.37582
1.37471
1.37356
1.37244
1.37138
1.37042
1.3696
1.37967
1.37899
1.37789
1.37653
1.37504
1.37354
1.37209
1.37076
1.36954
1.36858
1.38324
1.3823
1.38083
1.37907
1.37719
1.37533
1.37358
1.37199
1.3706
1.36941
1.38429
1.38305
1.38119
1.37902
1.37677
1.37461
1.3726
1.37082
1.36924
1.36797
1.38397
1.38246
1.3803
1.37784