/*--------------------------------*- C++ -*----------------------------------*\
| =========                 |                                                 |
| \\      /  F ield         | foam-extend: Open Source CFD                    |
|  \\    /   O peration     | Version:     4.0                                |
|   \\  /    A nd           | Web:         http://www.foam-extend.org         |
|    \\/     M anipulation  |                                                 |
\*---------------------------------------------------------------------------*/
FoamFile
{
    version     2.0;
    format      ascii;
    class       volScalarField;
    location    "1550";
    object      T;
}
// * * * * * * * * * * * * * * * * * * * * * * * * * * * * * * * * * * * * * //

dimensions      [0 0 0 1 0 0 0];

internalField   nonuniform List<scalar> 
34480
(
278.818
278.707
278.626
278.571
278.539
278.529
278.544
278.629
278.9
278.866
278.266
278.148
278.055
277.988
277.955
277.958
277.982
278.027
278.243
277.798
278.155
278.024
277.918
277.844
277.806
277.793
277.774
277.72
277.848
277.071
278.196
278.044
277.915
277.813
277.74
277.676
277.592
277.433
277.439
276.315
278.209
278.032
277.874
277.74
277.626
277.506
277.352
277.083
276.933
275.453
278.277
278.076
277.896
277.735
277.586
277.416
277.196
276.812
276.476
274.613
278.303
278.077
277.873
277.687
277.508
277.293
277.01
276.513
275.966
273.716
278.374
278.126
277.909
277.715
277.528
277.298
276.981
276.4
275.644
272.974
278.43
278.163
277.928
277.715
277.503
277.246
276.886
276.221
275.255
272.231
279.247
278.967
278.763
278.622
278.517
278.397
278.187
277.66
276.654
273.199
279.351
279.258
279.222
279.238
279.31
279.457
279.717
280.174
280.842
281.712
278.701
278.618
278.584
278.601
278.682
278.849
279.14
279.637
280.43
281.45
278.496
278.418
278.388
278.408
278.494
278.666
278.955
279.445
280.294
281.41
278.443
278.363
278.33
278.341
278.414
278.565
278.829
279.294
280.174
281.337
278.368
278.284
278.242
278.241
278.295
278.416
278.648
279.075
279.955
281.133
278.358
278.271
278.224
278.214
278.252
278.347
278.545
278.923
279.774
280.929
278.315
278.221
278.168
278.148
278.173
278.244
278.407
278.732
279.531
280.644
278.332
278.236
278.186
278.171
278.199
278.265
278.409
278.688
279.414
280.437
278.348
278.245
278.188
278.166
278.181
278.232
278.351
278.582
279.227
280.17
279.112
279.022
279.001
279.044
279.148
279.301
279.521
279.825
280.42
281.089
279.825
279.726
279.69
279.71
279.789
279.934
280.165
280.511
281.009
281.633
279.168
279.071
279.035
279.059
279.15
279.324
279.613
280.069
280.776
281.704
278.948
278.849
278.814
278.838
278.934
279.121
279.438
279.953
280.825
282.038
278.864
278.761
278.721
278.738
278.826
279.005
279.323
279.867
280.874
282.338
278.759
278.651
278.603
278.609
278.683
278.843
279.147
279.695
280.798
282.469
278.722
278.61
278.558
278.555
278.616
278.755
279.039
279.57
280.733
282.557
278.656
278.538
278.48
278.468
278.516
278.635
278.893
279.396
280.583
282.522
278.654
278.535
278.477
278.469
278.518
278.631
278.872
279.342
280.518
282.517
278.653
278.529
278.467
278.453
278.494
278.594
278.812
279.241
280.379
282.458
279.385
279.273
279.238
279.273
279.378
279.552
279.838
280.305
281.388
283.385
280.163
280.077
280.048
280.067
280.135
280.255
280.434
280.675
280.98
281.319
279.535
279.443
279.411
279.436
279.524
279.684
279.93
280.283
280.768
281.315
279.325
279.225
279.19
279.218
279.316
279.499
279.792
280.234
280.89
281.681
279.229
279.12
279.079
279.103
279.202
279.391
279.711
280.216
281.036
282.084
279.109
278.991
278.944
278.959
279.05
279.234
279.562
280.105
281.066
282.356
279.054
278.931
278.878
278.887
278.969
279.143
279.468
280.03
281.103
282.603
278.971
278.842
278.784
278.784
278.857
279.018
279.332
279.895
281.05
282.732
278.953
278.822
278.764
278.767
278.841
278.998
279.304
279.857
281.055
282.875
278.937
278.804
278.743
278.741
278.808
278.956
279.25
279.783
280.986
282.955
279.636
279.514
279.471
279.504
279.616
279.814
280.152
280.713
281.887
283.887
280.392
280.325
280.303
280.317
280.368
280.454
280.573
280.722
280.892
281.058
279.812
279.734
279.707
279.729
279.803
279.93
280.117
280.362
280.662
280.957
279.631
279.538
279.506
279.533
279.622
279.781
280.024
280.362
280.81
281.277
279.54
279.433
279.394
279.42
279.516
279.696
279.981
280.399
281.003
281.677
279.418
279.299
279.253
279.274
279.37
279.556
279.868
280.347
281.099
281.989
279.356
279.228
279.177
279.192
279.286
279.473
279.8
280.321
281.205
282.304
279.264
279.129
279.072
279.081
279.169
279.351
279.682
280.231
281.226
282.52
279.235
279.097
279.04
279.05
279.14
279.322
279.657
280.217
281.29
282.754
279.208
279.068
279.008
279.015
279.1
279.277
279.609
280.172
281.286
282.93
279.874
279.745
279.698
279.729
279.844
280.055
280.415
281.004
282.118
283.858
280.544
280.494
280.478
280.488
280.522
280.579
280.654
280.742
280.835
280.924
280.013
279.953
279.932
279.95
280.005
280.1
280.231
280.393
280.572
280.731
279.869
279.791
279.763
279.786
279.86
279.989
280.175
280.416
280.706
280.979
279.794
279.697
279.662
279.686
279.773
279.929
280.165
280.487
280.905
281.324
279.681
279.569
279.527
279.548
279.641
279.814
280.088
280.48
281.03
281.614
279.619
279.496
279.448
279.467
279.562
279.746
280.048
280.496
281.174
281.932
279.526
279.393
279.339
279.354
279.448
279.635
279.954
280.447
281.24
282.172
279.492
279.354
279.299
279.315
279.412
279.604
279.937
280.459
281.344
282.438
279.457
279.317
279.26
279.273
279.368
279.559
279.896
280.437
281.384
282.655
280.092
279.962
279.912
279.942
280.058
280.271
280.63
281.196
282.163
283.549
280.643
280.606
280.596
280.602
280.623
280.658
280.703
280.753
280.804
280.855
280.158
280.115
280.099
280.112
280.151
280.216
280.304
280.406
280.511
280.598
280.05
279.988
279.966
279.983
280.041
280.138
280.273
280.439
280.622
280.78
279.994
279.913
279.883
279.903
279.976
280.103
280.287
280.524
280.804
281.061
279.897
279.798
279.761
279.781
279.864
280.014
280.241
280.545
280.932
281.309
279.844
279.731
279.687
279.707
279.797
279.964
280.226
280.592
281.089
281.599
279.754
279.629
279.58
279.597
279.69
279.868
280.157
280.574
281.178
281.829
279.72
279.589
279.537
279.556
279.654
279.841
280.15
280.608
281.302
282.092
279.68
279.546
279.493
279.51
279.607
279.797
280.117
280.604
281.366
282.307
280.286
280.16
280.111
280.139
280.251
280.457
280.794
281.306
282.1
283.146
280.707
280.68
280.673
280.676
280.689
280.71
280.736
280.764
280.792
280.825
280.261
280.232
280.221
280.229
280.256
280.299
280.354
280.417
280.479
280.527
280.185
280.139
280.122
280.135
280.177
280.247
280.341
280.451
280.564
280.657
280.148
280.083
280.059
280.076
280.133
280.232
280.369
280.536
280.72
280.878
280.07
279.987
279.956
279.974
280.044
280.167
280.345
280.572
280.838
281.08
280.029
279.93
279.892
279.911
279.991
280.135
280.351
280.636
280.991
281.33
279.947
279.835
279.792
279.809
279.895
280.055
280.302
280.64
281.085
281.532
279.917
279.798
279.751
279.771
279.863
280.035
280.307
280.689
281.215
281.771
279.875
279.752
279.703
279.722
279.816
279.994
280.281
280.697
281.287
281.962
280.453
280.335
280.289
280.315
280.42
280.61
280.913
281.353
281.978
282.736
280.749
280.728
280.723
280.725
280.733
280.744
280.759
280.775
280.791
280.814
280.336
280.316
280.309
280.314
280.331
280.358
280.393
280.431
280.467
280.494
280.285
280.252
280.24
280.249
280.279
280.327
280.39
280.461
280.531
280.585
280.265
280.215
280.197
280.209
280.253
280.325
280.423
280.539
280.658
280.755
280.206
280.14
280.115
280.129
280.185
280.282
280.416
280.58
280.76
280.914
280.177
280.095
280.064
280.08
280.148
280.266
280.436
280.652
280.899
281.122
280.106
280.01
279.972
279.989
280.064
280.2
280.402
280.667
280.987
281.289
280.084
279.979
279.938
279.957
280.04
280.191
280.419
280.725
281.113
281.497
280.041
279.931
279.888
279.907
279.993
280.152
280.398
280.737
281.181
281.653
280.591
280.486
280.444
280.468
280.562
280.731
280.991
281.354
281.83
282.362
280.776
280.759
280.755
280.756
280.76
280.767
280.775
280.784
280.794
280.812
280.39
280.378
280.373
280.376
280.387
280.403
280.424
280.447
280.468
280.484
280.36
280.338
280.329
280.335
280.355
280.387
280.428
280.473
280.516
280.548
280.351
280.315
280.302
280.311
280.342
280.394
280.462
280.539
280.616
280.676
280.311
280.26
280.24
280.252
280.295
280.367
280.465
280.581
280.7
280.798
280.294
280.229
280.204
280.217
280.271
280.364
280.494
280.651
280.822
280.967
280.233
280.153
280.122
280.137
280.2
280.311
280.47
280.67
280.896
281.098
280.221
280.133
280.098
280.115
280.186
280.312
280.496
280.734
281.012
281.274
280.178
280.084
280.047
280.064
280.139
280.275
280.477
280.745
281.069
281.393
280.702
280.611
280.575
280.595
280.676
280.821
281.036
281.324
281.676
282.04
280.792
280.777
280.775
280.775
280.778
280.781
280.786
280.791
280.797
280.812
280.431
280.423
280.42
280.422
280.428
280.438
280.451
280.464
280.477
280.486
280.417
280.402
280.397
280.401
280.414
280.434
280.46
280.488
280.514
280.533
280.415
280.39
280.38
280.386
280.408
280.444
280.489
280.54
280.589
280.626
280.39
280.352
280.338
280.346
280.378
280.43
280.5
280.579
280.657
280.72
280.385
280.334
280.315
280.325
280.367
280.437
280.533
280.645
280.76
280.855
280.332
280.269
280.244
280.256
280.306
280.393
280.514
280.661
280.817
280.952
280.331
280.26
280.232
280.246
280.305
280.406
280.549
280.727
280.923
281.099
280.288
280.209
280.179
280.194
280.257
280.368
280.528
280.732
280.964
281.182
280.785
280.71
280.679
280.697
280.764
280.883
281.054
281.275
281.53
281.773
280.8
280.787
280.785
280.786
280.787
280.789
280.792
280.794
280.798
280.812
280.462
280.457
280.455
280.456
280.46
280.466
280.473
280.481
280.489
280.495
280.462
280.452
280.449
280.451
280.459
280.472
280.488
280.505
280.521
280.532
280.462
280.445
280.438
280.442
280.456
280.48
280.51
280.543
280.574
280.597
280.45
280.423
280.413
280.419
280.441
280.478
280.526
280.579
280.63
280.669
280.453
280.415
280.401
280.409
280.44
280.491
280.559
280.637
280.714
280.775
280.407
280.358
280.339
280.349
280.387
280.453
280.542
280.647
280.754
280.842
280.419
280.363
280.341
280.353
280.399
280.477
280.585
280.714
280.85
280.966
280.373
280.31
280.286
280.298
280.349
280.436
280.559
280.709
280.872
281.016
280.843
280.784
280.759
280.773
280.827
280.921
281.053
281.217
281.396
281.555
280.803
280.791
280.789
280.789
280.79
280.791
280.793
280.794
280.797
280.81
280.486
280.483
280.481
280.482
280.484
280.487
280.492
280.497
280.501
280.506
280.498
280.492
280.49
280.491
280.496
280.504
280.514
280.524
280.533
280.54
280.496
280.484
280.479
280.482
280.491
280.507
280.526
280.548
280.567
280.582
280.495
280.476
280.469
280.473
280.488
280.513
280.545
280.58
280.613
280.637
280.503
280.477
280.466
280.472
280.494
280.531
280.578
280.631
280.681
280.72
280.463
280.426
280.412
280.419
280.448
280.496
280.56
280.632
280.704
280.762
280.488
280.446
280.429
280.438
280.473
280.532
280.61
280.701
280.793
280.869
280.436
280.387
280.369
280.378
280.417
280.484
280.574
280.682
280.794
280.888
280.879
280.834
280.814
280.826
280.868
280.939
281.037
281.155
281.279
281.38
280.8
280.789
280.788
280.788
280.788
280.789
280.79
280.791
280.793
280.804
280.504
280.501
280.5
280.5
280.501
280.504
280.506
280.509
280.513
280.516
280.528
280.524
280.523
280.524
280.527
280.532
280.538
280.544
280.549
280.553
280.52
280.512
280.509
280.51
280.516
280.526
280.539
280.552
280.564
280.574
280.528
280.516
280.511
280.514
280.524
280.541
280.561
280.584
280.604
280.62
280.54
280.522
280.515
280.519
280.534
280.559
280.591
280.626
280.659
280.683
280.503
280.477
280.467
280.472
280.492
280.526
280.57
280.619
280.666
280.704
280.541
280.511
280.499
280.506
280.531
280.573
280.629
280.691
280.753
280.801
280.481
280.444
280.431
280.438
280.467
280.515
280.58
280.655
280.73
280.791
280.897
280.864
280.849
280.858
280.889
280.942
281.013
281.095
281.178
281.241
280.793
280.783
280.783
280.782
280.783
280.783
280.783
280.784
280.786
280.796
280.515
280.513
280.512
280.512
280.513
280.514
280.516
280.518
280.521
280.524
280.555
280.553
280.552
280.553
280.554
280.557
280.56
280.564
280.567
280.569
280.536
280.531
280.529
280.53
280.534
280.54
280.548
280.556
280.564
280.57
280.553
280.545
280.542
280.544
280.55
280.561
280.574
280.588
280.601
280.61
280.567
280.554
280.549
280.552
280.562
280.579
280.6
280.623
280.644
280.659
280.531
280.513
280.506
280.509
280.523
280.546
280.576
280.608
280.639
280.663
280.583
280.563
280.554
280.559
280.577
280.606
280.644
280.686
280.726
280.756
280.51
280.483
280.473
280.478
280.499
280.533
280.578
280.629
280.678
280.718
280.9
280.878
280.867
280.873
280.895
280.933
280.982
281.038
281.093
281.131
280.785
280.776
280.776
280.776
280.776
280.776
280.776
280.776
280.778
280.787
280.52
280.519
280.518
280.518
280.518
280.519
280.52
280.522
280.524
280.527
280.579
280.578
280.578
280.578
280.579
280.581
280.583
280.584
280.586
280.587
280.547
280.544
280.542
280.543
280.545
280.549
280.553
280.559
280.563
280.567
280.57
280.566
280.564
280.565
280.569
280.576
280.584
280.592
280.6
280.606
280.584
280.576
280.572
280.574
280.581
280.592
280.605
280.62
280.633
280.643
280.55
280.538
280.533
280.535
280.545
280.56
280.579
280.6
280.619
280.634
280.617
280.603
280.598
280.601
280.613
280.633
280.658
280.685
280.711
280.729
280.525
280.507
280.5
280.503
280.517
280.541
280.571
280.604
280.636
280.661
280.895
280.88
280.872
280.876
280.892
280.917
280.951
280.988
281.023
281.045
280.781
280.774
280.774
280.773
280.774
280.774
280.774
280.774
280.774
280.782
280.518
280.516
280.516
280.516
280.516
280.516
280.517
280.519
280.52
280.524
280.601
280.601
280.601
280.601
280.602
280.602
280.603
280.604
280.605
280.605
280.553
280.551
280.55
280.55
280.551
280.554
280.557
280.56
280.562
280.565
280.582
280.578
280.577
280.578
280.581
280.585
280.59
280.595
280.599
280.603
280.593
280.588
280.586
280.587
280.591
280.598
280.606
280.615
280.624
280.63
280.561
280.554
280.551
280.552
280.558
280.568
280.58
280.593
280.604
280.614
280.643
280.634
280.63
280.632
280.64
280.653
280.669
280.687
280.703
280.714
280.528
280.515
280.511
280.513
280.522
280.538
280.557
280.579
280.598
280.615
280.889
280.879
280.874
280.877
280.887
280.904
280.926
280.949
280.972
280.984
280.796
280.79
280.79
280.79
280.79
280.79
280.79
280.79
280.79
280.796
280.504
280.502
280.501
280.501
280.502
280.502
280.503
280.504
280.505
280.509
280.618
280.618
280.617
280.618
280.618
280.618
280.619
280.62
280.62
280.62
280.555
280.554
280.553
280.554
280.555
280.556
280.557
280.559
280.56
280.562
280.586
280.584
280.583
280.584
280.585
280.588
280.591
280.594
280.597
280.599
280.594
280.591
280.59
280.59
280.593
280.597
280.602
280.608
280.613
280.617
280.566
280.562
280.56
280.561
280.565
280.571
280.579
280.586
280.593
280.598
280.655
280.649
280.646
280.648
280.653
280.661
280.672
280.683
280.694
280.701
280.514
280.506
280.503
280.505
280.511
280.521
280.533
280.546
280.558
280.569
280.896
280.89
280.886
280.888
280.895
280.906
280.92
280.935
280.95
280.955
280.847
280.843
280.843
280.843
280.843
280.843
280.843
280.843
280.843
280.847
280.469
280.468
280.468
280.468
280.468
280.469
280.469
280.469
280.47
280.473
280.623
280.622
280.621
280.621
280.621
280.621
280.622
280.623
280.624
280.625
280.555
280.555
280.555
280.555
280.556
280.557
280.557
280.558
280.558
280.559
280.585
280.584
280.583
280.583
280.584
280.586
280.588
280.59
280.592
280.593
280.59
280.588
280.587
280.587
280.589
280.591
280.595
280.598
280.602
280.605
280.566
280.564
280.563
280.564
280.566
280.57
280.575
280.579
280.583
280.585
280.645
280.64
280.638
280.639
280.642
280.648
280.655
280.663
280.671
280.676
280.477
280.472
280.47
280.472
280.476
280.482
280.49
280.498
280.504
280.51
280.933
280.929
280.926
280.927
280.932
280.939
280.949
280.958
280.969
280.971
280.93
280.927
280.926
280.926
280.926
280.926
280.926
280.927
280.928
280.931
280.411
280.413
280.415
280.416
280.417
280.416
280.416
280.414
280.412
280.412
280.612
280.609
280.608
280.607
280.607
280.607
280.608
280.61
280.612
280.615
280.556
280.556
280.557
280.557
280.558
280.558
280.558
280.559
280.558
280.558
280.582
280.581
280.58
280.58
280.581
280.582
280.584
280.585
280.587
280.588
280.584
280.582
280.582
280.582
280.583
280.585
280.588
280.59
280.593
280.595
280.565
280.564
280.563
280.564
280.566
280.568
280.572
280.575
280.577
280.578
280.613
280.609
280.607
280.607
280.61
280.614
280.619
280.625
280.632
280.638
280.417
280.415
280.414
280.415
280.419
280.423
280.429
280.434
280.437
280.437
280.992
280.989
280.987
280.988
280.991
280.996
281.003
281.01
281.018
281.021
289.476
291.233
291.497
289.909
290.64
292.77
293.179
291.519
292.302
294.928
295.462
293.49
293.585
296.651
297.319
295.137
294.53
298.007
298.816
296.493
295.279
299.134
300.103
297.911
295.825
300.041
301.202
299.335
296.297
300.837
302.204
300.716
296.511
301.351
302.933
301.869
297.071
302.101
303.949
303.469
286.166
286.713
286.694
286.169
287.462
288.105
288.043
287.39
289.066
289.87
289.758
288.9
290.506
291.456
291.285
290.234
291.682
292.773
292.536
291.301
292.704
293.932
293.671
292.278
293.51
294.869
294.62
293.092
294.206
295.67
295.443
293.805
294.644
296.172
295.973
294.27
295.43
296.931
296.842
295.193
282.258
282.392
282.423
282.354
282.986
283.204
283.244
283.108
284.152
284.49
284.534
284.285
285.42
285.878
285.918
285.538
286.583
287.156
287.184
286.661
287.718
288.404
288.416
287.756
288.709
289.504
289.504
288.719
289.648
290.535
290.526
289.636
290.407
291.334
291.324
290.383
291.65
292.507
292.536
291.672
281.49
281.556
281.578
281.556
281.748
281.834
281.863
281.841
282.457
282.604
282.647
282.593
283.333
283.554
283.606
283.505
284.174
284.473
284.53
284.366
285.063
285.443
285.501
285.263
285.881
286.342
286.398
286.079
286.718
287.25
287.302
286.901
287.473
288.039
288.086
287.631
288.817
289.308
289.369
288.957
281.058
281.095
281.107
281.096
281.096
281.126
281.14
281.139
281.546
281.603
281.629
281.625
282.157
282.255
282.294
282.278
282.753
282.901
282.952
282.915
283.419
283.624
283.686
283.617
284.044
284.309
284.377
284.267
284.719
285.039
285.111
284.953
285.356
285.705
285.775
285.578
286.608
286.886
286.962
286.801
280.888
280.917
280.926
280.915
280.79
280.803
280.81
280.811
281.095
281.121
281.134
281.135
281.536
281.582
281.605
281.605
281.963
282.037
282.071
282.067
282.462
282.57
282.616
282.604
282.927
283.075
283.132
283.105
283.45
283.637
283.701
283.653
283.952
284.162
284.227
284.156
285.073
285.215
285.284
285.253
280.806
280.832
280.84
280.828
280.624
280.629
280.633
280.633
280.834
280.846
280.852
280.854
281.163
281.185
281.197
281.2
281.48
281.517
281.537
281.54
281.864
281.922
281.951
281.953
282.215
282.297
282.336
282.335
282.621
282.729
282.775
282.767
283.001
283.124
283.174
283.155
283.997
284.054
284.106
284.132
280.771
280.797
280.804
280.792
280.54
280.543
280.545
280.545
280.684
280.69
280.694
280.694
280.931
280.942
280.949
280.951
281.169
281.189
281.2
281.203
281.471
281.503
281.52
281.524
281.74
281.786
281.81
281.815
282.058
282.12
282.151
282.154
282.338
282.41
282.445
282.444
283.23
283.235
283.27
283.316
280.759
280.784
280.791
280.779
280.501
280.503
280.504
280.504
280.6
280.603
280.605
280.606
280.784
280.79
280.794
280.795
280.963
280.974
280.981
280.983
281.201
281.219
281.229
281.232
281.406
281.432
281.447
281.451
281.658
281.693
281.713
281.717
281.862
281.905
281.927
281.931
282.667
282.641
282.662
282.714
280.756
280.782
280.788
280.776
280.488
280.489
280.49
280.49
280.557
280.558
280.559
280.56
280.693
280.696
280.698
280.699
280.827
280.833
280.837
280.838
281.013
281.023
281.03
281.032
281.166
281.181
281.191
281.194
281.367
281.387
281.4
281.403
281.514
281.539
281.553
281.557
282.242
282.199
282.212
282.262
280.757
280.782
280.789
280.777
280.489
280.49
280.49
280.49
280.538
280.539
280.54
280.54
280.637
280.639
280.64
280.641
280.737
280.741
280.743
280.744
280.882
280.889
280.892
280.894
280.993
281.002
281.008
281.01
281.154
281.167
281.174
281.176
281.255
281.27
281.279
281.282
281.917
281.865
281.872
281.92
280.758
280.783
280.79
280.778
280.497
280.497
280.498
280.498
280.535
280.536
280.536
280.536
280.604
280.606
280.606
280.607
280.68
280.682
280.683
280.684
280.792
280.796
280.799
280.799
280.868
280.874
280.877
280.879
281
281.007
281.012
281.014
281.063
281.072
281.078
281.079
281.665
281.61
281.613
281.657
280.756
280.782
280.789
280.777
280.507
280.508
280.508
280.508
280.542
280.542
280.542
280.543
280.586
280.587
280.588
280.588
280.644
280.646
280.647
280.647
280.731
280.734
280.735
280.736
280.779
280.782
280.785
280.785
280.89
280.895
280.898
280.899
280.919
280.925
280.929
280.93
281.468
281.413
281.413
281.455
280.753
280.779
280.785
280.773
280.517
280.518
280.518
280.518
280.554
280.554
280.554
280.554
280.577
280.578
280.578
280.578
280.624
280.625
280.625
280.625
280.691
280.692
280.693
280.694
280.715
280.718
280.719
280.719
280.814
280.817
280.819
280.819
280.813
280.817
280.819
280.819
281.313
281.26
281.259
281.297
280.746
280.773
280.779
280.767
280.525
280.526
280.526
280.526
280.57
280.57
280.57
280.57
280.572
280.573
280.573
280.573
280.613
280.614
280.614
280.614
280.664
280.665
280.666
280.666
280.671
280.672
280.673
280.673
280.764
280.766
280.767
280.768
280.734
280.736
280.737
280.737
281.19
281.141
281.14
281.174
280.74
280.766
280.772
280.76
280.529
280.53
280.53
280.53
280.587
280.587
280.587
280.587
280.57
280.57
280.57
280.57
280.608
280.608
280.608
280.608
280.646
280.647
280.647
280.647
280.639
280.641
280.641
280.641
280.734
280.736
280.736
280.737
280.673
280.675
280.676
280.676
281.093
281.049
281.049
281.078
280.739
280.765
280.771
280.758
280.526
280.527
280.528
280.528
280.605
280.605
280.605
280.605
280.567
280.567
280.568
280.567
280.605
280.605
280.605
280.605
280.632
280.633
280.633
280.633
280.617
280.618
280.618
280.618
280.718
280.718
280.719
280.719
280.624
280.626
280.626
280.626
281.021
280.985
280.984
281.008
280.757
280.782
280.787
280.774
280.513
280.514
280.514
280.515
280.621
280.621
280.621
280.621
280.563
280.564
280.564
280.563
280.601
280.601
280.601
280.601
280.62
280.62
280.621
280.62
280.6
280.6
280.6
280.6
280.704
280.705
280.706
280.706
280.577
280.578
280.578
280.577
280.983
280.955
280.954
280.973
280.816
280.838
280.842
280.829
280.478
280.479
280.479
280.479
280.627
280.627
280.627
280.628
280.559
280.559
280.559
280.559
280.595
280.595
280.595
280.595
280.607
280.607
280.608
280.607
280.585
280.585
280.585
280.585
280.682
280.684
280.684
280.684
280.516
280.516
280.516
280.515
280.991
280.973
280.973
280.985
280.914
280.927
280.929
280.921
280.414
280.415
280.415
280.414
280.62
280.621
280.621
280.622
280.557
280.557
280.556
280.556
280.59
280.59
280.59
280.59
280.597
280.597
280.597
280.597
280.577
280.576
280.576
280.576
280.649
280.651
280.652
280.651
280.433
280.432
280.432
280.432
281.038
281.033
281.034
281.036
282.187
280.887
280.345
279.998
279.704
279.462
279.27
279.119
278.997
278.893
282.332
281.094
280.261
279.736
279.321
279.013
278.785
278.615
278.486
278.381
282.906
281.601
280.471
279.832
279.332
278.985
278.731
278.541
278.398
278.284
283.503
282.137
280.738
280.035
279.47
279.099
278.826
278.621
278.465
278.34
283.981
282.592
280.948
280.194
279.569
279.178
278.886
278.669
278.503
278.369
284.531
283.085
281.218
280.428
279.742
279.334
279.02
278.788
278.607
278.457
285.014
283.485
281.418
280.605
279.863
279.44
279.106
278.859
278.664
278.503
285.58
283.974
281.721
280.892
280.09
279.651
279.287
279.016
278.793
278.6
286.029
284.366
281.934
281.129
280.293
279.849
279.449
279.149
278.897
278.679
287.761
286.098
283.51
282.652
281.69
281.121
280.596
280.192
279.857
279.563
283.985
282.676
281.688
280.976
280.482
280.137
279.886
279.698
279.553
279.431
284.431
282.645
281.315
280.455
279.902
279.525
279.256
279.06
278.917
278.811
285.027
282.833
281.247
280.317
279.723
279.325
279.046
278.845
278.702
278.6
285.515
283.02
281.24
280.288
279.666
279.263
278.982
278.783
278.643
278.543
285.782
283.076
281.166
280.207
279.565
279.164
278.886
278.693
278.559
278.465
285.982
283.147
281.144
280.197
279.538
279.144
278.869
278.682
278.55
278.456
286.027
283.128
281.054
280.136
279.465
279.084
278.814
278.633
278.505
278.413
286.083
283.186
281.057
280.182
279.499
279.133
278.861
278.679
278.543
278.44
286.041
283.175
280.999
280.204
279.536
279.2
278.922
278.731
278.584
278.469
286.95
284.237
282.064
281.32
280.604
280.212
279.864
279.618
279.425
279.28
282.118
281.739
281.369
281.039
280.757
280.52
280.323
280.16
280.023
279.904
282.579
281.897
281.28
280.769
280.355
280.027
279.77
279.569
279.414
279.295
283.351
282.335
281.469
280.801
280.285
279.893
279.595
279.37
279.201
279.077
284.121
282.782
281.682
280.886
280.29
279.856
279.535
279.298
279.122
278.995
284.696
283.074
281.772
280.879
280.224
279.764
279.432
279.191
279.015
278.889
285.205
283.345
281.872
280.909
280.212
279.738
279.4
279.159
278.982
278.855
285.552
283.497
281.879
280.872
280.145
279.668
279.33
279.09
278.915
278.789
285.874
283.675
281.937
280.912
280.166
279.692
279.352
279.111
278.93
278.796
286.078
283.761
281.924
280.92
280.182
279.727
279.384
279.137
278.948
278.804
287.067
284.745
282.87
281.889
281.122
280.63
280.242
279.957
279.737
279.577
281.512
281.366
281.188
281.008
280.837
280.682
280.545
280.425
280.318
280.221
281.718
281.429
281.099
280.783
280.503
280.263
280.062
279.896
279.761
279.653
282.347
281.862
281.353
280.898
280.513
280.197
279.942
279.739
279.579
279.456
283.08
282.363
281.656
281.065
280.586
280.209
279.913
279.682
279.504
279.371
283.708
282.747
281.848
281.135
280.577
280.152
279.828
279.581
279.393
279.255
284.323
283.122
282.042
281.227
280.605
280.145
279.801
279.544
279.349
279.206
284.812
283.383
282.138
281.241
280.568
280.087
279.731
279.468
279.27
279.125
285.285
283.654
282.263
281.308
280.599
280.105
279.741
279.472
279.268
279.115
285.654
283.831
282.316
281.338
280.618
280.125
279.754
279.479
279.268
279.107
286.7
284.774
283.2
282.214
281.465
280.945
280.543
280.242
280.01
279.843
281.104
281.057
280.986
280.902
280.814
280.727
280.644
280.567
280.494
280.423
281.111
280.998
280.843
280.675
280.51
280.356
280.218
280.097
279.993
279.908
281.565
281.358
281.095
280.825
280.572
280.347
280.153
279.99
279.856
279.75
282.158
281.82
281.422
281.04
280.698
280.405
280.162
279.962
279.802
279.677
282.703
282.209
281.663
281.168
280.742
280.392
280.108
279.882
279.703
279.566
283.282
282.616
281.918
281.316
280.816
280.417
280.102
279.855
279.662
279.514
283.776
282.929
282.082
281.384
280.82
280.384
280.045
279.784
279.581
279.428
284.277
283.253
282.264
281.488
280.874
280.41
280.054
279.782
279.569
279.408
284.694
283.488
282.374
281.546
280.903
280.426
280.058
279.776
279.557
279.388
285.732
284.404
283.218
282.358
281.684
281.183
280.791
280.491
280.257
280.088
280.931
280.913
280.88
280.839
280.793
280.744
280.696
280.649
280.601
280.551
280.8
280.749
280.672
280.582
280.487
280.392
280.302
280.22
280.147
280.085
281.114
281.017
280.879
280.722
280.563
280.413
280.276
280.155
280.052
279.967
281.566
281.401
281.179
280.941
280.71
280.499
280.314
280.155
280.022
279.915
281.996
281.743
281.42
281.093
280.789
280.521
280.292
280.1
279.943
279.819
282.486
282.126
281.692
281.273
280.897
280.576
280.309
280.09
279.912
279.773
282.92
282.437
281.886
281.377
280.936
280.57
280.271
280.031
279.838
279.689
283.381
282.768
282.099
281.511
281.013
280.611
280.288
280.03
279.824
279.665
283.775
283.019
282.241
281.591
281.054
280.628
280.288
280.019
279.805
279.638
284.758
283.898
283.05
282.357
281.787
281.337
280.977
280.692
280.467
280.304
280.847
280.84
280.825
280.805
280.781
280.754
280.727
280.699
280.669
280.632
280.629
280.605
280.566
280.518
280.463
280.407
280.351
280.298
280.249
280.208
280.845
280.797
280.723
280.633
280.536
280.44
280.347
280.263
280.188
280.124
281.184
281.101
280.976
280.831
280.682
280.537
280.403
280.284
280.18
280.094
281.514
281.381
281.192
280.983
280.775
280.58
280.405
280.252
280.122
280.017
281.909
281.714
281.45
281.17
280.9
280.656
280.442
280.259
280.106
279.983
282.265
281.994
281.645
281.291
280.962
280.672
280.423
280.215
280.043
279.907
282.658
282.301
281.864
281.44
281.056
280.727
280.45
280.221
280.033
279.885
282.991
282.536
282.015
281.532
281.107
280.749
280.451
280.208
280.011
279.854
283.897
283.367
282.786
282.259
281.801
281.419
281.104
280.847
280.64
280.488
280.811
280.81
280.802
280.792
280.779
280.765
280.749
280.733
280.713
280.686
280.543
280.531
280.51
280.483
280.452
280.419
280.385
280.352
280.321
280.294
280.69
280.665
280.624
280.572
280.513
280.452
280.392
280.335
280.283
280.239
280.943
280.898
280.827
280.74
280.644
280.548
280.455
280.368
280.292
280.226
281.191
281.118
281.007
280.875
280.736
280.6
280.471
280.355
280.254
280.169
281.505
281.396
281.236
281.053
280.865
280.686
280.523
280.377
280.252
280.148
281.785
281.631
281.413
281.173
280.936
280.716
280.518
280.347
280.201
280.082
282.107
281.899
281.619
281.323
281.039
280.781
280.555
280.361
280.198
280.066
282.372
282.102
281.762
281.417
281.093
280.806
280.559
280.349
280.175
280.035
283.194
282.876
282.489
282.106
281.753
281.444
281.179
280.957
280.775
280.639
280.798
280.799
280.795
280.79
280.783
280.775
280.766
280.757
280.743
280.722
280.503
280.496
280.485
280.47
280.452
280.433
280.412
280.392
280.373
280.356
280.603
280.589
280.566
280.535
280.5
280.463
280.424
280.387
280.353
280.322
280.791
280.766
280.725
280.671
280.611
280.548
280.485
280.425
280.37
280.323
280.976
280.935
280.869
280.786
280.694
280.601
280.509
280.425
280.348
280.284
281.223
281.16
281.062
280.944
280.816
280.689
280.568
280.457
280.359
280.276
281.437
281.348
281.212
281.052
280.885
280.723
280.572
280.437
280.319
280.22
281.696
281.574
281.395
281.194
280.989
280.794
280.617
280.46
280.325
280.213
281.898
281.738
281.519
281.278
281.041
280.82
280.622
280.449
280.302
280.181
282.64
282.452
282.199