/*--------------------------------*- C++ -*----------------------------------*\
| =========                 |                                                 |
| \\      /  F ield         | foam-extend: Open Source CFD                    |
|  \\    /   O peration     | Version:     4.0                                |
|   \\  /    A nd           | Web:         http://www.foam-extend.org         |
|    \\/     M anipulation  |                                                 |
\*---------------------------------------------------------------------------*/
FoamFile
{
    version     2.0;
    format      ascii;
    class       regIOobject;
    location    "1850/uniform";
    object      profilingInfo;
}
// * * * * * * * * * * * * * * * * * * * * * * * * * * * * * * * * * * * * * //

profilingInfo
(

    {
        id              24;
        parentId        16;
        description     "Foam::Time::writeObject - outputTime";
        calls           37;
        totalTime       13.2711;
        childTime       0;
        onStack         1;
    }

    {
        id              16;
        parentId        1;
        description     "Foam::Time::writeObject";
        calls           1850;
        totalTime       13.2796;
        childTime       13.2711;
        onStack         1;
    }

    {
        id              1;
        description     "application::main";
        calls           1;
        totalTime       573.136;
        childTime       334.479;
        onStack         1;
    }

    {
        id              19;
        parentId        17;
        description     "FO::Mach::execute";
        calls           1849;
        totalTime       3.85326;
        childTime       0;
        onStack         0;
    }

    {
        id              18;
        parentId        17;
        description     "FO::flux::execute";
        calls           1849;
        totalTime       2.26153;
        childTime       0;
        onStack         0;
    }

    {
        id              21;
        parentId        17;
        description     "FO::minMaxP::execute";
        calls           1849;
        totalTime       0.279777;
        childTime       0;
        onStack         0;
    }

    {
        id              22;
        parentId        17;
        description     "FO::minMaxRho::execute";
        calls           1849;
        totalTime       0.25965;
        childTime       0;
        onStack         0;
    }

    {
        id              23;
        parentId        17;
        description     "FO::minMaxT::execute";
        calls           1849;
        totalTime       0.249541;
        childTime       0;
        onStack         0;
    }

    {
        id              20;
        parentId        17;
        description     "FO::minMaxU::execute";
        calls           1849;
        totalTime       0.833112;
        childTime       0;
        onStack         0;
    }

    {
        id              3;
        parentId        2;
        description     "functionObjectList::read";
        calls           1;
        totalTime       0.005391;
        childTime       0;
        onStack         0;
    }

    {
        id              17;
        parentId        1;
        description     "functionObjects_.execute()";
        calls           1849;
        totalTime       7.76874;
        childTime       7.73686;
        onStack         0;
    }

    {
        id              2;
        parentId        1;
        description     "functionObjects_.start()";
        calls           1;
        totalTime       0.005403;
        childTime       0.005391;
        onStack         0;
    }

    {
        id              4;
        parentId        1;
        description     "fvMatrix::solve_U";
        calls           1850;
        totalTime       23.7063;
        childTime       20.5005;
        onStack         0;
    }

    {
        id              12;
        parentId        1;
        description     "fvMatrix::solve_epsilon";
        calls           1850;
        totalTime       14.3053;
        childTime       9.47848;
        onStack         0;
    }

    {
        id              10;
        parentId        1;
        description     "fvMatrix::solve_i";
        calls           1850;
        totalTime       7.40727;
        childTime       6.76273;
        onStack         0;
    }

    {
        id              14;
        parentId        1;
        description     "fvMatrix::solve_k";
        calls           1850;
        totalTime       10.4249;
        childTime       9.81809;
        onStack         0;
    }

    {
        id              8;
        parentId        1;
        description     "fvMatrix::solve_p";
        calls           3700;
        totalTime       257.581;
        childTime       256.223;
        onStack         0;
    }

    {
        id              5;
        parentId        4;
        description     "lduMatrix::solver_Ux";
        calls           1850;
        totalTime       6.95299;
        childTime       0;
        onStack         0;
    }

    {
        id              6;
        parentId        4;
        description     "lduMatrix::solver_Uy";
        calls           1850;
        totalTime       6.78529;
        childTime       0;
        onStack         0;
    }

    {
        id              7;
        parentId        4;
        description     "lduMatrix::solver_Uz";
        calls           1850;
        totalTime       6.76221;
        childTime       0;
        onStack         0;
    }

    {
        id              13;
        parentId        12;
        description     "lduMatrix::solver_epsilon";
        calls           1850;
        totalTime       9.47848;
        childTime       0;
        onStack         0;
    }

    {
        id              11;
        parentId        10;
        description     "lduMatrix::solver_i";
        calls           1850;
        totalTime       6.76273;
        childTime       0;
        onStack         0;
    }

    {
        id              15;
        parentId        14;
        description     "lduMatrix::solver_k";
        calls           1850;
        totalTime       9.81809;
        childTime       0;
        onStack         0;
    }

    {
        id              9;
        parentId        8;
        description     "lduMatrix::solver_p";
        calls           3700;
        totalTime       256.223;
        childTime       0;
        onStack         0;
    }
);


// ************************************************************************* //
