/*--------------------------------*- C++ -*----------------------------------*\
| =========                 |                                                 |
| \\      /  F ield         | foam-extend: Open Source CFD                    |
|  \\    /   O peration     | Version:     4.0                                |
|   \\  /    A nd           | Web:         http://www.foam-extend.org         |
|    \\/     M anipulation  |                                                 |
\*---------------------------------------------------------------------------*/
FoamFile
{
    version     2.0;
    format      ascii;
    class       volScalarField;
    location    "2350";
    object      divFlux;
}
// * * * * * * * * * * * * * * * * * * * * * * * * * * * * * * * * * * * * * //

dimensions      [1 -3 -1 0 0 0 0];

internalField   nonuniform List<scalar> 
34480
(
2.0543e-05
7.69421e-06
7.72746e-06
7.10959e-06
6.57706e-06
6.15701e-06
5.83788e-06
0.000325118
0.00104339
5.20503e-06
6.1441e-06
3.23433e-06
3.12826e-06
2.90397e-06
2.73713e-06
2.65987e-06
2.65277e-06
2.65643e-06
0.00284835
2.5676e-06
1.71015e-06
1.01142e-06
1.01595e-06
9.59319e-07
9.43374e-07
9.75172e-07
1.02901e-06
1.06608e-06
0.0030144
1.05256e-06
6.08261e-07
3.698e-07
3.92481e-07
3.63996e-07
3.66478e-07
3.85951e-07
4.10465e-07
4.25929e-07
0.000716405
4.22569e-07
2.52137e-07
1.42563e-07
1.6567e-07
1.47996e-07
1.51466e-07
1.59517e-07
1.69597e-07
1.75292e-07
1.77452e-07
1.73459e-07
9.72801e-08
7.00463e-08
6.95881e-08
6.4147e-08
6.58653e-08
6.91299e-08
7.31391e-08
7.53728e-08
7.60028e-08
7.52582e-08
4.87848e-08
2.88153e-08
3.33972e-08
2.8968e-08
3.06989e-08
3.1208e-08
3.36008e-08
3.30408e-08
3.46699e-08
3.36008e-08
2.20505e-08
1.88776e-08
1.57618e-08
1.46622e-08
1.46622e-08
1.54411e-08
1.60368e-08
1.61284e-08
1.68615e-08
1.65866e-08
1.57191e-08
9.37213e-09
8.91394e-09
9.33048e-09
8.28913e-09
7.91424e-09
9.0389e-09
8.41409e-09
9.16386e-09
9.20552e-09
1.34117e-09
1.22567e-08
3.78009e-09
7.56019e-09
5.15467e-09
5.5365e-09
5.57468e-09
6.22379e-09
5.80378e-09
6.52925e-09
2.8148e-05
9.81369e-06
9.76546e-06
9.12276e-06
8.55192e-06
8.12352e-06
7.83997e-06
7.69629e-06
7.68461e-06
0.000958257
8.9043e-06
4.74351e-06
4.54986e-06
4.27007e-06
4.07067e-06
3.9842e-06
3.98601e-06
4.06162e-06
4.19845e-06
0.00326487
2.84284e-06
1.66829e-06
1.66543e-06
1.60358e-06
1.59477e-06
1.65159e-06
1.73695e-06
1.83607e-06
1.94111e-06
0.00416719
1.27187e-06
6.42975e-07
7.43252e-07
6.88446e-07
7.03496e-07
7.37324e-07
7.8212e-07
8.31282e-07
8.80515e-07
0.00145066
6.89547e-07
2.16506e-07
3.84453e-07
3.0054e-07
3.25489e-07
3.40214e-07
3.59017e-07
3.82566e-07
4.05324e-07
4.16855e-07
1.81815e-07
1.05636e-07
1.98973e-07
1.39819e-07
1.55845e-07
1.64577e-07
1.70807e-07
1.81935e-07
1.93595e-07
1.95529e-07
8.26599e-08
5.91601e-09
1.24e-07
7.09448e-08
6.98562e-08
8.51432e-08
8.33447e-08
9.02073e-08
9.62179e-08
9.68687e-08
2.97053e-07
8.81722e-09
8.04198e-08
3.43744e-08
3.81227e-08
4.694e-08
4.41713e-08
4.84734e-08
5.19236e-08
5.22857e-08
1.42376e-07
7.2257e-08
4.60416e-08
4.24016e-08
1.77738e-08
3.19852e-08
2.81129e-08
3.06299e-08
3.19464e-08
3.2808e-08
3.48812e-07
1.15895e-07
7.96886e-08
7.01402e-08
7.06371e-09
2.54152e-08
2.24335e-08
2.29659e-08
2.60896e-08
2.62493e-08
2.61123e-05
7.41328e-06
7.58369e-06
7.11699e-06
6.69418e-06
6.39122e-06
6.2261e-06
6.2059e-06
6.30148e-05
0.000749903
7.83892e-06
3.42063e-06
3.32188e-06
3.11077e-06
2.93664e-06
2.82101e-06
2.78488e-06
2.84789e-06
5.46196e-05
0.00125713
2.34619e-06
1.16624e-06
1.15409e-06
1.09801e-06
1.05109e-06
1.03133e-06
1.04895e-06
1.11655e-06
0.000105403
0.00122678
9.45892e-07
4.10104e-07
4.72108e-07
4.36172e-07
4.2096e-07
4.14559e-07
4.24755e-07
4.55873e-07
5.12333e-07
6.41538e-07
4.52955e-07
1.32144e-07
2.15074e-07
1.79888e-07
1.77569e-07
1.75023e-07
1.78135e-07
1.9222e-07
2.18157e-07
2.78035e-07
1.49162e-07
7.59293e-08
9.39464e-08
7.72162e-08
7.88991e-08
7.66717e-08
7.81567e-08
8.50368e-08
9.64213e-08
1.25925e-07
9.9136e-08
2.26589e-08
4.87496e-08
3.48463e-08
3.59902e-08
3.51983e-08
3.59022e-08
3.91141e-08
4.45698e-08
5.97711e-08
1.39991e-08
3.17576e-08
2.40756e-08
1.6552e-08
1.80567e-08
1.78983e-08
1.71856e-08
2.00366e-08
2.24125e-08
3.06984e-08
3.69736e-08
2.73587e-09
1.78191e-08
1.07995e-08
1.04035e-08
1.08355e-08
1.14834e-08
1.18074e-08
1.40033e-08
1.91848e-08
1.31591e-08
2.98305e-08
1.08235e-08
1.59712e-08
4.65277e-09
7.29264e-09
7.25964e-09
7.49063e-09
8.74457e-09
1.36799e-08
2.55124e-05
6.65584e-06
6.86714e-06
6.47264e-06
6.1028e-06
5.84331e-06
5.71061e-06
5.70665e-06
2.21477e-05
0.000298686
7.73955e-06
3.19241e-06
3.11068e-06
2.91333e-06
2.7497e-06
2.6325e-06
2.57595e-06
2.59403e-06
8.76713e-06
0.00103499
2.32427e-06
1.15732e-06
1.11724e-06
1.06206e-06
1.00857e-06
9.73266e-07
9.66566e-07
1.00084e-06
0.000102849
0.00219515
9.62301e-07
4.20206e-07
4.63122e-07
4.31219e-07
4.11187e-07
3.97107e-07
3.95542e-07
4.14378e-07
9.9995e-05
0.00204396
4.65826e-07
1.37834e-07
2.09669e-07
1.82639e-07
1.75171e-07
1.68808e-07
1.69019e-07
1.77065e-07
4.25195e-05
0.00155045
1.623e-07
7.45898e-08
9.387e-08
8.01116e-08
7.81789e-08
7.54181e-08
7.46358e-08
7.88692e-08
1.09766e-05
0.000994853
1.046e-07
2.12281e-08
4.7978e-08
3.57892e-08
3.63618e-08
3.46848e-08
3.46439e-08
3.68936e-08
4.19654e-08
0.000429371
1.35818e-08
2.23447e-08
2.47375e-08
1.72647e-08
1.86636e-08
1.7596e-08
1.8185e-08
1.88476e-08
2.1903e-08
0.000166318
3.59845e-08
4.58474e-09
1.64314e-08
1.26164e-08
1.12109e-08
1.16124e-08
1.07089e-08
1.19471e-08
1.33526e-08
1.78328e-08
1.42674e-08
3.70878e-08
8.83482e-09
1.46327e-08
5.58312e-09
8.52806e-09
7.05559e-09
8.4667e-09
8.80414e-09
1.3536e-08
2.47285e-05
5.89845e-06
6.13868e-06
5.80285e-06
5.48137e-06
5.25545e-06
5.13228e-06
5.11939e-06
2.65688e-05
0.000102753
7.46795e-06
2.91503e-06
2.85412e-06
2.67565e-06
2.52965e-06
2.42528e-06
2.36548e-06
2.35919e-06
2.67678e-05
0.000508777
2.24623e-06
1.11863e-06
1.06295e-06
1.00892e-06
9.57107e-07
9.18334e-07
8.99375e-07
9.05672e-07
6.0845e-05
0.00127814
9.42007e-07
4.21751e-07
4.43967e-07
4.1813e-07
3.96912e-07
3.81484e-07
3.74155e-07
3.78034e-07
7.00434e-05
0.00138799
4.65593e-07
1.44561e-07
2.00636e-07
1.78685e-07
1.71939e-07
1.6485e-07
1.6177e-07
1.63823e-07
5.32806e-05
0.00128265
1.70252e-07
7.31912e-08
9.13286e-08
7.96078e-08
7.71267e-08
7.39184e-08
7.26351e-08
7.37046e-08
4.62738e-05
0.00104934
1.0899e-07
2.0761e-08
4.71116e-08
3.6541e-08
3.62368e-08
3.45257e-08
3.38032e-08
3.47538e-08
7.82201e-06
0.00071487
3.10507e-08
1.71108e-08
2.40577e-08
1.83427e-08
1.7761e-08
1.82401e-08
1.73845e-08
1.77952e-08
1.29236e-05
0.000557439
3.63686e-08
5.81766e-09
1.37197e-08
1.24131e-08
1.07953e-08
1.11375e-08
1.13553e-08
1.12931e-08
1.28486e-08
0.000350785
3.22731e-08
4.04669e-08
7.18652e-09
1.41164e-08
5.76062e-09
7.41466e-09
7.27207e-09
7.75687e-09
9.09722e-09
0.000465928
2.35102e-05
5.11803e-06
5.37473e-06
5.09918e-06
4.82595e-06
4.63101e-06
4.52086e-06
4.50156e-06
4.56426e-06
1.34396e-05
7.07806e-06
2.61229e-06
2.57312e-06
2.41294e-06
2.28167e-06
2.18865e-06
2.13405e-06
2.11655e-06
2.54571e-05
0.000192917
2.13269e-06
1.05424e-06
9.89591e-07
9.3869e-07
8.92115e-07
8.55116e-07
8.32592e-07
8.24193e-07
2.67468e-05
0.000694161
8.95919e-07
4.08167e-07
4.20707e-07
3.97112e-07
3.7707e-07
3.61693e-07
3.51858e-07
3.48278e-07
3.95881e-05
0.00084215
4.50624e-07
1.46251e-07
1.89563e-07
1.73747e-07
1.65203e-07
1.58977e-07
1.53977e-07
1.53796e-07
4.34353e-05
0.00088639
1.71811e-07
7.22564e-08
8.75667e-08
7.7625e-08
7.53583e-08
7.18588e-08
6.95523e-08
6.98307e-08
5.09101e-05
0.000833662
1.0925e-07
2.17039e-08
4.45389e-08
3.59139e-08
3.53837e-08
3.39344e-08
3.32628e-08
3.31568e-08
3.29128e-05
0.000666495
4.20679e-08
1.36162e-08
2.34784e-08
1.842e-08
1.83246e-08
1.71793e-08
1.71793e-08
1.71157e-08
4.89457e-05
0.000618099
3.7333e-08
7.34603e-09
1.24651e-08
1.32171e-08
1.07298e-08
1.1048e-08
1.08744e-08
1.11926e-08
1.78521e-05
0.000541551
4.27701e-08
4.08804e-08
4.29482e-09
1.11082e-08
6.73386e-09
7.58222e-09
6.94595e-09
7.97989e-09
4.75639e-05
0.000638602
2.20976e-05
4.37904e-06
4.63484e-06
4.41315e-06
4.17818e-06
4.00349e-06
3.90239e-06
3.86853e-06
3.90707e-06
3.37292e-06
6.58592e-06
2.28725e-06
2.2765e-06
2.13812e-06
2.02204e-06
1.9379e-06
1.88766e-06
1.86603e-06
1.29068e-05
6.2394e-05
1.97582e-06
9.67368e-07
8.99138e-07
8.52558e-07
8.11389e-07
7.78531e-07
7.55936e-07
7.44106e-07
1.17038e-05
0.000373048
8.46181e-07
3.85559e-07
3.8864e-07
3.68603e-07
3.50513e-07
3.36637e-07
3.26138e-07
3.20814e-07
2.05041e-05
0.000500442
4.24549e-07
1.42847e-07
1.76774e-07
1.64268e-07
1.5548e-07
1.49776e-07
1.45213e-07
1.42636e-07
2.92992e-05
0.000576051
1.65163e-07
7.07951e-08
8.21814e-08
7.42332e-08
7.18302e-08
6.84661e-08
6.67285e-08
6.57304e-08
4.37148e-05
0.000599355
1.05397e-07
2.30028e-08
4.1635e-08
3.4997e-08
3.47342e-08
3.24339e-08
3.19081e-08
3.14481e-08
3.85903e-05
0.00052238
4.67474e-08
1.23032e-08
2.08799e-08
1.88393e-08
1.71239e-08
1.71535e-08
1.64141e-08
1.69169e-08
6.26968e-05
0.000542104
3.66662e-08
1.00555e-08
9.89417e-09
1.2771e-08
1.07276e-08
9.89417e-09
1.05932e-08
1.07008e-08
4.34651e-05
0.000523697
4.783e-08
3.97537e-08
3.45041e-09
1.03019e-08
6.28468e-09
6.82689e-09
7.39374e-09
7.17193e-09
7.032e-05
0.000602971
2.03233e-05
3.64194e-06
3.89836e-06
3.73381e-06
3.54427e-06
3.3988e-06
3.30931e-06
3.27764e-06
3.29641e-06
3.50489e-06
6.03379e-06
1.9442e-06
1.95867e-06
1.84914e-06
1.75075e-06
1.67895e-06
1.63218e-06
1.61118e-06
2.90188e-06
1.37071e-05
1.79019e-06
8.79256e-07
8.04005e-07
7.5831e-07
7.22348e-07
6.93397e-07
6.71869e-07
6.59772e-07
5.94545e-06
0.000183729
7.80583e-07
3.53205e-07
3.52633e-07
3.34028e-07
3.18357e-07
3.05801e-07
2.9572e-07
2.89809e-07
1.17178e-05
0.000282378
3.96177e-07
1.34288e-07
1.6084e-07
1.51727e-07
1.44775e-07
1.3798e-07
1.33974e-07
1.30871e-07
1.87045e-05
0.000355442
1.54433e-07
6.58136e-08
7.74985e-08
6.99033e-08
6.64322e-08
6.48513e-08
6.25487e-08
6.10022e-08
3.41928e-05
0.000410929
9.83789e-08
2.29116e-08
3.8797e-08
3.29927e-08
3.22901e-08
3.10376e-08
2.97546e-08
2.94491e-08
3.43759e-05
0.000379271
4.73574e-08
1.29222e-08
1.98506e-08
1.78986e-08
1.63314e-08
1.60565e-08
1.61114e-08
1.54791e-08
6.29527e-05
0.000433488
3.18498e-08
1.29721e-08
7.44836e-09
1.28472e-08
1.01978e-08
1.02227e-08
1.01728e-08
1.00228e-08
4.88427e-05
0.000421473
4.99813e-08
3.67273e-08
6.87348e-10
8.66059e-09
6.8964e-09
6.82766e-09
6.02576e-09
7.12551e-09
7.53086e-05
0.000496484
1.86865e-05
2.99958e-06
3.23424e-06
3.10263e-06
2.94671e-06
2.82328e-06
2.74573e-06
2.71657e-06
2.72923e-06
2.89105e-06
5.51751e-06
1.62762e-06
1.6574e-06
1.57059e-06
1.48842e-06
1.4258e-06
1.38375e-06
1.3626e-06
1.35544e-06
6.01467e-08
1.53224e-06
7.7547e-07
7.01195e-07
6.59508e-07
6.27635e-07
6.02306e-07
5.83673e-07
5.71047e-07
2.83448e-06
8.40184e-05
7.07337e-07
3.18405e-07
3.12612e-07
2.95828e-07
2.8226e-07
2.71291e-07
2.61855e-07
2.55977e-07
7.37655e-06
0.000149677
3.67573e-07
1.23744e-07
1.43242e-07
1.36706e-07
1.29914e-07
1.25168e-07
1.20494e-07
1.17646e-07
1.1878e-05
0.000204481
1.45327e-07
5.95852e-08
6.98728e-08
6.42178e-08
6.15022e-08
5.85628e-08
5.68695e-08
9.33136e-06
2.58659e-05
0.00026615
8.94739e-08
2.15834e-08
3.60387e-08
3.08984e-08
2.92512e-08
2.84845e-08
2.80869e-08
2.72349e-08
2.60654e-05
0.000252741
4.42712e-08
1.23452e-08
1.73037e-08
1.6358e-08
1.53356e-08
1.52078e-08
1.41599e-08
4.66675e-06
5.5995e-05
0.000321456
2.41518e-08
1.72642e-08
6.0413e-09
1.12229e-08
9.85196e-09
9.01548e-09
9.59637e-09
9.31754e-09
4.38829e-05
0.000305175
4.96593e-08
3.36957e-08
6.60283e-10
7.34831e-09
6.21944e-09
6.45373e-09
6.04904e-09
7.37089e-07
6.97814e-05
0.000376277
1.65354e-05
2.40442e-06
2.61944e-06
2.52637e-06
2.40484e-06
2.30403e-06
2.23633e-06
2.2039e-06
2.20469e-06
2.31007e-06
4.91894e-06
1.31902e-06
1.35992e-06
1.29963e-06
1.23622e-06
1.18469e-06
1.14887e-06
1.13203e-06
1.12255e-06
1.05814e-06
1.28149e-06
6.69605e-07
5.97704e-07
5.57691e-07
5.31816e-07
5.09813e-07
4.94107e-07
4.82203e-07
6.33179e-07
3.47651e-05
6.14604e-07
2.79071e-07
2.71507e-07
2.55865e-07
2.44519e-07
2.34302e-07
2.2658e-07
2.20362e-07
4.25622e-06
7.44751e-05
3.31028e-07
1.13305e-07
1.24134e-07
1.2006e-07
1.14358e-07
1.09538e-07
1.06109e-07
1.03496e-07
7.2881e-06
0.000110738
1.37458e-07
5.16502e-08
6.13921e-08
5.6937e-08
5.465e-08
5.28085e-08
5.08779e-08
1.23688e-05
1.942e-05
0.000165143
8.35599e-08
1.75038e-08
3.24468e-08
2.80114e-08
2.66914e-08
2.61898e-08
2.48169e-08
2.43945e-08
1.73333e-05
0.000154256
3.90432e-08
1.25933e-08
1.55871e-08
1.55634e-08
1.43516e-08
1.36863e-08
1.36625e-08
7.22266e-06
4.69955e-05
0.000225828
1.14992e-08
2.05423e-08
4.70897e-09
1.0066e-08
8.94273e-09
8.51071e-09
8.1435e-09
8.66192e-09
3.41066e-05
0.000204855
4.78981e-08
2.92655e-08
2.25728e-09
6.35603e-09
5.90061e-09
5.4848e-09
5.74221e-09
6.1907e-07
5.91212e-05
0.000269203
1.44769e-05
1.87861e-06
2.05118e-06
1.98856e-06
1.89823e-06
1.82278e-06
1.77155e-06
1.74806e-06
1.74718e-06
1.82508e-06
4.36263e-06
1.05339e-06
1.09108e-06
1.04724e-06
9.98641e-07
9.56147e-07
9.2815e-07
9.10699e-07
9.02582e-07
8.40033e-07
1.0306e-06
5.69895e-07
5.01308e-07
4.61129e-07
4.39504e-07
4.22053e-07
4.08137e-07
3.98219e-07
3.90002e-07
1.24601e-05
5.2207e-07
2.33333e-07
2.28989e-07
2.16085e-07
2.0528e-07
1.97254e-07
1.90057e-07
1.85068e-07
1.53837e-06
3.35088e-05
2.81728e-07
1.02335e-07
1.06406e-07
1.02177e-07
9.78856e-08
9.41304e-08
9.05962e-08
8.80086e-08
4.05887e-06
5.67416e-05
1.27271e-07
4.48405e-08
5.34276e-08
4.92583e-08
4.78226e-08
4.55308e-08
4.39018e-08
1.07827e-05
1.457e-05
0.00010044
8.17847e-08
1.31552e-08
2.78075e-08
2.50587e-08
2.34388e-08
2.24571e-08
2.19662e-08
2.14263e-08
9.57293e-06
8.60075e-05
3.49431e-08
1.08898e-08
1.35847e-08
1.34963e-08
1.20606e-08
1.19943e-08
6.5423e-07
6.23345e-06
3.84949e-05
0.000154542
1.87144e-09
2.21492e-08
4.98005e-09
8.09258e-09
8.17291e-09
7.81145e-09
7.59056e-09
7.26927e-09
2.27365e-05
0.000126739
4.33367e-08
2.41506e-08
3.75512e-09
5.26453e-09
5.52223e-09
5.13568e-09
4.73071e-09
3.73027e-07
4.69529e-05
0.000184326
1.26831e-05
1.54202e-06
1.66175e-06
1.60372e-06
1.52673e-06
1.45945e-06
1.41191e-06
1.38604e-06
1.37907e-06
1.40977e-06
3.7056e-06
8.31833e-07
8.59709e-07
8.26982e-07
7.92227e-07
7.58653e-07
7.3491e-07
7.2092e-07
7.10268e-07
6.53055e-07
7.52437e-07
4.69135e-07
4.0981e-07
3.73033e-07
3.51902e-07
3.3798e-07
3.26604e-07
3.19293e-07
3.11121e-07
4.09958e-06
4.49103e-07
1.87807e-07
1.88423e-07
1.77368e-07
1.68487e-07
1.61163e-07
1.55618e-07
1.51186e-07
1.4583e-07
1.16386e-05
2.24502e-07
8.89444e-08
8.87684e-08
8.50428e-08
8.17866e-08
7.81784e-08
7.51275e-08
7.29274e-08
1.89764e-06
2.72618e-05
1.10797e-07
3.92725e-08
4.38672e-08
4.19677e-08
3.97859e-08
3.87335e-08
9.92594e-07
8.10541e-06
1.1021e-05
6.07742e-05
8.02531e-08
9.17215e-09
2.35236e-08
2.19949e-08
2.02152e-08
1.92113e-08
1.912e-08
1.80477e-08
3.13418e-06
4.17756e-05
3.36706e-08
9.17899e-09
1.06164e-08
1.20538e-08
1.11093e-08
1.05137e-08
1.06414e-05
4.04535e-06
3.14822e-05
0.000105282
1.46064e-08
2.21774e-08
5.05899e-09
7.29914e-09
6.94445e-09
6.14173e-09
6.77644e-09
6.66443e-09
1.1709e-05
6.97428e-05
3.58465e-08
1.75058e-08
5.23634e-09
3.95292e-09
4.68875e-09
4.31228e-09
4.32939e-09
1.34867e-06
3.55345e-05
0.000121991
8.80281e-06
1.07303e-06
1.09715e-06
1.06591e-06
1.03864e-06
1.00597e-06
9.89294e-07
1.00743e-06
1.0671e-06
1.18119e-06
3.00454e-06
6.3607e-07
6.44804e-07
6.23566e-07
6.00659e-07
5.80495e-07
5.61763e-07
5.52481e-07
5.45275e-07
4.91997e-07
5.1497e-07
3.69711e-07
3.24545e-07
2.93562e-07
2.76133e-07
2.63152e-07
2.53932e-07
2.47098e-07
1.07051e-06
2.86123e-06
3.84902e-07
1.43173e-07
1.48041e-07
1.40898e-07
1.33517e-07
1.27901e-07
1.23479e-07
1.18659e-07
1.1562e-07
1.62407e-07
1.71234e-07
7.36046e-08
7.24319e-08
6.8614e-08
6.53142e-08
6.27507e-08
6.10326e-08
5.86328e-08
7.0283e-07
1.23587e-05
8.75682e-08
3.44093e-08
3.60558e-08
3.42422e-08
3.27628e-08
3.13788e-08
6.70849e-06
5.64861e-06
8.56242e-06
3.72569e-05
7.75408e-08
6.17235e-09
1.81353e-08
1.78383e-08
1.67353e-08
1.63111e-08
1.50597e-08
1.52506e-08
1.47627e-08
1.45637e-05
2.29334e-06
8.03678e-09
8.85764e-09
9.73577e-09
9.22035e-09
1.20528e-05
1.4362e-05
1.66581e-06
2.63042e-05
7.29609e-05
2.25844e-08
1.88294e-08
6.2302e-09
5.53603e-09
6.17814e-09
6.02195e-09
5.241e-09
5.57073e-09
2.0257e-06
3.01807e-05
2.44582e-08
1.16447e-08
5.07469e-09
3.73841e-09
3.61114e-09
3.57933e-09
1.00563e-06
2.01519e-06
2.59911e-05
7.87342e-05
8.51404e-06
1.43784e-06
1.08545e-06
8.79339e-07
8.27889e-07
7.14578e-07
5.25563e-07
3.15252e-07
1.30407e-07
5.92672e-09
2.43292e-06
5.29933e-07
4.85367e-07
4.56263e-07
4.40113e-07
4.19416e-07
4.01781e-07
3.95303e-07
4.01869e-07
3.86313e-07
5.74826e-05
6.83821e-06
9.16685e-06
6.75698e-06
5.30571e-06
4.09808e-06
2.56469e-06
1.60393e-07
3.7797e-06
5.19471e-06
3.4075e-07
1.02471e-07
1.10723e-07
1.08268e-07
1.0253e-07
9.74727e-08
9.37755e-08
9.05663e-08
8.7017e-08
7.36665e-08
1.26275e-07
5.75747e-08
5.61804e-08
5.32142e-08
5.1186e-08
4.86508e-08
4.68761e-08
4.54564e-08
3.78736e-07
5.82613e-06
9.39468e-06
2.7862e-08
2.86384e-08
2.66419e-08
2.58877e-08
6.08536e-06
8.36222e-06
3.68905e-06
6.97491e-06
2.37327e-05
6.99876e-08
5.08733e-09
1.38226e-08
1.44141e-08
1.29549e-08
1.26395e-08
1.23634e-08
1.16338e-08
1.13578e-08
1.08465e-08
5.71272e-05
4.08184e-05
3.73092e-05
3.21557e-05
2.86714e-05
2.3475e-05
1.45745e-05
6.31438e-07
2.29928e-05
5.28371e-05
2.46928e-08
1.34228e-08
6.29194e-09
4.22689e-09
4.59796e-09
4.40436e-09
4.61409e-09
4.19463e-09
4.67862e-09
3.89877e-06
9.83463e-09
5.32395e-09
4.74719e-09
3.09085e-09
3.10564e-09
2.97254e-09
2.32251e-06
2.33491e-06
1.85071e-05
4.97855e-05
1.25893e-05
3.64439e-06
2.08027e-06
1.40918e-06
1.90027e-06
2.61843e-06
3.10681e-06
3.24761e-06
3.10777e-06
2.77317e-06
1.00229e-06
4.49441e-07
3.16304e-07
2.94114e-07
3.1983e-07
3.35853e-07
3.23851e-07
2.963e-07
2.59118e-07
1.97172e-07
0.00019787
0.000125357
6.70232e-05
3.6934e-05
1.94516e-05
9.5044e-06
3.19531e-06
1.71735e-06
7.64951e-06
9.48671e-06
3.03264e-07
6.62111e-08
7.73058e-08
7.67834e-08
7.45837e-08
7.23977e-08
6.90844e-08
6.70635e-08
6.39289e-08
5.41181e-08
9.37399e-08
4.1598e-08
4.16215e-08
3.95711e-08
3.74735e-08
3.63658e-08
3.44332e-08
8.35259e-08
7.52699e-07
3.80692e-06
3.67475e-05
2.83788e-05
1.83469e-05
1.42586e-05
1.29329e-05
1.12026e-05
7.87728e-06
2.12079e-06
5.98616e-06
1.6057e-05
5.83004e-08
4.60105e-09
1.01736e-08
1.08885e-08
1.07236e-08
9.58704e-09
9.33041e-09
9.01878e-09
8.79881e-09
7.91072e-09
0.000231101
3.26667e-05
6.99469e-05
5.97815e-05
4.32407e-05
2.75967e-05
1.28951e-05
2.95224e-06
2.14984e-05
4.12959e-05
1.77511e-08
7.19903e-09
5.30928e-09
4.19943e-09
3.6895e-09
3.32955e-09
3.19457e-09
3.50953e-09
3.02959e-09
3.47596e-09
2.70401e-09
2.37843e-09
2.90086e-09
2.63964e-09
2.1997e-09
2.5709e-09
2.08342e-06
2.24652e-06
1.24668e-05
3.01355e-05
6.15108e-05
6.72108e-06
1.34143e-06
8.51622e-06
1.13361e-05
1.11682e-05
9.51974e-06
7.30776e-06
4.99678e-06
2.71922e-06
2.4796e-06
1.27329e-06
6.25478e-07
2.89829e-07
2.23286e-07
2.59788e-07
2.98878e-07
3.00105e-07
2.39927e-07
8.39902e-08
0.00033541
0.000236337
0.000111995
5.56511e-05
2.52727e-05
9.43752e-06
5.46102e-07
5.49851e-06
1.27537e-05
1.53412e-05
2.64469e-07
4.67009e-08
4.96405e-08
5.03306e-08
4.86052e-08
4.757e-08
4.65859e-08
4.57168e-08
4.46304e-08
3.71486e-08
1.80398e-05
2.78255e-08
2.80008e-08
2.0948e-07
1.39145e-06
1.90406e-06
1.57179e-06
3.89558e-07
1.45471e-06
3.72287e-06
3.59888e-05
4.17565e-05
3.21583e-05
2.31925e-05
1.6539e-05
1.11375e-05
6.13766e-06
8.08716e-07
5.20303e-06
1.13755e-05
4.37986e-08
3.78311e-09
7.05498e-09
7.46397e-09
7.42988e-09
6.95273e-09
6.74824e-09
6.39038e-09
6.13477e-09
5.68959e-09
0.000503107
3.25031e-05
6.86694e-05
6.75134e-05
4.73918e-05
2.72835e-05
1.00311e-05
5.61277e-06
2.17294e-05
3.5759e-05
4.27097e-09
1.17118e-09
3.73663e-09
2.95584e-09
2.76064e-09
2.8443e-09
2.63516e-09
2.16111e-09
2.55151e-09
2.5333e-09
8.9887e-09
8.4353e-10
1.9299e-09
2.18551e-09
2.03214e-09
2.77982e-08
9.32421e-07
1.52248e-06
6.93133e-06
1.54979e-05
6.34578e-05
7.98877e-05
7.33674e-05
5.42629e-05
3.71651e-05
2.40536e-05
1.44662e-05
7.45714e-06
2.04381e-06
2.64013e-06
1.05972e-05
1.22536e-06
2.39387e-07
4.85226e-07
7.51561e-07
6.7129e-07
3.69721e-07
7.54234e-08
6.60793e-07
1.36328e-06
0.000480913
0.000357763
0.000151711
6.71824e-05
2.52657e-05
5.39206e-06
4.49522e-06
1.06535e-05
1.85066e-05
2.21585e-05
2.05843e-07
4.04207e-08
3.6084e-08
3.23057e-08
2.9264e-08
2.64481e-08
2.30025e-08
2.11371e-08
2.01509e-08
1.82272e-08
5.74674e-05
3.40269e-05
1.91226e-05
1.18297e-05
7.50368e-06
4.57967e-06
2.27226e-06
1.84353e-07
1.8866e-06
3.70703e-06
2.54227e-05
3.36455e-05
2.73443e-05
1.94835e-05
1.3055e-05
7.9612e-06
3.71778e-06
1.67814e-07
4.12131e-06
7.71355e-06
2.78515e-08
3.7387e-09
5.27536e-09
4.76842e-09
4.76842e-09
4.70505e-09
4.19811e-09
4.16643e-09
4.16643e-09
3.31163e-09
0.000854609
0.000139643
4.18737e-05
5.97905e-05
4.30737e-05
2.30416e-05
5.83658e-06
8.71953e-06
2.28314e-05
3.34063e-05
1.06397e-08
7.77695e-10
1.58131e-09
2.22939e-09
1.71093e-09
1.93128e-09
1.60724e-09
1.69797e-09
1.67204e-09
1.70315e-09
8.6407e-09
5.34665e-10
9.38634e-10
1.20003e-09
1.20003e-09
1.31884e-09
1.03369e-09
2.46421e-07
2.21171e-06
4.76703e-06
0.00218788
4.36153e-05
3.10949e-05
1.40526e-05
3.13392e-06
2.78531e-06
5.79807e-06
7.45204e-06
8.72254e-06
1.01709e-05
1.38457e-05
9.77042e-06
7.47618e-06
5.23901e-06
3.22931e-06
1.5668e-06
1.82614e-07
1.07733e-06
2.3928e-06
3.80185e-06
0.000546196
0.00045161
0.000170264
6.67027e-05
1.9662e-05
3.94175e-07
9.01923e-06
1.3912e-05
2.07648e-05
2.53718e-05
1.01455e-07
3.36222e-08
3.0165e-08
2.49074e-08
2.07985e-08
1.54636e-08
1.12442e-08
6.4947e-09
9.49906e-10
1.00212e-08
4.91037e-05
3.28135e-05
1.79566e-05
1.06409e-05
6.3028e-06
3.50634e-06
1.50844e-06
8.35033e-08
1.53294e-06
2.7184e-06
1.39804e-05
1.75903e-05
1.46295e-05
1.03415e-05
6.69012e-06
3.79909e-06
1.47317e-06
5.24464e-07
2.46999e-06
4.17056e-06
1.41464e-08
2.56254e-09
3.65235e-09
2.85708e-09
2.47417e-09
3.04853e-09
2.78344e-09
2.59199e-09
2.29745e-09
2.16266e-09
0.00108857
0.00023646
9.60951e-08
3.7088e-05
2.90622e-05
1.40394e-05
4.58579e-07
1.08371e-05
2.15619e-05
2.90226e-05
1.59384e-08
3.25338e-10
1.13266e-09
1.02421e-09
1.37365e-09
9.76013e-10
8.55518e-10
1.30135e-09
1.13266e-09
8.38517e-10
1.18826e-06
7.59991e-07
3.42408e-10
7.40043e-10
6.95861e-10
2.50013e-07
5.10298e-08
5.05482e-07
2.2335e-06
3.0763e-06
0.00208795
0.000624929
0.000435752
0.000295786
0.000206225
0.000141525
9.12716e-05
5.16374e-05
1.04269e-05
2.21655e-05
1.72259e-05
6.97213e-06
3.0642e-06
3.33814e-07
1.12289e-06
1.82722e-06
2.18554e-06
2.44159e-06
2.7087e-06
2.79375e-06
0.000282587
0.000368146
0.000120565
4.18323e-05
9.00349e-06
3.46081e-06
7.97665e-06
1.02875e-05
1.40284e-05
1.80646e-05
1.45959e-08
6.13012e-09
1.3092e-08
1.80618e-08
2.13168e-08
2.51776e-08
2.74058e-08
2.96135e-08
3.09278e-08
2.67019e-08
1.99829e-05
1.4627e-05
7.74335e-06
4.42777e-06
2.51246e-06
1.32541e-06
5.24471e-07
7.34558e-08
6.01077e-07
1.06401e-06
5.32961e-06
4.98836e-06
4.11348e-06
2.85859e-06
1.78249e-06
9.35706e-07
2.73191e-07
2.69325e-07
7.85426e-07
1.26433e-06
4.76762e-09
1.01313e-09
1.56077e-09
1.51969e-09
1.77982e-09
9.58366e-10
9.17293e-10
1.41017e-09
7.80384e-10
1.00023e-09
0.000727454
0.000191896
2.17719e-05
1.03374e-05
9.9863e-06
3.49475e-06
2.91224e-06
8.2392e-06
1.32287e-05
1.66358e-05
8.43684e-09
1.68025e-10
1.45622e-10
3.80857e-10
6.16093e-10
3.13647e-10
5.37681e-10
6.27294e-10
3.02445e-10
1.852e-11
8.08127e-05
0.00011871
7.51e-05
4.02052e-05
1.85431e-05
5.88526e-06
1.78857e-06
6.91888e-06
1.20192e-05
1.59417e-05
0.00443563
0.000688722
0.0005144
0.00038756
0.000290723
0.000214898
0.000154168
0.000104559
6.24772e-05
2.82488e-05
9.16302e-06
1.9507e-05
1.35131e-05
8.87875e-06
5.6911e-06
3.52633e-06
1.98618e-06
7.44664e-07
4.94619e-07
1.98595e-06
9.66071e-05
8.44372e-05
2.03782e-05
6.09014e-06
7.69741e-07
7.506e-07
9.99067e-07
1.00817e-06
1.31566e-06
2.26853e-06
1.5103e-08
1.21326e-08
5.8706e-09
5.91833e-10
4.11419e-09
1.03093e-08
1.3364e-08
1.85473e-08
2.17546e-08
2.72625e-08
1.68261e-06
1.76013e-06
9.07762e-07
5.16858e-07
2.97858e-07
1.68697e-07
8.90858e-08
3.77355e-08
9.81842e-10
2.86043e-08
7.42358e-07
4.02465e-07
3.17055e-07
2.17384e-07
1.35024e-07
7.43705e-08
2.9625e-08
7.87519e-10
2.3869e-08
3.98914e-08
1.7498e-09
4.83648e-10
4.83648e-10
1.40003e-10
6.23652e-10
3.81828e-11
8.40021e-10
2.03641e-10
1.27276e-11
3.81828e-10
5.52062e-05
3.06025e-05
4.85013e-06
2.89005e-07
5.72707e-07
1.67401e-07
9.37979e-07
1.53898e-06
2.01639e-06
2.21996e-06
5.66337e-09
9.37213e-11
4.26953e-10
2.91577e-10
6.24809e-11
5.72741e-10
4.16539e-11
3.12404e-11
1.04135e-11
2.7075e-10
0.000248554
0.000143813
7.85907e-05
3.78219e-05
1.41278e-05
6.34702e-07
7.2823e-06
1.23527e-05
1.64948e-05
1.98116e-05
0.514772
0.411587
0.52189
0.906031
0.673009
0.613242
0.727652
1.09903
0.838232
0.782057
0.927524
1.42602
0.608789
0.586615
0.695514
1.0887
0.445389
0.444908
0.528578
0.855874
0.295024
0.292401
0.363406
0.618567
0.196246
0.188045
0.252248
0.453352
0.126154
0.116934
0.168811
0.314516
0.0855442
0.0786773
0.120245
0.227806
0.062785
0.0584348
0.09574
0.181934
0.0340166
0.0017186
1.51389e-05
0.0183844
0.0760519
0.00634201
1.11808e-05
0.0400316
0.134038
0.0149495
5.9638e-06
0.0694618
0.12286
0.0167677
3.03886e-06
0.0596371
0.108839
0.0168006
1.55303e-06
0.0484763
0.0845261
0.0141317
7.91829e-07
0.0373784
0.0641034
0.0110359
4.15825e-07
0.0305272
0.0463708
0.00835246
2.36925e-07
0.023315
0.0354853
0.0071283
0.0010409
0.0185017
0.0295218
0.00814076
0.00378559
0.0154342
0.015861
0.0126229
0.0133804
0.0187615
0.0371802
0.0257596
0.0254053
0.0397446
0.073362
0.0478016
0.0484742
0.0785446
0.0698061
0.0424193
0.0440905
0.0741033
0.0643838
0.0367177
0.0392487
0.0694617
0.0518199
0.0279772
0.0306299
0.0566279
0.0406996
0.0208067
0.0234024
0.045526
0.0304837
0.0148026
0.0169822
0.0342441
0.0240431
0.0107039
0.012683
0.0265823
0.0204632
0.00867921
0.0107929
0.0219995
0.00173617
0.00127692
0.00124613
0.00183267
0.00579538
0.00400562
0.00373378
0.00613354
0.0158754
0.0108048
0.010314
0.0163712
0.0187358
0.0123827
0.0122497
0.0187769
0.0205834
0.0130996
0.0135429
0.0206531
0.0190608
0.0116927
0.0125084
0.0191292
0.0167883
0.00986407
0.0108805
0.0170124
0.013952
0.00789195
0.00889982
0.0141004
0.0118422
0.00614519
0.00724965
0.011744
0.0105498
0.00536981
0.00682631
0.0105891
0.000537577
0.000515097
0.000551634
0.000760759
0.00214126
0.00201128
0.00228217
0.00330785
0.00596564
0.00564645
0.00631718
0.00879223
0.00720665
0.00648429
0.00700211
0.00953534
0.00839309
0.00714447
0.00764252
0.0103622
0.00829003
0.00666524
0.00713904
0.00963301
0.00776676
0.00588609
0.00637081
0.00864437
0.00694392
0.00498058
0.00545239
0.00738927
0.00638722
0.00419896
0.00479337
0.00645837
0.0061612
0.00403372
0.00495052
0.00628883
9.63601e-05
9.36835e-05
9.57402e-05
0.000152132
0.000724944
0.000691574
0.00081811
0.00120124
0.00241716
0.00245914
0.00295852
0.00407758
0.00300981
0.00304534
0.00353595
0.00471019
0.00363285
0.00358977
0.00407524
0.00535503
0.0037466
0.0035538
0.00396669
0.00514592
0.00365042
0.00330332
0.00365562
0.00470141
0.00347935
0.00297893
0.00327688
0.00415717
0.003459
0.00272359
0.00307952
0.00378847
0.00346416
0.00268887
0.00323118
0.00373001
7.6938e-06
8.63274e-06
4.74932e-06
2.24321e-05
0.000258997
0.000243257
0.000293356
0.000450328
0.00116689
0.0011928
0.00147535
0.00206265
0.00150641
0.00158317
0.00190781
0.00254059
0.00185197
0.00195848
0.00231882
0.0030239
0.00195044
0.00202351
0.00234811
0.0030107
0.00191366
0.00193518
0.00221184
0.0027906
0.00190327
0.0018362
0.00206024
0.00255327
0.00198545
0.0017866
0.002021
0.00238467
0.0020068
0.00178447
0.00210076
0.0023337
1.22727e-05
4.44336e-06
4.26586e-06
4.39375e-06
7.37858e-05
6.23698e-05
7.46982e-05
0.000128304
0.000539922
0.000531807
0.000662342
0.000950201
0.000774841
0.000811616
0.000987817
0.00132161
0.00100027
0.00107431
0.00129264
0.00168764
0.00110534
0.00118158
0.00139717
0.00178968
0.00109277
0.00116164
0.00135433
0.00169576
0.00113039
0.00116074
0.00132234
0.00162395
0.00116273
0.00114054
0.00128834
0.00149204
0.0011957
0.00117481
0.00136057
0.00149234
9.93427e-06
3.47303e-06
3.33228e-06
3.45025e-06
1.27258e-05
6.36808e-06
6.12422e-06
2.04991e-05
0.000237725
0.000213527
0.000265163
0.000404971
0.000393995
0.000404649
0.000492651
0.00066407
0.000537959
0.000577633
0.000698501
0.000914484
0.000640929
0.000690646
0.000821422
0.00105365
0.000641376
0.00069743
0.000818964
0.00101959
0.000699346
0.000740344
0.000848645
0.001038
0.000683677
0.000708128
0.000796425
0.000916103
0.00073321
0.000770423
0.000880083
0.000962074
7.79698e-06
2.60353e-06
2.53033e-06
2.61492e-06
2.14246e-06
9.22029e-07
8.94287e-07
9.86715e-07
9.10529e-05
6.22888e-05
7.52857e-05
0.000140805
0.000193974
0.000191536
0.000231794
0.000316225
0.000279949
0.000296698
0.000359046
0.0004729
0.000366671
0.000393282
0.000467984
0.00060281
0.000366562
0.000403227
0.000474009
0.000586388
0.000432406
0.000463612
0.000532024
0.000650698
0.000403684
0.000431319
0.000482918
0.000554443
0.000457013
0.000499688
0.000564677
0.000616742
5.98137e-06
1.9636e-06
1.90206e-06
1.98127e-06
1.9475e-06
6.84795e-07
6.70172e-07
7.44672e-07
2.35464e-05
2.88026e-07
2.75988e-07
2.23995e-05
9.12012e-05
8.43283e-05
0.000100594
0.000139648
0.000140387
0.000144871
0.000175072
0.000233361
0.000208263
0.000219949
0.000261238
0.000339378
0.0002016
0.000223045
0.000261861
0.000321102
0.000266926
0.000285946
0.000327904
0.000402789
0.000235647
0.000255471
0.000284816
0.000326579
0.000285604
0.000318709
0.000357712
0.00039005
4.35148e-06
1.31044e-06
1.25431e-06
1.33717e-06
1.43702e-06
4.87205e-07
4.79388e-07
5.40293e-07
5.69473e-07
2.12359e-07
2.05143e-07
2.33019e-07
3.92343e-05
3.23783e-05
3.73586e-05
5.29231e-05
6.63275e-05
6.53596e-05
7.87192e-05
0.000107285
0.000117634
0.000121099
0.000143279
0.000188727
0.000104378
0.000116162
0.000136004
0.00016415
0.00016548
0.000175045
0.000200426
0.000248605
0.000131432
0.000143115
0.000158795
0.000181473
0.000176758
0.000198869
0.000222657
0.000241769
4.49138e-06
1.4372e-06
1.34145e-06
1.37731e-06
1.02174e-06
3.3276e-07
3.21932e-07
3.65636e-07
4.15029e-07