/*--------------------------------*- C++ -*----------------------------------*\
| =========                 |                                                 |
| \\      /  F ield         | foam-extend: Open Source CFD                    |
|  \\    /   O peration     | Version:     4.0                                |
|   \\  /    A nd           | Web:         http://www.foam-extend.org         |
|    \\/     M anipulation  |                                                 |
\*---------------------------------------------------------------------------*/
FoamFile
{
    version     2.0;
    format      ascii;
    class       volScalarField;
    location    "2350";
    object      epsilon;
}
// * * * * * * * * * * * * * * * * * * * * * * * * * * * * * * * * * * * * * //

dimensions      [0 2 -3 0 0 0 0];

internalField   nonuniform List<scalar> 
34480
(
4930.66
4928.63
4928.52
4930.02
4933.23
4938.4
4951.02
5004.66
5194.51
5725.82
655.453
602.153
601.234
653.207
838.752
1576.06
5099.51
22849.7
103709
382385
618.831
523.172
509.522
569.16
809.961
1829.12
7041.66
35119.1
172535
699243
524.851
439.441
427.401
485.104
733.823
1883.42
8219.38
44412.6
232219
1.01098e+06
456.691
384.81
377.372
433.137
684.833
1927.56
9178
52591.6
289186
1.33362e+06
392.518
332.834
326.599
378.469
628.37
1956.27
10121.4
61045.7
350635
1.6987e+06
353.279
302.783
298.385
346.405
591.48
1962.77
10725.7
67199.7
400352
2.02276e+06
321.371
282.11
277.707
317.498
534.192
1820.49
10350.3
66983.5
412651
2.16763e+06
460.053
435.969
433.359
458.767
597.088
1410.12
6840.88
43695.7
275986
1.49852e+06
5709.13
5709.36
5714.81
5726.77
5743.59
5763.66
5787.87
5823.82
5890.22
5958.88
4856.08
4853.56
4853.07
4854.56
4858.57
4865.58
4876.71
4902.83
4965.47
5186
512.076
479.206
473.57
487.691
532.095
648.537
1002.86
2354.52
11801.2
103647
447.062
383.99
370.29
389.696
458.49
645.766
1229.69
3567.11
21358.1
197643
399.657
338.715
325.255
344.963
416.431
620.179
1294.47
4289.54
30234.6
294758
365.88
311.146
300.607
319.817
390.768
598.909
1321.82
4812.2
38717.1
396504
326.354
278.97
269.161
286.446
352.227
554.129
1294.1
5180.4
47348.9
508568
302.548
260.851
252.671
267.933
328.925
521.446
1256.15
5361.05
54216.5
607815
283.114
249.964
242.287
253.905
301.557
456.633
1074.63
4827.94
54992.2
652022
432.849
410.959
405.855
413.319
443.438
531.673
848.119
2980.64
36399.7
467545
5591.66
5587.34
5587.85
5594.49
5606.17
5620.75
5640.11
5673.13
5740.79
5913.68
4770.94
4768.54
4767.79
4768.61
4771.23
4775.38
4780.2
4790.99
4815.06
4870.11
399.894
386.449
383.785
388.543
403.676
439.042
527.091
758.598
1516.82
5758.43
308.147
276.916
270.08
279.258
309.669
379.288
550.404
1030.15
2859.5
14988.3
290.279
256.454
248.78
259.357
294.515
378.435
597.223
1279.79
4409.2
28919.5
280.872
247.911
241.462
252.418
289.528
380.315
629.026
1481.33
6140.46
47809.8
261.345
231.09
224.598
234.996
270.693
361.659
625.222
1625.61
8150.84
73153.1
250.551
222.528
216.936
226.426
260.516
349.176
617.177
1724.52
10165.4
101599
243.074
220.105
214.691
222.316
249.652
322.178
549.933
1594.44
11043.3
122897
402.72
386.377
382.626
388.274
408.707
461.613
607.12
1235.54
7680.95
92096.9
5481.98
5474.88
5472.59
5476.17
5484.97
5496.96
5513.46
5544.24
5616.72
5802.13
4674.93
4673.42
4672.99
4673.63
4675.43
4677.72
4678.72
4681.53
4688.93
4705.05
328.462
324.342
323.522
324.616
328.697
339.05
365.06
421.603
541.209
940.361
219.315
206.06
203.209
207.252
220.644
248.935
309.072
445.235
772.13
2085.81
214.442
197.721
193.787
199.309
217.266
256.757
345.543
565.534
1169.54
4141.62
217.575
199.536
195.948
202.147
222.751
269.297
379.53
675.974
1611.22
7155.34
210.714
192.767
188.728
195.119
216.346
266.425
392.094
761.67
2117.71
11600
208.509
190.727
187.081
193.232
214.628
266.157
401.07
827.403
2633.58
17124.1
209.982
194.705
190.982
196.274
214.344
258.894
379.79
795.206
2860.91
21851.2
375.686
363.701
360.867
365.059
380.021
416.994
508.748
782.7
2181.16
16545.6
5359.99
5352.91
5350.35
5353.41
5361.68
5374.06
5391.2
5422.06
5488.87
5632.08
4569.52
4568.84
4568.69
4569.09
4570.06
4570.77
4569.46
4568.33
4568.27
4570.03
285.51
284.77
284.67
284.439
284.433
286.168
293.405
307.379
329.715
375.955
167.904
162.886
161.844
163.263
168.296
178.517
198.299
237.433
308.115
484.225
166.469
158.744
156.783
159.281
167.537
184.772
219.57
294.213
443.138
889.755
173.915
164.606
162.673
165.763
176.212
198.551
246.034
356.47
601.428
1498
173.615
163.422
160.93
164.475
176.21
202.438
261.459
410.918
783.894
2434.99
176.091
165.19
162.818
166.443
179.076
207.879
275.356
457.575
966.542
3640.79
183.352
173.472
170.903
174.282
185.608
212.175
276.679
463.595
1058.7
4746.69
351.356
342.755
340.572
343.46
354.002
379.253
438.178
581.546
1009.51
3814.42
5230.32
5223.39
5220.67
5223.25
5230.87
5242.96
5259.62
5288
5343.68
5446.04
4455.71
4455.65
4455.73
4455.95
4456.32
4455.99
4453.97
4451.88
4450.1
4449.03
259.798
259.88
259.963
259.443
258.449
258.048
259.945
263.299
268.032
275.304
139.443
137.796
137.527
137.912
139.527
142.77
148.673
159.186
175.182
203.046
137.536
134.156
133.231
134.277
137.829
144.897
157.837
182.367
222.508
303.002
145.045
140.512
139.562
140.989
145.959
156.012
175.323
215.179
286.343
458.04
147.36
141.839
140.386
142.25
148.409
161.438
187.866
247.285
364.058
701.814
151.78
145.379
143.932
145.958
153.084
168.448
200.808
278.31
444.179
1014.1
162.269
156.168
154.492
156.57
163.398
178.658
212.134
297.465
500.459
1320.61
329.478
323.582
321.975
323.927
331.267
348.546
387.052
467.613
640
1290.61
5092.36
5085.83
5083.13
5085.34
5092.25
5103.53
5119.02
5143.94
5187.01
5254.27
4334.2
4334.55
4334.78
4334.88
4334.86
4333.9
4332.03
4330.03
4328.21
4326.87
243.796
243.751
243.776
243.301
242.371
241.926
242.288
243.018
244.121
245.925
123.984
123.571
123.578
123.616
124.002
124.85
126.394
128.975
132.496
137.195
120.666
119.23
118.807
119.221
120.694
123.516
128.269
136.263
147.555
163.746
126.665
124.562
124.139
124.752
127.005
131.345
138.962
152.943
174.381
210.558
129.506
126.628
125.817
126.75
129.857
136.115
147.66
170.703
209.287
285.813
134.271
130.643
129.805
130.876
134.75
142.686
157.838
190.044
247.847
381.56
146.168
142.566
141.524
142.75
146.712
155.22
172.351
210.934
286.97
489.92
310.146
306.297
305.139
306.431
311.511
323.501
349.139
396.33
480.001
667.557
4945.89
4939.96
4937.42
4939.29
4945.41
4955.45
4969.2
4990.2
5022.65
5066.5
4205.5
4206.11
4206.43
4206.45
4206.21
4205.13
4203.64
4202.05
4200.61
4199.54
232.908
232.484
232.379
232.027
231.434
231.25
231.268
231.417
231.804
232.795
115.6
115.578
115.657
115.607
115.614
115.727
115.999
116.502
117.191
117.984
111.052
110.448
110.255
110.414
111.02
112.153
113.943
116.657
120.074
123.797
115.291
114.363
114.2
114.444
115.431
117.257
120.249
125.186
131.929
140.366
117.753
116.306
115.871
116.322
117.846
120.797
125.851
134.851
148.241
167.56
122.084
120.09
119.631
120.171
122.221
126.249
133.355
146.775
167.941
202.425
134.228
132.209
131.593
132.292
134.515
139.158
147.945
165.501
195.875
252.191
293.166
290.805
289.975
290.831
294.383
302.955
320.351
348.999
394.125
462.636
4790.75
4785.57
4783.29
4784.86
4790.1
4798.62
4810.31
4827.3
4851.17
4880.1
4069.95
4070.7
4071.07
4071.05
4070.69
4069.8
4068.7
4067.55
4066.52
4065.73
224.503
223.703
223.467
223.231
222.983
222.931
222.911
222.974
223.259
224.151
111.006
111.069
111.144
111.088
111.013
110.939
110.888
110.889
110.952
111.059
105.703
105.441
105.349
105.411
105.666
106.137
106.846
107.834
108.975
109.978
108.445
108.057
108.009
108.098
108.518
109.273
110.455
112.241
114.483
116.708
110.262
109.56
109.336
109.547
110.278
111.652
113.889
117.508
122.461
128.096
113.878
112.81
112.572
112.832
113.899
115.928
119.31
125.064
133.301
143.386
125.601
124.54
124.196
124.584
125.795
128.287
132.823
140.975
153.818
171.853
278.193
276.87
276.263
276.846
279.401
285.763
297.753
315.702
341.524
371.322
4626.91
4622.58
4620.64
4621.92
4626.26
4633.15
4642.68
4655.9
4672.98
4691.96
3927.95
3928.61
3929
3928.97
3928.61
3927.99
3927.23
3926.43
3925.73
3925.16
216.926
216.031
215.685
215.536
215.482
215.46
215.461
215.538
215.834
216.725
108.393
108.455
108.506
108.465
108.394
108.299
108.2
108.116
108.072
108.077
102.81
102.685
102.638
102.663
102.778
102.988
103.292
103.688
104.116
104.434
104.449
104.293
104.289
104.317
104.494
104.807
105.281
105.948
106.729
107.391
105.648
105.322
105.21
105.307
105.651
106.284
107.281
108.777
110.712
112.635
108.536
107.972
107.855
107.978
108.53
109.556
111.196
113.759
117.161
120.57
119.492
118.985
118.807
119.019
119.661
120.985
123.325
127.18
132.825
139.522
264.782
264.156
263.688
264.11
266.035
270.902
279.253
290.78
306.139
320.302
4454.51
4451.06
4449.48
4450.5
4453.94
4459.28
4466.73
4476.63
4488.52
4500.77
3779.62
3780.14
3780.47
3780.44
3780.21
3779.79
3779.28
3778.75
3778.29
3777.87
209.481
208.599
208.258
208.151
208.116
208.112
208.133
208.227
208.539
209.427
106.793
106.836
106.869
106.84
106.787
106.714
106.635
106.566
106.529
106.536
101.295
101.227
101.2
101.212
101.269
101.371
101.516
101.695
101.88
101.999
102.197
102.133
102.139
102.147
102.225
102.362
102.563
102.829
103.116
103.339
102.916
102.77
102.716
102.761
102.92
103.209
103.654
104.284
105.066
105.813
105.178
104.878
104.824
104.882
105.173
105.703
106.52
107.712
109.19
110.496
115.214
115.009
114.926
115.043
115.377
116.078
117.268
119.1
121.602
124.39
252.451
252.275
251.884
252.217
253.757
257.509
263.346
270.862
280.268
287.088
4273.85
4271.23
4270.02
4270.79
4273.38
4277.37
4282.97
4290.1
4298.14
4305.89
3625.1
3625.52
3625.77
3625.76
3625.62
3625.35
3625.02
3624.67
3624.37
3624.05
201.821
200.966
200.655
200.561
200.535
200.539
200.57
200.67
200.985
201.856
105.698
105.721
105.739
105.72
105.685
105.639
105.588
105.546
105.532
105.552
100.53
100.488
100.472
100.478
100.509
100.563
100.638
100.728
100.821
100.874
100.978
100.947
100.95
100.953
100.993
101.062
101.161
101.283
101.404
101.494
101.368
101.306
101.28
101.301
101.375
101.506
101.704
101.973
102.295
102.62
103.14
102.975
102.95
102.981
103.142
103.429
103.854
104.44
105.119
105.681
112.203
112.15
112.119
112.185
112.359
112.725
113.312
114.17
115.246
116.503
240.734
240.835
240.479
240.766
242.079
244.888
248.947
253.872
259.756
262.811
4085.33
4083.46
4082.59
4083.15
4084.99
4087.87
4091.92
4096.86
4102.13
4106.94
3464.59
3464.93
3465.13
3465.13
3465.05
3464.88
3464.66
3464.44
3464.25
3463.98
193.767
192.947
192.664
192.581
192.559
192.565
192.597
192.695
193.002
193.847
104.848
104.856
104.863
104.852
104.831
104.804
104.776
104.755
104.76
104.789
100.159
100.133
100.124
100.127
100.143
100.172
100.211
100.259
100.311
100.338
100.35
100.328
100.326
100.328
100.353
100.397
100.457
100.527
100.591
100.641
100.535
100.509
100.497
100.507
100.541
100.601
100.69
100.806
100.941
101.099
101.942
101.844
101.831
101.852
101.948
102.115
102.352
102.664
103.001
103.281
110.018
110.035
110.032
110.072
110.165
110.346
110.619
111.003
111.418
112.027
229.209
229.476
229.123
229.389
230.526
232.496
235.278
238.49
242.216
243.257
3889.53
3888.28
3887.7
3888.09
3889.31
3891.36
3894.16
3897.46
3900.79
3903.72
3298.38
3298.67
3298.82
3298.83
3298.78
3298.68
3298.54
3298.4
3298.28
3298.04
185.211
184.43
184.175
184.103
184.082
184.087
184.115
184.204
184.498
185.309
104.114
104.113
104.114
104.107
104.096
104.082
104.069
104.063
104.079
104.114
99.9895
99.9743
99.9703
99.9718
99.9792
99.9922
100.011
100.034
100.064
100.08
100.045
100.025
100.02
100.021
100.04
100.073
100.117
100.167
100.21
100.245
100.114
100.102
100.096
100.101
100.118
100.146
100.187
100.239
100.296
100.382
101.253
101.188
101.181
101.197
101.26
101.366
101.509
101.691
101.876
102.044
108.329
108.384
108.393
108.42
108.468
108.549
108.66
108.813
108.924
109.246
217.324
217.838
217.514
217.773
218.586
219.932
221.793
223.857
226.219
226.178
3687.21
3686.36
3686.02
3686.26
3687.09
3688.47
3690.32
3692.43
3694.44
3696.19
3126.88
3127.13
3127.24
3127.25
3127.23
3127.16
3127.08
3126.99
3126.91
3126.69
176.069
175.332
175.106
175.044
175.023
175.025
175.047
175.125
175.401
176.174
103.438
103.433
103.429
103.425
103.42
103.415
103.412
103.414
103.437
103.475
99.9214
99.9142
99.9136
99.9141
99.9159
99.9192
99.9249
99.9341
99.9505
99.9613
99.9113
99.893
99.885
99.8866
99.9014
99.9278
99.9623
100
100.034
100.062
99.9195
99.9129
99.9091
99.9115
99.9203
99.9351
99.9549
99.9792
100.004
100.056
100.853
100.807
100.801
100.815
100.86
100.931
101.025
101.14
101.253
101.373
106.922
106.989
107.009
107.025
107.046
107.076
107.108
107.153
107.128
107.32
204.842
205.496
205.299
205.481
206.024
206.909
208.106
209.401
210.876
210.285
3479.12
3478.58
3478.36
3478.52
3479.06
3479.95
3481.12
3482.39
3483.54
3484.56
2950.62
2950.83
2950.91
2950.92
2950.91
2950.87
2950.82
2950.76
2950.7
2950.5
166.262
165.572
165.376
165.327
165.304
165.304
165.319
165.383
165.637
166.371
102.797
102.788
102.782
102.78
102.778
102.779
102.782
102.79
102.815
102.856
99.9046
99.9026
99.9041
99.9038
99.9024
99.9001
99.8985
99.8994
99.9073
99.9167
99.8647
99.8484
99.84
99.841
99.8524
99.8728
99.8994
99.9285
99.9547
99.9785
99.845
99.8398
99.8367
99.8378
99.8429
99.8514
99.8622
99.8747
99.8866
99.9198
100.607
100.572
100.567
100.578
100.61
100.66
100.724
100.8
100.875
100.969
105.657
105.722
105.745
105.756
105.764
105.77
105.767
105.765
105.687
105.818
191.595
192.298
192.203
192.326
192.669
193.216
193.937
194.72
195.603
194.783
3266.15
3265.82
3265.69
3265.8
3266.13
3266.66
3267.35
3268.07
3268.68
3269.26
2770.32
2770.49
2770.55
2770.56
2770.56
2770.54
2770.5
2770.46
2770.42
2770.24
155.694
155.055
154.886
154.85
154.833
154.831
154.84
154.888
155.115
155.807
102.185
102.174
102.167
102.165
102.166
102.169
102.176
102.186
102.211
102.254
99.9137
99.914
99.916
99.9154
99.9126
99.908
99.9032
99.9003
99.9033
99.913
99.861
99.8473
99.84
99.8403
99.8484
99.8629
99.8819
99.903
99.9229
99.9423
99.8324
99.8276
99.825
99.8253
99.8283
99.8334
99.8395
99.8464
99.8524
99.8737
100.43
100.403
100.398
100.407
100.429
100.463
100.506
100.556
100.606
100.683
104.458
104.51
104.532
104.54
104.542
104.539
104.524
104.506
104.416
104.517
177.436
178.119
178.103
178.182
178.378
178.68
179.06
179.501
179.975
179.133
3049.37
3049.19
3049.12
3049.18
3049.36
3049.66
3050.03
3050.4
3050.69
3051
2586.97
2587.12
2587.16
2587.18
2587.17
2587.16
2587.14
2587.1
2587.06
2586.9
144.231
143.653
143.513
143.489
143.484
143.481
143.484
143.516
143.706
144.352
101.609
101.596
101.588
101.586
101.588
101.593
101.601
101.611
101.633
101.677
99.9327
99.9326
99.934
99.9331
99.9303
99.926
99.9212
99.9177
99.9184
99.929
99.8783
99.8679
99.8623
99.8622
99.8672
99.8764
99.8887
99.9026
99.9166
99.9315
99.8521
99.8482
99.8461
99.8459
99.8474
99.85
99.8531
99.8563
99.8592
99.8716
100.273
100.253
100.249
100.254
100.268
100.289
100.315
100.345
100.377
100.436
103.291
103.328
103.345
103.35
103.35
103.343
103.325
103.304
103.225
103.304
162.208
162.816
162.864
162.911
162.998
163.119
163.249
163.454
163.628
162.904
2830.08
2829.99
2829.95
2829.98
2830.07
2830.22
2830.4
2830.56
2830.68
2830.83
2401.73
2401.84
2401.87
2401.88
2401.88
2401.87
2401.85
2401.83
2401.8
2401.68
131.646
131.153
131.061
131.051
131.05
131.046
131.042
131.056
131.188
131.768
101.087
101.072
101.065
101.062
101.064
101.069
101.076
101.085
101.102
101.142
99.9496
99.9477
99.9479
99.9469
99.9449
99.9421
99.9391
99.937
99.9374
99.9479
99.9083
99.9014
99.8978
99.8975
99.9002
99.9053
99.9121
99.9202
99.929
99.9392
99.89
99.8876
99.8863
99.8859
99.8862
99.887
99.8878
99.8885
99.8893
99.895
100.119
100.106
100.103
100.105
100.112
100.123
100.136
100.151
100.168
100.208
102.169
102.188
102.199
102.2
102.196
102.187
102.17
102.151
102.097
102.157
145.451
145.928
145.962
145.998
146.058
146.138
146.22
146.279
146.211
145.692
2609.71
2609.66
2609.65
2609.66
2609.69
2609.74
2609.79
2609.84
2609.87
2609.94
2215.02
2215.09
2215.1
2215.1
2215.1
2215.1
2215.09
2215.09
2215.09
2215.03
117.389
117.051
117.02
117.025
117.027
117.022
117.012
117.005
117.05
117.478
100.625
100.609
100.602
100.598
100.599
100.602
100.608
100.617
100.63
100.662
99.9659
99.9636
99.963
99.9623
99.9614
99.9603
99.9592
99.9586
99.9593
99.9663
99.9506
99.9469
99.9451
99.9449
99.9461
99.9485
99.9517
99.9556
99.9601
99.9657
99.9406
99.9395
99.9389
99.9386
99.9385
99.9383
99.938
99.9376
99.9373
99.9386
100.009
100.004
100.002
100.003
100.006
100.01
100.014
100.019
100.026
100.045
101.125
101.127
101.129
101.128
101.122
101.113
101.1
101.087
101.069
101.111
125.762
126.044
126.062
126.082
126.115
126.157
126.2
126.223
126.174
125.833
2388.98
2388.96
2388.97
2388.97
2388.97
2388.97
2388.97
2388.97
2388.95
2388.99
7183.96
7294.27
7250.52
7044.07
658915
683863
689427
697310
1.49739e+06
1.5841e+06
1.59161e+06
1.57172e+06
2.52527e+06
2.70357e+06
2.70103e+06
2.61952e+06
3.76096e+06
4.05609e+06
4.02976e+06
3.86819e+06
5.30804e+06
5.75137e+06
5.69984e+06
5.48697e+06
6.86853e+06
7.46749e+06
7.40369e+06
7.20698e+06
7.88291e+06
8.61084e+06
8.55615e+06
8.42812e+06
5.61972e+06
6.17917e+06
6.11511e+06
6.08129e+06
7903.63
8151.38
7989.02
7569.79
5749.32
5802.11
5804.64
5765.5
308552
324672
345347
377327
689323
780866
824930
861814
1.17797e+06
1.40289e+06
1.4661e+06
1.49203e+06
1.76356e+06
2.1776e+06
2.25151e+06
2.26498e+06
2.45885e+06
3.11246e+06
3.21171e+06
3.2476e+06
3.13177e+06
4.04031e+06
4.20109e+06
4.31991e+06
3.57331e+06
4.70406e+06
4.94534e+06
5.18022e+06
2.80678e+06
3.81859e+06
4.00717e+06
4.32032e+06
7126.36
7357.95
7287
7066.65
4937.9
4948.86
4948
4938.29
21660.9
25960.1
24596.9
19966.4
61569.7
73409.7
68678.8
55731.2
128749
152839
140888
114033
228361
270537
246271
199440
372380
441934
401383
326406
545331
648543
591611
485408
702806
839402
769575
636848
584458
696871
629356
524656
6344.36
6431.66
6409.35
6314.02
4716.01
4718.14
4718.69
4717.89
1594.3
1711.28
1679.86
1544.98
4698.13
5172.43
5012.6
4434.6
11230.6
12505
11926.4
10213.7
22554.8
25253.9
23699.7
19746.1
41691.7
46923.4
43528.3
35537.3
68295.7
76986.2
70797.4
57130
97161
109915
100445
80430.4
83358.7
93766.4
84200.2
67266.9
5904.03
5945.73
5942.84
5904.92
4568.01
4568.92
4569.13
4568.6
423.282
436.213
438.466
431.552
710.109
757.05
761.564
731.376
1595.03
1736.82
1729.31
1610.3
3203.62
3529.32
3458.54
3118.66
6140.13
6823.41
6583.16
5758.29
10498.3
11693.9
11109.3
9472.8
15692.3
17555.8
16464
13724.8
13860.5
15397.4
14114.1
11586.5
5578.73
5600.76
5602.24
5586.63
4444.97
4445.71
4445.79
4445.16
275.585
278.458
279.17
277.911
226.357
231.458
233.286
232.246
385.582
403.074
407.312
400.544
674.049
717.86
722.113
696.121
1215.16
1316.48
1312.65
1233.52
2023.65
2211.46
2175.78
1991.42
3046.99
3360.52
3261.99
2904.59
2929.02
3183.36
3023.49
2664.2
5318.18
5328.96
5331.1
5325.53
4322.63
4323.35
4323.4
4322.77
241.775
243.68
244.08
243.022
140.134
140.888
141.241
141.227
175.865
178.564
179.693
179.438
243.199
250.227
252.463
250.763
368.971
386.596
390.325
383.184
549.225
582.689
585.332
565.813
795.528
854.994
852.151
807.142
984.699
1029.74
1010.28
962.513
5095.79
5100.67
5102.52
5101.27
4195.51
4196.21
4196.26
4195.66
228.094
229.812
230.151
229.141
118.189
118.327
118.381
118.358
125.852
126.302
126.527
126.554
146.029
147.259
147.803
147.781
183.405
186.917
188.184
187.623
233.788
240.342
242.098
240.311
314.614
327.188
329.128
323.572
543.036
548.7
546.185
542.495
4893.67
4895.68
4896.96
4897.16
4061.96
4062.62
4062.67
4062.11
219.49
221.145
221.473
220.498
110.888
110.945
110.954
110.915
110.346
110.419
110.457
110.465
117.765
117.975
118.086
118.118
131.711
132.522
132.875
132.842
149.878
151.235
151.776
151.735
187.359
190.301
191.147
190.487
400.187
397.211
396.465
399.124
4698.46
4699.15
4699.92
4700.41
3921.66
3922.27
3922.32
3921.81
212.195
213.794
214.115
213.177
107.868
107.917
107.921
107.881
104.484
104.491
104.494
104.494
107.574
107.596
107.61
107.622
113.656
113.877
113.977
113.969
121.96
122.212
122.351
122.429
144.58
145.283
145.546
145.485
335.33
330.249
329.469
332.885
4503.81
4503.91
4504.34
4504.79
3774.64
3775.2
3775.24
3774.77
205.055
206.595
206.907
206.006
106.338
106.386
106.391
106.353
101.988
101.986
101.984
101.983
103.358
103.35
103.347
103.349
106.198
106.277
106.31
106.296
110.766
110.778
110.805
110.857
126.729
126.859
126.912
126.907
297.591
292.081
291.175
294.49
4307.1
4306.97
4307.2
4307.54
3621.09
3621.59
3621.63
3621.2
197.657
199.135
199.437
198.575
105.37
105.417
105.423
105.388
100.853
100.851
100.849
100.848
101.489
101.481
101.476
101.476
102.817
102.856
102.869
102.856
105.715
105.685
105.683
105.713
117.998
117.976
117.958
117.946
271.427
265.973
265.02
268.134
4107.12
4106.94
4107.05
4107.27
3461.3
3461.74
3461.77
3461.39
189.834
191.247
191.537
190.716
104.624
104.668
104.674
104.641
100.318
100.317
100.316
100.316
100.637
100.632
100.629
100.627
101.224
101.249
101.256
101.244
103.288
103.261
103.254
103.27
113.192
113.133
113.092
113.071
250.819
245.571
244.625
247.548
3903.26
3903.13
3903.18
3903.29
3295.66
3296.02
3296.04
3295.72
181.495
182.841
183.12
182.341
103.966
104.007
104.013
103.983
100.064
100.064
100.064
100.064
100.245
100.243
100.241
100.239
100.469
100.488
100.492
100.482
102.072
102.055
102.049
102.055
110.241
110.18
110.134
110.104
232.984
227.995
227.085
229.83
3695.34
3695.31
3695.33
3695.34
3124.61
3124.91
3124.92
3124.64
172.573
173.852
174.119
173.384
103.349
103.387
103.392
103.365
99.9513
99.9523
99.9524
99.9515
100.065
100.064
100.063
100.061
100.119
100.132
100.135
100.127
101.425
101.419
101.416
101.415
108.201
108.151
108.107
108.067
216.46
211.759
210.902
213.474
3483.46
3483.54
3483.55
3483.47
2948.76
2948.98
2948.97
2948.74
163
164.211
164.468
163.779
102.757
102.792
102.798
102.772
99.9134
99.9155
99.9157
99.9142
99.9827
99.9828
99.9821
99.9809
99.9645
99.9738
99.975
99.9684
101.04
101.043
101.042
101.035
106.605
106.574
106.534
106.484
200.393
196.011
195.223
197.613
3268
3268.19
3268.2
3268.04
2768.85
2769.01
2768.98
2768.8
152.691
153.837
154.086
153.445
102.191
102.224
102.229
102.205
99.9167
99.9199
99.9203
99.918
99.9476
99.9482
99.9479
99.9471
99.9035
99.9095
99.9099
99.9049
100.761
100.771
100.771
100.761
105.208
105.199
105.166
105.106
184.224
180.216
179.513
181.699
3049.65
3049.93
3049.94
3049.73
2585.93
2586
2585.95
2585.82
141.542
142.634
142.878
142.281
101.648
101.68
101.685
101.662
99.9387
99.9428
99.9432
99.9401
99.9374
99.9385
99.9386
99.9381
99.889
99.8924
99.8923
99.8891
100.511
100.524
100.525
100.514
103.876
103.891
103.867
103.8
167.523
164.009
163.415
165.335
2829.46
2829.79
2829.81
2829.58
2401.16
2401.14
2401.08
2401.02
129.373
130.425
130.665
130.103
101.141
101.169
101.172
101.151
99.9598
99.9641
99.9645
99.9613
99.9448
99.946
99.9464
99.9462
99.9026
99.904
99.9038
99.9023
100.268
100.28
100.281
100.272
102.554
102.58
102.566
102.506
149.615
146.669
146.228
147.864
2608.74
2609.11
2609.12
2608.88
2215.02
2214.86
2214.8
2214.85
115.752
116.733
116.939
116.406
100.666
100.683
100.684
100.67
99.9738
99.9765
99.9767
99.9747
99.9697
99.9706
99.9711
99.9712
99.9404
99.9405
99.9404
99.9402
100.077
100.084
100.085
100.08
101.287
101.296
101.289
101.264
128.33
126.309
126.073
127.23
2388.2
2388.59
2388.6
2388.34
6105.82
5442.89
5173.15
5077.01
5022.2
4983.68
4958.08
4943.7
4935.72
4930.98
798399
193285
33404
11732.5
5300.84
2836.39
1749.38
1212.55
928.328
765.139
1.42407e+06
247051
44254.5
15129.5
6776.54
3637.48
2200.57
1460.49
1048.29
803.046
1.99549e+06
239538
46768.7
15018.3
6483.3
3391.22
2000.59
1297.53
912.95
688.607
2.45866e+06
252614
48935.4
14561.3
6098.4
3102.3
1792.1
1144.48
795.523
596.728
2.9304e+06
276401
51143.7
13975
5638.72
2768.68
1561.59
981.234
677.414
508.3
3.31261e+06
294976
52002.9
13162.7
5158.85
2467.95
1375.83
861.575
595.652
450.419
3.39657e+06
287391
47702.4
11002.5
4164.37
1946.8
1093.08
700.339
502.958
394.811
2.34164e+06
182155
27372.4
5711.44
2275.28
1237.94
858.035
671.624
568.194
506.585
6016.19
5992.97
5847.2
5822.79
5779.39
5755.09
5735.81
5725.56
5718.64
5712.69
5443.28
5175.2
5045.27
4972.7
4927.15
4897.14
4877.69
4866.14
4859.92
4855.98
180238
44894.9
13613.4
5322.75
2635.48
1567.21
1065.12
802.489
656.259
572.304
375678
86409.4
23467.2
8290.86
3889.09
2187.8
1383.88
956.212
710.798
565.758
595037
126245
30701.6
9651.65
4228.08
2261.59
1372.61
915.863
661.605
515.505
830505
165014
36427.9
10417.7
4317.64
2219.98
1310.39
857.646
610.414
472.017
1.1098e+06
207213
41753.9
10864.2
4247.24
2091.49
1198.78
768.914
542.098
418.489
1.38891e+06
244455
45356.6
10851
4055.92
1939.32
1095.74
699.612
493.246
382.959
1.56428e+06
258685
43999.4
9553.54
3395.91
1585.37
900.761
587.812
429.949
345.824
1.18224e+06
178731
26853.7
5249.97
1966.87
1091.43
771.674
615.215
526.607
476.294
6252.84
5952.91
5792.79
5733.96
5683.08
5652.31
5630.02
5616.41
5606.84
5598.53
4904
4869.17
4841.71
4818.9
4801.08
4788.17
4779.56
4774.4
4771.53
4769.48
9199.47
4175.76
2298.82
1432.76
985.401
735.865
591.221
504.967
452.255
420.444
23997.7
9564.55
4650.16
2546.84
1542.06
1010.24
712.681
538.349
431.118
364.76
45437.7
15961.8
6938.04
3411.13
1898.32
1159.03
771.536
555.696
428.537
352.745
73593.8
22902.6
9011.81
4056.11
2119.73
1232.36
791.81
556.665
421.547
343.287
112049
31041.8
11040.8
4548.45
2235.31
1237.05
767.202
526.297
393.524
318.993
156047
38869.6
12577.7
4795.18
2251.82
1206.04
734.791
500.601
373.48
303.543
191503
42871.8
12521.6
4385.71
1974.98
1036.76
636.284
443.07
341.774
286.186
141665
27756.1
7304.55
2547.43
1307.87
842.964
642.723
536.579
473.005
436.298
6018.34
5835.85
5711.24
5637.38
5584.28
5551.16
5528.14
5512.47
5500.88
5490.91
4712.99
4704.62
4695.45
4687.21
4680.96
4676.7
4674.05
4672.7
4672.37
4671.98
1208.04
906.478
708.864
570.473
479.261
420.775
383.194
358.482
341.799
331.526
3028.73
1919.48
1270.38
860.759
612.39
460.953
367.182
307.615
268.171
242.305
6220.95
3481.2
2057.52
1252.18
812.889
564.707
420.254
333.142
278.339
243.985
10747.1
5351.26
2878.33
1610.56
978.853
644.29
460.27
354.608
289.921
250.459
17346.5
7666.85
3761.57
1939.13
1105.24
689.178
472.66
353.784
284.443
243.623
25222.3
9947.94
4496.99
2165.96
1178.91
709.713
476.415
352.875
281.941
240.948
32104
11242.6
4659.44
2095.23
1100.71
652.788
441.616
333.007
272.8
238.104
23544.4
7367.37
2961.87
1443.43
906.152
663.595
542.629
472.675
427.914
401.453
5789.07
5660.54
5561.79
5497.89
5453.8
5424.92
5404.21
5389.35
5378.14
5368.66
4567.58
4566.35
4565.1
4564.14
4563.56
4563.32
4563.34
4563.71
4564.63
4565.47
412.728
382.965
356.669
334.886
318.458
306.414
297.565
290.935
285.857
282.609
637.764
512.547
411.727
334.517
279.761
241.96
216.077
198.175
185.237
176.181
1287.29
926.087
666.276
486.302
369.852
294.971
246.64
214.941
193.467
179.267
2276.15
1481.75
973.412
652.897
462.868
348.843
279.64
236.706
208.35
189.978
3814.34
2241.03
1346.93
830.662
548.863
390.263
299.44
245.699
212.121
191.241
5703.75
3044.41
1696.36
978.347
614.8
420.827
314.96
254.782
217.682
194.943
7460.63
3599.92
1861.25
1012.37
616.777
417.076
313.394
255.927
221.788
201.021
5662.4
2637.09
1436.2
904.155
665.895
539.386
466.863
421.212
389.972
371.103
5535.68
5459.63
5394.36
5347.96
5314.04
5289.79
5271.53
5257.82
5247.24
5238.43
4444.79
4444.91
4445.2
4445.68
4446.27
4446.91
4447.57
4448.37
4449.58
4451.02
277.887
274.889
271.417
267.992
264.974
262.414
260.261
258.413
256.79
255.486
225.926
210.878
194.963
180.654
169.147
160.377
153.852
148.964
145.036
142.075
373.138
321.833
273.24
233.345
203.638
182.283
167.101
156.244
148.279
142.753
613.199
488.041
382.077
302.912
248.819
212.62
188.487
172.249
160.536
152.455
1013.14
737.76
529.293
386.603
296.648
240.222
204.682
181.851
166.426
156.306
1522.14
1022.72
681.319
465.947
339.925
265.201
220.36
192.771
174.283
162.239
2045.52
1267.02
790.221
514.307
364.939
280.922
232.639
203.527
184.882
172.959
1814.41
1182.39
824.918
628.737
519.81
452.692
409.125
379.518
357.935
344.656
5303.34
5261.69
5221.85
5189.96
5164.53
5144.8
5129.22
5117.07
5107.46
5099.58
4322.51
4322.78
4323.24
4323.84
4324.53
4325.21
4325.87
4326.63
4327.77
4329.22
244.175
244.014
243.667
243.198
242.683
242.149
241.601
241.016
240.374
239.617
140.671
138.603
136.041
133.465
131.202
129.349
127.883
126.7
125.585
124.654
176.557
168.272
158.71
149.715
142.177
136.161
131.444
127.753
124.825
122.727
241.579
220.117
197.595
178.253
163.323
152.233
144.105
138.162
133.436
129.972
355.627
303.669
254.578
215.798
188
168.571
155.051
145.573
138.635
133.882
503.855
404.353
318.121
255.353
213.453
185.773
167.408
155.118
146.113
139.9
681.133
513.409
382.54
294.845
240.145
205.646
183.59
169.092
159.112
152.472
826.672
675.207
559.136
481.2
428.73
391.949
365.444
346.192
331.328
322.024
5091.78
5069.9
5046.1
5024.51
5005.81
4990.28
4977.47
4967.12
4958.74
4951.97
4195.42
4195.63
4195.96
4196.42
4196.94
4197.44
4197.91
4198.47
4199.39
4200.66
230.442
230.67
230.774
230.786
230.728
230.604
230.41
230.124
229.721
229.084
118.339
118.071
117.707
117.305
116.937
116.634
116.404
116.208
115.926
115.638
126.158
124.612
122.561
120.39
118.365
116.582
115.05
113.75
112.651
111.858
146.602
142.549
137.536
132.673
128.478
125.038
122.287
120.123
118.219
116.741
183.562
172.778
160.745
149.914
141.153
134.337
129.115
125.144
122.024
119.833
231.574
210.505
188.329
169.882
155.901
145.594
138.049
132.589
128.225
125.06
302.863
263.982
227.25
198.862
178.536
164.159
153.998
146.779
141.494
137.89
515.492
472.598
430.215
396.14
369.328
348.452
332.067
319.467
309.232
302.742
4892.53
4880.77
4866.39
4851.94
4838.51
4826.71
4816.58
4808.12
4801.1
4795.51
4061.88
4062.02
4062.23
4062.53
4062.87
4063.18
4063.46
4063.8
4064.5
4065.56
221.791
222.057
222.206
222.275
222.282
222.224
222.094
221.865
221.499
220.867
110.951
110.94
110.928
110.913
110.91
110.929
110.97
111.005
110.952
110.856
110.387
110.046
109.543
108.952
108.349
107.772
107.239
106.755
106.327
106.022
117.934
117.078
115.871
114.565
113.325
112.221
111.277
110.492
109.72
109.08
132.022
129.424
126.187
122.907
119.953
117.43
115.336
113.634
112.222
111.225
150.423
145.531
139.434
133.687
128.788
124.801
121.627
119.179
117.056
115.444
186.106