/*--------------------------------*- C++ -*----------------------------------*\
| =========                 |                                                 |
| \\      /  F ield         | foam-extend: Open Source CFD                    |
|  \\    /   O peration     | Version:     4.0                                |
|   \\  /    A nd           | Web:         http://www.foam-extend.org         |
|    \\/     M anipulation  |                                                 |
\*---------------------------------------------------------------------------*/
FoamFile
{
    version     2.0;
    format      ascii;
    class       volScalarField;
    location    "2350";
    object      k;
}
// * * * * * * * * * * * * * * * * * * * * * * * * * * * * * * * * * * * * * //

dimensions      [0 2 -2 0 0 0 0];

internalField   nonuniform List<scalar> 
34480
(
8.7672
8.76479
8.76466
8.76644
8.77025
8.77637
8.79132
8.85471
9.07725
9.68611
9.27984
8.66811
8.57541
8.85505
9.45416
10.341
11.9396
15.8518
28.7374
67.0235
15.0398
13.5704
13.1243
13.2726
13.843
14.8759
17.2094
22.9051
41.6354
101.406
14.4914
12.9638
12.5137
12.7079
13.4184
14.8329
18.005
25.4061
49.2499
127.782
13.4283
12.0124
11.6615
11.9284
12.7799
14.49
18.2595
26.9558
55.2701
151.576
12.2195
10.946
10.6335
10.9153
11.8069
13.7004
17.9419
27.9023
61.0605
176.657
11.3265
10.2063
9.9517
10.2267
11.1218
13.0874
17.5893
28.4197
65.5181
198.015
9.83967
9.00336
8.79851
9.01423
9.72678
11.397
15.4912
26.1245
64.544
205.594
6.88238
6.61382
6.56516
6.67518
7.00461
7.72921
9.72979
16.2734
43.4113
149.667
9.23849
9.23874
9.24461
9.2575
9.27562
9.29723
9.32324
9.3618
9.43283
9.50599
8.67857
8.67557
8.67499
8.67676
8.68154
8.68989
8.70314
8.73419
8.80842
9.06733
7.92991
7.51003
7.41668
7.57439
8.02141
8.86381
10.3053
12.1078
15.4273
41.1729
12.2352
11.1725
10.8803
11.0835
11.7622
13.0233
15.2211
18.1221
23.7875
66.4124
12.1392
10.9709
10.6521
10.8954
11.7005
13.251
16.0317
20.0141
28.3901
86.1791
11.5986
10.4647
10.1979
10.474
11.3667
13.1081
16.2968
21.0751
31.8418
104.294
10.8051
9.75473
9.49932
9.77315
10.6715
12.4982
15.9678
21.4557
34.8376
123.701
10.2147
9.26252
9.04533
9.2989
10.1723
12.0006
15.6077
21.5518
37.1092
140.953
9.05408
8.33217
8.14802
8.33957
9.0173
10.5149
13.662
19.2848
35.7042
147.363
6.64483
6.39748
6.34327
6.41745
6.68215
7.26716
8.61401
11.5617
22.4915
102.418
9.11132
9.10663
9.10719
9.1144
9.12708
9.1429
9.16388
9.19961
9.27261
9.45786
8.57684
8.57396
8.57306
8.57404
8.57719
8.58215
8.58793
8.60085
8.62963
8.69528
6.78262
6.571
6.51694
6.59285
6.82427
7.27128
8.06582
9.35976
11.1352
16.4367
9.69131
9.07119
8.91785
9.08545
9.60514
10.5601
12.1752
14.5697
17.547
29.1787
9.88892
9.15092
8.96555
9.17945
9.83886
11.0947
13.2871
16.6418
21.1137
40.7607
9.75952
9.00432
8.84149
9.07823
9.81674
11.2604
13.8636
17.9405
23.778
52.252
9.33092
8.60348
8.43597
8.67388
9.42824
10.974
13.8887
18.6186
26.0238
64.9007
9.01593
8.33151
8.18528
8.40789
9.14938
10.7174
13.8023
18.9562
27.7477
76.9248
8.19521
7.66686
7.53759
7.70798
8.283
9.56545
12.2711
17.1623
26.652
82.8783
6.37356
6.18133
6.14149
6.20244
6.41337
6.87611
7.92501
10.3684
16.6987
57.1064
8.99179
8.98403
8.98151
8.98543
8.99505
9.00815
9.02618
9.05974
9.13853
9.33854
8.46137
8.45956
8.45904
8.45981
8.46198
8.46474
8.46595
8.46934
8.47827
8.49768
6.00862
5.9178
5.8907
5.92154
6.02176
6.21437
6.5511
7.13251
7.99598
9.88094
7.80865
7.49599
7.42311
7.51854
7.82003
8.38289
9.33397
10.8209
12.6576
17.0735
8.12469
7.70724
7.60348
7.74096
8.1671
8.98943
10.4231
12.7266
15.5982
23.5537
8.24737
7.78874
7.69187
7.84969
8.34793
9.33551
11.1223
14.0846
17.8846
30.1247
8.08383
7.61539
7.50576
7.67272
8.2023
9.30144
11.3875
14.9952
19.8641
37.6353
7.97582
7.5115
7.41202
7.57353
8.11048
9.25611
11.5226
15.5769
21.3677
44.9594
7.44525
7.07495
6.9829
7.11134
7.53524
8.48126
10.4798
14.3818
20.6524
48.7683
6.1316
5.98462
5.95472
6.0007
6.1581
6.49609
7.22476
8.98536
12.9806
33.0378
8.85789
8.85009
8.84727
8.85064
8.85976
8.87339
8.89224
8.92614
8.99931
9.15518
8.33371
8.33288
8.3327
8.33319
8.33436
8.33523
8.33364
8.33226
8.33219
8.33433
5.53762
5.50317
5.49008
5.49995
5.53614
5.6049
5.72017
5.91162
6.17865
6.62113
6.56599
6.4283
6.3975
6.43777
6.57415
6.83246
7.27149
7.98204
8.87903
10.3566
6.872
6.65533
6.5987
6.66945
6.89668
7.33933
8.11406
9.40816
11.0453
14.0195
7.10201
6.84226
6.7859
6.87321
7.15871
7.72686
8.75916
10.5599
12.8858
17.7757
7.09726
6.81064
6.73892
6.83941
7.16321
7.83567
9.11543
11.4644
14.6137
22.2337
7.12079
6.81798
6.74988
6.85182
7.19671
7.92867
9.37325
12.1313
15.9826
26.6475
6.8134
6.56177
6.49568
6.58175
6.86384
7.48512
8.77841
11.4746
15.6918
29.0132
5.91841
5.80753
5.78478
5.81659
5.9276
6.15992
6.63026
7.74135
10.1054
19.2394
8.71445
8.70675
8.70373
8.70659
8.71506
8.72848
8.74696
8.7784
8.83992
8.95244
8.19475
8.19467
8.19477
8.19504
8.1955
8.19509
8.19261
8.19005
8.18787
8.18655
5.27034
5.25894
5.25259
5.25485
5.26616
5.28799
5.32347
5.37806
5.4475
5.53732
5.80939
5.75795
5.74823
5.76165
5.81266
5.90952
6.07209
6.3347
6.6742
7.13889
6.04297
5.93927
5.91048
5.94296
6.05119
6.25968
6.61641
7.21168
7.98784
9.10663
6.28227
6.1456
6.11575
6.15939
6.30764
6.59741
7.112
8.02111
9.23794
11.2029
6.35104
6.18546
6.14125
6.19745
6.38048
6.75298
7.44433
8.74047
10.5397
13.8038
6.4421
6.25413
6.21034
6.27048
6.47781
6.90709
7.72896
9.34055
11.6534
16.3939
6.29318
6.13028
6.08547
6.14043
6.3182
6.69914
7.46005
9.07702
11.6575
17.7687
5.73292
5.65176
5.63554
5.65687
5.73312
5.8884
6.18397
6.8362
8.10064
11.845
8.56053
8.5532
8.55018
8.55265
8.5604
8.57304
8.59038
8.61823
8.66627
8.74103
8.04507
8.04552
8.0458
8.04592
8.0459
8.04471
8.0424
8.03992
8.03767
8.03601
5.1266
5.12319
5.11973
5.11967
5.12256
5.12896
5.13906
5.15343
5.16958
5.18565
5.37592
5.36097
5.36009
5.36296
5.37798
5.40718
5.4562
5.53388
5.63283
5.75052
5.52652
5.4796
5.46565
5.47942
5.52753
5.6183
5.76704
6.00379
6.30877
6.68034
5.72716
5.65972
5.64543
5.66541
5.73711
5.87324
6.10447
6.49906
7.03142
7.75013
5.81503
5.72396
5.69807
5.72766
5.8254
6.01853
6.36058
6.98391
7.8673
9.18695
5.92895
5.81717
5.79057
5.82389
5.94239
6.17995
6.6121
7.43966
8.65438
10.6617
5.88355
5.78308
5.75425
5.78764
5.89427
6.11615
6.53633
7.40179
8.80331
11.4705
5.57811
5.52015
5.50917
5.52292
5.57395
5.6752
5.85869
6.23084
6.89041
8.32525
8.39558
8.38886
8.38599
8.3881
8.39503
8.40639
8.42193
8.44564
8.48223
8.53152
7.88502
7.88578
7.88618
7.88621
7.88591
7.88456
7.88269
7.8807
7.87891
7.87757
5.05198
5.05076
5.04851
5.04799
5.04862
5.05065
5.05362
5.05744
5.061
5.0634
5.13785
5.1362
5.13823
5.13783
5.14009
5.14555
5.15601
5.17355
5.19604
5.22002
5.21959
5.19895
5.19233
5.19793
5.21872
5.25714
5.31719
5.40615
5.51477
5.62679
5.36807
5.33674
5.33074
5.33919
5.37215
5.43284
5.53106
5.68807
5.89273
6.12697
5.44706
5.3992
5.38476
5.39963
5.44973
5.54582
5.70752
5.98376
6.3679
6.85611
5.55771
5.49376
5.47852
5.49598
5.56122
5.68789
5.9059
6.29791
6.86487
7.64813
5.57426
5.51555
5.49804
5.51745
5.57851
5.7023
5.92563
6.35729
7.04573
8.1354
5.4538
5.41321
5.40623
5.41482
5.44841
5.51341
5.62682
5.83777
6.18542
6.75859
8.21908
8.21316
8.21055
8.21234
8.21834
8.22808
8.24144
8.26084
8.28805
8.32096
7.71466
7.71561
7.71608
7.71606
7.7156
7.71448
7.71309
7.71163
7.71033
7.70933
5.01364
5.01274
5.01107
5.01064
5.01092
5.01191
5.01316
5.01455
5.0155
5.01565
5.01144
5.01359
5.01607
5.01506
5.01373
5.01242
5.01194
5.01303
5.01554
5.01856
5.04475
5.03552
5.03229
5.03457
5.04367
5.06022
5.085
5.11906
5.15791
5.19174
5.14539
5.13162
5.12956
5.13285
5.14747
5.17372
5.2145
5.27516
5.34999
5.42254
5.20531
5.18119
5.17348
5.18069
5.2056
5.25215
5.32727
5.44636
5.60506
5.77833
5.30061
5.26517
5.25691
5.26563
5.30061
5.36666
5.47509
5.65552
5.90514
6.19343
5.35055
5.31834
5.30841
5.31924
5.35257
5.41878
5.53419
5.74204
6.0623
6.49188
5.35787
5.32978
5.32564
5.33094
5.35292
5.3945
5.46459
5.5846
5.76939
6.02092
8.03061
8.0256
8.02334
8.02483
8.02985
8.03783
8.04884
8.06411
8.08383
8.10571
7.53417
7.53501
7.53551
7.53546
7.53501
7.53422
7.53324
7.53222
7.53133
7.5306
4.99321
4.99239
4.99108
4.99081
4.99115
4.99191
4.99282
4.99375
4.99433
4.99423
4.94615
4.94878
4.95087
4.95004
4.94827
4.94585
4.94332
4.94112
4.93966
4.93897
4.94927
4.94481
4.94312
4.94411
4.94833
4.95592
4.96686
4.98092
4.99593
5.00714
5.01294
5.0071
5.00663
5.00782
5.01424
5.02556
5.04257
5.06623
5.09366
5.11683
5.05336
5.04168
5.0377
5.04113
5.05324
5.07542
5.11009
5.16146
5.22693
5.29112
5.13021
5.11094
5.1067
5.11092
5.12946
5.16362
5.21764
5.30111
5.4104
5.51829
5.19569
5.17942
5.17427
5.1801
5.19733
5.2311
5.28881
5.38657
5.53157
5.70583
5.28667
5.26728
5.26503
5.26836
5.28291
5.30976
5.35333
5.4223
5.52054
5.64047
7.82987
7.82583
7.82397
7.82516
7.82919
7.83546
7.84418
7.85576
7.86967
7.88398
7.34328
7.34395
7.34438
7.34434
7.34404
7.3435
7.34284
7.34215
7.34156
7.34101
4.98134
4.98062
4.97967
4.97951
4.97986
4.98053
4.98134
4.98215
4.98272
4.98262
4.91315
4.91532
4.91687
4.91635
4.91497
4.913
4.91082
4.90874
4.9072
4.90635
4.89944
4.897
4.89602
4.8965
4.89865
4.90246
4.90779
4.91429
4.92089
4.92515
4.93747
4.93491
4.93491
4.93533
4.93827
4.94341
4.9509
4.96067
4.97119
4.97929
4.96217
4.9567
4.9547
4.95633
4.96216
4.97263
4.98861
5.01099
5.03838
5.06426
5.02225
5.01174
5.00964
5.01171
5.02163
5.03951
5.06687
5.10649
5.15536
5.1985
5.09316
5.08591
5.08361
5.08667
5.095
5.11121
5.13865
5.18313
5.24651
5.32172
5.23573
5.2222
5.22115
5.22338
5.23331
5.25107
5.2785
5.3188
5.37092
5.43181
7.6167
7.61359
7.61215
7.61307
7.61615
7.62088
7.62753
7.636
7.64554
7.65473
7.14175
7.14229
7.14263
7.14262
7.14243
7.14207
7.14164
7.14118
7.14079
7.14036
4.97347
4.97291
4.97226
4.97218
4.97249
4.97306
4.97376
4.97445
4.975
4.97486
4.89666
4.89827
4.89937
4.8991
4.8982
4.8969
4.89545
4.89407
4.89313
4.89263
4.87471
4.87323
4.87264
4.87291
4.87408
4.87614
4.87896
4.8823
4.88565
4.88753
4.89636
4.89503
4.89504
4.89521
4.89675
4.89943
4.90319
4.9078
4.91236
4.91573
4.91008
4.90756
4.90657
4.90736
4.91017
4.91513
4.92253
4.93242
4.9441
4.95559
4.95688
4.95094
4.9499
4.95102
4.95656
4.9663
4.98067
5.0004
5.0232
5.04216
5.02816
5.02567
5.02497
5.02655
5.03021
5.03731
5.04926
5.06827
5.09395
5.12883
5.20036
5.19074
5.19039
5.19206
5.19915
5.21128
5.22896
5.25308
5.28068
5.31354
7.39105
7.38879
7.38774
7.38842
7.39063
7.39411
7.39899
7.40495
7.41129
7.41709
6.92934
6.9298
6.93007
6.93007
6.92995
6.92973
6.92945
6.92915
6.9289
6.92853
4.96745
4.9671
4.9667
4.96667
4.96692
4.96737
4.96792
4.96848
4.96899
4.96874
4.88842
4.88959
4.89034
4.89024
4.88972
4.88896
4.88813
4.88736
4.88695
4.88674
4.86323
4.8623
4.86197
4.86212
4.86276
4.86388
4.8654
4.86721
4.86908
4.87002
4.87503
4.87412
4.87401
4.87412
4.87509
4.87678
4.87907
4.88172
4.88415
4.88599
4.88185
4.88068
4.88018
4.88058
4.88196
4.88436
4.88783
4.8923
4.89739
4.90307
4.91901
4.9154
4.91484
4.91557
4.9189
4.92458
4.93263
4.94317
4.95461
4.96419
4.98843
4.98821
4.98835
4.98917
4.99053
4.99313
4.99747
5.00457
5.0131
5.03089
5.17622
5.16922
5.16926
5.17065
5.17598
5.18457
5.19632
5.21123
5.22579
5.24494
7.15296
7.15142
7.15072
7.15119
7.15269
7.1552
7.15863
7.16267
7.16675
7.17034
6.70592
6.70631
6.70652
6.70653
6.70646
6.70632
6.70614
6.70595
6.70578
6.70546
4.96235
4.96221
4.96201
4.96203
4.96221
4.96253
4.96293
4.96335
4.96382
4.96346
4.88422
4.88509
4.88559
4.88559
4.88533
4.88495
4.88455
4.88421
4.88418
4.88416
4.85845
4.85792
4.85776
4.85783
4.85815
4.8587
4.85945
4.86039
4.86147
4.862
4.86459
4.86384
4.86362
4.86371
4.86441
4.86565
4.86728
4.8691
4.87071
4.87198
4.86743
4.86685
4.86658
4.86679
4.8675
4.86871
4.87039
4.87248
4.87478
4.8779
4.89783
4.89543
4.89509
4.89565
4.89783
4.90142
4.90631
4.91247
4.91882
4.92462
4.96448
4.96519
4.96573
4.96618
4.96649
4.96704
4.96787
4.96965
4.97066
4.981
5.15952
5.15439
5.15465
5.15593
5.16004
5.16638
5.17451
5.18408
5.19162
5.20391
6.90271
6.90165
6.90122
6.90152
6.90256
6.90428
6.9066
6.90922
6.91173
6.91391
6.47141
6.47175
6.4719
6.47192
6.47188
6.4718
6.47168
6.47156
6.47144
6.47115
4.95775
4.95783
4.95779
4.95784
4.95797
4.95817
4.95842
4.95871
4.95917
4.95871
4.88198
4.88264
4.88296
4.883
4.88291
4.88278
4.88267
4.88261
4.88284
4.88298
4.85696
4.85671
4.85667
4.8567
4.8568
4.85699
4.85727
4.85768
4.85828
4.85863
4.85988
4.85922
4.85894
4.85901
4.85955
4.8605
4.86175
4.86311
4.86431
4.86531
4.86061
4.86026
4.86009
4.8602
4.86059
4.86125
4.86211
4.86315
4.86424
4.86613
4.88611
4.88438
4.88413
4.8846
4.88613
4.88857
4.89176
4.89567
4.89957
4.90373
4.94944
4.95038
4.95107
4.95134
4.95126
4.951
4.95044
4.95008
4.94804
4.95504
5.14738
5.14359
5.14401
5.1452
5.14848
5.15336
5.15921
5.16562
5.16927
5.17802
6.6405
6.63981
6.63953
6.63973
6.64042
6.64155
6.64304
6.64465
6.64612
6.64742
6.22587
6.22616
6.22627
6.22629
6.22628
6.22622
6.22615
6.22607
6.22598
6.22571
4.95346
4.95377
4.95384
4.95393
4.95401
4.95411
4.95424
4.95442
4.95492
4.95441
4.88063
4.88112
4.8813
4.88135
4.88136
4.88139
4.88147
4.88159
4.88198
4.88229
4.85702
4.85695
4.85699
4.85699
4.85697
4.85694
4.85694
4.85704
4.85735
4.85764
4.85804
4.85747
4.85718
4.85723
4.85764
4.85836
4.85929
4.86032
4.86124
4.86205
4.85775
4.85749
4.85736
4.85741
4.85764
4.85803
4.85851
4.85907
4.85962
4.86083
4.87923
4.87793
4.87772
4.8781
4.8792
4.88091
4.88308
4.88569
4.88825
4.89155
4.93854
4.93936
4.94005
4.94025
4.94009
4.93964
4.93871
4.93771
4.93472
4.94011
5.13758
5.1348
5.13529
5.13642
5.13912
5.14298
5.14735
5.15181
5.15323
5.15999
6.36666
6.36624
6.36607
6.3662
6.36663
6.36732
6.36822
6.36915
6.36994
6.37071
5.96959
5.96984
5.96992
5.96994
5.96993
5.9699
5.96985
5.96979
5.96973
5.96947
4.94938
4.94989
4.95004
4.95017
4.95022
4.95024
4.95027
4.95035
4.95092
4.95047
4.87956
4.87989
4.87995
4.87998
4.88004
4.88017
4.88036
4.88059
4.88106
4.88157
4.85775
4.85776
4.85782
4.8578
4.85772
4.8576
4.85748
4.85742
4.85755
4.85786
4.85756
4.85709
4.85684
4.85686
4.85714
4.85765
4.85831
4.85904
4.85972
4.86037
4.85687
4.85666
4.85655
4.85657
4.85671
4.85693
4.85721
4.85752
4.85781
4.85858
4.87434
4.87336
4.87317
4.87345
4.87421
4.87538
4.87684
4.87855
4.88027
4.88293
4.92852
4.92907
4.92969
4.92986
4.92974
4.92935
4.9285
4.9275
4.92454
4.92896
5.12815
5.12619
5.12668
5.12775
5.12998
5.13308
5.13644
5.13959
5.13968
5.1451
6.08174
6.0815
6.0814
6.08148
6.08173
6.08212
6.08262
6.08311
6.08349
6.08391
5.70321
5.70342
5.70349
5.7035
5.7035
5.70348
5.70344
5.7034
5.70334
5.70311
4.94521
4.94585
4.94608
4.94625
4.94629
4.94626
4.94619
4.94618
4.94677
4.94657
4.87839
4.87852
4.87848
4.87848
4.87856
4.87872
4.87895
4.87923
4.87971
4.88042
4.85859
4.85858
4.85862
4.85859
4.85851
4.85838
4.85824
4.85814
4.85819
4.85854
4.85769
4.85734
4.85715
4.85714
4.85732
4.85763
4.85805
4.85853
4.85901
4.8595
4.85697
4.85681
4.85673
4.85673
4.8568
4.85691
4.85705
4.8572
4.85734
4.85779
4.8697
4.86898
4.86883
4.869
4.86947
4.87019
4.87108
4.87211
4.8732
4.87524
4.91724
4.91752
4.918
4.91814
4.91805
4.91774
4.91707
4.91626
4.91381
4.91738
5.11633
5.11505
5.11551
5.11648
5.11828
5.12072
5.12327
5.12541
5.12469
5.12892
5.78656
5.78643
5.78638
5.78642
5.78655
5.78674
5.787
5.78721
5.78737
5.78758
5.42759
5.42776
5.4278
5.42781
5.42781
5.4278
5.42778
5.42774
5.4277
5.42751
4.93954
4.94018
4.94055
4.94079
4.94084
4.94075
4.94058
4.94042
4.94078
4.94109
4.87678
4.87666
4.87655
4.87651
4.87657
4.87672
4.87694
4.87723
4.87765
4.87849
4.8591
4.85904
4.85905
4.85901
4.85895
4.85886
4.85877
4.85871
4.85874
4.85908
4.85814
4.85791
4.85779
4.85778
4.85787
4.85804
4.85827
4.85855
4.85884
4.85918
4.8576
4.85751
4.85746
4.85745
4.85746
4.8575
4.85754
4.85758
4.85762
4.85783
4.86472
4.86428
4.86417
4.86424
4.86448
4.86484
4.86527
4.86577
4.86637
4.86774
4.90353
4.90357
4.90386
4.90391
4.90378
4.90347
4.90293
4.9023
4.90068
4.90331
5.09505
5.09435
5.09474
5.09554
5.09687
5.09865
5.10043
5.10169
5.10053
5.10333
5.48212
5.48206
5.48205
5.48206
5.4821
5.48216
5.48224
5.4823
5.48235
5.48245
5.14253
5.14263
5.14264
5.14264
5.14264
5.14264
5.14264
5.14263
5.14263
5.14254
4.92471
4.92527
4.92589
4.92622
4.9263
4.92618
4.92589
4.92549
4.92508
4.92571
4.87368
4.87333
4.87313
4.87303
4.87304
4.87316
4.87336
4.87364
4.87404
4.87487
4.85937
4.8593
4.85928
4.85925
4.85922
4.85919
4.85915
4.85914
4.85916
4.85939
4.85895
4.85883
4.85877
4.85876
4.8588
4.85888
4.85899
4.85912
4.85927
4.85945
4.85863
4.85859
4.85857
4.85856
4.85856
4.85855
4.85854
4.85853
4.85853
4.85857
4.86083
4.86064
4.86059
4.86061
4.8607
4.86083
4.86098
4.86115
4.86138
4.86202
4.88685
4.88669
4.88675
4.88669
4.88651
4.8862
4.88578
4.88537
4.8848
4.88649
5.04091
5.04062
5.04087
5.04137
5.04216
5.0432
5.04422
5.04478
5.04377
5.04481
5.16848
5.16845
5.16846
5.16846
5.16847
5.16847
5.16846
5.16846
5.16843
5.16849
11.269
11.3841
11.3385
11.1222
82.8102
84.8875
85.3473
85.9967
143.138
148.611
149.081
147.836
202.801
212.238
212.105
207.816
264.482
278.144
276.939
269.486
332.777
351.058
348.958
340.214
395.16
417.812
415.429
408.037
433.167
459.439
457.492
452.916
345.68
368.257
365.708
364.358
11.4769
11.7155
11.5594
11.1514
9.71376
9.77313
9.77596
9.73197
76.0775
79.3214
80.0809
80.2023
133.884
144.805
145.906
143.741
192.905
214.535
215.07
209.174
256.14
290.983
290.036
280.086
329.511
380.275
378.5
365.624
399.601
466.623
465.655
452.624
446.087
527.575
528.616
517.424
350.521
422.88
420.971
416.135
10.7115
10.9424
10.8719
10.6516
8.77683
8.78981
8.7888
8.77729
26.538
28.9547
28.2175
25.7084
49.3566
53.7628
52.0988
47.4251
74.5823
81.3418
78.2225
70.7071
103.456
112.996
107.818
96.7358
139.442
152.806
145.178
129.285
177.31
194.675
184.516
163.493
207.529
228.706
216.446
190.91
164.729
181.622
170.14
149.303
9.91283
10.0036
9.98041
9.8812
8.51189
8.51445
8.51511
8.51415
11.4729
11.7225
11.693
11.4959
21.2126
21.9399
21.8765
21.3344
31.997
33.4838
33.2319
31.9163
44.5104
46.9439
46.2798
43.7578
60.6339
64.4026
63.0829
58.7667
78.0557
83.1687
80.9021
74.4581
92.5757
99.1264
95.8398
87.1477
71.9353
77.0757
73.564
65.9627
9.44869
9.49313
9.49006
9.44964
8.33286
8.33397
8.33423
8.33357
7.04186
7.13342
7.15862
7.12877
11.6778
11.9741
12.0571
11.9711
16.871
17.4856
17.5861
17.3194
22.8365
23.8565
23.8924
23.2885
30.7129
32.3381
32.2254
31.0367
39.2231
41.458
41.0405
39.0612
46.2616
49.1978
48.381
45.4009
34.4012
36.6199
35.4297
32.5497
9.09835
9.12229
9.1239
9.10695
8.18254
8.18346
8.18356
8.18279
5.60669
5.62098
5.6262
5.62448
7.45585
7.5258
7.55853
7.55989
9.93738
10.1211
10.1884
10.1633
12.8336
13.1794
13.2658
13.1652
16.7961
17.4126
17.5026
17.2348
21.0457
21.9425
21.966
21.4368
24.4783
25.7304
25.629
24.6927
17.4809
18.3751
18.0207
17.017
8.81281
8.82472
8.82708
8.82094
8.03171
8.0326
8.03267
8.03188
5.19692
5.20012
5.20099
5.20001
5.82311
5.83892
5.84757
5.84977
6.91425
6.96715
6.99233
6.99342
8.25891
8.37118
8.41553
8.40582
10.2336
10.4613
10.5312
10.4824
12.3586
12.7064
12.7767
12.6576
14.0531
14.5728
14.6195
14.3553
10.2219
10.5581
10.4797
10.1885
8.56538
8.57085
8.57293
8.57152
7.87347
7.87434
7.87441
7.87365
5.06321
5.06438
5.06439
5.06346
5.23312
5.2355
5.23695
5.23759
5.68404
5.69641
5.70295
5.70433
6.26557
6.29593
6.31049
6.31201
7.19408
7.26969
7.30036
7.29466
8.2156
8.3366
8.37647
8.35782
9.06871
9.26923
9.31384
9.24845
7.33898
7.45171
7.44566
7.37957
8.33737
8.33965
8.34111
8.34133
7.70548
7.70632
7.70639
7.70568
5.01329
5.01422
5.01416
5.01323
5.02032
5.02044
5.0205
5.02054
5.20441
5.20675
5.20804
5.20841
5.45535
5.46197
5.46556
5.46668
5.88057
5.90356
5.91412
5.91399
6.359
6.39484
6.41017
6.41046
6.80641
6.87771
6.90023
6.88557
6.19855
6.23248
6.23682
6.2263
8.11415
8.11494
8.11583
8.11639
7.52702
7.5278
7.52787
7.52721
4.99133
4.99219
4.99214
4.99126
4.93892
4.93883
4.93873
4.93863
5.00959
5.00982
5.00994
5.01
5.12348
5.12438
5.12496
5.12534
5.32339
5.3304
5.33372
5.33365
5.55977
5.56823
5.57286
5.57492
5.81408
5.83895
5.84803
5.84379
5.69867
5.70623
5.7089
5.70967
7.88847
7.88859
7.88909
7.88962
7.3377
7.33842
7.33848
7.33787
4.97959
4.98037
4.98032
4.97949
4.90613
4.9061
4.90602
4.9059
4.92538
4.92527
4.92522
4.92522
4.9803
4.98015
4.9801
4.98018
5.07668
5.07925
5.08036
5.08006
5.20666
5.20776
5.20884
5.2102
5.36632
5.37603
5.37936
5.37667
5.45416
5.45322
5.4538
5.45609
7.65708
7.65692
7.65719
7.65759
7.13733
7.13798
7.13803
7.13748
4.97183
4.97253
4.97246
4.97167
4.89242
4.89243
4.89237
4.89225
4.8873
4.88718
4.88712
4.88714
4.91575
4.91554
4.91541
4.9154
4.96187
4.96314
4.9636
4.96324
5.04267
5.0422
5.04229
5.04304
5.15355
5.1584
5.15955
5.15698
5.32495
5.32164
5.32114
5.32308
7.41818
7.41797
7.4181
7.41837
6.92579
6.92637
6.92641
6.92591
4.9658
4.9664
4.9663
4.96555
4.88654
4.88656
4.88651
4.88638
4.86973
4.86964
4.86961
4.86963
4.88596
4.88583
4.88574
4.88569
4.90699
4.9078
4.90804
4.90773
4.96376
4.96322
4.96311
4.96348
5.04878
5.052
5.05234
5.04977
5.25295
5.2494
5.24849
5.24979
7.17064
7.17048
7.17054
7.17068
6.70303
6.70352
6.70355
6.7031
4.96066
4.96114
4.96102
4.96031
4.88397
4.884
4.88395
4.88382
4.86175
4.8617
4.86169
4.86171
4.87203
4.87197
4.87191
4.87186
4.88064
4.8812
4.88136
4.88109
4.92485
4.92456
4.92446
4.92458
4.99617
4.9988
4.99884
4.99626
5.21088
5.20784
5.20686
5.20751
6.91368
6.91364
6.91367
6.91367
6.46905
6.46946
6.46946
6.46908
4.9561
4.95647
4.95631
4.95565
4.88285
4.88289
4.88284
4.88271
4.85849
4.85848
4.85847
4.85848
4.86542
4.8654
4.86536
4.86532
4.86809
4.8685
4.8686
4.86838
4.90484
4.90483
4.90478
4.90471
4.96894
4.97136
4.97128
4.96867
5.18475
5.18249
5.18157
5.18159
6.64681
6.64692
6.64693
6.64682
6.22399
6.22431
6.22429
6.22397
4.95205
4.95231
4.95212
4.95151
4.88233
4.88241
4.88237
4.88221
4.85766
4.85768
4.85768
4.85767
4.86219
4.86219
4.86217
4.86214
4.86222
4.86251
4.86256
4.86238
4.89336
4.89358
4.89358
4.89337
4.95329
4.9557
4.95558
4.95289
5.16678
5.16543
5.16466
5.16405
6.36982
6.37007
6.37008
6.36987
5.96819
5.96841
5.96837
5.96811
4.94846
4.94864
4.94844
4.94788
4.88193
4.88208
4.88205
4.88185
4.85805
4.85811
4.85812
4.85808
4.86054
4.86056
4.86055
4.86053
4.85952
4.85971
4.85973
4.85959
4.88512
4.8855
4.88553
4.88523
4.94148
4.94401
4.94389
4.9411
5.152
5.15168
5.15112
5.14986
6.08284
6.08321
6.08322
6.08294
5.70234
5.70245
5.70239
5.7022
4.9452
4.94538
4.9452
4.94467
4.88123
4.88148
4.88147
4.8812
4.85887
4.85898
4.85899
4.85892
4.85969
4.85972
4.85972
4.85971
4.85835
4.85846
4.85846
4.85837
4.87745
4.87789
4.87794
4.87762
4.92868
4.93134
4.93126
4.92843
5.13571
5.13659
5.13632
5.13436
5.7864
5.78685
5.78687
5.78656
5.42738
5.42735
5.42726
5.42716
4.941
4.94138
4.94127
4.94066
4.8796
4.87994
4.87993
4.8796
4.85947
4.85959
4.8596
4.85952
4.85936
4.8594
4.85941
4.85941
4.85808
4.85813
4.85812
4.85808
4.86955
4.86995
4.87001
4.86973
4.91187
4.91429
4.91426
4.91179
5.10924
5.11164
5.11171
5.1089
5.48141
5.48193
5.48196
5.48162
5.14313
5.14289
5.1428
5.14287
4.92732
4.92821
4.92819
4.92723
4.87564
4.87587
4.87584
4.87558
4.85962
4.8597
4.85971
4.85965
4.85958
4.85961
4.85962
4.85963
4.85863
4.85863
4.85863
4.85863
4.86301
4.86323
4.86327
4.86313
4.89064
4.8918
4.89177
4.89056
5.04764
5.05117
5.05148
5.04805
5.16797
5.16853
5.16854
5.16817
10.1126
9.36665
9.05457
8.94204
8.87757
8.83212
8.80184
8.78482
8.77536
8.76973
103.674
49.1183
35.748
29.9538
24.5568
19.9493
16.3632
13.6893
11.7814
10.4193
160.953
70.8606
51.0936
43.7432
37.1918
31.4258
26.5931
22.7123
19.6686
17.294
206.427
82.594
55.9825
46.7287
39.3625
32.767
27.2289
22.8353
19.4438
16.856
242.065
88.9525
58.8266
47.9659
40.0778
32.7367
26.6771
21.9546
18.368
15.7225
278.038
94.6919
60.9748
48.3028
39.8459
31.7875
25.3528
20.4651
16.8822
14.3309
307.096
98.1599
61.6912
47.7815
39.0463
30.52
23.9437
19.0743
15.5947
13.2105
315.208
93.7533
56.6287
42.2282
33.9178
25.7871
19.9243
15.797
13.046
11.2291
224.473
56.1346
30.5436
21.1162
16.2834
12.2241
9.95517
8.61307
7.8041
7.27991
9.5692
9.54456
9.38915
9.36301
9.31642
9.29029
9.26953
9.25848
9.25102
9.2446
9.3671
9.05696
8.90473
8.81913
8.76519
8.72957
8.70644
8.69269
8.68528
8.68059
53.1033
28.6708
22.5566
19.4496
16.6688
14.198
12.1632
10.6006
9.46089
8.66876
89.9994
46.2746
35.8007
31.0211
27.1815
23.5092
20.2906
17.6317
15.5036
13.8846
122.267
58.6124
42.8652
35.6346
30.5508
25.7669
21.6964
18.4231
15.8731
13.9865
152.565
68.7684
47.857
38.5208
32.3851
26.6787
21.9778
18.2984
15.4858
13.4756
186.439
78.8767
52.1458
40.4763
33.2586
26.6701
21.4545
17.4962
14.5916
12.5914
217.207
86.4761
54.7143
41.2508
33.3541
26.1781
20.6985
16.6612
13.771
11.8535
233.198
86.7513
51.9189
37.4849
29.5788
22.5778
17.5745
14.0836
11.7635
10.2831
167.408
54.7564
29.0627
19.3797
14.6949
11.2266
9.2746
8.12954
7.43361
7.00274
9.81852
9.50198
9.33081
9.26753
9.21263
9.17935
9.1552
9.14044
9.13005
9.12103
8.73772
8.6963
8.66357
8.63634
8.61504
8.59958
8.58927
8.58309
8.57966
8.5772
19.9483
16.5764
14.5028
12.6845
11.1149
9.81187
8.79758
8.04868
7.50993
7.13734
35.9206
28.7123
24.9254
21.6896
18.914
16.5057
14.5106
12.9062
11.6309
10.6691
51.0378
37.9364
31.5411
26.3506
22.2596
18.8401
16.0968
13.9476
12.2881
11.0743
66.129
45.6929
36.6304
29.5941
24.3795
20.1258
16.8137
14.2906
12.3791
11.0259
83.2268
53.3447
41.1448
32.0849
25.7358
20.6619
16.8423
14.0203
11.9742
10.5807
99.1253
59.1918
44.1513
33.4589
26.3368
20.7057
16.5979
13.6544
11.5706
10.1994
108.42
59.7592
42.6005
31.0011
23.7649
18.2182
14.4247
11.8569
10.1704
9.09753
75.9447
36.6499
23.8688
16.273
12.2257
9.68246
8.28973
7.47148
6.96267
6.64327
9.57147
9.377
9.24303
9.16318
9.10555
9.0695
9.04442
9.02731
9.01466
9.00376
8.50933
8.49926
8.48821
8.47827
8.47073
8.4656
8.4624
8.46076
8.46036
8.4599
10.9415
10.1334
9.28429
8.4399
7.73274
7.19004
6.79124
6.50321
6.29466
6.1496
19.8679
18.0286
16.1768
14.3039
12.6881
11.3599
10.2985
9.4627
8.80346
8.30892
28.478
24.6333
21.1905
17.9887
15.4007
13.3285
11.7049
10.452
9.49353
8.79833
37.2435
30.6671
25.4315
20.8638
17.3676
14.6402
12.5634
11.0095
9.84175
9.01743
47.4706
36.9717
29.525
23.3603
18.865
15.44
12.9154
11.0863
9.77441
8.88354
57.0696
42.0776
32.5538
25.0139
19.76
15.8316
13.027
11.0613
9.68091
8.76933
62.7995
43.2658
32.0896
23.7129
18.2357
14.3065
11.6798
9.94105
8.80278
8.06971
42.7464
26.2046
17.9728
12.7917
10.0236
8.39137
7.47313
6.91839
6.55961
6.32896
9.32682
9.18825
9.08109
9.0114
8.96315
8.93148
8.90873
8.89239
8.88006
8.86963
8.33339
8.3319
8.33038
8.32921
8.32851
8.32821
8.32824
8.32869
8.3298
8.33083
6.9988
6.75859
6.50562
6.26723
6.06891
5.91251
5.79215
5.7005
5.63116
5.58319
11.6111
10.9252
10.1514
9.37377
8.68699
8.1147
7.65549
7.29391
7.00543
6.7875
16.4401
14.9574
13.3756
11.8596
10.5721
9.52169
8.69349
8.05529
7.56701
7.21421
21.5365
18.9349
16.3583
14.0119
12.1132
10.6148
9.47264
8.62373
7.98356
7.52907
27.768
23.4445
19.5089
16.0873
13.4439
11.422
9.93337
8.86346
8.09571
7.57175
33.7361
27.3835
22.0662
17.6424
14.3795
11.9551
10.2305
9.03389
8.1881
7.62141
37.3947
28.7915
22.2629
17.1546
13.6364
11.1587
9.50877
8.42153
7.70017
7.22512
24.5291
17.335
12.8096
9.95728
8.36371
7.40494
6.83002
6.46702
6.2205
6.05872
9.05264
8.96954
8.89791
8.84681
8.80936
8.78254
8.76231
8.74712
8.73538
8.7256
8.18336
8.18351
8.18387
8.18446
8.18519
8.18597
8.18677
8.18776
8.18924
8.19101
5.60801
5.56479
5.51343
5.46125
5.41405
5.37358
5.34009
5.31313
5.29256
5.27959
7.50457
7.3135
7.06509
6.80572
6.57049
6.37231
6.21223
6.0844
5.97778
5.89481
9.97773
9.47192
8.85068
8.22742
7.67863
7.22428
6.86231
6.57994
6.36002
6.20028
12.7362
11.7743
10.6616
9.59966
8.707
7.99563
7.45052
7.04303
6.72807
6.50014
16.3274
14.6099
12.7535
11.061
9.6984
8.64822
7.87069
7.3084
6.89758
6.61328
19.865
17.2469
14.5837
12.268
10.4874
9.1607
8.21196
7.55014
7.0699
6.73997
22.1188
18.4207
14.9981
12.2243
10.2383
8.84212
7.90161
7.27196
6.84162
6.55059
14.3944
11.5386
9.42807
8.05204
7.21593
6.68001
6.33281
6.10283
5.93847
5.82916
8.79753
8.75141
8.70718
8.67169
8.64334
8.62131
8.6039
8.59031
8.57955
8.57073
8.03259
8.03292
8.03348
8.03423
8.03508
8.03593
8.03674
8.03768
8.03909
8.04089
5.19671
5.18854
5.17888
5.16821
5.15757
5.14754
5.13863
5.13123
5.12617
5.12428
5.83876
5.7928
5.73041
5.66328
5.60091
5.54738
5.50337
5.46694
5.43311
5.40492
6.95006
6.79204
6.58425
6.3681
6.17123
6.00315
5.8645
5.75205
5.66099
5.59414
8.29791
7.96327
7.54442
7.13203
6.77523
6.48486
6.25684
6.08147
5.93866
5.83179
10.2207
9.55385
8.76953
8.03165
7.41933
6.93865
6.57421
6.30296
6.09722
5.95212
12.1905
11.1263
9.92526
8.84941
7.99557
7.34971
6.87716
6.53871
6.28121
6.09832
13.5198
11.9509
10.34
8.99929
8.00467
7.29201
6.79592
6.45175
6.20675
6.03684
9.42641
8.38646
7.50739
6.8848
6.46192
6.16835
5.96312
5.82083
5.71381
5.64228
8.56198
8.53743
8.5107
8.48641
8.46534
8.44781
8.43336
8.42166
8.41218
8.40453
7.87436
7.87462
7.87503
7.87561
7.87625
7.87688
7.87747
7.87817
7.87933
7.88091
5.06296
5.06119
5.05922
5.05687
5.05424
5.05148
5.04889
5.04683
5.04609
5.047
5.23564
5.22717
5.21544
5.20229
5.18989
5.17938
5.17105
5.16391
5.15497
5.14622
5.69442
5.65146
5.59145
5.52541
5.46178
5.40432
5.35413
5.31109
5.2746
5.24772
6.28733
6.18742
6.05374
5.91586
5.79086
5.6844
5.59687
5.52646
5.46469
5.4164
7.22115
6.98854
6.69981
6.41674
6.17133
5.97025
5.81044
5.68573
5.58658
5.51563
8.22911
7.83681
7.36144
6.9198
6.55428
6.26681
6.04672
5.88213
5.74896
5.65085
8.98517
8.36917
7.69633
7.11404
6.66035
6.32045
6.07146
5.8905
5.75607
5.66116
7.18618
6.82364
6.46923
6.18828
5.97537
5.81563
5.69601
5.60961
5.54125
5.4957
8.33714
8.32377
8.30742
8.29095
8.27566
8.2622
8.25063
8.24097
8.23294
8.22655
7.70636
7.70653
7.70681
7.70719
7.70761
7.70801
7.70836
7.70879
7.70968
7.71102
5.01329
5.01254
5.0118
5.01096
5.00997
5.00886
5.00781
5.00711
5.00735
5.0086
5.02002
5.01895
5.01783
5.01664
5.01585
5.01578
5.01646
5.01711
5.0156
5.01305
5.20582
5.19451
5.17768
5.15772
5.13712
5.11728
5.09885
5.08211
5.06735
5.05656
5.46129
5.43458
5.39597
5.35329
5.312
5.27472
5.24246
5.21526
5.18906
5.1674
5.89253
5.81799
5.72105
5.61962
5.52587
5.44423
5.37552
5.31907
5.27213
5.23842
6.38045
6.25271
6.08409
5.91752
5.77047
5.64771
5.54822
5.47017
5.4026
5.35086
6.80417
6.58129
6.32454
6.08766
5.89038
5.73347
5.61194
5.51943
5.44803
5.39726
6.17815
6.04687
5.90094
5.77168
5.66399
5.57726
5.50819
5.45648
5.41338
5.38502
8.11413