/*--------------------------------*- C++ -*----------------------------------*\
| =========                 |                                                 |
| \\      /  F ield         | foam-extend: Open Source CFD                    |
|  \\    /   O peration     | Version:     4.0                                |
|   \\  /    A nd           | Web:         http://www.foam-extend.org         |
|    \\/     M anipulation  |                                                 |
\*---------------------------------------------------------------------------*/
FoamFile
{
    version     2.0;
    format      ascii;
    class       volScalarField;
    location    "2350";
    object      MaU;
}
// * * * * * * * * * * * * * * * * * * * * * * * * * * * * * * * * * * * * * //

dimensions      [0 0 0 0 0 0 0];

internalField   nonuniform List<scalar> 
34480
(
0.62381
0.624806
0.625341
0.625454
0.625147
0.624348
0.622915
0.620168
0.614071
0.608274
0.627231
0.628058
0.628518
0.628549
0.62799
0.626695
0.62469
0.621725
0.614706
0.60915
0.629418
0.630176
0.630549
0.630455
0.629719
0.628371
0.626595
0.6243
0.617263
0.612142
0.629414
0.630193
0.630634
0.630672
0.63016
0.629215
0.62794
0.626358
0.619709
0.615062
0.629876
0.63076
0.631341
0.631598
0.631409
0.630942
0.630213
0.629402
0.623538
0.619376
0.629474
0.630415
0.631081
0.631468
0.631516
0.631455
0.631261
0.631273
0.626591
0.623248
0.62968
0.630763
0.631536
0.632064
0.632322
0.632601
0.632903
0.633733
0.630498
0.627957
0.629091
0.630216
0.630945
0.631358
0.631501
0.631735
0.632189
0.633558
0.631839
0.630485
0.628842
0.630123
0.630967
0.631514
0.631834
0.632228
0.632931
0.634796
0.634349
0.632902
0.625039
0.626063
0.626101
0.625223
0.623602
0.621615
0.619715
0.61917
0.61837
0.619155
0.61391
0.615372
0.615945
0.615696
0.614552
0.612236
0.608121
0.600851
0.59014
0.576283
0.618526
0.619834
0.620359
0.620097
0.618854
0.616258
0.611716
0.603867
0.591208
0.575049
0.621597
0.62282
0.623293
0.622997
0.62168
0.619038
0.614567
0.60688
0.593376
0.576038
0.622407
0.623642
0.624179
0.624017
0.622909
0.62061
0.616538
0.60928
0.595385
0.577626
0.623551
0.624861
0.625516
0.62556
0.624751
0.622906
0.619354
0.61274
0.598939
0.581336
0.623689
0.625042
0.625777
0.625957
0.625384
0.623954
0.620948
0.615121
0.60187
0.585056
0.624343
0.625804
0.626634
0.626959
0.626603
0.625544
0.623075
0.618103
0.605779
0.590038
0.624077
0.625567
0.626365
0.626607
0.626196
0.625201
0.623023
0.618767
0.607632
0.593581
0.624075
0.625672
0.626562
0.626917
0.626686
0.625924
0.624138
0.620629
0.610753
0.597501
0.620464
0.621877
0.62221
0.621547
0.619944
0.617549
0.614091
0.609282
0.599881
0.589752
0.60628
0.607847
0.608412
0.608091
0.606849
0.60453
0.600835
0.595267
0.587194
0.577004
0.611182
0.612715
0.613273
0.612896
0.611463
0.608713
0.604138
0.596879
0.58549
0.570333
0.614527
0.616059
0.616611
0.616231
0.614735
0.611805
0.606821
0.598656
0.584639
0.564817
0.61583
0.617424
0.618054
0.617786
0.616419
0.613629
0.60864
0.600048
0.583879
0.559952
0.617452
0.619135
0.619874
0.619788
0.618651
0.616168
0.611417
0.602807
0.585137
0.557921
0.618009
0.619749
0.620573
0.620619
0.619684
0.617523
0.613116
0.604784
0.586227
0.556642
0.619026
0.62086
0.621775
0.621966
0.621232
0.619397
0.615398
0.607542
0.588673
0.557422
0.61906
0.62092
0.621819
0.621955
0.621194
0.619445
0.615718
0.60839
0.589734
0.557641
0.619317
0.62124
0.622209
0.622435
0.621805
0.62025
0.616884
0.61022
0.592208
0.558714
0.615948
0.617702
0.618258
0.617725
0.616085
0.613341
0.608829
0.601394
0.583939
0.550859
0.60072
0.602094
0.602566
0.602258
0.601166
0.599234
0.596364
0.592459
0.5875
0.581969
0.605356
0.60682
0.60733
0.606921
0.605521
0.602983
0.599059
0.593405
0.58558
0.576655
0.608549
0.610134
0.610679
0.610238
0.608686
0.605796
0.601144
0.5941
0.583507
0.570571
0.610051
0.611773
0.612407
0.612031
0.610485
0.607496
0.602447
0.594401
0.581148
0.563935
0.61194
0.61379
0.614528
0.614286
0.612863
0.609976
0.604818
0.596181
0.580677
0.559466
0.612788
0.614722
0.615545
0.615412
0.614119
0.611399
0.606296
0.597401
0.580101
0.555412
0.614079
0.616108
0.617014
0.617009
0.615872
0.613372
0.608453
0.599558
0.580978
0.553344
0.614369
0.616425
0.617327
0.617285
0.616128
0.61368
0.608894
0.600169
0.580897
0.551005
0.614849
0.61694
0.617894
0.617927
0.616877
0.614564
0.609966
0.601576
0.582278
0.549847
0.611728
0.613665
0.614331
0.613823
0.612068
0.608941
0.603577
0.594581
0.575476
0.541846
0.596857
0.59794
0.5983
0.598063
0.597248
0.595865
0.593928
0.591508
0.588754
0.586036
0.600937
0.602177
0.602609
0.602252
0.601077
0.599032
0.596047
0.5921
0.587252
0.582466
0.603677
0.60515
0.605655
0.605236
0.60382
0.601283
0.597413
0.591995
0.584749
0.577129
0.605109
0.606803
0.607414
0.60701
0.605482
0.60264
0.598098
0.591399
0.581614
0.570566
0.607039
0.608919
0.609637
0.609317
0.607799
0.604855
0.599905
0.592242
0.580065
0.565429
0.608015
0.610023
0.610834
0.610591
0.609117
0.606168
0.60099
0.592659
0.578337
0.560217
0.609454
0.611581
0.612473
0.612334
0.610953
0.608092
0.602853
0.59412
0.578015
0.556634
0.609921
0.612088
0.612991
0.612826
0.611418
0.608547
0.603268
0.594349
0.576972
0.552745
0.610573
0.612766
0.613708
0.613602
0.612269
0.609487
0.604262
0.595309
0.577301
0.55
0.60768
0.609732
0.610478
0.609992
0.608173
0.604828
0.599079
0.589602
0.571369
0.541988
0.594215
0.595019
0.595276
0.595114
0.59456
0.59365
0.59243
0.590995
0.589478
0.588027
0.597697
0.598655
0.598992
0.598715
0.597818
0.596304
0.594198
0.591595
0.5887
0.586122
0.599868
0.601119
0.601553
0.601195
0.60001
0.597955
0.594973
0.591082
0.586395
0.581969
0.60106
0.602596
0.603148
0.602766
0.601382
0.598895
0.595122
0.589939
0.583158
0.57632
0.602855
0.604631
0.605297
0.604952
0.603479
0.60073
0.596358
0.590059
0.581135
0.571552
0.603818
0.605772
0.606539
0.606235
0.604722
0.601813
0.596997
0.589789
0.578785
0.566315
0.605292
0.607399
0.60825
0.60802
0.60653
0.603574
0.598487
0.590595
0.577706
0.562328
0.605848
0.60802
0.608895
0.608642
0.607103
0.604066
0.598776
0.590414
0.57602
0.557899
0.606617
0.60882
0.609729
0.609519
0.608022
0.605012
0.599655
0.590995
0.575622
0.554507
0.603918
0.605995
0.606776
0.606306
0.604475
0.601072
0.595326
0.586171
0.570296
0.546968
0.592399
0.592986
0.593163
0.593061
0.59271
0.592147
0.591417
0.590596
0.589764
0.588934
0.595364
0.596053
0.5963
0.596103
0.595466
0.594418
0.593013
0.591367
0.589667
0.588269
0.596966
0.597957
0.598306
0.598025
0.597102
0.595542
0.593371
0.5907
0.587751
0.585189
0.597848
0.599148
0.599621
0.599292
0.598126
0.596089
0.593136
0.589322
0.584787
0.580594
0.599392
0.600972
0.601561
0.601232
0.599907
0.597511
0.593883
0.588975
0.582697
0.57653
0.600237
0.602035
0.602732
0.602412
0.600977
0.598308
0.594112
0.588216
0.580132
0.571763
0.601652
0.603639
0.604424
0.604148
0.60267
0.599841
0.595226
0.588502
0.578678
0.567964
0.602213
0.604293
0.605115
0.604813
0.603259
0.600279
0.595339
0.587974
0.576657
0.563614
0.603048
0.605176
0.606029
0.605756
0.604208
0.601194
0.596089
0.588268
0.575864
0.560275
0.6005
0.602518
0.603296
0.602846
0.601068
0.597767
0.592345
0.584043
0.570997
0.55348
0.591121
0.591557
0.591676
0.591617
0.591405
0.591072
0.590648
0.590185
0.58972
0.589189
0.593688
0.594158
0.594331
0.594199
0.593772
0.593081
0.592182
0.591169
0.590177
0.589403
0.594792
0.595531
0.595796
0.59559
0.594911
0.593788
0.592277
0.590502
0.58867
0.587176
0.595364
0.596405
0.596788
0.596524
0.595599
0.594019
0.591815
0.58911
0.586134
0.583569
0.596606
0.597936
0.598434
0.598146
0.597026
0.595053
0.592188
0.588517
0.58421
0.580274
0.597269
0.598842
0.599449
0.599146
0.597869
0.59556
0.59209
0.587474
0.58171
0.576167
0.598563
0.600352
0.60105
0.600765
0.599393
0.596845
0.592881
0.587413
0.580172
0.572843
0.599055
0.600962
0.601708
0.601391
0.599917
0.597164
0.592802
0.58663
0.578061
0.568898
0.599915
0.601891
0.602669
0.60237
0.600869
0.598028
0.593431
0.586735
0.577126
0.565987
0.597477
0.59936
0.6001
0.59968
0.598015
0.594953
0.590077
0.582923
0.572652
0.56002
0.590188
0.590527
0.590608
0.590576
0.590452
0.59026
0.590019
0.58976
0.589494
0.589115
0.592473
0.592782
0.592898
0.592814
0.59254
0.592101
0.591544
0.590933
0.590355
0.589919
0.593171
0.593695
0.593887
0.593743
0.593268
0.592493
0.59148
0.590332
0.589205
0.588327
0.593483
0.594276
0.594573
0.594373
0.593675
0.592505
0.590923
0.58906
0.587132
0.585559
0.594415
0.595484
0.595886
0.59565
0.594751
0.593203
0.591034
0.588376
0.585471
0.582971
0.594873
0.596187
0.596695
0.596428
0.595351
0.59345
0.590704
0.587219
0.583192
0.579556
0.596014
0.597558
0.598157
0.597888
0.596683
0.594504
0.59125
0.586973
0.581764
0.576819
0.596381
0.598058
0.598712
0.598407
0.597081
0.594664
0.590989
0.58603
0.57972
0.573403
0.597241
0.599008
0.599696
0.599398
0.59802
0.595476
0.591527
0.586043
0.578829
0.571066
0.594874
0.596563
0.597238
0.596857
0.595357
0.592633
0.588431
0.582528
0.574711
0.565884
0.589481
0.589758
0.589816
0.5898
0.589729
0.58962
0.589484
0.589339
0.58918
0.588883
0.591576
0.591773
0.591849
0.591798
0.591628
0.591358
0.59102
0.590657
0.590319
0.590067
0.591954
0.592312
0.592444
0.592349
0.592029
0.591514
0.590854
0.590127
0.58944
0.588922
0.59208
0.592659
0.59288
0.592736
0.592231
0.591397
0.590298
0.589047
0.587809
0.586843
0.592726
0.593548
0.59386
0.593677
0.592987
0.591821
0.590236
0.588367
0.586434
0.58485
0.592984
0.594036
0.594445
0.594224
0.593357
0.591858
0.589765
0.587215
0.584449
0.58208
0.593968
0.595247
0.595743
0.595509
0.5945
0.592717
0.590149
0.586915
0.583241
0.579941
0.594171
0.595588
0.596141
0.595867
0.594728
0.5927
0.589727
0.585886
0.581347
0.577062
0.595025
0.596547
0.597135
0.59686
0.595654
0.593477
0.590223
0.585898
0.580621
0.575323
0.592696
0.594152
0.594745
0.594411
0.593108
0.590779
0.587298
0.582609
0.576829
0.57082
0.588927
0.589165
0.589206
0.5892
0.58916
0.589099
0.589023
0.588941
0.588841
0.58859
0.590898
0.591023
0.591073
0.591043
0.59094
0.590778
0.590576
0.590361
0.590161
0.590012
0.591027
0.591262
0.59135
0.591288
0.59108
0.590748
0.590329
0.589878
0.589462
0.589156
0.591044
0.591452
0.591611
0.591512
0.59116
0.590585
0.589843
0.589019
0.588232
0.587636
0.591442
0.59205
0.592282
0.592146
0.591638
0.590791
0.589669
0.588387
0.587118
0.586117
0.591526
0.592336
0.592653
0.592479
0.591809
0.590673
0.589129
0.587315
0.585443
0.583911
0.59237
0.593391
0.593787
0.593594
0.592785
0.591384
0.589429
0.587056
0.584509
0.582329
0.592385
0.593536
0.593986
0.593753
0.592817
0.591184
0.588866
0.585986
0.582789
0.579925
0.593242
0.594506
0.594992
0.594754
0.593743
0.591957
0.589374
0.586079
0.582306
0.578752
0.590927
0.592132
0.592632
0.592351
0.591262
0.589346
0.586565
0.582968
0.578801
0.574804
0.588481
0.588693
0.588724
0.588723
0.5887
0.588666
0.588623
0.588576
0.58851
0.588288
0.590378
0.590458
0.590491
0.590475
0.590413
0.590317
0.590197
0.59007
0.589949
0.589856
0.590301
0.59045
0.590507
0.590468
0.590336
0.590127
0.589868
0.589593
0.589345
0.589164
0.590286
0.590565
0.590677
0.590611
0.590374
0.589989
0.589499
0.588966
0.588468
0.5881
0.590474
0.590908
0.591075
0.590977
0.590615
0.590021
0.589249
0.588389
0.587566
0.586938
0.590422
0.591022
0.59126
0.591129
0.590631
0.589799
0.588696
0.587436
0.586188
0.585204
0.591155
0.59194
0.592246
0.592094
0.591472
0.590412
0.588971
0.587276
0.58554
0.584112
0.590967
0.591866
0.59222
0.59203
0.591292
0.590026
0.58828
0.586187
0.583978
0.58209
0.591855
0.592868
0.593255
0.59306
0.592247
0.590838
0.58886
0.586427
0.583786
0.581436
0.589531
0.590488
0.590895
0.590666
0.589789
0.588271
0.586127
0.583456
0.580522
0.57792
0.588116
0.588309
0.588333
0.588334
0.588321
0.588302
0.588278
0.58825
0.588205
0.588004
0.589979
0.590031
0.590055
0.590046
0.59001
0.589953
0.589882
0.589805
0.58973
0.589668
0.589714
0.589805
0.58984
0.589815
0.589734
0.589606
0.589449
0.589285
0.589139
0.589034
0.589736
0.589923
0.59
0.589958
0.589803
0.589552
0.589235
0.588895
0.588582
0.588354
0.589748
0.590047
0.590162
0.590095
0.589846
0.589441
0.588923
0.58836
0.587834
0.587442
0.589601
0.59003
0.590201
0.590106
0.589749
0.58916
0.588394
0.58754
0.586719
0.586093
0.590255
0.590839
0.591067
0.590953
0.590492
0.589717
0.588688
0.587509
0.586346
0.585417
0.589856
0.590531
0.590799
0.590651
0.59009
0.589145
0.587872
0.586394
0.584897
0.583671
0.590816
0.591601
0.591898
0.591745
0.591118
0.590048
0.588583
0.586839
0.585028
0.583493
0.588462
0.589189
0.589508
0.589329
0.588649
0.58749
0.585891
0.583969
0.58195
0.580293
0.587815
0.587991
0.588009
0.588011
0.588004
0.587993
0.58798
0.587963
0.58793
0.587747
0.589681
0.589718
0.589736
0.589732
0.58971
0.589676
0.589634
0.589586
0.589536
0.589489
0.58922
0.589273
0.589292
0.589277
0.589227
0.589151
0.589058
0.588963
0.58888
0.588821
0.589345
0.589467
0.58952
0.589495
0.589396
0.589236
0.589035
0.58882
0.588624
0.588481
0.589204
0.589403
0.58948
0.589435
0.589268
0.589
0.588663
0.588301
0.587971
0.58773
0.589
0.589297
0.589417
0.589351
0.589103
0.588699
0.58818
0.587615
0.587083
0.586688
0.589607
0.590026
0.59019
0.590108
0.589779
0.589232
0.588519
0.58772
0.586953
0.586355
0.588987
0.589475
0.58967
0.589559
0.589149
0.588467
0.587568
0.586553
0.585558
0.584776
0.590075
0.590663
0.590884
0.59077
0.590304
0.58952
0.588472
0.587256
0.58604
0.585048
0.58766
0.588189
0.58843
0.588295
0.587787
0.586934
0.58578
0.584439
0.583081
0.582051
0.587556
0.587716
0.587729
0.587732
0.587727
0.587722
0.587714
0.587704
0.58768
0.587515
0.58948
0.589508
0.589522
0.589521
0.589508
0.589487
0.589461
0.589429
0.589392
0.589351
0.588786
0.588815
0.588824
0.588813
0.588783
0.588739
0.588686
0.588633
0.588589
0.588559
0.589074
0.589154
0.58919
0.589176
0.589114
0.589014
0.588889
0.588755
0.588632
0.588541
0.588801
0.588929
0.588979
0.588948
0.588841
0.588668
0.588453
0.588227
0.588023
0.587878
0.588573
0.588773
0.588854
0.58881
0.588644
0.588374
0.588033
0.587666
0.587327
0.58708
0.589153
0.589443
0.589557
0.5895
0.589273
0.5889
0.588421
0.587893
0.5874
0.587017
0.588301
0.588639
0.588776
0.588696
0.588407
0.587932
0.587315
0.586638
0.585989
0.585501
0.589587
0.590014
0.590171
0.59009
0.589757
0.589204
0.588478
0.587654
0.586856
0.586218
0.58706
0.587427
0.587603
0.587504
0.58714
0.586533
0.585728
0.584821
0.583926
0.583306
0.587301
0.587444
0.587452
0.587455
0.587453
0.58745
0.587446
0.58744
0.587423
0.587277
0.589379
0.589404
0.589417
0.589417
0.589409
0.589396
0.589377
0.589354
0.589324
0.589283
0.588391
0.588403
0.588405
0.588397
0.588379
0.588354
0.588326
0.588299
0.588279
0.588268
0.588901
0.588952
0.588975
0.588968
0.588931
0.588869
0.588793
0.58871
0.588635
0.588575
0.588514
0.588594
0.588625
0.588606
0.588538
0.58843
0.588296
0.588157
0.588034
0.587948
0.588293
0.588424
0.588478
0.588449
0.588341
0.588167
0.587947
0.587714
0.5875
0.587348
0.588848
0.589041
0.589116
0.589077
0.588926
0.58868
0.588368
0.58803
0.587721
0.587481
0.587753
0.587978
0.588072
0.588017
0.58782
0.5875
0.587089
0.586647
0.586231
0.585936
0.589315
0.589617
0.589726
0.589669
0.589441
0.589064
0.588577
0.588035
0.587524
0.587114
0.586574
0.586817
0.586942
0.586873
0.58662
0.586205
0.58566
0.585065
0.584487
0.584129
0.586951
0.587073
0.587077
0.587079
0.587078
0.587077
0.587076
0.587073
0.587064
0.58694
0.589406
0.589431
0.589442
0.589443
0.589438
0.589429
0.589415
0.589396
0.589368
0.589322
0.588033
0.588035
0.588034
0.588029
0.588018
0.588004
0.587989
0.587977
0.587969
0.58797
0.588806
0.588838
0.588851
0.588846
0.588824
0.588788
0.588742
0.588694
0.58865
0.588611
0.588335
0.588384
0.588404
0.588393
0.588351
0.588285
0.588203
0.588119
0.588044
0.587995
0.588146
0.588231
0.588266
0.588249
0.588181
0.58807
0.587932
0.587786
0.587652
0.587557
0.588663
0.588784
0.588831
0.588804
0.588706
0.588549
0.588353
0.588144
0.587959
0.587812
0.58734
0.587486
0.58755
0.587515
0.587385
0.587175
0.586907
0.586624
0.586356
0.586184
0.589255
0.589461
0.589534
0.589496
0.589344
0.589097
0.588781
0.588435
0.588117
0.587851
0.586068
0.58622
0.586307
0.586261
0.586092
0.585816
0.585458
0.585079
0.584708
0.584516
0.586284
0.586379
0.586381
0.586383
0.586383
0.586383
0.586384
0.586384
0.586382
0.586287
0.589628
0.589655
0.589663
0.589664
0.58966
0.589653
0.589642
0.589627
0.589601
0.589547
0.587757
0.587758
0.587761
0.587759
0.587754
0.587745
0.587735
0.587726
0.58772
0.587724
0.588773
0.588789
0.588794
0.58879
0.588776
0.588755
0.58873
0.588704
0.588683
0.588662
0.588263
0.588294
0.588308
0.588302
0.588277
0.588237
0.588187
0.588135
0.588089
0.588058
0.588126
0.588181
0.588205
0.588194
0.588152
0.588083
0.587997
0.587906
0.587821
0.58776
0.588582
0.588652
0.588679
0.58866
0.588598
0.5885
0.58838
0.588255
0.58815
0.588068
0.587138
0.587237
0.587283
0.587262
0.587179
0.587043
0.58687
0.586686
0.586506
0.586401
0.58946
0.589593
0.589639
0.589613
0.589514
0.589355
0.589157
0.588943
0.588754
0.58858
0.58531
0.585404
0.585466
0.585436
0.585326
0.585146
0.584914
0.584675
0.584432
0.584339
0.584989
0.585055
0.585058
0.58506
0.585062
0.585062
0.585062
0.585061
0.585061
0.584993
0.590185
0.590203
0.5902
0.590194
0.590189
0.590186
0.590183
0.590179
0.590168
0.590118
0.587679
0.587692
0.587705
0.58771
0.58771
0.587703
0.587691
0.587676
0.587658
0.587647
0.588774
0.588776
0.588773
0.588767
0.588758
0.588746
0.588734
0.588724
0.58872
0.588717
0.588281
0.588303
0.588313
0.588311
0.588296
0.588271
0.588239
0.588206
0.588174
0.588151
0.588202
0.588239
0.588255
0.588249
0.588222
0.588179
0.588124
0.588066
0.588011
0.587968
0.588584
0.588621
0.588635
0.588621
0.588581
0.588519
0.588444
0.58837
0.588313
0.588275
0.587303
0.58738
0.587416
0.587405
0.587351
0.587261
0.587146
0.58702
0.586887
0.5868
0.590052
0.590127
0.590153
0.590132
0.590066
0.589963
0.589837
0.589709
0.589608
0.589511
0.584028
0.584091
0.584136
0.584116
0.584043
0.583924
0.583771
0.583615
0.583445
0.583398
0.583167
0.583207
0.58322
0.583227
0.583229
0.583227
0.583219
0.583207
0.58319
0.583135
0.59111
0.591082
0.591052
0.591033
0.591024
0.591025
0.591037
0.591059
0.591093
0.591103
0.587862
0.587899
0.587922
0.587934
0.587937
0.58793
0.587915
0.58789
0.587854
0.58781
0.588764
0.588756
0.588749
0.588742
0.588734
0.588727
0.588721
0.588719
0.588725
0.588738
0.588336
0.588354
0.588363
0.588361
0.588351
0.588333
0.58831
0.588285
0.588261
0.588241
0.588299
0.588326
0.588337
0.588333
0.588314
0.588282
0.588243
0.588202
0.588162
0.58813
0.588605
0.588628
0.588636
0.588625
0.588595
0.58855
0.588497
0.588446
0.58841
0.588396
0.587823
0.587895
0.587925
0.587919
0.58788
0.587813
0.587727
0.587631
0.587522
0.587423
0.591011
0.591039
0.59105
0.591031
0.590981
0.590905
0.590815
0.590731
0.590685
0.590683
0.582341
0.582399
0.582432
0.582417
0.582362
0.582273
0.582161
0.582045
0.581918
0.581876
0.439205
0.418453
0.425359
0.466318
0.39143
0.368192
0.379233
0.436469
0.348241
0.321094
0.338432
0.417356
0.31017
0.280773
0.305107
0.406435
0.278691
0.248625
0.280194
0.404022
0.251587
0.22207
0.261906
0.401214
0.22987
0.202226
0.250851
0.398579
0.209484
0.185367
0.24283
0.396484
0.191541
0.173519
0.239247
0.398116
0.172079
0.162209
0.234935
0.393618
0.499287
0.489088
0.489413
0.499128
0.468796
0.456181
0.457326
0.470005
0.437919
0.421198
0.423408
0.440982
0.408897
0.387931
0.391525
0.414246
0.384235
0.358771
0.364029
0.392095
0.362189
0.33184
0.337892
0.371221
0.344307
0.30897
0.314857
0.353283
0.327864
0.287729
0.293168
0.336585
0.314321
0.270151
0.275137
0.322947
0.298959
0.252365
0.254964
0.305305
0.56669
0.564474
0.563944
0.565077
0.54893
0.545234
0.544539
0.54684
0.528943
0.523048
0.52224
0.526576
0.506704
0.498436
0.497637
0.504471
0.485706
0.474984
0.474356
0.484091
0.464629
0.451322
0.450914
0.463659
0.445691
0.429717
0.429485
0.445177
0.427055
0.408535
0.408447
0.426905
0.410793
0.390593
0.390551
0.410933
0.391877
0.372165
0.3714
0.391309
0.579155
0.578071
0.577722
0.578073
0.569525
0.568113
0.567623
0.567987
0.557665
0.555181
0.554463
0.555364
0.542892
0.539101
0.538196
0.539921
0.528455
0.523216
0.522198
0.525052
0.512891
0.506076
0.505001
0.509248
0.498289
0.489827
0.488735
0.494575
0.482975
0.472943
0.471891
0.479401
0.468751
0.457773
0.45677
0.46558
0.450909
0.440978
0.439716
0.448065
0.586023
0.585432
0.585232
0.585421
0.580195
0.579715
0.579486
0.579495
0.572716
0.571776
0.571353
0.571425
0.562612
0.560977
0.560324
0.560592
0.552655
0.55015
0.549278
0.54991
0.541359
0.537845
0.536778
0.537956
0.530628
0.526015
0.524796
0.526708
0.518845
0.513156
0.511857
0.514646
0.507673
0.501332
0.500029
0.503603
0.492921
0.487721
0.486291
0.489313
0.588601
0.588125
0.58798
0.588165
0.585157
0.584945
0.584837
0.584828
0.580072
0.579651
0.579434
0.579417
0.572848
0.572086
0.571709
0.571702
0.565794
0.564562
0.563994
0.56405
0.557476
0.55565
0.554876
0.555074
0.549648
0.547132
0.546166
0.546614
0.54075
0.537528
0.536421
0.53724
0.532327
0.528656
0.527511
0.528738
0.520415
0.517863
0.516642
0.517201
0.589726
0.589295
0.589172
0.589359
0.587846
0.587753
0.587702
0.587693
0.584309
0.584114
0.584007
0.583987
0.57894
0.578569
0.578368
0.578331
0.573736
0.573115
0.572787
0.572739
0.567385
0.566428
0.565943
0.565903
0.561543
0.560177
0.559524
0.559534
0.554745
0.552938
0.552144
0.552275
0.548585
0.546467
0.545614
0.545935
0.53891
0.537908
0.537008
0.536567
0.590058
0.589641
0.589527
0.589716
0.589188
0.589141
0.589114
0.589109
0.586727
0.586629
0.586575
0.586563
0.582711
0.582519
0.58241
0.582384
0.578812
0.578483
0.578297
0.578252
0.573851
0.573331
0.573043
0.572978
0.569413
0.568654
0.568246
0.568173
0.564136
0.563112
0.562594
0.562545
0.559726
0.5585
0.557916
0.557935
0.551683
0.551591
0.550993
0.550212
0.590013
0.589602
0.589491
0.589681
0.589804
0.589778
0.589763
0.589759
0.588085
0.588034
0.588005
0.587998
0.585088
0.584984
0.584924
0.584907
0.582167
0.581987
0.581881
0.58185
0.578275
0.577984
0.577815
0.577764
0.57491
0.574478
0.57423
0.574161
0.570765
0.570177
0.569853
0.56978
0.56762
0.566905
0.566526
0.566469
0.560801
0.561229
0.560863
0.560008
0.589787
0.589377
0.589268
0.589459
0.590001
0.589986
0.589976
0.589973
0.588785
0.588757
0.588741
0.588737
0.586569
0.58651
0.586474
0.586464
0.584385
0.584283
0.584221
0.584202
0.58134
0.581172
0.581071
0.581037
0.578836
0.578584
0.578433
0.578384
0.575554
0.575211
0.575012
0.574953
0.573348
0.572926
0.572687
0.572628
0.567471
0.568184
0.567976
0.567141
0.589488
0.589078
0.588969
0.589161
0.589971
0.589961
0.589954
0.589951
0.589078
0.589062
0.589053
0.589051
0.58747
0.587435
0.587413
0.587406
0.585839
0.585779
0.585743
0.58573
0.583467
0.583368
0.583306
0.583284
0.581662
0.581511
0.581418
0.581385
0.579036
0.578832
0.578709
0.578668
0.577568
0.577314
0.577165
0.577122
0.572422
0.573276
0.573167
0.57238
0.589172
0.58876
0.588651
0.588844
0.589829
0.589821
0.589816
0.589813
0.589119
0.589111
0.589106
0.589105
0.587996
0.587974
0.58796
0.587955
0.586768
0.586733
0.586711
0.586703
0.584931
0.58487
0.584833
0.584818
0.583697
0.583603
0.583545
0.583524
0.581554
0.58143
0.581355
0.581327
0.580693
0.580537
0.580445
0.580416
0.576114
0.577022
0.576972
0.57624
0.588868
0.588452
0.588343
0.588539
0.589646
0.58964
0.589635
0.589632
0.58901
0.589006
0.589004
0.589003
0.588286
0.588271
0.588262
0.588258
0.587339
0.587317
0.587304
0.5873
0.585923
0.585885
0.585861
0.585852
0.585152
0.585092
0.585056
0.585043
0.583344
0.583268
0.583221
0.583203
0.583006
0.582908
0.582851
0.582835
0.578861
0.579766
0.579749
0.579075
0.588585
0.588166
0.588058
0.588256
0.589469
0.589463
0.589458
0.589455
0.588811
0.588809
0.588809
0.588809
0.588435
0.588425
0.588418
0.588415
0.587667
0.587655
0.587648
0.587645
0.586581
0.586558
0.586543
0.586537
0.586182
0.586144
0.586121
0.586113
0.584577
0.584531
0.584502
0.58449
0.584715
0.584651
0.584616
0.584608
0.580885
0.58175
0.581751
0.581138
0.588319
0.587897
0.587792
0.587993
0.58933
0.589323
0.589318
0.589314
0.588557
0.588558
0.588559
0.58856
0.588508
0.588501
0.588496
0.588494
0.587841
0.587835
0.587831
0.587829
0.587013
0.586998
0.586988
0.586984
0.586904
0.58688
0.586866
0.586861
0.585383
0.585355
0.585337
0.58533
0.585979
0.585936
0.585915
0.585914
0.582349
0.583146
0.583155
0.582607
0.588038
0.587615
0.587514
0.58772
0.589257
0.589248
0.589242
0.589238
0.588272
0.588275
0.588276
0.588277
0.588552
0.588546
0.588543
0.588541
0.587927
0.587924
0.587922
0.587921
0.587304
0.587294
0.587287
0.587285
0.587409
0.587395
0.587387
0.587384
0.585868
0.585851
0.58584
0.585834
0.586933
0.586902
0.58689
0.586894
0.583353
0.584058
0.584068
0.583593
0.587645
0.587226
0.587133
0.587344
0.589287
0.589277
0.589269
0.589265
0.587979
0.587982
0.587984
0.587985
0.588596
0.588592
0.58859
0.588589
0.587982
0.58798
0.587979
0.587978
0.587526
0.587518
0.587514
0.587512
0.587772
0.587765
0.587762
0.587761
0.586141
0.586129
0.586121
0.586117
0.587705
0.587682
0.587675
0.587683
0.583908
0.5845
0.584508
0.584115
0.586913
0.586512
0.586433
0.586644
0.589501
0.589488
0.589479
0.589475
0.58773
0.587732
0.587733
0.587733
0.588656
0.588655
0.588655
0.588655
0.588047
0.588045
0.588044
0.588043
0.587734
0.587727
0.587724
0.587723
0.588054
0.588054
0.588054
0.588054
0.586356
0.586343
0.586336
0.586333
0.58846
0.588441
0.588437
0.588449
0.583894
0.58435
0.584354
0.58405
0.5855
0.585146
0.585091
0.585286
0.59006
0.590045
0.590038
0.590038
0.587632
0.587628
0.587625
0.587622
0.588724
0.588726
0.588728
0.58873
0.588138
0.588136
0.588134
0.588133
0.587943
0.587937
0.587934
0.587934
0.588285
0.588289
0.588291
0.588291
0.586713
0.586691
0.586682
0.586684
0.589434
0.589421
0.589421
0.589437
0.583081
0.58337
0.583368
0.583173
0.58343
0.58321
0.583184
0.583308
0.591077
0.591071
0.591076
0.591089
0.587748
0.587735
0.587725
0.587719
0.588763
0.588769
0.588773
0.588776
0.588225
0.588222
0.58822
0.588219
0.588106
0.588101
0.588098
0.588099
0.588428
0.588436
0.588438
0.588437
0.58726
0.587222
0.587211
0.587224
0.590754
0.590766
0.590772
0.590777
0.5816
0.581673
0.581669
0.581625
0.595281
0.603738
0.60774
0.610843
0.613968
0.616725
0.618963
0.620711
0.622077
0.623223
0.596212
0.599549
0.606971
0.61202
0.616486
0.619873
0.622337
0.624102
0.625347
0.626289
0.600071
0.596429
0.607413
0.613129
0.618412
0.622009
0.624577
0.6264
0.627653
0.628545
0.603485
0.592554
0.607168
0.612741
0.618601
0.62215
0.624706
0.626484
0.627701
0.628565
0.607976
0.590542
0.607915
0.613214
0.619519
0.622919
0.625446
0.627141
0.628268
0.629052
0.611062
0.587885
0.607655
0.612481
0.619238
0.622453
0.624994
0.62664
0.627773
0.628597
0.615061
0.586621
0.608478
0.612588
0.61975
0.622701
0.625258
0.626847
0.627953
0.628753
0.616629
0.583568
0.607483
0.610824
0.618494
0.621248
0.623967
0.625639
0.626945
0.627982
0.618292
0.582084
0.607931
0.609938
0.617751
0.620038
0.622986
0.624806
0.626315
0.627543
0.602746
0.566218
0.59471
0.597063
0.606749
0.610618
0.615266
0.618378
0.62094
0.62296
0.537861
0.559929
0.576275
0.587903
0.595867
0.601411
0.605418
0.608409
0.610718
0.612637
0.524151
0.554696
0.576782
0.590731
0.599584
0.605575
0.609818
0.612893
0.615136
0.616799
0.513886
0.551565
0.577887
0.592905
0.602358
0.608622
0.613011
0.616153
0.618389
0.619985
0.505498
0.548533
0.57806
0.593399
0.603258
0.609599
0.613997
0.617103
0.619294
0.620846
0.50104
0.547715
0.579324
0.594715
0.604863
0.611155
0.615496
0.618503
0.620592
0.622054
0.497842
0.546642
0.579737
0.594892
0.605281
0.611452
0.615735
0.618657
0.620707
0.622172
0.497444
0.547072
0.581241
0.595872
0.606424
0.612373
0.61658
0.619404
0.621393
0.622818
0.496648
0.546124
0.581194
0.595127
0.605871
0.611605
0.61584
0.618681
0.620793
0.622391
0.497138
0.546444
0.582372
0.595048
0.605588
0.61085
0.615181
0.618141
0.620421
0.622205
0.488054
0.536408
0.573088
0.585276
0.596838
0.603119
0.608641
0.612531
0.615572
0.617841
0.568979
0.575253
0.58133
0.586706
0.591291
0.595124
0.598297
0.600919
0.603111
0.605002
0.555743
0.567136
0.577322
0.585649
0.592317
0.597566
0.60166
0.604843
0.607305
0.609179
0.542657
0.559832
0.574202
0.585091
0.593401
0.599652
0.60436
0.607909
0.610564
0.612509
0.529501
0.552407
0.570762
0.583758
0.593341
0.600253
0.605314
0.609045
0.611795
0.613785
0.519576
0.547552
0.569337
0.583916
0.594418
0.601715
0.606944
0.610723
0.61347
0.615433
0.510731
0.543021
0.567746
0.58345
0.594626
0.602127
0.607437
0.611219
0.613969
0.615954
0.504703
0.540496
0.567675
0.584064
0.595695
0.60323
0.608543
0.612281
0.615004
0.616968
0.499011
0.537461
0.566705
0.583407
0.595356
0.602841
0.608183
0.611949
0.614764
0.616862
0.495303
0.536122
0.567101
0.58347
0.595305
0.602507
0.607907
0.611772
0.614717
0.616965
0.485212
0.527229
0.559415
0.575727
0.588262
0.596188
0.602405
0.606933
0.610411
0.612936
0.578792
0.581201
0.584106
0.587054
0.589831
0.592344
0.594566
0.596508
0.598222
0.599781
0.57002
0.574785
0.5802
0.585342
0.589879
0.593738
0.59696
0.599615
0.601771
0.603474
0.559499
0.567577
0.575988
0.583411
0.589633
0.594701
0.598776
0.602015
0.60455
0.60648
0.547183
0.559286
0.57103
0.580713
0.588469
0.594534
0.599255
0.602914
0.605723
0.607826
0.53649
0.552885
0.567913
0.579603
0.588638
0.59545
0.600612
0.604521
0.607477
0.609655
0.525873
0.546577
0.564727
0.578122
0.588203
0.595559
0.601025
0.605095
0.608156
0.610416
0.51734
0.542169
0.563169
0.577913
0.588795
0.596497
0.602141
0.606289
0.609396
0.611679
0.508964
0.537552
0.561092
0.576822
0.5883
0.596201
0.601983
0.606222
0.609435
0.611839
0.502449
0.534666
0.560408
0.576541
0.58822
0.596102
0.601996
0.606343
0.609664
0.612187
0.49155
0.526364
0.553555
0.570076
0.582394
0.590842
0.597311
0.602129
0.60582
0.608469
0.585286
0.586048
0.587212
0.588577
0.590012
0.591429
0.592775
0.594029
0.595208
0.596361
0.579954
0.581809
0.584327
0.587051
0.589722
0.592203
0.59443
0.596377
0.598032
0.599389
0.572417
0.575819
0.580128
0.584516
0.588607
0.592234
0.595348
0.597961
0.600101
0.601796
0.5626
0.568212
0.57478
0.581038
0.58659
0.591305
0.595216
0.598404
0.600958
0.602942
0.553479
0.561768
0.570827
0.578962
0.585877
0.591529
0.596075
0.599689
0.602533
0.604701
0.543682
0.554975
0.566633
0.576551
0.584691
0.591123
0.596172
0.60011
0.60318
0.605513
0.535232
0.549712
0.563942
0.575455
0.584632
0.591663
0.597079
0.601237
0.604452
0.606873
0.526538
0.544228
0.560905
0.573753
0.583764
0.591234
0.596931
0.601276
0.604643
0.607198
0.519401