/*--------------------------------*- C++ -*----------------------------------*\
| =========                 |                                                 |
| \\      /  F ield         | foam-extend: Open Source CFD                    |
|  \\    /   O peration     | Version:     4.0                                |
|   \\  /    A nd           | Web:         http://www.foam-extend.org         |
|    \\/     M anipulation  |                                                 |
\*---------------------------------------------------------------------------*/
FoamFile
{
    version     2.0;
    format      ascii;
    class       volScalarField;
    location    "2350";
    object      mut;
}
// * * * * * * * * * * * * * * * * * * * * * * * * * * * * * * * * * * * * * //

dimensions      [1 -1 -1 0 0 0 0];

internalField   nonuniform List<scalar> 
34480
(
0.00188847
0.00188722
0.00188705
0.00188788
0.00189
0.00189391
0.00190144
0.0019197
0.00195896
0.00203021
0.0159267
0.0151187
0.0148191
0.0145491
0.0129268
0.00824399
0.00340691
0.00134831
0.000984823
0.00145488
0.0442691
0.042611
0.0409236
0.037479
0.0286703
0.0146815
0.0051184
0.0018285
0.00124084
0.00181175
0.0484184
0.0462607
0.0443196
0.0402806
0.0297083
0.0141608
0.00479328
0.0017755
0.00128734
0.0019776
0.0477414
0.0453214
0.0435564
0.0397155
0.0288495
0.0131892
0.00440851
0.00168452
0.00129888
0.00209658
0.0459923
0.0435077
0.041847
0.0380607
0.0268358
0.0116156
0.00385796
0.0015533
0.00130532
0.00222416
0.0438626
0.0415393
0.0400792
0.0364656
0.0252704
0.0105522
0.00349407
0.00146112
0.00131284
0.00233374
0.0364096
0.0347172
0.0336876
0.0309402
0.0214254
0.00863872
0.00281206
0.00123973
0.00123606
0.0023407
0.012429
0.0121093
0.0120061
0.0117294
0.00993105
0.00512546
0.00167723
0.000736723
0.000834305
0.00178638
0.00180096
0.00180087
0.00180253
0.00180581
0.00181059
0.0018167
0.00182474
0.00183598
0.00185255
0.00181384
0.00188851
0.00188665
0.00188605
0.00188656
0.00188842
0.00189187
0.00189737
0.00190683
0.00192453
0.00196536
0.0149588
0.0143237
0.0141317
0.014315
0.0147259
0.0147746
0.0129474
0.0076444
0.00249479
0.00204503
0.0407438
0.0395155
0.038849
0.0383111
0.0366977
0.0319866
0.0230052
0.0112947
0.00328114
0.00280214
0.0448204
0.043151
0.0423472
0.041774
0.0399312
0.0344328
0.0242068
0.0114387
0.0033005
0.00316936
0.0446548
0.0426973
0.0419513
0.0415926
0.0401093
0.0348386
0.0244541
0.0112838
0.00323793
0.00345053
0.0434403
0.0413725
0.0406445
0.04042
0.0392055
0.0342106
0.0239582
0.0108492
0.00316552
0.00378152
0.0418358
0.0398507
0.0392132
0.0390728
0.0380963
0.033466
0.0235382
0.0105534
0.00312909
0.00409792
0.0351441
0.0336712
0.0332022
0.0331844
0.0326755
0.0293604
0.0210947
0.00938447
0.00285445
0.00417051
0.0123673
0.0120601
0.0119989
0.0120568
0.0121869
0.0120296
0.0106114
0.00545474
0.00170681
0.00280092
0.00179638
0.00179392
0.00179343
0.00179462
0.00179741
0.00180152
0.00180769
0.00181753
0.0018418
0.00188912
0.00188401
0.0018824
0.00188187
0.00188233
0.00188392
0.00188669
0.00189067
0.00189667
0.0019056
0.00191913
0.0140622
0.0136458
0.0135116
0.0136621
0.0141008
0.0147411
0.0151433
0.0142156
0.0101115
0.00583665
0.0372117
0.0362439
0.0359053
0.0360513
0.036368
0.0359482
0.0330148
0.0253635
0.0133437
0.00709914
0.0410821
0.0397776
0.0393472
0.0395728
0.0400696
0.0397173
0.0361974
0.026618
0.0125401
0.00720386
0.0413109
0.0397948
0.0393786
0.0397181
0.0405223
0.0406528
0.0373616
0.026693
0.0114198
0.00717599
0.0405695
0.0389611
0.0385249
0.0389285
0.0399573
0.0405763
0.0376976
0.0261772
0.0103054
0.00724762
0.0394633
0.037896
0.0375028
0.0379108
0.0390424
0.0400211
0.037651
0.0255312
0.00938152
0.00733137
0.033622
0.0324584
0.0321488
0.032466
0.0334071
0.0345684
0.0334145
0.0226409
0.00796967
0.00704267
0.0122604
0.0120049
0.0119607
0.0120212
0.012217
0.0124492
0.0126046
0.0106467
0.00448903
0.00445649
0.00178906
0.00178616
0.00178529
0.00178618
0.00178887
0.00179323
0.00180026
0.00181208
0.00183882
0.00189233
0.00187582
0.00187469
0.00187431
0.00187466
0.00187582
0.00187769
0.00188001
0.00188309
0.00188704
0.00189172
0.0134714
0.0132236
0.0131328
0.0132287
0.0135197
0.0139755
0.0144498
0.0148653
0.014595
0.0128621
0.034039
0.0333553
0.0331597
0.033362
0.033928
0.0346068
0.034633
0.0324115
0.025687
0.0173826
0.0376444
0.0367027
0.0364342
0.0367254
0.0375339
0.0385404
0.0385995
0.035294
0.0257931
0.0167224
0.038191
0.0370981
0.0368295
0.0371861
0.0381991
0.0395798
0.0399749
0.0361451
0.0246345
0.0158809
0.0378697
0.036693
0.0363912
0.036787
0.0379467
0.0396904
0.0405398
0.0363518
0.0231435
0.0153345
0.0372093
0.0360336
0.0357524
0.0361409
0.037344
0.0392838
0.0405173
0.0360611
0.0215253
0.0148459
0.032206
0.0313241
0.0310939
0.0313811
0.0322889
0.0339199
0.0354077
0.032
0.0185296
0.0137235
0.0121944
0.011984
0.0119515
0.0119978
0.0121467
0.0123369
0.0125439
0.0126727
0.00958885
0.00831946
0.00178016
0.00177711
0.00177611
0.00177691
0.00177962
0.00178429
0.00179188
0.00180459
0.00183074
0.00187809
0.00186474
0.00186405
0.00186382
0.00186406
0.00186481
0.00186592
0.00186711
0.00186853
0.00187011
0.00187158
0.013189
0.0130519
0.0129919
0.0130515
0.013231
0.0134915
0.0137225
0.0140114
0.0142928
0.0144153
0.0315055
0.0311045
0.030998
0.031123
0.0315065
0.0321208
0.0328082
0.0330907
0.0316397
0.0274614
0.0347722
0.0341697
0.0340004
0.034196
0.0347917
0.0357767
0.036878
0.0371098
0.0340963
0.0274698
0.0355147
0.0347909
0.0346144
0.0348551
0.0355988
0.036865
0.0383262
0.0385832
0.0342337
0.026305
0.0355128
0.0347019
0.0344867
0.0347629
0.0356234
0.0371639
0.0390481
0.0394576
0.033829
0.0253957
0.0352033
0.0343592
0.0341512
0.0344278
0.0353312
0.0370028
0.0391543
0.0396399
0.0328226
0.0244439
0.0309615
0.0303138
0.0301384
0.0303463
0.0310164
0.0323218
0.0341943
0.0350295
0.0289297
0.022294
0.0121761
0.0120027
0.0119791
0.0120106
0.012112
0.0122297
0.0123005
0.012696
0.0125743
0.0122115
0.00176982
0.00176676
0.00176568
0.00176643
0.00176911
0.00177385
0.0017815
0.00179387
0.00181659
0.00185322
0.0018513
0.00185095
0.00185083
0.00185098
0.00185142
0.00185199
0.00185251
0.0018531
0.00185367
0.00185406
0.013147
0.0130807
0.0130433
0.0130822
0.013194
0.0133325
0.0134243
0.0135395
0.0136594
0.0137513
0.0297469
0.0295535
0.0295059
0.0295657
0.0297592
0.0300878
0.0305433
0.0310947
0.0314185
0.0310578
0.032605
0.0322641
0.0321652
0.0322724
0.0326182
0.0332412
0.0341517
0.0351927
0.03548
0.0339459
0.0333873
0.0329495
0.0328418
0.0329807
0.0334354
0.0342679
0.0355102
0.0369057
0.0369212
0.0340656
0.0335734
0.0330498
0.0329036
0.0330754
0.0336305
0.0346841
0.0363074
0.0381511
0.0378588
0.0338492
0.033498
0.0329223
0.0327755
0.0329542
0.0335603
0.0347313
0.0365766
0.0386898
0.0379501
0.0331016
0.0299086
0.0294533
0.0293257
0.0294662
0.0299199
0.0308155
0.0322744
0.0342164
0.0337668
0.0299546
0.0122091
0.0120668
0.0120518
0.0120717
0.0121353
0.0121878
0.0121402
0.0123351
0.0127467
0.0136382
0.00175789
0.00175493
0.00175385
0.00175454
0.00175711
0.0017617
0.00176896
0.00178023
0.0017987
0.00182517
0.00183589
0.00183577
0.00183574
0.00183582
0.00183605
0.00183627
0.00183646
0.00183666
0.00183683
0.00183688
0.0132691
0.0132504
0.0132299
0.0132564
0.0133256
0.0133889
0.0134286
0.0134711
0.013502
0.0134922
0.0286856
0.0286087
0.0285935
0.0286185
0.0287008
0.0288352
0.0290273
0.0292922
0.0295738
0.029792
0.0311273
0.0309501
0.0308958
0.0309485
0.0311267
0.0314515
0.0319521
0.0326489
0.0333491
0.0337451
0.0318254
0.0315794
0.0315185
0.0315912
0.0318418
0.0323051
0.0330408
0.0340992
0.0350948
0.03539
0.0320803
0.0317604
0.0316659
0.0317654
0.0320961
0.0327279
0.0337631
0.0353033
0.0366622
0.0367231
0.0321314
0.0317561
0.0316574
0.0317653
0.0321458
0.0328816
0.0341054
0.0359717
0.0374814
0.0371055
0.0290745
0.0287676
0.0286792
0.0287688
0.0290575
0.029618
0.030542
0.0321144
0.0335578
0.0335476
0.0123019
0.0121845
0.0121768
0.012188
0.0122224
0.0122208
0.0120996
0.0121029
0.0122898
0.0129849
0.00174424
0.00174148
0.00174045
0.00174108
0.00174345
0.0017477
0.00175424
0.00176398
0.00177838
0.00179695
0.00181875
0.00181877
0.00181878
0.00181883
0.00181892
0.00181897
0.00181901
0.00181904
0.00181905
0.00181898
0.0134976
0.0135134
0.0135066
0.013525
0.0135652
0.0135904
0.0136096
0.0136262
0.013627
0.0135851
0.0281279
0.028106
0.0281061
0.0281162
0.028147
0.0281921
0.0282571
0.0283455
0.0284429
0.0285276
0.0302023
0.0301134
0.0300843
0.0301092
0.0301971
0.0303547
0.0305926
0.0309228
0.0312974
0.0316306
0.0307571
0.0306258
0.0305937
0.0306295
0.0307598
0.0309968
0.0313679
0.0319152
0.0325575
0.0331294
0.031001
0.0308137
0.0307552
0.0308102
0.030998
0.0313511
0.0319232
0.0328125
0.0338832
0.0348218
0.0310981
0.0308624
0.030799
0.0308609
0.0310895
0.0315237
0.0322364
0.0333884
0.0347755
0.0359128
0.0284636
0.0282649
0.0282069
0.0282611
0.0284343
0.0287593
0.029274
0.0302066
0.0314652
0.0327013
0.0124605
0.0123623
0.0123609
0.0123657
0.0123784
0.0123351
0.0121781
0.012071
0.0120509
0.0123134
0.00172874
0.00172626
0.00172532
0.00172588
0.001728
0.00173175
0.0017374
0.00174543
0.0017563
0.0017691
0.00179997
0.00180007
0.00180012
0.00180014
0.00180016
0.00180014
0.00180011
0.00180008
0.00180004
0.00179993
0.0137984
0.0138414
0.0138461
0.0138588
0.0138772
0.0138881
0.013899
0.0139055
0.0138957
0.013843
0.027888
0.02789
0.0278965
0.0279009
0.0279102
0.0279225
0.0279408
0.0279645
0.0279876
0.0280025
0.0296644
0.0296192
0.0296032
0.0296153
0.0296593
0.0297364
0.0298482
0.0299943
0.0301543
0.0302896
0.0300718
0.0300034
0.0299873
0.0300043
0.0300708
0.0301888
0.0303667
0.0306162
0.0309093
0.0311767
0.0302668
0.0301602
0.0301251
0.0301547
0.0302588
0.03045
0.0307494
0.031196
0.0317555
0.0323088
0.0303621
0.0302178
0.0301784
0.0302127
0.0303466
0.0305945
0.030987
0.0316012
0.0323927
0.0331902
0.0280621
0.0279382
0.0279022
0.0279332
0.0280306
0.0282037
0.0284626
0.0289336
0.029637
0.0304954
0.01269
0.0126057
0.0126095
0.01261
0.0126068
0.0125343
0.0123678
0.0122137
0.0120873
0.012146
0.0017113
0.00170916
0.00170833
0.00170882
0.00171065
0.00171382
0.00171849
0.00172485
0.00173282
0.00174149
0.00177961
0.00177974
0.0017798
0.0017798
0.00177979
0.00177976
0.00177972
0.00177967
0.00177962
0.00177949
0.0141698
0.0142229
0.0142379
0.0142465
0.0142529
0.01426
0.0142668
0.0142687
0.014254
0.0141959
0.027836
0.0278454
0.0278543
0.0278566
0.0278584
0.0278608
0.0278646
0.0278687
0.0278701
0.0278658
0.0293733
0.0293488
0.0293396
0.0293458
0.0293691
0.0294092
0.029465
0.0295333
0.0296031
0.0296558
0.0296579
0.0296218
0.0296136
0.0296219
0.0296564
0.0297163
0.0298029
0.0299163
0.0300422
0.030147
0.0297962
0.0297363
0.0297155
0.0297315
0.0297889
0.0298919
0.0300473
0.0302649
0.0305287
0.0307764
0.0298694
0.0297818
0.0297579
0.0297766
0.0298544
0.0299945
0.0302081
0.0305223
0.0309164
0.0312926
0.0278427
0.0277678
0.027747
0.0277637
0.027814
0.0278948
0.0280108
0.0282229
0.0285516
0.028969
0.0129946
0.01292
0.0129283
0.0129258
0.0129109
0.0128216
0.0126624
0.0125002
0.0123347
0.0123332
0.00169186
0.00169009
0.00168939
0.0016898
0.00169131
0.00169389
0.0016976
0.00170246
0.00170815
0.00171391
0.00175764
0.00175776
0.00175783
0.00175783
0.00175781
0.00175778
0.00175774
0.0017577
0.00175765
0.00175753
0.0146082
0.0146653
0.0146834
0.0146902
0.0146952
0.0147003
0.0147046
0.0147037
0.014686
0.0146238
0.0278886
0.0278995
0.0279077
0.0279099
0.0279103
0.0279103
0.0279102
0.0279092
0.0279053
0.0278966
0.029228
0.0292136
0.029208
0.0292115
0.0292247
0.0292472
0.0292774
0.0293125
0.0293464
0.0293694
0.0294222
0.029402
0.0293975
0.0294019
0.0294208
0.029453
0.0294978
0.0295527
0.0296097
0.0296533
0.0295121
0.0294783
0.0294659
0.0294748
0.0295069
0.0295631
0.029645
0.0297527
0.0298772
0.0299888
0.0295606
0.0295069
0.0294924
0.0295028
0.0295486
0.0296286
0.0297465
0.0299092
0.0301022
0.0302718
0.0277708
0.0277267
0.0277159
0.0277242
0.0277465
0.0277753
0.0278181
0.0279009
0.0280359
0.0282299
0.0133791
0.0133111
0.0133233
0.0133186
0.0132946
0.013201
0.0130589
0.0129098
0.0127422
0.0127411
0.00167038
0.00166897
0.00166841
0.00166874
0.00166993
0.00167195
0.0016748
0.00167838
0.00168234
0.00168611
0.001734
0.00173412
0.00173417
0.00173417
0.00173416
0.00173414
0.0017341
0.00173407
0.00173403
0.00173391
0.0151183
0.015179
0.0151984
0.0152052
0.0152094
0.015213
0.0152156
0.0152128
0.0151929
0.0151268
0.027998
0.0280088
0.0280161
0.0280183
0.0280186
0.0280182
0.0280175
0.0280156
0.0280108
0.0280011
0.0291632
0.0291543
0.0291508
0.0291528
0.0291607
0.029174
0.0291914
0.0292111
0.0292293
0.0292407
0.0292958
0.0292835
0.0292806
0.0292831
0.0292944
0.0293132
0.0293386
0.0293681
0.0293967
0.0294176
0.0293508
0.0293313
0.0293238
0.0293289
0.0293473
0.0293788
0.0294232
0.0294784
0.0295393
0.0295936
0.0293807
0.0293469
0.0293379
0.0293442
0.029372
0.0294191
0.0294864
0.0295741
0.0296719
0.0297537
0.0278106
0.0277853
0.0277807
0.0277842
0.0277909
0.0277944
0.0278028
0.0278263
0.0278716
0.0279695
0.0138501
0.0137865
0.0138027
0.0137963
0.0137641
0.0136785
0.0135587
0.0134326
0.013281
0.0133028
0.00164684
0.00164576
0.00164534
0.00164559
0.00164649
0.00164802
0.00165012
0.00165267
0.00165536
0.0016578
0.00170862
0.00170873
0.00170877
0.00170877
0.00170877
0.00170875
0.00170872
0.00170869
0.00170866
0.00170855
0.0157116
0.015776
0.0157965
0.0158032
0.0158069
0.0158095
0.0158108
0.0158067
0.0157851
0.015715
0.028138
0.0281483
0.0281547
0.0281568
0.0281573
0.0281571
0.0281565
0.0281547
0.0281501
0.0281404
0.0291402
0.0291346
0.0291324
0.0291336
0.0291383
0.0291462
0.0291564
0.0291679
0.0291784
0.0291845
0.0292323
0.0292242
0.029222
0.0292236
0.0292308
0.0292428
0.0292586
0.0292761
0.0292924
0.0293042
0.0292647
0.0292531
0.0292485
0.0292516
0.0292624
0.0292806
0.0293054
0.0293349
0.0293662
0.029395
0.0292848
0.0292626
0.0292569
0.029261
0.0292786
0.0293077
0.0293479
0.029398
0.0294507
0.0294952
0.0279303
0.0279155
0.0279147
0.0279156
0.0279138
0.0279084
0.027903
0.0279024
0.0279099
0.027968
0.0144185
0.0143575
0.014378
0.01437
0.0143327
0.0142651
0.0141693
0.014069
0.0139402
0.013991
0.00162123
0.00162044
0.00162013
0.00162031
0.00162097
0.00162208
0.00162359
0.00162535
0.00162713
0.00162867
0.00168141
0.0016815
0.00168154
0.00168154
0.00168154
0.00168153
0.00168151
0.00168149
0.00168146
0.00168135
0.0164059
0.0164744
0.0164958
0.0165024
0.0165057
0.0165076
0.0165079
0.016503
0.0164801
0.0164058
0.0282944
0.0283041
0.0283096
0.0283116
0.0283122
0.0283122
0.0283119
0.0283106
0.0283066
0.028297
0.029137
0.0291336
0.0291323
0.029133
0.0291357
0.0291402
0.0291461
0.0291527
0.0291589
0.0291624
0.0292028
0.0291971
0.0291952
0.0291963
0.0292012
0.0292094
0.0292198
0.0292312
0.0292414
0.0292488
0.0292216
0.0292145
0.0292116
0.0292134
0.02922
0.0292308
0.0292451
0.0292615
0.0292784
0.0292949
0.0292391
0.029224
0.0292201
0.0292231
0.0292347
0.0292536
0.0292789
0.0293093
0.0293399
0.0293676
0.0281046
0.0280931
0.0280943
0.0280939
0.0280898
0.028083
0.0280741
0.028066
0.0280598
0.0281012
0.0151139
0.0150441
0.0150667
0.0150569
0.0150279
0.0149777
0.0149053
0.0148299
0.0147248
0.0148031
0.00159356
0.00159299
0.00159278
0.0015929
0.00159337
0.00159415
0.00159519
0.00159636
0.0015975
0.00159847
0.00165229
0.00165238
0.00165241
0.00165241
0.00165241
0.0016524
0.00165239
0.00165237
0.00165235
0.00165225
0.0172272
0.0173003
0.0173223
0.0173287
0.0173318
0.0173331
0.0173329
0.0173274
0.0173036
0.0172247
0.0284591
0.0284681
0.0284728
0.0284745
0.0284752
0.0284754
0.0284754
0.0284745
0.0284712
0.0284621
0.0291422
0.0291404
0.0291397
0.0291401
0.0291414
0.0291437
0.0291468
0.0291504
0.0291541
0.0291563
0.0291902
0.0291861
0.0291845
0.0291852
0.0291886
0.0291942
0.0292014
0.0292091
0.029216
0.029221
0.029201
0.0291965
0.0291946
0.0291957
0.0291997
0.0292063
0.0292148
0.0292242
0.0292337
0.0292438
0.0292204
0.0292097
0.0292071
0.0292094
0.0292173
0.0292301
0.0292466
0.0292659
0.0292849
0.0293045
0.0283108
0.0282999
0.028301
0.0283007
0.0282975
0.0282921
0.0282843
0.0282757
0.0282663
0.0283001
0.0159626
0.0158854
0.0159022
0.015896
0.0158765
0.0158422
0.0157915
0.015738
0.0156548
0.015756
0.00156381
0.00156342
0.00156327
0.00156336
0.00156368
0.0015642
0.00156489
0.00156564
0.00156636
0.00156696
0.00162123
0.00162131
0.00162133
0.00162133
0.00162133
0.00162133
0.00162132
0.0016213
0.00162128
0.00162119
0.0182124
0.0182906
0.0183128
0.0183189
0.0183221
0.0183229
0.0183224
0.0183168
0.0182925
0.0182084
0.0286262
0.0286344
0.0286381
0.0286396
0.0286402
0.0286406
0.0286409
0.0286404
0.028638
0.0286298
0.0291499
0.0291491
0.0291489
0.029149
0.0291496
0.0291505
0.0291519
0.0291536
0.0291557
0.0291573
0.0291849
0.029182
0.0291806
0.029181
0.0291833
0.0291872
0.0291921
0.0291973
0.029202
0.0292056
0.0291909
0.0291879
0.0291866
0.0291872
0.0291897
0.0291937
0.0291988
0.0292044
0.0292099
0.0292163
0.0292135
0.029206
0.0292041
0.0292059
0.0292114
0.0292201
0.029231
0.0292436
0.0292558
0.0292706
0.0285298
0.0285195
0.0285202
0.0285201
0.0285184
0.0285151
0.0285098
0.0285035
0.0284949
0.0285241
0.0170031
0.0169203
0.0169311
0.0169282
0.0169173
0.0168973
0.0168664
0.0168312
0.0167677
0.0168853
0.001532
0.00153175
0.00153165
0.00153171
0.00153192
0.00153226
0.0015327
0.00153316
0.0015336
0.00153395
0.00158828
0.00158835
0.00158837
0.00158838
0.00158838
0.00158837
0.00158836
0.00158835
0.00158833
0.00158824
0.0194157
0.0194996
0.019522
0.0195277
0.0195303
0.0195307
0.01953
0.0195247
0.0195007
0.019411
0.0287895
0.0287965
0.0287993
0.0288003
0.0288009
0.0288014
0.0288019
0.0288019
0.0288005
0.0287938
0.0291572
0.0291569
0.0291569
0.029157
0.0291571
0.0291573
0.0291576
0.0291583
0.0291594
0.0291607
0.0291817
0.0291795
0.0291784
0.0291786
0.0291801
0.0291826
0.0291858
0.0291893
0.0291926
0.0291952
0.0291845
0.0291824
0.0291815
0.0291818
0.0291833
0.0291857
0.0291887
0.029192
0.0291953
0.0291993
0.0292088
0.0292035
0.0292022
0.0292035
0.0292072
0.029213
0.0292201
0.0292281
0.029236
0.0292472
0.0287441
0.0287346
0.0287349
0.0287351
0.0287346
0.0287332
0.0287305
0.0287269
0.0287203
0.0287455
0.0182921
0.0182063
0.0182109
0.0182108
0.0182077
0.0182007
0.018188
0.0181679
0.0181228
0.0182486
0.00149824
0.00149808
0.00149801
0.00149805
0.00149818
0.00149839
0.00149866
0.00149894
0.0014992
0.0014994
0.00155368
0.00155373
0.00155375
0.00155375
0.00155375
0.00155375
0.00155374
0.00155373
0.0015537
0.00155363
0.0209196
0.0210091
0.0210315
0.0210366
0.0210377
0.0210378
0.021037
0.0210323
0.0210097
0.0209145
0.0289405
0.0289457
0.0289474
0.0289479
0.0289483
0.0289489
0.0289496
0.0289501
0.0289498
0.0289454
0.0291622
0.0291621
0.0291622
0.0291623
0.0291622
0.0291621
0.029162
0.0291621
0.0291625
0.0291638
0.0291778
0.0291763
0.0291755
0.0291755
0.0291764
0.0291779
0.0291799
0.0291821
0.0291843
0.0291863
0.0291785
0.0291771
0.0291765
0.0291766
0.0291774
0.0291788
0.0291805
0.0291823
0.0291842
0.0291867
0.0291998
0.0291964
0.0291955
0.0291963
0.0291987
0.0292022
0.0292065
0.0292113
0.029216
0.0292242
0.0289342
0.0289261
0.0289262
0.0289265
0.0289266
0.0289264
0.0289255
0.028924
0.0289197
0.0289404
0.0199132
0.0198279
0.0198253
0.0198273
0.0198314
0.0198369
0.0198423
0.0198355
0.0198102
0.0199326
0.0014627
0.0014626
0.00146256
0.00146258
0.00146266
0.00146279
0.00146295
0.00146311
0.00146328
0.00146339
0.00151761
0.00151765
0.00151765
0.00151765
0.00151765
0.00151765
0.00151764
0.00151764
0.00151763
0.00151758
0.0228572
0.0229491
0.0229688
0.0229729
0.0229737
0.0229736
0.0229727
0.0229687
0.0229489
0.0228508
0.029067
0.0290696
0.02907
0.02907
0.0290702
0.0290707
0.0290716
0.0290726
0.0290733
0.0290721
0.0291641
0.0291641
0.0291642
0.0291642
0.0291642
0.0291641
0.0291639
0.0291638
0.0291639
0.0291649
0.0291732
0.0291721
0.0291716
0.0291715
0.029172
0.0291729
0.0291741
0.0291754
0.0291768
0.0291782
0.0291727
0.0291718
0.0291714
0.0291715
0.0291719
0.0291726
0.0291735
0.0291745
0.0291755
0.0291768
0.0291851
0.0291831
0.0291826
0.0291831
0.0291844
0.0291863
0.0291886
0.0291911
0.0291937
0.0291988
0.0290788
0.0290727
0.0290727
0.0290729
0.0290731
0.0290733
0.029073
0.0290726
0.0290706
0.0290861
0.0220127
0.0219343
0.0219323
0.021934
0.0219372
0.0219413
0.0219456
0.0219485
0.0219494
0.0220526
0.00142552
0.00142545
0.00142542
0.00142544
0.00142549
0.00142557
0.00142567
0.00142577
0.00142588
0.00142594
0.00147921
0.00147921
0.00147919
0.00147918
0.00147918
0.00147918
0.00147919
0.00147921
0.00147923
0.00147925
0.0254656
0.025546
0.0255598
0.0255627
0.0255633
0.025563
0.0255619
0.0255586
0.0255439
0.0254556
0.0291554
0.0291552
0.0291545
0.029154
0.029154
0.0291545
0.0291553
0.0291566
0.0291582
0.02916
0.029164
0.0291639
0.029164
0.029164
0.029164
0.029164
0.029164
0.029164
0.029164
0.0291643
0.0291695
0.0291689
0.0291686
0.0291685
0.0291688
0.0291693
0.02917
0.0291708
0.0291716
0.0291725
0.029169
0.0291685
0.0291682
0.0291683
0.0291685
0.029169
0.0291695
0.0291701
0.0291707
0.0291713
0.0291712
0.0291702
0.0291699
0.0291701
0.0291708
0.0291719
0.0291731
0.0291744
0.0291757
0.029178
0.0291663
0.0291626
0.0291621
0.0291621
0.0291621
0.029162
0.029162
0.029162
0.0291622
0.029172
0.0249072
0.0248484
0.0248473
0.0248484
0.0248505
0.0248532
0.024856
0.0248579
0.0248582
0.0249351
0.00138593
0.00138588
0.00138586
0.00138587
0.00138591
0.00138597
0.00138604
0.00138612
0.0013862
0.00138625
0.0023442
0.00236507
0.00235485
0.00232093
0.00141082
0.00143384
0.0014312
0.00142636
0.00188739
0.00192948
0.00192035
0.00189566
0.00227436
0.00233253
0.00231301
0.00226677
0.00262184
0.002693
0.00266099
0.00259651
0.00296332
0.00304563
0.00300538
0.00293188
0.00324545
0.00333593
0.0032936
0.00322029
0.00341322
0.00351005
0.00347
0.00340136
0.00304501
0.00313457
0.0030957
0.00304
0.00237486
0.0023915
0.00235661
0.00227535
0.00202754
0.00203326
0.00203438
0.00203136
0.0023536
0.00243394
0.00233393
0.00214208
0.00330817
0.0034227
0.00329225
0.00305439
0.00407176
0.00424022
0.00408159
0.00378365
0.00485361
0.00508961
0.00489507
0.0045194
0.00582853
0.00615464
0.00591317
0.0054286
0.00679493
0.00720878
0.00690723
0.00630941
0.00749297
0.00799122
0.00763312
0.00693832
0.00591736
0.00635424
0.00600138
0.00540476
0.00218169
0.00221403
0.00220717
0.00217138
0.0019332
0.00193525
0.00193541
0.00193415
0.00406627
0.00404182
0.0040522
0.00414323
0.00499135
0.00497274
0.00499288
0.00509715
0.00549611
0.00551581
0.00553567
0.00558546
0.00601102
0.00606515
0.00606848
0.00602691
0.00675405
0.00685088
0.00681131
0.00663351
0.0075122
0.00763578
0.00752228
0.0071845
0.00805069
0.00821137
0.00802417
0.00752545
0.00612462
0.00626454
0.00608862
0.00560764
0.00204803
0.00206514
0.00206323
0.00204546
0.00189446
0.00189468
0.00189481
0.00189484
0.0102405
0.00996196
0.0100979
0.0106125
0.0119476
0.0116135
0.0119164
0.0128099
0.0114406
0.0112596
0.0116317
0.0125266
0.0110902
0.0110291
0.0114261
0.0122564
0.0112081
0.0112508
0.0116413
0.0123682
0.0114044
0.0115063
0.0118451
0.0124236
0.0113546
0.0115321
0.0118024
0.0121733
0.00801823
0.00820298
0.0083262
0.00836733
0.0019568
0.00196725
0.00196822
0.00196022
0.00187252
0.00187257
0.0018726
0.00187261
0.0144911
0.0144311
0.0144593
0.0145686
0.0238417
0.0235182
0.023706
0.024333
0.0222458
0.0219538
0.0223065
0.0232333
0.0203812
0.0202018
0.0206817
0.0217891
0.0193311
0.0193009
0.0198719
0.0210702
0.0185182
0.0185934
0.0191864
0.0203778
0.0173311
0.0175434
0.0180986
0.0191107
0.0108802
0.0111155
0.011357
0.0116704
0.00189356
0.00190005
0.00190151
0.0018981
0.00185448
0.00185446
0.00185445
0.00185444
0.0140868
0.0140132
0.0140037
0.0140587
0.0304039
0.0302972
0.0303232
0.0304704
0.0317978
0.0315591
0.0316497
0.0320267
0.0304325
0.0301454
0.0303659
0.0310245
0.0290255
0.0288077
0.0291969
0.0301264
0.0274494
0.0273219
0.0278367
0.0289649
0.0247752
0.0248406
0.0253978
0.0264746
0.0131737
0.0134061
0.0135817
0.0137423
0.00184563
0.00184955
0.00185083
0.00184947
0.00183718
0.00183714
0.00183712
0.00183711
0.0137853
0.0136946
0.0136769
0.0137313
0.0299159
0.029919
0.0299334
0.0299592
0.0336754
0.033679
0.0337116
0.0337706
0.034825
0.034779
0.0348402
0.0349964
0.0353465
0.0352619
0.0353984
0.0357257
0.0347085
0.0345953
0.0348276
0.0353617
0.0310992
0.0311312
0.0314431
0.0320079
0.0133161
0.0135935
0.0136547
0.0135469
0.00180729
0.00180968
0.00181062
0.00181011
0.00181925
0.0018192
0.00181917
0.00181916
0.0138649
0.0137678
0.0137476
0.0138032
0.0286249
0.0286183
0.0286212
0.0286342
0.031759
0.0317853
0.0318028
0.0318117
0.0333167
0.0333623
0.0333952
0.0334169
0.0350526
0.035126
0.0351874
0.0352387
0.0359193
0.035984
0.03607
0.0361781
0.0326217
0.0327801
0.0329066
0.0330048
0.0123925
0.0126491
0.0126895
0.0125505
0.00177446
0.00177597
0.00177661
0.00177637
0.0018002
0.00180014
0.0018001
0.0018001
0.0141242
0.0140238
0.0140027
0.0140595
0.0280675
0.0280548
0.0280534
0.0280637
0.0303409
0.0303489
0.0303541
0.0303564
0.03128
0.0313015
0.0313144
0.0313191
0.0325576
0.0326147
0.0326461
0.0326533
0.0334935
0.0335722
0.0336158
0.0336289
0.0307737
0.0309416
0.03101
0.0309865
0.0119574
0.0121821
0.0122237
0.0121018
0.00174438
0.0017454
0.00174581
0.00174563
0.00177977
0.0017797
0.00177967
0.00177966
0.0144824
0.0143791
0.0143573
0.0144154
0.0279205
0.0279071
0.0279049
0.0279142
0.0296735
0.0296746
0.0296756
0.0296766
0.0301785
0.0301838
0.0301872
0.0301886
0.0308809
0.0309039
0.0309162
0.0309181
0.031414
0.0314471
0.0314652
0.0314694
0.0290412
0.0291515
0.0291913
0.0291622
0.0120323
0.0122517
0.0122933
0.0121708
0.00171551
0.00171626
0.00171651
0.00171633
0.0017578
0.00175773
0.0017577
0.0017577
0.0149176
0.0148111
0.0147885
0.0148482
0.0279468
0.0279338
0.0279315
0.0279402
0.0293771
0.0293766
0.0293767
0.0293774
0.0296626
0.0296635
0.0296641
0.0296646
0.0300317
0.0300407
0.0300454
0.0300458
0.0302998
0.0303105
0.0303168
0.0303188
0.0281841
0.028259
0.0282834
0.0282568
0.0123975
0.0126282
0.012671
0.0125391
0.00168701
0.00168759
0.00168775
0.00168756
0.0017342
0.00173412
0.00173408
0.00173409
0.0154296
0.0153193
0.0152958
0.0153572
0.0280475
0.0280353
0.028033
0.028041
0.0292451
0.0292444
0.0292443
0.0292449
0.029421
0.029421
0.0294211
0.0294212
0.0296149
0.0296193
0.0296214
0.0296213
0.0297541
0.0297578
0.0297601
0.0297608
0.0278875
0.0279465
0.027964
0.0279392
0.012939
0.0131887
0.0132341
0.0130901
0.00165829
0.00165876
0.00165887
0.00165867
0.00170885
0.00170876
0.00170872
0.00170874
0.0160284
0.0159137
0.015889
0.0159526
0.0281829
0.0281713
0.0281691
0.0281764
0.0291874
0.0291868
0.0291867
0.0291873
0.0293059
0.0293058
0.0293058
0.0293058
0.0294079
0.0294105
0.0294117
0.0294115
0.0294902
0.0294921
0.0294932
0.0294934
0.027881
0.0279318
0.0279461
0.0279232
0.0136126
0.0138853
0.0139345
0.0137769
0.00162893
0.00162934
0.0016294
0.0016292
0.00168166
0.00168157
0.00168153
0.00168155
0.0167317
0.0166117
0.0165856
0.0166517
0.0283352
0.0283244
0.0283222
0.0283289
0.0291645
0.0291639
0.0291638
0.0291643
0.02925
0.02925
0.0292499
0.0292499
0.0293036
0.0293054
0.0293062
0.0293059
0.0293637
0.0293654
0.0293661
0.0293659
0.0280199
0.0280653
0.0280777
0.0280567
0.0144105
0.014709
0.0147626
0.0145901
0.00159858
0.00159894
0.00159899
0.00159879
0.00165257
0.00165247
0.00165243
0.00165245
0.0175656
0.017439
0.0174111
0.0174802
0.0284956
0.0284857
0.0284836
0.0284896
0.0291577
0.0291573
0.0291573
0.0291577
0.0292218
0.0292218
0.0292218
0.0292218
0.02925
0.0292513
0.0292518
0.0292515
0.0293031
0.0293047
0.0293054
0.0293049
0.028229
0.0282698
0.0282806
0.0282615
0.0153472
0.0156746
0.0157328
0.0155435
0.00156698
0.00156731
0.00156734
0.00156715
0.00162153
0.00162142
0.00162138
0.00162141
0.0185672
0.0184322
0.018402
0.0184749
0.0286581
0.0286492
0.0286472
0.0286524
0.0291584
0.029158
0.0291581
0.0291584
0.0292063
0.0292063
0.0292063
0.0292062
0.0292209
0.0292218
0.0292221
0.0292218
0.0292717
0.0292734
0.029274
0.0292734
0.0284661
0.0285025
0.0285118
0.0284943
0.0164564
0.0168157
0.0168787
0.0166706
0.00153394
0.00153422
0.00153424
0.00153407
0.0015886
0.00158848
0.00158844
0.00158848
0.0197911
0.019645
0.0196117
0.0196892
0.0288164
0.0288086
0.0288068
0.0288113
0.0291616
0.0291614
0.0291614
0.0291617
0.0291958
0.0291959
0.0291959
0.0291959
0.0292027
0.0292033
0.0292035
0.0292032
0.0292501
0.0292517
0.0292522
0.0292515
0.028703
0.0287351
0.0287428
0.0287267
0.0177922
0.0181856
0.018253
0.0180247
0.00149937
0.00149961
0.00149962
0.00149947
0.00155401
0.00155388
0.00155385
0.00155389
0.0213175
0.0211559
0.0211182
0.0212023
0.0289637
0.0289577
0.0289562
0.0289596
0.0291645
0.0291644
0.0291644
0.0291645
0.029187
0.0291871
0.0291872
0.0291872
0.029189
0.0291894
0.0291895
0.0291893
0.0292278
0.0292293
0.0292296
0.0292289
0.0289152
0.0289426
0.0289486
0.0289339
0.0194343
0.0198575
0.0199276
0.0196813
0.00146336
0.00146356
0.00146357
0.00146345
0.00151799
0.00151787
0.00151784
0.00151789
0.023272
0.0230878
0.0230444
0.0231382
0.0290872
0.0290834
0.0290824
0.0290846
0.0291652
0.0291652
0.0291652
0.0291652
0.029179
0.0291791
0.0291792
0.0291793
0.0291781
0.0291784
0.0291784
0.0291783
0.029202
0.029203
0.0292033
0.0292027
0.0290776
0.0290992
0.0291033
0.0290907
0.0215229
0.0219755
0.0220425
0.0217747
0.00142604
0.0014262
0.00142621
0.00142611
0.00147971
0.00147961
0.0014796
0.00147966
0.0258483
0.0256395
0.0255938
0.025701
0.0291702
0.0291686
0.0291681
0.0291691
0.029164
0.0291639
0.0291638
0.0291638
0.0291731
0.0291733
0.0291733
0.0291734
0.0291718
0.0291718
0.0291719
0.0291719
0.0291795
0.0291799
0.02918
0.0291798
0.0291741
0.0291864
0.0291883
0.0291806
0.0244723
0.0248973
0.0249469
0.0246873
0.00138662
0.00138675
0.00138675
0.00138666
0.00215548
0.00203892
0.0019745
0.00194196
0.00192284
0.00191045
0.00190228
0.00189709
0.00189375
0.00189147
0.00174744
0.00158314
0.00476542
0.00942401
0.0139348
0.0171228
0.0186335
0.0187848
0.0181534
0.0172133
0.00236375
0.00257405
0.00732484
0.0155532
0.0249585
0.0330803
0.0390655
0.0428687
0.0447451
0.0451318
0.00276853
0.00359666
0.00828852
0.0178409
0.0291687
0.0385212
0.0449962
0.0487266
0.050164
0.0499553
0.00307711
0.00394181
0.00871606
0.0193457
0.0320854
0.041967
0.0481515
0.0510048
0.0513205
0.0501087
0.00338883
0.00407082
0.0089377
0.020418
0.0342686
0.0443138
0.0498921
0.0516829
0.050908
0.0488686
0.00363092
0.00408396
0.00896768
0.0211698
0.0358999
0.0457606
0.0504404
0.0510707
0.0493455
0.0468132
0.00370983
0.00381804