/*--------------------------------*- C++ -*----------------------------------*\
| =========                 |                                                 |
| \\      /  F ield         | foam-extend: Open Source CFD                    |
|  \\    /   O peration     | Version:     4.0                                |
|   \\  /    A nd           | Web:         http://www.foam-extend.org         |
|    \\/     M anipulation  |                                                 |
\*---------------------------------------------------------------------------*/
FoamFile
{
    version     2.0;
    format      ascii;
    class       volVectorField;
    location    "2350";
    object      U;
}
// * * * * * * * * * * * * * * * * * * * * * * * * * * * * * * * * * * * * * //

dimensions      [0 1 -1 0 0 0 0];

internalField   nonuniform List<vector> 
34480
(
(209.006 2.1668 3.26215)
(209.326 1.19967 1.52481)
(209.483 0.413809 -0.272699)
(209.489 -0.210335 -2.17603)
(209.34 -0.705114 -4.32563)
(208.998 -1.06674 -6.89884)
(208.382 -1.26884 -10.2973)
(207.216 -1.18843 -14.8665)
(204.545 -0.590059 -22.7773)
(197.607 1.98009 -50.042)
(209.938 3.08098 2.87491)
(210.198 2.25947 1.05404)
(210.325 1.53432 -0.77041)
(210.298 0.899784 -2.66942)
(210.063 0.327821 -4.76314)
(209.559 -0.192641 -7.26134)
(208.752 -0.671682 -10.6255)
(207.46 -1.04633 -15.5989)
(204.324 -1.1461 -24.4047)
(196.164 0.636961 -55.1)
(210.627 2.71749 3.28991)
(210.862 1.83732 1.40636)
(210.956 1.06184 -0.498516)
(210.885 0.407447 -2.44276)
(210.59 -0.171006 -4.55745)
(210.062 -0.696746 -7.10225)
(209.31 -1.18619 -10.6079)
(208.167 -1.55844 -16.1047)
(204.866 -1.63533 -25.7843)
(195.655 0.361604 -59.4546)
(210.635 3.26167 3.2399)
(210.87 2.42898 1.30076)
(210.979 1.68505 -0.636462)
(210.942 1.06069 -2.60821)
(210.708 0.511944 -4.75351)
(210.293 0.0147393 -7.36186)
(209.676 -0.450162 -10.9671)
(208.697 -0.790486 -16.8197)
(205.37 -0.819758 -27.1189)
(195.357 1.32582 -62.7271)
(210.794 2.72732 3.74623)
(211.058 1.82057 1.76869)
(211.205 1.02589 -0.247767)
(211.23 0.376504 -2.29452)
(211.087 -0.188629 -4.53639)
(210.808 -0.691452 -7.27528)
(210.34 -1.1434 -11.0424)
(209.544 -1.43925 -17.2755)
(206.316 -1.38321 -28.2385)
(195.66 0.926786 -65.3968)
(210.679 3.41713 3.5217)
(210.954 2.52642 1.54654)
(211.122 1.74783 -0.430946)
(211.18 1.11896 -2.44647)
(211.105 0.589557 -4.658)
(210.943 0.134209 -7.39243)
(210.628 -0.258103 -11.1655)
(210.046 -0.482554 -17.5871)
(207.066 -0.320904 -29.0313)
(196.01 2.08754 -67.3686)
(210.76 2.58078 4.03773)
(211.076 1.5951 2.06165)
(211.272 0.742433 0.042048)
(211.369 0.0525506 -2.00521)
(211.353 -0.530476 -4.26794)
(211.288 -1.02356 -7.0748)
(211.113 -1.41142 -10.9457)
(210.748 -1.5707 -17.6128)
(208.099 -1.2099 -29.6315)
(196.748 1.49032 -68.9925)
(210.588 3.357 3.56667)
(210.908 2.35905 1.62273)
(211.083 1.52562 -0.31731)
(211.139 0.862758 -2.29874)
(211.082 0.338211 -4.47301)
(210.999 -0.0836762 -7.1743)
(210.87 -0.378088 -10.9065)
(210.662 -0.415169 -17.4914)
(208.42 0.250248 -29.695)
(197.104 3.3154 -69.591)
(210.533 2.0408 4.11463)
(210.897 0.925619 2.224)
(211.103 -0.0310434 0.308472)
(211.197 -0.84524 -1.64903)
(211.191 -1.54878 -3.84198)
(211.152 -2.14756 -6.58118)
(211.092 -2.56108 -10.4057)
(211.024 -2.61215 -17.1066)
(209.111 -1.55738 -29.6788)
(197.68 2.45889 -69.5449)
(209.568 2.78742 3.53088)
(209.842 1.57016 1.59848)
(209.789 0.616372 -0.311881)
(209.43 -0.169544 -2.27861)
(208.812 -0.775538 -4.43735)
(208.026 -1.21633 -7.07433)
(207.157 -1.40001 -10.6664)
(206.37 -1.10916 -16.8185)
(204.433 0.415555 -28.5359)
(194.247 5.2807 -66.5005)
(205.891 1.91218 3.00056)
(206.369 1.10965 1.5439)
(206.556 0.426553 -0.00997031)
(206.473 -0.117398 -1.61007)
(206.095 -0.546508 -3.31982)
(205.333 -0.861311 -5.15158)
(203.985 -1.06591 -7.15909)
(201.62 -1.17177 -9.31731)
(198.154 -1.25686 -11.2449)
(193.579 -1.15903 -14.3934)
(207.189 2.86852 2.79794)
(207.621 2.1642 1.16182)
(207.793 1.51935 -0.492235)
(207.704 0.943851 -2.18908)
(207.292 0.416488 -3.9963)
(206.437 -0.0687897 -5.97179)
(204.943 -0.527102 -8.20869)
(202.358 -0.993378 -10.9581)
(198.189 -1.58382 -14.0068)
(192.505 -1.82411 -20.5815)
(208.138 2.57759 3.30713)
(208.547 1.77153 1.54475)
(208.705 1.04488 -0.256744)
(208.605 0.422735 -2.09019)
(208.169 -0.133463 -4.02979)
(207.295 -0.636244 -6.1593)
(205.81 -1.11492 -8.66765)
(203.233 -1.58619 -12.0868)
(198.688 -2.15709 -16.3331)
(192.07 -2.07116 -26.7166)
(208.381 3.17802 3.30354)
(208.797 2.4035 1.45615)
(208.976 1.69449 -0.403395)
(208.918 1.08832 -2.297)
(208.544 0.5465 -4.31002)
(207.772 0.0573183 -6.56887)
(206.4 -0.412343 -9.29938)
(203.916 -0.855341 -13.2586)
(199.142 -1.36352 -18.4765)
(191.709 -0.933546 -32.454)
(208.735 2.66848 3.83837)
(209.177 1.80908 1.93577)
(209.395 1.04223 -0.0203644)
(209.402 0.408663 -2.00865)
(209.12 -0.146843 -4.14614)
(208.484 -0.635587 -6.58665)
(207.263 -1.09245 -9.5724)
(204.941 -1.48859 -14.0629)
(200.089 -1.90224 -20.2308)
(191.948 -1.07297 -37.6931)
(208.77 3.39314 3.63428)
(209.228 2.54126 1.71991)
(209.471 1.78365 -0.206803)
(209.52 1.16378 -2.1756)
(209.312 0.63496 -4.29769)
(208.805 0.182765 -6.77304)
(207.749 -0.224055 -9.84343)
(205.648 -0.547953 -14.6622)
(200.883 -0.830082 -21.5475)
(192.218 0.364676 -42.21)
(208.976 2.56689 4.16005)
(209.468 1.6161 2.23754)
(209.743 0.786445 0.259099)
(209.838 0.114249 -1.74956)
(209.698 -0.450662 -3.93582)
(209.305 -0.919883 -6.51571)
(208.411 -1.30994 -9.7444)
(206.555 -1.56819 -14.9177)
(201.997 -1.65617 -22.5676)
(192.908 0.00111319 -46.245)
(208.89 3.37382 3.69574)
(209.391 2.40957 1.8035)
(209.655 1.59813 -0.0882138)
(209.724 0.950793 -2.02435)
(209.568 0.441204 -4.12035)
(209.197 0.0372708 -6.62276)
(208.397 -0.263932 -9.78123)
(206.761 -0.41836 -15.0052)
(202.532 -0.208078 -23.0526)
(193.315 1.83447 -49.2174)
(208.902 2.05541 4.24516)
(209.435 0.977339 2.40199)
(209.727 0.0661176 0.525997)
(209.833 -0.688949 -1.37768)
(209.734 -1.31842 -3.48065)
(209.436 -1.83474 -6.0304)
(208.758 -2.19004 -9.33531)
(207.35 -2.3216 -14.7935)
(203.46 -1.74185 -23.4884)
(193.991 1.00294 -51.498)
(207.98 2.86378 3.63696)
(208.457 1.69308 1.78958)
(208.574 0.796296 -0.034681)
(208.361 0.0677838 -1.90545)
(207.833 -0.474196 -3.92983)
(207.025 -0.855624 -6.35379)
(205.825 -1.01329 -9.46966)
(204.023 -0.832103 -14.5639)
(200.281 0.22225 -23.0379)
(191.634 4.03741 -51.3447)
(203.516 1.42789 2.33437)
(204.02 0.83355 1.2163)
(204.201 0.302521 -0.0132664)
(204.097 -0.131758 -1.26341)
(203.696 -0.48236 -2.55462)
(202.949 -0.74671 -3.83244)
(201.764 -0.934585 -5.04905)
(199.988 -1.07151 -6.05478)
(197.434 -1.24287 -6.49849)
(194.217 -1.43224 -6.51688)
(204.912 2.41424 2.31327)
(205.407 1.87191 0.946151)
(205.587 1.34563 -0.44878)
(205.464 0.854992 -1.86576)
(205 0.389911 -3.33134)
(204.111 -0.0549616 -4.84812)
(202.638 -0.492939 -6.37971)
(200.31 -0.955658 -7.86295)
(196.686 -1.5545 -8.80242)
(191.847 -2.13658 -9.81069)
(205.946 2.21204 2.94809)
(206.446 1.52885 1.39545)
(206.627 0.890657 -0.208741)
(206.502 0.327209 -1.83805)
(206.014 -0.193538 -3.5388)
(205.061 -0.681507 -5.32771)
(203.445 -1.16145 -7.2146)
(200.8 -1.66355 -9.29198)
(196.298 -2.33214 -11.0027)
(189.857 -2.91118 -13.5839)
(206.343 2.89698 2.9942)
(206.865 2.22036 1.3181)
(207.071 1.5796 -0.380863)
(206.981 1.01452 -2.11234)
(206.531 0.4916 -3.9403)
(205.615 0.00110434 -5.92303)
(203.983 -0.488864 -8.10646)
(201.169 -0.995743 -10.7405)
(195.931 -1.68089 -13.2005)
(187.994 -2.16623 -17.5586)
(206.845 2.42647 3.56881)
(207.4 1.65003 1.80545)
(207.642 0.940804 -0.0195672)
(207.608 0.340605 -1.87742)
(207.227 -0.201028 -3.8695)
(206.4 -0.692596 -6.0863)
(204.827 -1.16959 -8.60258)
(201.969 -1.63802 -11.8317)
(196.183 -2.28607 -15.1301)
(186.926 -2.57767 -21.5717)
(207.011 3.20024 3.38974)
(207.585 2.41744 1.59385)
(207.854 1.70787 -0.222497)
(207.862 1.11497 -2.08443)
(207.544 0.594177 -4.09227)
(206.814 0.133151 -6.38751)
(205.341 -0.303554 -9.063)
(202.541 -0.715499 -12.7146)
(196.409 -1.27656 -16.715)
(186.061 -1.33998 -25.333)
(207.329 2.39052 3.9388)
(207.934 1.50292 2.11664)
(208.233 0.720225 0.231277)
(208.287 0.0786096 -1.68947)
(208.031 -0.47034 -3.78533)
(207.401 -0.934932 -6.22104)
(206.046 -1.33761 -9.12166)
(203.366 -1.66918 -13.232)
(197.059 -2.06861 -18.0274)
(185.782 -1.79919 -28.9562)
(207.336 3.23554 3.47885)
(207.949 2.33245 1.68352)
(208.243 1.56581 -0.117622)
(208.279 0.948638 -1.97011)
(208.016 0.454365 -3.98469)
(207.414 0.0567021 -6.36729)
(206.144 -0.257182 -9.26051)
(203.617 -0.487823 -13.5543)
(197.325 -0.620519 -18.8722)
(185.386 -0.0696285 -31.8726)
(207.428 1.90357 4.0328)
(208.06 0.887431 2.27502)
(208.375 0.0349028 0.472698)
(208.44 -0.660682 -1.36158)
(208.219 -1.23122 -3.38781)
(207.679 -1.68696 -5.81515)
(206.52 -1.99261 -8.87645)
(204.187 -2.12667 -13.5149)
(198.029 -1.8607 -19.642)
(185.306 -0.799262 -34.2638)
(206.572 2.76958 3.39228)
(207.152 1.67667 1.66375)
(207.337 0.850635 -0.0526503)
(207.165 0.187346 -1.82456)
(206.628 -0.293656 -3.7485)
(205.716 -0.615368 -6.03818)
(204.2 -0.726502 -8.92234)
(201.63 -0.54715 -13.3057)
(195.609 0.217603 -19.5469)
(182.827 2.30024 -34.6945)
(201.781 0.949099 1.7018)
(202.218 0.547697 0.911415)
(202.368 0.165632 0.00790779)
(202.27 -0.157874 -0.896408)
(201.921 -0.428593 -1.80007)
(201.306 -0.641167 -2.62148)
(200.395 -0.80782 -3.29565)
(199.161 -0.952064 -3.68717)
(197.601 -1.12929 -3.58048)
(195.87 -1.36487 -2.75286)
(203.102 1.90745 1.79141)
(203.57 1.53199 0.718141)
(203.733 1.13482 -0.387704)
(203.601 0.741804 -1.4971)
(203.154 0.354128 -2.60168)
(202.344 -0.0309907 -3.67092)
(201.095 -0.42421 -4.62881)
(199.302 -0.848001 -5.34699)
(196.838 -1.37056 -5.40301)
(194.04 -1.93789 -4.61969)
(204.091 1.75989 2.50354)
(204.601 1.22002 1.20607)
(204.777 0.690214 -0.150818)
(204.635 0.204661 -1.51798)
(204.136 -0.260108 -2.91214)
(203.207 -0.712417 -4.31338)
(201.716 -1.17169 -5.65527)
(199.467 -1.6642 -6.84632)
(196.113 -2.29565 -7.29995)
(192.033 -2.9915 -6.92401)
(204.551 2.5266 2.5871)
(205.107 1.97222 1.13177)
(205.312 1.42085 -0.354574)
(205.19 0.916168 -1.86118)
(204.689 0.432942 -3.4237)
(203.722 -0.0381247 -5.05635)
(202.095 -0.526109 -6.71333)
(199.508 -1.05346 -8.37932)
(195.291 -1.75929 -9.29347)
(189.826 -2.52564 -9.54028)
(205.137 2.10105 3.20274)
(205.738 1.43204 1.62533)
(205.977 0.800297 -0.0199809)
(205.896 0.249997 -1.68742)
(205.431 -0.26137 -3.45166)
(204.488 -0.741745 -5.35624)
(202.811 -1.22409 -7.38183)
(200.007 -1.72767 -9.61121)
(195.039 -2.44199 -11.1401)
(188.235 -3.18119 -12.3679)
(205.393 2.92941 3.05267)
(206.022 2.23935 1.41836)
(206.289 1.5963 -0.243844)
(206.242 1.04572 -1.94383)
(205.817 0.548829 -3.75864)
(204.922 0.0931459 -5.78006)
(203.253 -0.359023 -8.01112)
(200.343 -0.826285 -10.6685)
(194.769 -1.50675 -12.7413)
(186.758 -2.16647 -15.1349)
(205.796 2.1461 3.63086)
(206.458 1.34323 1.94755)
(206.752 0.623402 0.194401)
(206.746 0.0242775 -1.58899)
(206.367 -0.49815 -3.52105)
(205.537 -0.951672 -5.71764)
(203.915 -1.36283 -8.22167)
(200.976 -1.74462 -11.3674)
(194.944 -2.30041 -14.1235)
(185.842 -2.77398 -17.9494)
(205.883 3.04183 3.18185)
(206.552 2.21935 1.51794)
(206.845 1.51091 -0.159352)
(206.827 0.933867 -1.88664)
(206.443 0.463324 -3.75588)
(205.63 0.0770309 -5.92613)
(204.047 -0.246965 -8.46755)
(201.146 -0.535939 -11.8565)
(194.856 -0.880683 -15.11)
(184.868 -1.19388 -20.3182)
(206.043 1.7084 3.76452)
(206.724 0.770869 2.12356)
(207.033 -0.01645 0.423873)
(207.038 -0.652872 -1.30798)
(206.688 -1.16973 -3.21028)
(205.919 -1.57416 -5.43806)
(204.393 -1.84573 -8.14331)
(201.582 -1.9954 -11.8891)
(195.22 -1.94752 -15.9862)
(184.257 -1.8992 -22.3805)
(205.255 2.64802 3.10259)
(205.888 1.6452 1.51469)
(206.106 0.893048 -0.0759223)
(205.942 0.293628 -1.72674)
(205.372 -0.131737 -3.51643)
(204.348 -0.403129 -5.61276)
(202.582 -0.481746 -8.16703)
(199.581 -0.316628 -11.7256)
(193.24 0.228216 -16.0577)
(181.785 1.20166 -22.8631)
(200.57 0.551113 1.19394)
(200.913 0.29491 0.666112)
(201.027 0.0340499 0.0357654)
(200.952 -0.195286 -0.583083)
(200.694 -0.396659 -1.18742)
(200.255 -0.562398 -1.69751)
(199.643 -0.702065 -2.06661)
(198.88 -0.830798 -2.20478)
(198.015 -0.975075 -2.02032)
(197.164 -1.14158 -1.42911)
(201.727 1.4345 1.31136)
(202.12 1.20001 0.510255)
(202.257 0.920733 -0.321233)
(202.144 0.622169 -1.14561)
(201.771 0.313524 -1.9359)
(201.122 -0.00395061 -2.64895)
(200.178 -0.334768 -3.21064)
(198.933 -0.688737 -3.51259)
(197.411 -1.09412 -3.32756)
(195.914 -1.51127 -2.51764)
(202.576 1.29271 2.05042)
(203.047 0.890624 1.01564)
(203.209 0.470827 -0.0832925)
(203.075 0.0690188 -1.18037)
(202.623 -0.329572 -2.26756)
(201.813 -0.729584 -3.3034)
(200.582 -1.14423 -4.20333)
(198.865 -1.59102 -4.83738)
(196.582 -2.12524 -4.81324)
(194.193 -2.69418 -3.92696)
(203.016 2.11737 2.14835)
(203.559 1.69113 0.935465)
(203.755 1.2376 -0.315488)
(203.625 0.803307 -1.5742)
(203.135 0.37296 -2.84708)
(202.225 -0.0599635 -4.11444)
(200.774 -0.519599 -5.29411)
(198.641 -1.02515 -6.27058)
(195.551 -1.66456 -6.46638)
(192.082 -2.369 -5.60752)
(203.615 1.7288 2.79421)
(204.22 1.179 1.43091)
(204.452 0.635839 -0.00658308)
(204.348 0.145999 -1.45388)
(203.857 -0.322805 -2.95355)
(202.908 -0.776539 -4.50651)
(201.316 -1.24372 -6.04462)
(198.859 -1.74666 -7.49222)
(194.995 -2.42626 -8.08609)
(190.378 -3.19377 -7.53434)
(203.912 2.60718 2.66955)
(204.56 2.0246 1.22684)
(204.821 1.46019 -0.25188)
(204.741 0.962312 -1.75774)
(204.263 0.500857 -3.33668)
(203.307 0.064668 -5.02973)
(201.636 -0.383643 -6.78406)
(198.952 -0.870363 -8.60568)
(194.392 -1.55918 -9.55974)
(188.651 -2.35301 -9.45946)
(204.361 1.85342 3.27558)
(205.049 1.15113 1.76106)
(205.337 0.505853 0.169048)
(205.289 -0.041892 -1.44486)
(204.839 -0.528985 -3.16833)
(203.906 -0.962384 -5.06303)
(202.204 -1.37089 -7.1118)
(199.369 -1.77951 -9.39672)
(194.213 -2.37963 -10.8781)
(187.389 -3.0995 -11.5021)
(204.503 2.80596 2.83927)
(205.203 2.07978 1.33388)
(205.495 1.44069 -0.193564)
(205.439 0.912199 -1.76646)
(204.98 0.473557 -3.44901)
(204.043 0.106165 -5.34438)
(202.326 -0.218557 -7.45836)
(199.42 -0.543107 -9.99066)
(193.838 -0.991175 -11.8663)
(186.054 -1.65649 -13.2455)
(204.716 1.47464 3.45728)
(205.425 0.630497 1.9586)
(205.728 -0.0843167 0.386398)
(205.691 -0.659588 -1.21511)
(205.256 -1.12416 -2.95749)
(204.347 -1.48263 -4.93714)
(202.644 -1.72715 -7.2251)
(199.714 -1.89027 -10.0745)
(193.888 -1.9818 -12.6837)
(185.056 -2.39469 -14.8185)
(203.99 2.50146 2.77472)
(204.655 1.59933 1.34467)
(204.897 0.92513 -0.103765)
(204.74 0.389862 -1.61326)
(204.153 0.017456 -3.24028)
(203.068 -0.20933 -5.102)
(201.199 -0.264022 -7.27265)
(198.102 -0.118988 -10.0004)
(192.174 0.260015 -12.811)
(182.633 0.640337 -15.1309)
(199.739 0.251684 0.824883)
(199.993 0.093129 0.488411)
(200.074 -0.0795498 0.0636054)
(200.023 -0.23649 -0.342707)
(199.848 -0.382076 -0.73539)
(199.56 -0.507321 -1.04649)
(199.175 -0.618471 -1.25087)
(198.723 -0.723001 -1.29411)
(198.246 -0.83164 -1.14383)
(197.791 -0.943191 -0.777498)
(200.716 1.04044 0.910866)
(201.019 0.911075 0.33673)
(201.125 0.728226 -0.260148)
(201.038 0.512483 -0.845164)
(200.754 0.277259 -1.38648)
(200.276 0.02678 -1.84331)
(199.612 -0.237707 -2.15827)
(198.793 -0.516771 -2.25867)
(197.885 -0.815339 -2.03777)
(197.078 -1.10364 -1.43095)
(201.39 0.861586 1.63602)
(201.787 0.575058 0.84223)
(201.926 0.254843 -0.0152751)
(201.812 -0.0660201 -0.863773)
(201.435 -0.395709 -1.68087)
(200.783 -0.734714 -2.41794)
(199.839 -1.08962 -2.99862)
(198.61 -1.46909 -3.31457)
(197.135 -1.89521 -3.14386)
(195.748 -2.32522 -2.34648)
(201.757 1.71209 1.72037)
(202.246 1.40393 0.746207)
(202.422 1.04631 -0.269259)
(202.3 0.685536 -1.28317)
(201.859 0.315244 -2.28033)
(201.068 -0.0669281 -3.22107)
(199.87 -0.477646 -4.01847)
(198.229 -0.9294 -4.54528)
(196.095 -1.46844 -4.43723)
(193.954 -2.04066 -3.43905)
(202.315 1.34318 2.37747)
(202.883 0.910961 1.23662)
(203.097 0.459527 0.0179639)
(202.986 0.0360778 -1.2002)
(202.514 -0.381438 -2.43266)
(201.634 -0.795647 -3.64943)
(200.238 -1.22829 -4.76369)
(198.234 -1.69887 -5.64695)
(195.415 -2.29708 -5.77438)
(192.408 -2.96198 -4.76565)
(202.609 2.25832 2.26781)
(203.235 1.78734 1.03184)
(203.481 1.3077 -0.246594)
(203.383 0.86952 -1.54193)
(202.897 0.45215 -2.87082)
(201.963 0.0473906 -4.23244)
(200.422 -0.377562 -5.54364)
(198.122 -0.849153 -6.71198)
(194.64 -1.48305 -7.04638)
(190.723 -2.22631 -6.09534)
(203.069 1.53075 2.89452)
(203.746 0.936803 1.56771)
(204.019 0.373419 0.156785)
(203.944 -0.116267 -1.26717)
(203.463 -0.560747 -2.76058)
(202.51 -0.965064 -4.33685)
(200.874 -1.35689 -5.93763)
(198.341 -1.76589 -7.5045)
(194.245 -2.34311 -8.22476)
(189.395 -3.07463 -7.55857)
(203.239 2.54061 2.46826)
(203.936 1.92024 1.14017)
(204.217 1.35846 -0.217939)
(204.134 0.885204 -1.61531)
(203.638 0.48523 -3.08704)
(202.659 0.144037 -4.68428)
(200.956 -0.168853 -6.36133)
(198.266 -0.501194 -8.14043)
(193.684 -0.973291 -9.13444)
(187.953 -1.7169 -8.79337)
(203.487 1.21049 3.12312)
(204.195 0.469761 1.78553)
(204.487 -0.167014 0.360793)
(204.418 -0.679435 -1.08805)
(203.934 -1.09253 -2.64477)
(202.962 -1.40834 -4.35249)
(201.235 -1.62839 -6.21895)
(198.441 -1.79475 -8.2789)
(193.522 -1.95809 -9.83221)
(186.815 -2.51402 -9.91445)
(202.812 2.33617 2.41848)
(203.481 1.54219 1.15875)
(203.732 0.949063 -0.134025)
(203.581 0.47822 -1.48547)
(202.993 0.156478 -2.92836)
(201.898 -0.0308298 -4.53211)
(200.047 -0.0680683 -6.30674)
(197.092 0.0556055 -8.29694)
(191.995 0.313718 -9.98369)
(184.567 0.412603 -10.0824)
(199.165 0.0421313 0.576359)
(199.35 -0.0565711 0.36976)
(199.405 -0.170412 0.0876329)
(199.373 -0.2758 -0.172443)
(199.263 -0.379256 -0.425534)
(199.085 -0.471391 -0.616461)
(198.855 -0.556055 -0.736406)
(198.596 -0.635518 -0.752733)
(198.334 -0.71279 -0.658275)
(198.073 -0.784018 -0.451627)
(199.987 0.74071 0.59902)
(200.204 0.682391 0.200227)
(200.282 0.572085 -0.211217)
(200.22 0.423598 -0.609821)
(200.019 0.251739 -0.966814)
(199.688 0.0621976 -1.25029)
(199.246 -0.139688 -1.42133)
(198.729 -0.349556 -1.43692)
(198.196 -0.562277 -1.25227)
(197.758 -0.754259 -0.850822)
(200.484 0.49554 1.28421)
(200.798 0.296449 0.69432)
(200.909 0.0591088 0.0457404)
(200.82 -0.1893 -0.591076)
(200.527 -0.453027 -1.1889)
(200.034 -0.729344 -1.7022)
(199.348 -1.01951 -2.07146)
(198.505 -1.32474 -2.22259)
(197.578 -1.64851 -2.04285)
(196.774 -1.95757 -1.47323)
(200.756 1.34212 1.33063)
(201.168 1.1326 0.57393)
(201.319 0.861606 -0.222748)
(201.214 0.571915 -1.01234)
(200.844 0.263764 -1.76784)
(200.199 -0.0612557 -2.44285)
(199.265 -0.411725 -2.96162)
(198.062 -0.792609 -3.22037)
(196.636 -1.22211 -3.01371)
(195.323 -1.65793 -2.193)
(201.237 0.972738 1.97815)
(201.74 0.646499 1.05175)
(201.928 0.283126 0.0480702)
(201.823 -0.0724868 -0.948057)
(201.401 -0.43364 -1.93193)
(200.638 -0.799246 -2.8572)
(199.485 -1.1834 -3.63815)
(197.93 -1.5994 -4.14863)
(195.952 -2.09683 -4.06602)
(194.018 -2.62775 -3.11848)
(201.496 1.90632 1.86991)
(202.069 1.54181 0.841961)
(202.291 1.1472 -0.231743)
(202.189 0.772238 -1.31393)
(201.731 0.404926 -2.39862)
(200.88 0.0407752 -3.4575)
(199.545 -0.345427 -4.39853)
(197.675 -0.775005 -5.09975)
(195.126 -1.31986 -5.10524)
(192.503 -1.94564 -4.03102)
(201.938 1.19701 2.50639)
(202.573 0.711143 1.37477)
(202.824 0.232283 0.15511)
(202.735 -0.195288 -1.06966)
(202.261 -0.591677 -2.32911)
(201.355 -0.959246 -3.60163)
(199.881 -1.3216 -4.80836)
(197.739 -1.70674 -5.82716)
(194.631 -2.22168 -6.09921)
(191.266 -2.86453 -5.0734)
(202.109 2.25998 2.08453)
(202.773 1.74819 0.943367)
(203.036 1.26779 -0.23366)
(202.939 0.854163 -1.44322)
(202.441 0.4979 -2.69431)
(201.487 0.188642 -3.99749)
(199.909 -0.101978 -5.27597)
(197.561 -0.417597 -6.45329)
(193.978 -0.857799 -6.88314)
(189.879 -1.53909 -5.92331)
(202.377 0.926466 2.77515)
(203.058 0.293502 1.60957)
(203.33 -0.262291 0.345877)
(203.242 -0.711159 -0.935479)
(202.746 -1.07365 -2.29247)
(201.78 -1.34939 -3.7257)
(200.146 -1.54595 -5.201)
(197.646 -1.70587 -6.62899)
(193.704 -1.88952 -7.46375)
(188.79 -2.41858 -6.7001)
(201.74 2.16027 2.04526)
(202.386 1.47794 0.962288)
(202.635 0.967426 -0.165706)
(202.492 0.560758 -1.34765)
(201.923 0.287425 -2.59385)
(200.866 0.134977 -3.93392)
(199.131 0.110301 -5.33123)
(196.475 0.213112 -6.7145)
(192.318 0.384845 -7.61553)
(186.787 0.372415 -6.78113)
(198.758 -0.0984987 0.417777)
(198.896 -0.162723 0.295558)
(198.933 -0.239683 0.107031)
(198.914 -0.310317 -0.057843)
(198.848 -0.383472 -0.222984)
(198.742 -0.449994 -0.343345)
(198.609 -0.512442 -0.420361)
(198.463 -0.5704 -0.432978)
(198.317 -0.623676 -0.383269)
(198.149 -0.668234 -0.273331)
(199.462 0.530709 0.367246)
(199.61 0.51695 0.0967035)
(199.664 0.457876 -0.176587)
(199.623 0.360823 -0.437992)
(199.488 0.240405 -0.664909)
(199.271 0.102618 -0.835111)
(198.988 -0.045336 -0.924321)
(198.67 -0.197134 -0.908705)
(198.359 -0.344775 -0.771812)
(198.116 -0.470613 -0.513379)
(199.804 0.204918 1.00203)
(200.038 0.0667451 0.574541)
(200.122 -0.105992 0.0960868)
(200.057 -0.293414 -0.370785)
(199.842 -0.498071 -0.800164)
(199.487 -0.715601 -1.15462)
(199.01 -0.94389 -1.39156)
(198.451 -1.17941 -1.46531)
(197.875 -1.41707 -1.32177)
(197.405 -1.63209 -0.94631)
(199.981 1.02648 0.99454)
(200.31 0.892963 0.424416)
(200.432 0.695164 -0.180692)
(200.348 0.470061 -0.776297)
(200.055 0.22188 -1.33176)
(199.556 -0.0449891 -1.8032)
(198.861 -0.332379 -2.13148)
(198.009 -0.639395 -2.24267)
(197.074 -0.967734 -2.02957)
(196.27 -1.28559 -1.42349)
(200.368 0.639214 1.61499)
(200.79 0.401582 0.883242)
(200.948 0.11761 0.078964)
(200.857 -0.172728 -0.713878)
(200.501 -0.476159 -1.4795)
(199.875 -0.788429 -2.16742)
(198.968 -1.11694 -2.70374)
(197.808 -1.46795 -2.98658)
(196.452 -1.86393 -2.83142)
(195.217 -2.26673 -2.08453)
(200.572 1.57173 1.49512)
(201.071 1.30165 0.664678)
(201.264 0.987298 -0.211072)
(201.168 0.675537 -1.08917)
(200.762 0.361339 -1.94901)
(200.029 0.0437415 -2.74881)
(198.929 -0.293981 -3.40236)
(197.471 -0.665972 -3.79555)
(195.657 -1.10995 -3.64695)
(193.92 -1.60332 -2.71219)
(200.976 0.870705 2.12901)
(201.546 0.485772 1.18912)
(201.768 0.0895094 0.160995)
(201.677 -0.274801 -0.865988)
(201.239 -0.619827 -1.90117)
(200.428 -0.945063 -2.90243)
(199.167 -1.26865 -3.78745)
(197.433 -1.6128 -4.42102)
(195.148 -2.04654 -4.44744)
(192.848 -2.56752 -3.45687)
(201.127 1.97917 1.70434)
(201.733 1.5722 0.750222)
(201.971 1.1732 -0.242413)
(201.87 0.821004 -1.26113)
(201.4 0.511558 -2.29432)
(200.523 0.238329 -3.32551)
(199.137 -0.0224985 -4.26586)
(197.18 -0.305792 -5.00176)
(194.476 -0.683579 -5.08972)
(191.603 -1.24162 -4.02933)
(201.402 0.634438 2.42787)
(202.031 0.107783 1.43665)
(202.279 -0.367097 0.340272)
(202.183 -0.753132 -0.767087)
(201.704 -1.06634 -1.92178)
(200.799 -1.30415 -3.09463)
(199.335 -1.47732 -4.22895)
(197.207 -1.62392 -5.18396)
(194.166 -1.79829 -5.56508)
(190.665 -2.23198 -4.57257)
(200.789 1.98329 1.6678)
(201.39 1.41182 0.761359)
(201.626 0.983329 -0.198143)
(201.492 0.639601 -1.20546)
(200.962 0.41212 -2.25179)
(199.986 0.290288 -3.33738)
(198.432 0.274586 -4.39691)
(196.157 0.35831 -5.31039)
(192.901 0.468965 -5.69502)
(188.926 0.424351 -4.5912)
(198.46 -0.191755 0.321277)
(198.566 -0.23698 0.252215)
(198.592 -0.291958 0.12249)
(198.582 -0.340124 0.0170253)
(198.543 -0.392363 -0.094561)
(198.482 -0.440067 -0.174413)
(198.406 -0.485281 -0.229687)
(198.324 -0.526526 -0.245345)
(198.24 -0.562573 -0.226321)
(198.121 -0.589997 -0.173604)
(199.081 0.396315 0.199414)
(199.178 0.408989 0.0190323)
(199.214 0.384408 -0.155808)
(199.188 0.324893 -0.320396)
(199.102 0.244178 -0.458595)
(198.964 0.147931 -0.556188)
(198.789 0.0434159 -0.598975)
(198.597 -0.062847 -0.574074)
(198.416 -0.163127 -0.47732)
(198.279 -0.244456 -0.311624)
(199.296 -0.0129187 0.785416)
(199.462 -0.11149 0.481354)
(199.523 -0.236431 0.134737)
(199.477 -0.375084 -0.202085)
(199.327 -0.529706 -0.507354)
(199.083 -0.695811 -0.75284)
(198.763 -0.869546 -0.909789)
(198.401 -1.04533 -0.952059)
(198.047 -1.21539 -0.854302)
(197.771 -1.36175 -0.621798)
(199.393 0.772766 0.717057)
(199.643 0.69387 0.299562)
(199.737 0.554593 -0.145936)
(199.674 0.385157 -0.58163)
(199.454 0.191608 -0.978618)
(199.085 -0.0201257 -1.30019)
(198.586 -0.247524 -1.50353)
(198 -0.486173 -1.54013)
(197.394 -0.729887 -1.35771)
(196.901 -0.955025 -0.931536)
(199.684 0.356158 1.29884)
(200.022 0.188017 0.735171)
(200.15 -0.0280773 0.106937)
(200.075 -0.258803 -0.508567)
(199.79 -0.506499 -1.09112)
(199.3 -0.764836 -1.59404)
(198.614 -1.03636 -1.95891)
(197.776 -1.32141 -2.11243)
(196.861 -1.62668 -1.95418)
(196.076 -1.921 -1.41124)
(199.825 1.26984 1.15766)
(200.241 1.07828 0.505655)
(200.402 0.835683 -0.187874)
(200.317 0.583952 -0.879846)
(199.976 0.32298 -1.54233)
(199.374 0.0545543 -2.13058)
(198.506 -0.230219 -2.57195)
(197.408 -0.539099 -2.77555)
(196.142 -0.886649 -2.57468)
(195.002 -1.25719 -1.84127)
(200.181 0.567782 1.77723)
(200.671 0.271756 1.01652)
(200.862 -0.0476588 0.1713)
(200.776 -0.350416 -0.668503)
(200.393 -0.643221 -1.49885)
(199.701 -0.923016 -2.2693)
(198.67 -1.20261 -2.90499)
(197.318 -1.49695 -3.28526)
(195.676 -1.84697 -3.19659)
(194.124 -2.24536 -2.37602)
(200.293 1.71222 1.34259)
(200.825 1.401 0.567032)
(201.033 1.07967 -0.246125)
(200.936 0.788063 -1.07972)
(200.515 0.526467 -1.90799)
(199.749 0.291573 -2.69978)
(198.585 0.0652768 -3.36782)
(197.017 -0.178048 -3.80029)
(195.031 -0.485314 -3.70297)
(193.052 -0.910341 -2.75645)
(200.568 0.346126 2.09531)
(201.129 -0.0808543 1.27275)
(201.348 -0.477945 0.342409)
(201.253 -0.803537 -0.592758)
(200.815 -1.06951 -1.55273)
(200.007 -1.27149 -2.49086)
(198.754 -1.42125 -3.34288)
(197.017 -1.55008 -3.96245)
(194.74 -1.70148 -4.08203)
(192.303 -2.03015 -3.14718)
(199.968 1.81518 1.29872)
(200.505 1.34964 0.562051)
(200.72 1.00025 -0.23113)
(200.599 0.716972 -1.06539)
(200.122 0.53229 -1.91751)
(199.257 0.437133 -2.76897)
(197.923 0.427797 -3.54128)
(196.052 0.494882 -4.1095)
(193.583 0.562953 -4.17925)
(190.808 0.519255 -3.11546)
(198.232 -0.255798 0.265842)
(198.319 -0.290738 0.22954)
(198.337 -0.333191 0.135469)
(198.332 -0.367323 0.0658001)
(198.309 -0.405648 -0.0140068)
(198.275 -0.440134 -0.071139)
(198.232 -0.472746 -0.11548)
(198.186 -0.501778 -0.13526)
(198.136 -0.525868 -0.135993)
(198.043 -0.54231 -0.116918)
(198.799 0.32094 0.0782066)
(198.861 0.34878 -0.0403105)
(198.885 0.346689 -0.147111)
(198.869 0.313641 -0.245253)
(198.815 0.262402 -0.324159)
(198.731 0.197951 -0.37533)
(198.625 0.126658 -0.390983)
(198.51 0.054364 -0.363985)
(198.404 -0.0125808 -0.295265)
(198.325 -0.0646299 -0.185934)
(198.915 -0.167959 0.624906)
(199.028 -0.242206 0.411057)
(199.07 -0.33322 0.162477)
(199.039 -0.434537 -0.0787529)
(198.938 -0.548794 -0.295612)
(198.776 -0.672364 -0.468024)
(198.568 -0.800795 -0.57734)
(198.339 -0.928319 -0.609495)
(198.123 -1.04743 -0.552189)
(197.96 -1.1455 -0.417664)
(198.954 0.579881 0.495789)
(199.136 0.537871 0.198388)
(199.206 0.443236 -0.119664)
(199.161 0.319637 -0.428812)
(199.001 0.173416 -0.704649)
(198.739 0.011045 -0.918879)
(198.393 -0.162972 -1.04215)
(197.999 -0.342694 -1.04427)
(197.611 -0.519451 -0.902044)
(197.307 -0.676199 -0.609696)
(199.156 0.129481 1.0335)
(199.415 0.0129111 0.608875)
(199.514 -0.147745 0.129467)
(199.456 -0.326487 -0.337751)
(199.238 -0.523071 -0.772502)
(198.869 -0.73041 -1.13574)
(198.369 -0.947803 -1.38415)
(197.78 -1.17184 -1.4691)
(197.171 -1.40159 -1.33822)
(196.673 -1.61134 -0.963655)
(199.235 1.0098 0.866109)
(199.567 0.879745 0.368445)
(199.697 0.698246 -0.164673)
(199.627 0.500901 -0.694178)
(199.352 0.290599 -1.19044)
(198.879 0.0709376 -1.61235)
(198.219 -0.160863 -1.90292)
(197.416 -0.407958 -1.99706)
(196.547 -0.671532 -1.79857)
(195.804 -0.940655 -1.25423)
(199.543 0.300206 1.46162)
(199.948 0.0785277 0.861069)
(200.105 -0.172503 0.183093)
(200.03 -0.417873 -0.487096)
(199.711 -0.659956 -1.13802)
(199.146 -0.893791 -1.71956)
(198.334 -1.12793 -2.16947)
(197.313 -1.37033 -2.3923)
(196.156 -1.64411 -2.2674)
(195.12 -1.9365 -1.63858)
(199.604 1.47065 1.01131)
(200.052 1.2425 0.399032)
(200.227 0.992069 -0.246694)
(200.141 0.757782 -0.908252)
(199.78 0.543015 -1.55199)
(199.139 0.346894 -2.14159)
(198.2 0.157275 -2.59941)
(196.988 -0.0437937 -2.83415)
(195.561 -0.284647 -2.65422)
(194.218 -0.594776 -1.88853)
(199.876 0.0717327 1.78968)
(200.358 -0.266178 1.12321)
(200.544 -0.591318 0.350727)
(200.457 -0.860538 -0.421501)
(200.075 -1.08223 -1.20235)
(199.385 -1.25076 -1.93802)
(198.355 -1.37754 -2.56669)
(196.989 -1.48631 -2.96)
(195.326 -1.60994 -2.94809)
(193.663 -1.84763 -2.17774)
(199.278 1.66539 0.94917)
(199.74 1.2974 0.369857)
(199.928 1.02194 -0.26485)
(199.823 0.795293 -0.933942)
(199.41 0.649791 -1.60484)
(198.672 0.577646 -2.24967)
(197.57 0.572813 -2.78836)
(196.087 0.625868 -3.11461)
(194.264 0.664542 -3.01091)
(192.377 0.633199 -2.10694)
(198.051 -0.304373 0.23755)
(198.126 -0.33375 0.220995)
(198.139 -0.369445 0.147725)
(198.137 -0.395144 0.0987488)
(198.124 -0.424537 0.0372712)
(198.105 -0.450105 -0.00769771)
(198.081 -0.473907 -0.0468959)
(198.055 -0.494352 -0.0705276)
(198.023 -0.510281 -0.0839989)
(197.944 -0.519616 -0.0851109)
(198.586 0.289436 -0.011282)
(198.625 0.326125 -0.0878443)
(198.641 0.338409 -0.148363)
(198.632 0.323648 -0.201473)
(198.599 0.293674 -0.240956)
(198.548 0.252616 -0.261999)
(198.485 0.205704 -0.260762)
(198.417 0.157784 -0.232976)
(198.355 0.113669 -0.181733)
(198.308 0.0805643 -0.105145)
(198.624 -0.273091 0.509434)
(198.698 -0.333037 0.359328)
(198.726 -0.400692 0.181133)
(198.706 -0.474489 0.00779076)
(198.641 -0.557668 -0.147806)
(198.536 -0.647582 -0.272108)
(198.404 -0.740141 -0.35321)
(198.262 -0.830311 -0.384045)
(198.131 -0.911946 -0.357688)
(198.034 -0.97645 -0.288258)
(198.629 0.441182 0.32398)
(198.758 0.422611 0.118167)
(198.808 0.3607 -0.101779)
(198.777 0.27338 -0.314216)
(198.666 0.166453 -0.500183)
(198.485 0.0460693 -0.638978)
(198.251 -0.0828651 -0.71138)
(197.992 -0.214281 -0.699081)
(197.745 -0.33977 -0.593714)
(197.558 -0.447566 -0.395083)
(198.753 -0.0410054 0.817285)
(198.945 -0.121018 0.503442)