/*--------------------------------*- C++ -*----------------------------------*\
| =========                 |                                                 |
| \\      /  F ield         | foam-extend: Open Source CFD                    |
|  \\    /   O peration     | Version:     4.0                                |
|   \\  /    A nd           | Web:         http://www.foam-extend.org         |
|    \\/     M anipulation  |                                                 |
\*---------------------------------------------------------------------------*/
FoamFile
{
    version     2.0;
    format      ascii;
    class       volScalarField;
    location    "1000";
    object      alphat;
}
// * * * * * * * * * * * * * * * * * * * * * * * * * * * * * * * * * * * * * //

dimensions      [1 -1 -1 0 0 0 0];

internalField   nonuniform List<scalar> 
34480
(
0.00189095
0.00188969
0.0018895
0.00189029
0.00189236
0.00189622
0.00190367
0.0019217
0.0019606
0.00203124
0.0158526
0.0150515
0.014755
0.0144807
0.0128462
0.00816859
0.00337772
0.00134585
0.000989189
0.00145997
0.0440867
0.0424285
0.0407522
0.0373058
0.0284729
0.0145295
0.00507193
0.00182604
0.00124835
0.00182171
0.0482366
0.0460898
0.0441677
0.0401315
0.0295419
0.0140432
0.00475774
0.00177241
0.00129351
0.00198747
0.0475881
0.0451941
0.0434528
0.0396177
0.0287428
0.0131188
0.00438685
0.0016818
0.00130319
0.00210483
0.0458731
0.043423
0.0417872
0.0380086
0.0267832
0.0115863
0.00384891
0.00155164
0.0013081
0.00223044
0.0437736
0.041488
0.0400531
0.0364514
0.0252642
0.0105543
0.00349465
0.00146063
0.00131412
0.00233745
0.0363433
0.0346841
0.033676
0.0309417
0.0214394
0.00865379
0.00281682
0.00123962
0.00123585
0.00234158
0.0124132
0.0121025
0.0120051
0.0117323
0.00994009
0.00513389
0.00167992
0.000737023
0.000833618
0.00178445
0.00180148
0.00180148
0.00180318
0.00180642
0.00181112
0.00181711
0.00182495
0.00183597
0.00185228
0.00181311
0.00189083
0.00188896
0.00188834
0.00188883
0.00189065
0.00189407
0.00189955
0.00190888
0.00192645
0.00196695
0.0148957
0.0142636
0.0140732
0.0142545
0.0146625
0.0147161
0.012907
0.00762334
0.00249913
0.0020537
0.0406083
0.0393767
0.0387189
0.0381908
0.0365827
0.0318745
0.022911
0.0112563
0.00328998
0.00282152
0.044689
0.0430259
0.0422366
0.0416746
0.0398347
0.0343326
0.0241168
0.0113951
0.00330472
0.00319037
0.0445444
0.0426064
0.0418789
0.0415304
0.0400469
0.0347681
0.0243865
0.0112447
0.003238
0.00346966
0.0433553
0.0413148
0.0406072
0.0403925
0.0391765
0.034171
0.0239168
0.0108197
0.00316299
0.00379765
0.0417715
0.0398177
0.0392015
0.0390722
0.0380957
0.0334558
0.0235237
0.0105367
0.00312437
0.00410823
0.0350924
0.0336479
0.0331976
0.0331905
0.032684
0.0293641
0.021098
0.00937711
0.00284761
0.00417315
0.012353
0.0120539
0.0119979
0.0120586
0.0121939
0.0120496
0.0106232
0.00545888
0.00170348
0.00279646
0.00179672
0.00179434
0.00179389
0.00179506
0.00179779
0.00180181
0.00180782
0.00181745
0.00184148
0.00188834
0.00188616
0.00188454
0.00188399
0.00188443
0.001886
0.00188877
0.00189277
0.0018987
0.00190758
0.00192101
0.0140111
0.0135944
0.0134605
0.0136091
0.0140462
0.0146936
0.0151245
0.0142063
0.0101125
0.00584154
0.0371185
0.0361468
0.0358132
0.0359661
0.0362902
0.035881
0.0329596
0.0253199
0.0133419
0.00712062
0.0409967
0.0396964
0.0392752
0.039508
0.0400085
0.039658
0.0361347
0.0265524
0.0125205
0.00723102
0.0412408
0.0397389
0.0393355
0.0396816
0.0404857
0.0406108
0.037308
0.0266215
0.011388
0.00720316
0.0405181
0.0389299
0.0385084
0.0389186
0.0399461
0.0405552
0.037659
0.0261097
0.010268
0.00726998
0.0394255
0.0378817
0.0375044
0.0379205
0.0390518
0.0400199
0.0376318
0.0254803
0.00934427
0.00734418
0.0335879
0.0324462
0.0321511
0.0324762
0.0334186
0.0345735
0.0334111
0.0226087
0.007935
0.00704133
0.0122489
0.012
0.01196
0.0120226
0.0122193
0.0124698
0.0126185
0.0106486
0.00447698
0.00444563
0.00178926
0.00178643
0.00178559
0.00178647
0.0017891
0.0017934
0.00180029
0.00181194
0.00183846
0.00189165
0.0018778
0.00187665
0.00187626
0.0018766
0.00187775
0.00187964
0.00188201
0.00188506
0.00188898
0.00189362
0.0134305
0.0131801
0.0130885
0.0131831
0.0134744
0.0139398
0.0144422
0.0148716
0.0146118
0.0128726
0.0339816
0.0332943
0.0331016
0.0333084
0.03388
0.0345692
0.0346119
0.032401
0.0256955
0.0174063
0.0375976
0.0366586
0.0363961
0.0366917
0.0375019
0.0385094
0.0385672
0.0352553
0.0257686
0.016751
0.0381546
0.0370715
0.0368117
0.0371725
0.0381843
0.0395593
0.0399422
0.0360887
0.0245782
0.015909
0.0378465
0.0366837
0.036392
0.0367923
0.0379502
0.0396844
0.0405137
0.0362868
0.0230643
0.0153549
0.0371938
0.0360348
0.035765
0.0361591
0.0373613
0.0392909
0.0405022
0.0360012
0.0214386
0.0148524
0.032187
0.0313214
0.0311021
0.0313948
0.0323026
0.0339274
0.0354029
0.0319543
0.0184493
0.0137087
0.0121853
0.01198
0.011951
0.0119988
0.0121482
0.0123558
0.0125567
0.0126732
0.00956741
0.00829767
0.00178025
0.00177727
0.00177629
0.00177708
0.00177974
0.00178436
0.00179184
0.00180441
0.00183038
0.0018775
0.00186655
0.00186584
0.00186559
0.00186583
0.00186658
0.00186774
0.00186896
0.00187037
0.00187194
0.00187339
0.0131566
0.0130151
0.0129536
0.0130125
0.0131942
0.0134673
0.0137204
0.014021
0.0143159
0.0144387
0.0314765
0.0310719
0.030967
0.0310954
0.0314834
0.0321072
0.0328126
0.0331141
0.0316798
0.0274983
0.0347551
0.0341536
0.0339881
0.0341867
0.0347832
0.0357689
0.036872
0.0371063
0.0341026
0.0275046
0.0355038
0.034786
0.0346154
0.034859
0.0356015
0.0368626
0.0383142
0.0385562
0.0341995
0.0263335
0.0355106
0.0347085
0.0345002
0.0347792
0.0356378
0.0371701
0.039037
0.0394151
0.0337575
0.0254109
0.0352042
0.0343713
0.0341714
0.0344517
0.0353536
0.0370162
0.0391473
0.0395916
0.0327275
0.0244398
0.030954
0.0303179
0.0301506
0.0303622
0.0310313
0.0323306
0.0341909
0.0349871
0.0288349
0.0222644
0.0121688
0.0119993
0.0119785
0.012011
0.0121129
0.0122467
0.0123121
0.0126971
0.0125551
0.012186
0.00176985
0.00176683
0.00176578
0.00176652
0.00176915
0.00177386
0.00178141
0.00179367
0.00181624
0.00185272
0.00185294
0.00185257
0.00185244
0.00185259
0.00185304
0.00185366
0.0018542
0.00185478
0.00185534
0.00185572
0.0131218
0.0130497
0.0130101
0.0130489
0.0131646
0.0133195
0.0134239
0.0135464
0.0136762
0.0137713
0.0297375
0.0295407
0.0294939
0.0295563
0.0297533
0.03009
0.0305589
0.031131
0.0314802
0.0311176
0.0326077
0.0322665
0.0321699
0.0322789
0.0326251
0.0332483
0.0341611
0.0352113
0.0355187
0.0339972
0.0333935
0.0329588
0.0328548
0.0329956
0.033449
0.0342773
0.0355126
0.0369014
0.0369219
0.0341008
0.0335848
0.0330662
0.0329247
0.0330982
0.0336512
0.0346979
0.0363075
0.03813
0.0378221
0.0338646
0.0335096
0.0329409
0.0327997
0.0329807
0.0335847
0.0347476
0.0365762
0.0386576
0.0378824
0.0330917
0.029909
0.0294617
0.0293401
0.0294829
0.0299349
0.0308249
0.0322731
0.0341831
0.033691
0.0299191
0.0122031
0.0120639
0.0120509
0.0120716
0.0121356
0.0122027
0.0121504
0.0123368
0.0127331
0.0136182
0.00175788
0.00175496
0.0017539
0.00175458
0.00175711
0.00176168
0.00176885
0.00178003
0.0017984
0.00182477
0.00183738
0.00183723
0.00183718
0.00183727
0.00183751
0.0018378
0.00183798
0.00183817
0.00183834
0.00183838
0.0132507
0.0132248
0.0132014
0.0132284
0.0133031
0.0133852
0.0134281
0.0134747
0.0135118
0.013505
0.028688
0.0286082
0.0285934
0.0286203
0.0287053
0.0288461
0.0290445
0.0293231
0.0296269
0.0298513
0.031141
0.0309628
0.0309099
0.0309636
0.0311416
0.0314658
0.0319669
0.0326716
0.033395
0.0338091
0.0318411
0.0315963
0.0315378
0.0316116
0.0318607
0.0323202
0.0330499
0.0341046
0.0351131
0.0354384
0.0320992
0.0317818
0.0316904
0.0317907
0.0321191
0.0327449
0.033769
0.0352946
0.036651
0.0367493
0.0321486
0.0317775
0.0316826
0.0317918
0.0321698
0.0328983
0.0341082
0.035951
0.037441
0.0371025
0.0290799
0.0287784
0.0286943
0.0287853
0.0290719
0.0296274
0.0305419
0.0320893
0.0335041
0.03352
0.0122969
0.0121817
0.0121756
0.0121873
0.0122224
0.0122338
0.0121085
0.0121049
0.0122803
0.0129709
0.00174422
0.00174149
0.00174047
0.00174109
0.00174344
0.00174767
0.00175415
0.00176381
0.00177814
0.00179663
0.00182009
0.00182008
0.00182008
0.00182013
0.00182025
0.00182033
0.00182036
0.00182039
0.0018204
0.00182032
0.0134863
0.0134935
0.0134828
0.0135022
0.0135497
0.0135874
0.0136082
0.013627
0.0136317
0.0135925
0.0281368
0.0281127
0.0281128
0.0281243
0.0281571
0.0282053
0.0282726
0.028368
0.0284791
0.0285698
0.0302206
0.0301307
0.0301025
0.0301278
0.0302151
0.0303712
0.0306078
0.0309415
0.0313327
0.0316837
0.0307768
0.0306458
0.0306152
0.0306513
0.0307801
0.0310135
0.031379
0.0319222
0.032575
0.0331753
0.0310227
0.0308365
0.03078
0.0308352
0.0310207
0.0313684
0.0319313
0.0328091
0.0338805
0.0348532
0.0311173
0.0308839
0.0308231
0.0308854
0.0311114
0.0315391
0.0322403
0.0333742
0.0347495
0.0359187
0.0284718
0.0282766
0.0282216
0.0282765
0.0284476
0.0287685
0.0292747
0.0301878
0.0314262
0.0326831
0.0124563
0.0123596
0.0123592
0.0123644
0.0123783
0.012346
0.0121857
0.0120729
0.0120443
0.0123035
0.00172873
0.00172628
0.00172534
0.0017259
0.001728
0.00173174
0.00173733
0.0017453
0.00175612
0.00176887
0.00180119
0.00180126
0.00180129
0.00180131
0.00180136
0.00180135
0.00180132
0.00180129
0.00180125
0.00180113
0.0137954
0.0138279
0.0138276
0.0138418
0.0138698
0.0138852
0.0138966
0.0139044
0.013897
0.0138467
0.0279006
0.0279007
0.0279069
0.0279123
0.0279235
0.0279361
0.0279546
0.027981
0.0280115
0.0280309
0.0296839
0.0296377
0.0296223
0.0296344
0.0296775
0.0297529
0.0298626
0.0300092
0.0301787
0.030327
0.0300923
0.0300236
0.0300083
0.0300254
0.0300903
0.030205
0.030378
0.030623
0.0309217
0.0312096
0.0302884
0.0301822
0.0301483
0.0301779
0.0302798
0.0304663
0.0307581
0.0311954
0.0317546
0.0323333
0.0303809
0.0302377
0.0302002
0.0302344
0.0303657
0.030608
0.030991
0.0315913
0.0323739
0.0331958
0.0280716
0.0279498
0.0279159
0.0279473
0.0280428
0.028213
0.0284639
0.0289199
0.0296086
0.0304815
0.0126866
0.0126033
0.0126075
0.0126083
0.0126069
0.0125433
0.0123741
0.0122155
0.0120829
0.0121392
0.00171133
0.00170921
0.00170839
0.00170887
0.00171068
0.00171385
0.00171848
0.00172479
0.00173273
0.00174136
0.0017807
0.00178082
0.00178086
0.00178087
0.00178088
0.00178085
0.0017808
0.00178075
0.0017807
0.00178058
0.0141669
0.0142169
0.0142255
0.0142361
0.0142493
0.0142567
0.0142636
0.0142662
0.0142531
0.0141971
0.0278491
0.0278586
0.0278667
0.02787
0.0278723
0.027874
0.0278771
0.0278819
0.0278869
0.0278856
0.029392
0.0293668
0.0293579
0.029364
0.0293864
0.0294247
0.0294784
0.0295459
0.0296208
0.0296826
0.0296774
0.0296408
0.0296331
0.0296412
0.0296743
0.0297314
0.0298139
0.0299232
0.0300515
0.0301696
0.0298164
0.0297565
0.0297364
0.0297522
0.0298077
0.0299068
0.0300562
0.0302665
0.030529
0.0307935
0.0298865
0.0297995
0.0297767
0.0297952
0.0298706
0.0300062
0.0302121
0.0305159
0.0309032
0.0312954
0.0278528
0.027779
0.0277597
0.0277765
0.0278252
0.0279045
0.028013
0.0282138
0.028532
0.0289584
0.0129921
0.012918
0.0129261
0.0129238
0.0129116
0.0128288
0.0126675
0.0125019
0.0123319
0.0123288
0.00169195
0.00169019
0.0016895
0.0016899
0.0016914
0.00169397
0.00169766
0.00170248
0.00170814
0.00171388
0.00175864
0.00175876
0.00175881
0.00175882
0.00175881
0.00175878
0.00175873
0.00175869
0.00175864
0.00175852
0.014605
0.0146615
0.0146779
0.0146862
0.0146914
0.0146964
0.0147007
0.0147002
0.0146837
0.0146234
0.0279018
0.0279129
0.0279215
0.0279238
0.0279239
0.0279231
0.0279222
0.027921
0.0279185
0.0279116
0.0292455
0.0292305
0.029225
0.0292283
0.0292407
0.0292617
0.0292901
0.0293242
0.0293607
0.0293901
0.0294401
0.0294194
0.0294152
0.0294193
0.029437
0.029467
0.0295086
0.0295603
0.029618
0.0296701
0.0295305
0.0294964
0.0294846
0.0294931
0.0295236
0.0295768
0.0296542
0.0297566
0.0298796
0.0300018
0.0295758
0.0295223
0.0295085
0.0295187
0.0295624
0.0296388
0.0297508
0.0299059
0.030094
0.0302739
0.0277815
0.0277377
0.0277278
0.0277361
0.0277574
0.0277846
0.0278215
0.0278961
0.0280239
0.0282232
0.0133778
0.0133098
0.0133214
0.0133169
0.0132965
0.0132067
0.013063
0.0129114
0.0127406
0.0127386
0.00167055
0.00166915
0.00166859
0.00166891
0.00167011
0.00167211
0.00167494
0.0016785
0.00168244
0.00168619
0.00173494
0.00173506
0.00173511
0.00173511
0.0017351
0.00173507
0.00173504
0.001735
0.00173496
0.00173485
0.0151147
0.015175
0.0151943
0.015201
0.0152051
0.0152087
0.0152112
0.0152087
0.0151898
0.0151255
0.0280113
0.0280223
0.0280299
0.0280321
0.0280321
0.0280311
0.0280296
0.0280271
0.0280227
0.0280139
0.0291796
0.0291702
0.0291666
0.0291685
0.0291758
0.0291879
0.029204
0.0292227
0.0292424
0.0292582
0.0293124
0.0292995
0.0292967
0.029299
0.0293093
0.0293266
0.0293496
0.0293767
0.0294054
0.0294317
0.0293675
0.0293477
0.0293406
0.0293454
0.0293626
0.0293918
0.0294329
0.0294844
0.0295441
0.0296052
0.0293944
0.0293605
0.029352
0.0293579
0.0293841
0.0294285
0.0294914
0.0295739
0.0296683
0.029757
0.0278221
0.0277964
0.0277925
0.027796
0.027802
0.0278037
0.0278077
0.0278256
0.027866
0.0279671
0.0138506
0.0137866
0.0138014
0.0137952
0.013768
0.013683
0.0135619
0.0134342
0.0132803
0.0133017
0.0016471
0.00164603
0.00164561
0.00164585
0.00164676
0.00164827
0.00165037
0.0016529
0.00165557
0.00165799
0.00170953
0.00170964
0.00170968
0.00170968
0.00170967
0.00170965
0.00170963
0.0017096
0.00170957
0.00170946
0.0157078
0.0157718
0.0157919
0.0157986
0.0158022
0.0158049
0.0158062
0.0158023
0.0157816
0.0157132
0.0281518
0.0281622
0.0281687
0.0281708
0.028171
0.0281704
0.0281692
0.0281669
0.0281621
0.0281525
0.0291559
0.0291498
0.0291476
0.0291487
0.0291529
0.0291601
0.0291694
0.0291801
0.0291915
0.0292009
0.0292481
0.0292394
0.0292372
0.0292387
0.0292452
0.0292561
0.0292702
0.0292861
0.0293023
0.0293175
0.0292804
0.0292686
0.0292642
0.029267
0.029277
0.0292935
0.0293161
0.0293431
0.0293735
0.0294068
0.0292975
0.0292751
0.0292697
0.0292736
0.0292899
0.029317
0.0293542
0.0294007
0.0294513
0.0295004
0.0279422
0.0279274
0.027927
0.0279279
0.027926
0.0279184
0.0279099
0.0279055
0.0279099
0.0279698
0.014421
0.0143597
0.0143782
0.0143704
0.0143365
0.0142685
0.0141716
0.0140706
0.0139403
0.0139909
0.0016216
0.00162082
0.00162051
0.00162069
0.00162135
0.00162245
0.00162394
0.00162569
0.00162745
0.00162899
0.00168232
0.00168242
0.00168246
0.00168246
0.00168246
0.00168244
0.00168242
0.0016824
0.00168238
0.00168227
0.0164023
0.0164702
0.0164908
0.0164973
0.016501
0.016503
0.0165035
0.0164988
0.0164766
0.016404
0.0283092
0.0283189
0.0283244
0.0283264
0.0283268
0.0283265
0.0283258
0.0283239
0.0283196
0.0283098
0.0291528
0.029149
0.0291476
0.0291482
0.0291506
0.0291546
0.0291598
0.029166
0.0291728
0.0291788
0.0292184
0.0292123
0.0292104
0.0292114
0.0292158
0.0292231
0.0292325
0.0292428
0.029253
0.0292628
0.029237
0.0292297
0.029227
0.0292286
0.0292345
0.0292443
0.0292571
0.0292719
0.0292882
0.0293078
0.0292516
0.0292363
0.0292326
0.0292354
0.0292462
0.0292636
0.0292868
0.0293149
0.0293442
0.0293754
0.0281173
0.0281064
0.0281078
0.0281076
0.0281026
0.0280942
0.0280832
0.0280726
0.0280646
0.028107
0.0151158
0.0150464
0.0150695
0.0150598
0.0150307
0.01498
0.0149069
0.0148315
0.0147255
0.014804
0.00159404
0.00159349
0.00159327
0.0015934
0.00159386
0.00159463
0.00159566
0.00159682
0.00159796
0.00159892
0.00165325
0.00165334
0.00165336
0.00165336
0.00165337
0.00165336
0.00165334
0.00165333
0.00165331
0.00165321
0.0172241
0.0172965
0.0173166
0.0173231
0.0173272
0.0173291
0.017329
0.0173238
0.0173006
0.0172233
0.0284753
0.0284842
0.0284888
0.0284905
0.028491
0.0284911
0.0284909
0.0284896
0.028486
0.0284765
0.0291587
0.0291565
0.0291558
0.0291561
0.0291573
0.0291593
0.029162
0.0291653
0.0291694
0.0291735
0.0292064
0.0292019
0.0292003
0.0292009
0.029204
0.0292091
0.0292157
0.0292227
0.0292296
0.0292363
0.029217
0.0292123
0.0292105
0.0292115
0.0292151
0.0292209
0.0292284
0.0292369
0.0292461
0.0292583
0.0292335
0.0292227
0.0292202
0.0292224
0.0292297
0.0292414
0.0292566
0.0292745
0.0292928
0.0293149
0.0283248
0.0283144
0.0283158
0.0283154
0.0283116
0.0283051
0.0282959
0.0282859
0.0282754
0.0283097
0.0159639
0.0158868
0.0159039
0.0158978
0.0158782
0.0158435
0.0157923
0.0157398
0.0156562
0.0157577
0.00156442
0.00156404
0.00156389
0.00156398
0.00156429
0.00156481
0.00156549
0.00156624
0.00156695
0.00156754
0.00162225
0.00162233
0.00162235
0.00162236
0.00162236
0.00162235
0.00162234
0.00162233
0.00162231
0.00162222
0.0182105
0.0182879
0.0183077
0.0183136
0.0183178
0.0183201
0.0183196
0.0183143
0.0182906
0.0182081
0.0286442
0.0286522
0.0286559
0.0286573
0.0286578
0.0286582
0.0286583
0.0286576
0.028655
0.0286465
0.0291678
0.0291667
0.0291664
0.0291665
0.029167
0.0291678
0.0291689
0.0291705
0.0291729
0.029176
0.0292024
0.0291992
0.0291978
0.0291981
0.0292002
0.0292038
0.0292083
0.0292132
0.029218
0.0292229
0.0292081
0.029205
0.0292037
0.0292043
0.0292065
0.02921
0.0292146
0.0292196
0.029225
0.0292329
0.0292281
0.0292204
0.0292187
0.0292203
0.0292255
0.0292335
0.0292436
0.0292553
0.0292671
0.0292839
0.0285457
0.0285356
0.0285365
0.0285364
0.0285342
0.0285302
0.0285241
0.028517
0.0285078
0.0285373
0.0170034
0.0169206
0.0169316
0.0169287
0.0169177
0.0168974
0.0168662
0.0168332
0.0167695
0.0168876
0.00153274
0.00153249
0.00153239
0.00153245
0.00153266
0.00153299
0.00153343
0.00153389
0.00153432
0.00153468
0.0015894
0.00158947
0.00158949
0.00158949
0.00158949
0.00158949
0.00158948
0.00158946
0.00158944
0.00158936
0.0194157
0.019499
0.0195206
0.0195262
0.0195289
0.01953
0.0195294
0.0195242
0.0195008
0.0194126
0.0288097
0.0288165
0.0288192
0.0288202
0.0288207
0.0288211
0.0288216
0.0288215
0.0288201
0.0288132
0.0291771
0.0291766
0.0291766
0.0291766
0.0291767
0.0291768
0.0291771
0.0291777
0.029179
0.0291815
0.029201
0.0291987
0.0291976
0.0291977
0.0291991
0.0292014
0.0292045
0.0292078
0.0292112
0.0292148
0.0292035
0.0292014
0.0292005
0.0292007
0.0292021
0.0292042
0.029207
0.0292099
0.0292132
0.0292183
0.0292255
0.0292202
0.029219
0.0292202
0.0292237
0.029229
0.0292357
0.0292432
0.0292508
0.0292635
0.0287623
0.0287529
0.0287533
0.0287534
0.0287526
0.0287508
0.0287477
0.0287436
0.0287369
0.0287623
0.0182909
0.0182051
0.0182098
0.0182096
0.0182064
0.0181992
0.0181865
0.01817
0.0181249
0.0182511
0.0014991
0.00149895
0.00149888
0.00149892
0.00149905
0.00149926
0.00149953
0.0014998
0.00150006
0.00150026
0.00155488
0.00155495
0.00155496
0.00155497
0.00155497
0.00155496
0.00155495
0.00155494
0.00155492
0.00155484
0.0209227
0.0210117
0.021034
0.0210391
0.0210402
0.0210404
0.0210396
0.021035
0.0210128
0.0209189
0.0289631
0.0289682
0.0289697
0.0289701
0.0289705
0.028971
0.0289718
0.0289723
0.0289721
0.0289678
0.0291846
0.0291844
0.0291845
0.0291845
0.0291844
0.0291843
0.0291842
0.0291843
0.0291848
0.0291869
0.0291996
0.029198
0.0291971
0.0291971
0.0291979
0.0291994
0.0292013
0.0292035
0.0292058
0.0292086
0.0292
0.0291985
0.0291979
0.029198
0.0291987
0.0292
0.0292015
0.0292033
0.0292052
0.0292084
0.0292194
0.029216
0.0292151
0.0292159
0.0292181
0.0292215
0.0292255
0.0292301
0.0292347
0.0292437
0.028955
0.028947
0.028947
0.0289473
0.0289473
0.0289469
0.0289457
0.028944
0.0289398
0.028961
0.0199093
0.0198242
0.0198217
0.0198237
0.0198277
0.019833
0.0198383
0.0198372
0.019812
0.0199346
0.00146369
0.0014636
0.00146355
0.00146357
0.00146365
0.00146378
0.00146394
0.00146411
0.00146427
0.00146438
0.00151893
0.00151896
0.00151896
0.00151896
0.00151896
0.00151896
0.00151895
0.00151895
0.00151894
0.00151888
0.0228652
0.0229568
0.0229766
0.0229807
0.0229815
0.0229814
0.0229806
0.0229766
0.022957
0.0228598
0.0290923
0.0290947
0.0290949
0.0290948
0.029095
0.0290955
0.0290965
0.0290976
0.0290985
0.0290977
0.0291893
0.0291892
0.0291893
0.0291893
0.0291892
0.0291891
0.029189
0.0291889
0.0291891
0.0291904
0.0291978
0.0291967
0.029196
0.029196
0.0291964
0.0291973
0.0291984
0.0291998
0.0292014
0.0292034
0.0291971
0.0291961
0.0291957
0.0291957
0.0291961
0.0291968
0.0291976
0.0291986
0.0291997
0.0292016
0.0292082
0.0292061
0.0292056
0.029206
0.0292072
0.0292091
0.0292114
0.0292138
0.0292164
0.0292219
0.0291029
0.0290967
0.0290966
0.0290967
0.0290969
0.0290969
0.0290966
0.0290961
0.0290942
0.0291106
0.0220139
0.0219356
0.0219337
0.0219354
0.0219385
0.0219426
0.0219467
0.0219496
0.0219502
0.0220532
0.00142664
0.00142657
0.00142654
0.00142656
0.0014266
0.00142668
0.00142678
0.00142689
0.001427
0.00142706
0.00148061
0.00148061
0.00148059
0.00148058
0.00148058
0.00148059
0.00148059
0.00148061
0.00148064
0.00148066
0.0254818
0.0255623
0.0255761
0.025579
0.0255796
0.0255794
0.0255783
0.025575
0.0255603
0.0254723
0.0291834
0.029183
0.0291821
0.0291816
0.0291816
0.029182
0.029183
0.0291844
0.0291862
0.0291886
0.0291919
0.0291919
0.0291919
0.0291919
0.0291919
0.0291919
0.0291919
0.0291919
0.029192
0.0291924
0.0291972
0.0291964
0.029196
0.029196
0.0291962
0.0291968
0.0291974
0.0291983
0.0291993
0.0292005
0.0291965
0.0291959
0.0291956
0.0291956
0.0291959
0.0291963
0.0291969
0.0291975
0.0291982
0.0291992
0.029198
0.0291969
0.0291966
0.0291968
0.0291975
0.0291985
0.0291998
0.0292011
0.0292024
0.0292048
0.0291941
0.0291901
0.0291896
0.0291895
0.0291895
0.0291894
0.0291893
0.0291895
0.0291898
0.0292005
0.0249182
0.0248595
0.0248584
0.0248596
0.0248616
0.0248643
0.0248671
0.0248688
0.024869
0.0249455
0.00138717
0.00138712
0.0013871
0.00138711
0.00138715
0.00138721
0.00138728
0.00138736
0.00138744
0.00138749
0.00234427
0.00236506
0.00235483
0.00232092
0.0014119
0.0014347
0.00143194
0.00142688
0.00188822
0.00192994
0.00192067
0.00189578
0.00227365
0.00233135
0.00231175
0.00226539
0.00261943
0.00269003
0.00265801
0.00259351
0.0029593
0.00304096
0.00300112
0.00292801
0.00324012
0.00332988
0.00328789
0.00321491
0.0034072
0.00350325
0.00346339
0.003395
0.00303866
0.00312739
0.00308853
0.0030329
0.00237273
0.00238925
0.00235453
0.00227371
0.00202913
0.00203483
0.00203593
0.00203287
0.00236514
0.00244556
0.0023457
0.00215286
0.00332476
0.00343821
0.00330696
0.00306781
0.00408611
0.00425265
0.0040929
0.00379388
0.00486352
0.0050968
0.0049008
0.00452432
0.00583445
0.00615696
0.0059135
0.00542802
0.00679415
0.00720365
0.00689976
0.00630159
0.00748586
0.00797945
0.00761882
0.0069243
0.00590425
0.0063372
0.00598198
0.00538622
0.00218015
0.00221234
0.0022055
0.00216993
0.00193502
0.00193706
0.00193722
0.00193597
0.00407901
0.0040563
0.00406738
0.00416013
0.00501286
0.00499411
0.00501373
0.00512028
0.00551655
0.00553484
0.00555367
0.00560635
0.00602774
0.00607927
0.00608082
0.00604188
0.00676609
0.0068594
0.00681613
0.0066393
0.00751625
0.00763559
0.00751771
0.00718054
0.00804489
0.00820129
0.00800944
0.00751118
0.00610946
0.00624671
0.00606741
0.00558743
0.00204699
0.00206404
0.00206214
0.00204449
0.00189629
0.00189651
0.00189664
0.00189669
0.0102553
0.00997813
0.0101157
0.0106331
0.011979
0.0116442
0.0119483
0.0128478
0.0114714
0.0112884
0.0116614
0.012564
0.0111166
0.0110523
0.0114489
0.0122862
0.0112276
0.0112659
0.011653
0.0123843
0.0114127
0.0115098
0.011844
0.0124249
0.0113475
0.0115207
0.0117861
0.0121577
0.0079988
0.00818136
0.00830164
0.00834361
0.00195605
0.00196647
0.00196745
0.0019595
0.00187427
0.0018743
0.00187433
0.00187436
0.0145108
0.0144505
0.0144786
0.0145885
0.023882
0.0235562
0.0237445
0.0243753
0.0222895
0.0219948
0.0223483
0.0232812
0.0204205
0.0202379
0.0207177
0.0218313
0.0193604
0.0193265
0.0198954
0.0210974
0.0185317
0.0186029
0.019192
0.0203843
0.0173218
0.0175308
0.0180814
0.0190922
0.010857
0.0110902
0.0113292
0.0116426
0.001893
0.00189946
0.00190092
0.00189754
0.00185609
0.00185605
0.00185604
0.00185605
0.0141036
0.0140293
0.0140193
0.0140741
0.0304504
0.030339
0.0303628
0.0305108
0.0318444
0.0316013
0.0316903
0.032069
0.0304745
0.0301837
0.0304024
0.0310622
0.0290583
0.0288378
0.0292243
0.0301528
0.0274639
0.027334
0.0278446
0.0289688
0.0247619
0.0248251
0.0253774
0.0264495
0.0131499
0.0133792
0.0135521
0.0137114
0.0018452
0.00184911
0.00185038
0.00184904
0.00183864
0.00183859
0.00183856
0.00183856
0.013796
0.0137049
0.0136867
0.0137408
0.02996
0.0299584
0.02997
0.0299958
0.0337222
0.0337198
0.0337492
0.0338085
0.0348624
0.0348108
0.0348683
0.0350238
0.0353725
0.0352841
0.0354166
0.0357409
0.0347149
0.0345992
0.0348266
0.0353549
0.0310796
0.031109
0.0314156
0.0319738
0.0132946
0.0135677
0.0136256
0.0135163
0.00180696
0.00180935
0.00181029
0.00180979
0.00182056
0.0018205
0.00182047
0.00182047
0.0138711
0.0137738
0.0137533
0.0138084
0.0286572
0.0286472
0.028648
0.0286606
0.0317984
0.03182
0.0318345
0.0318432
0.0333504
0.0333906
0.0334196
0.0334399
0.035076
0.0351443
0.035201
0.0352491
0.0359219
0.0359821
0.0360623
0.036165
0.0326001
0.0327539
0.0328744
0.0329667
0.0123758
0.0126284
0.0126658
0.0125258
0.00177423
0.00177574
0.00177638
0.00177614
0.00180137
0.00180131
0.00180128
0.00180128
0.0141271
0.0140267
0.0140054
0.0140618
0.0280901
0.0280752
0.0280724
0.0280822
0.0303706
0.0303758
0.030379
0.0303808
0.0313063
0.0313244
0.0313344
0.0313376
0.0325783
0.0326319
0.0326595
0.0326637
0.0334976
0.0335726
0.0336111
0.0336193
0.0307567
0.0309202
0.0309831
0.0309545
0.0119452
0.0121669
0.0122064
0.0120839
0.00174425
0.00174527
0.00174568
0.0017455
0.00178084
0.00178077
0.00178074
0.00178074
0.0144831
0.0143799
0.0143579
0.0144157
0.027937
0.0279222
0.027919
0.0279279
0.0296966
0.0296962
0.0296959
0.0296963
0.0301983
0.0302019
0.0302034
0.0302036
0.0308977
0.0309189
0.0309287
0.0309281
0.0314181
0.0314493
0.0314638
0.0314641
0.0290292
0.0291367
0.0291726
0.0291396
0.0120236
0.0122407
0.0122807
0.0121579
0.00171549
0.00171623
0.00171648
0.0017163
0.00175879
0.00175872
0.00175869
0.00175869
0.0149168
0.0148104
0.0147876
0.014847
0.0279597
0.0279459
0.0279429
0.0279513
0.0293964
0.0293951
0.0293944
0.0293946
0.0296787
0.0296787
0.0296783
0.0296777
0.030046
0.0300543
0.0300575
0.030056
0.0303041
0.0303139
0.030318
0.0303173
0.0281767
0.02825
0.0282719
0.0282425
0.0123913
0.0126202
0.0126618
0.0125299
0.00168709
0.00168767
0.00168783
0.00168763
0.00173513
0.00173506
0.00173502
0.00173503
0.0154278
0.0153177
0.015294
0.0153553
0.0280589
0.028046
0.0280433
0.0280512
0.0292625
0.0292614
0.0292609
0.0292611
0.0294354
0.029435
0.0294345
0.0294339
0.0296283
0.0296326
0.0296338
0.0296324
0.0297596
0.029763
0.029764
0.0297629
0.0278843
0.0279424
0.0279583
0.0279317
0.0129347
0.013183
0.0132277
0.0130838
0.00165849
0.00165896
0.00165906
0.00165886
0.00170976
0.00170968
0.00170964
0.00170965
0.0160262
0.0159117
0.015887
0.0159504
0.028194
0.028182
0.0281795
0.0281869
0.0292042
0.0292034
0.0292031
0.0292034
0.02932
0.0293198
0.0293195
0.029319
0.0294216
0.0294243
0.0294251
0.0294239
0.0294977
0.0294996
0.0295
0.0294989
0.0278817
0.027932
0.0279453
0.0279213
0.01361
0.0138815
0.0139302
0.0137729
0.00162925
0.00162966
0.00162972
0.00162952
0.00168258
0.00168249
0.00168246
0.00168247
0.0167296
0.0166098
0.0165837
0.0166497
0.0283473
0.0283362
0.0283338
0.0283406
0.0291816
0.0291811
0.0291809
0.0291812
0.0292649
0.0292649
0.0292647
0.0292644
0.0293184
0.0293204
0.029321
0.02932
0.0293736
0.0293755
0.0293758
0.0293748
0.0280245
0.0280694
0.0280812
0.0280596
0.0144093
0.0147069
0.0147602
0.014588
0.00159904
0.00159939
0.00159944
0.00159924
0.00165353
0.00165343
0.00165339
0.00165341
0.0175641
0.0174377
0.0174099
0.0174789
0.0285096
0.0284995
0.0284973
0.0285034
0.029176
0.0291756
0.0291756
0.0291758
0.0292383
0.0292384
0.0292383
0.0292381
0.0292664
0.029268
0.0292683
0.0292675
0.0293158
0.0293178
0.0293182
0.0293172
0.0282371
0.0282775
0.028288
0.0282686
0.0153473
0.0156739
0.0157321
0.0155432
0.00156757
0.00156789
0.00156792
0.00156773
0.00162255
0.00162245
0.00162241
0.00162243
0.018567
0.0184322
0.0184021
0.0184748
0.0286747
0.0286657
0.0286637
0.028669
0.0291782
0.0291781
0.0291781
0.0291783
0.0292248
0.029225
0.029225
0.0292248
0.0292391
0.0292403
0.0292406
0.0292399
0.0292873
0.0292895
0.02929
0.0292888
0.0284776
0.0285137
0.0285228
0.0285052
0.0164572
0.0168161
0.0168791
0.0166714
0.00153466
0.00153494
0.00153496
0.00153478
0.00158971
0.00158959
0.00158955
0.00158958
0.0197929
0.019647
0.0196138
0.0196912
0.028836
0.0288282
0.0288265
0.0288311
0.0291835
0.0291836
0.0291836
0.0291837
0.0292168
0.0292171
0.0292171
0.0292169
0.029223
0.0292239
0.0292241
0.0292235
0.0292687
0.0292708
0.0292713
0.0292701
0.028718
0.0287497
0.0287573
0.0287412
0.0177929
0.0181862
0.0182536
0.0180257
0.00150022
0.00150046
0.00150048
0.00150032
0.00155521
0.00155509
0.00155505
0.00155509
0.0213225
0.0211611
0.0211235
0.0212075
0.0289866
0.0289806
0.0289793
0.0289827
0.0291887
0.0291889
0.029189
0.0291889
0.0292105
0.0292109
0.029211
0.0292108
0.0292116
0.0292123
0.0292124
0.0292119
0.0292493
0.0292512
0.0292516
0.0292505
0.0289339
0.0289609
0.0289668
0.0289523
0.0194329
0.0198563
0.0199263
0.0196802
0.00146435
0.00146454
0.00146455
0.00146444
0.00151929
0.00151917
0.00151913
0.00151918
0.0232819
0.0230979
0.0230546
0.0231483
0.0291133
0.0291096
0.0291087
0.0291109
0.0291917
0.029192
0.0291921
0.0291919
0.029205
0.0292054
0.0292055
0.0292054
0.0292033
0.0292037
0.0292037
0.0292035
0.0292263
0.0292277
0.029228
0.0292272
0.0291007
0.029122
0.0291259
0.0291135
0.0215247
0.0219777
0.0220448
0.0217766
0.00142715
0.00142731
0.00142732
0.00142723
0.0014811
0.001481
0.00148099
0.00148105
0.0258661
0.0256575
0.0256119
0.0257191
0.029199
0.0291975
0.0291971
0.029198
0.0291927
0.0291928
0.0291928
0.0291927
0.0292016
0.0292018
0.0292019
0.0292019
0.0291997
0.0291998
0.0291998
0.0291998
0.0292068
0.0292074
0.0292075
0.0292073
0.0292018
0.0292138
0.0292156
0.029208
0.0244825
0.0249081
0.0249577
0.0246977
0.00138786
0.00138799
0.001388
0.0013879
0.00215647
0.00204045
0.00197643
0.00194409
0.00192507
0.00191276
0.00190466
0.00189955
0.00189623
0.00189395
0.00175426
0.00160266
0.00480682
0.00946089
0.0139509
0.0171137
0.0186019
0.0187343
0.0180904
0.0171433
0.00237388
0.00261463
0.00738934
0.0156127
0.0249898
0.0330798
0.0390341
0.0428018
0.0446394
0.0449873
0.00277855
0.00366398
0.00835246
0.0178905
0.0291759
0.038494
0.0449396
0.0486388
0.0500433
0.0498021
0.00308442
0.00396465
0.00875805
0.0193731
0.0320673
0.0419131
0.04807
0.050897
0.0511909
0.0499626
0.00339341
0.00408019
0.00895222
0.0204139
0.0342258
0.0442429
0.0497977
0.051566
0.0507783
0.0487374
0.00363184
0.00408319
0.00896193
0.0211439
0.0358447
0.0456846
0.0503426
0.0509529
0.0492221
0.0467
0.00370719
0.00380915