/*--------------------------------*- C++ -*----------------------------------*\
| =========                 |                                                 |
| \\      /  F ield         | foam-extend: Open Source CFD                    |
|  \\    /   O peration     | Version:     4.0                                |
|   \\  /    A nd           | Web:         http://www.foam-extend.org         |
|    \\/     M anipulation  |                                                 |
\*---------------------------------------------------------------------------*/
FoamFile
{
    version     2.0;
    format      ascii;
    class       volScalarField;
    location    "1000";
    object      epsilon;
}
// * * * * * * * * * * * * * * * * * * * * * * * * * * * * * * * * * * * * * //

dimensions      [0 2 -3 0 0 0 0];

internalField   nonuniform List<scalar> 
34480
(
4930.32
4928.43
4928.34
4929.73
4932.74
4937.76
4950.31
5003.24
5191.94
5720.28
646.611
594.989
594.678
646.648
832.089
1571.88
5113.39
22946.2
104057
383009
606.43
513.085
500.481
560.294
800.974
1822.74
7056.18
35235.5
172988
700075
515.348
432.194
421.177
479.072
727.61
1878.45
8225.86
44468.5
232356
1.01039e+06
450.005
380.114
373.552
429.559
681.205
1924.38
9177.36
52579.8
288919
1.3311e+06
388.134
330.035
324.53
376.719
626.866
1955.25
10118
60986.5
350025
1.69429e+06
350.432
301.213
297.445
345.868
591.427
1963.39
10721.2
67109.1
399485
2.01683e+06
319.794
281.441
277.547
317.762
535.126
1822.77
10350.5
66909.6
411831
2.16173e+06
459.709
436.101
433.777
459.421
597.873
1411.44
6841.38
43648.7
275411
1.49412e+06
5704.67
5705.01
5710.4
5722.16
5738.79
5758.7
5782.54
5818.05
5883.89
5951.59
4855.35
4852.96
4852.5
4853.91
4857.76
4864.65
4875.82
4901.59
4963.91
5182.83
507.306
475.31
470.034
484.223
528.398
644.41
998.736
2357.24
11858.3
103951
439.831
377.947
364.834
384.342
452.79
639.454
1223.29
3569.9
21459.6
198327
393.776
334.143
321.306
341.106
412.193
614.979
1287.45
4284.57
30309.4
295308
361.552
308.085
298.115
317.448
388.14
595.427
1315.85
4801.15
38736.5
396622
323.452
277.132
267.812
285.263
350.989
552.437
1290.34
5167.28
47311.1
508091
300.645
259.847
252.104
267.593
328.713
521.206
1254.71
5348.27
54124.1
606731
282.108
249.62
242.304
254.164
302.048
457.384
1075.16
4818.57
54879.8
650630
432.788
411.271
406.377
413.998
444.082
531.874
848.126
2974.95
36306.2
466213
5587.07
5582.87
5583.35
5589.81
5601.29
5615.81
5634.85
5667.41
5734.37
5905.92
4769.94
4767.64
4766.91
4767.68
4770.2
4774.32
4779.32
4789.98
4813.98
4868.53
397.852
384.752
382.255
387.11
402.257
437.586
525.671
759.632
1525.76
5790.7
304.506
273.718
267.144
276.404
306.72
376.232
547.728
1030.74
2877.5
15093.4
287.134
253.9
246.538
257.167
292.138
375.638
593.842
1277.33
4425.13
29076.2
278.473
246.166
240.03
251.056
288.011
378.344
625.98
1476.77
6149.43
47978.2
259.737
230.07
223.865
234.356
269.999
360.665
623.199
1620.61
8152.2
73290.3
249.53
222.038
216.718
226.347
260.49
349.061
616.357
1720.05
10156.1
101629
242.629
220.071
214.895
222.674
250.129
322.711
550.133
1591.29
11025.3
122791
402.957
386.867
383.259
389.011
409.487
461.755
607.009
1233.47
7661.57
91863.4
5477.34
5470.37
5468.06
5471.51
5480.09
5492.09
5508.31
5538.67
5610.46
5794.65
4673.7
4672.25
4671.84
4672.45
4674.2
4676.56
4677.81
4680.55
4687.96
4703.81
327.857
323.879
323.142
324.318
328.453
338.803
364.821
422.66
544.788
946.505
217.638
204.502
201.763
205.875
219.286
247.655
308.226
446.128
778.005
2104.13
212.91
196.407
192.622
198.186
216.079
255.434
344.139
564.868
1174.1
4171.99
216.383
198.64
195.22
201.467
222.002
268.339
378.139
674.081
1612.89
7194.76
209.945
192.29
188.416
194.865
216.062
265.968
391.109
759.294
2116.46
11643.4
208.073
190.579
187.101
193.34
214.761
266.211
400.687
825.155
2629.01
17154.1
209.911
194.876
191.308
196.7
214.83
259.368
379.956
793.54
2853.59
21848.6
376.113
364.299
361.563
365.819
380.785
417.129
508.617
781.423
2174.12
16500.7
5355.36
5348.38
5345.81
5348.76
5356.84
5369.25
5386.12
5416.62
5482.83
5625.12
4568.12
4567.46
4567.32
4567.71
4568.67
4569.53
4568.42
4567.26
4567.19
4568.79
285.588
284.938
284.895
284.716
284.727
286.363
293.55
308.19
331.621
378.34
167.189
162.184
161.193
162.664
167.74
178.05
198.118
238.135
310.704
489.087
165.783
158.12
156.229
158.76
167.007
184.214
219.052
294.178
445.159
897.458
173.393
164.204
162.36
165.485
175.909
198.157
245.467
355.774
602.092
1508.14
173.324
163.266
160.867
164.45
176.167
202.294
261.032
409.829
782.993
2446.7
175.99
165.238
162.969
166.648
179.287
208.018
275.206
456.405
963.986
3650.02
183.493
173.753
171.285
174.725
186.073
212.587
276.811
462.613
1054.83
4747.47
351.881
343.395
341.279
344.203
354.715
379.369
438.022
580.573
1005.74
3802.65
5225.74
5218.89
5216.17
5218.65
5226.12
5238.23
5254.66
5282.73
5337.95
5439.67
4454.18
4454.1
4454.17
4454.4
4454.8
4454.68
4452.75
4450.63
4448.84
4447.64
260.155
260.329
260.464
259.969
258.937
258.31
260.19
263.884
269.166
276.642
139.175
137.518
137.275
137.692
139.336
142.626
148.675
159.599
176.393
204.825
137.265
133.888
132.998
134.065
137.618
144.679
157.647
182.421
223.462
305.57
144.867
140.373
139.47
140.92
145.877
155.881
175.102
214.912
286.686
461.264
147.318
141.852
140.453
142.337
148.48
161.438
187.693
246.779
363.604
705.4
151.848
145.52
144.136
146.192
153.31
168.603
200.754
277.69
442.823
1016.82
162.512
156.49
154.881
156.994
163.817
179.002
212.235
296.879
498.351
1320.51
330.031
324.214
322.655
324.621
331.905
348.634
386.884
466.839
637.624
1285.98
5087.89
5081.42
5078.72
5080.84
5087.62
5098.94
5114.24
5138.89
5181.6
5248.45
4332.58
4332.89
4333.09
4333.2
4333.25
4332.54
4330.64
4328.61
4326.77
4325.33
244.214
244.278
244.362
243.89
242.875
242.121
242.545
243.451
244.854
246.808
123.916
123.494
123.517
123.574
123.971
124.828
126.437
129.202
133.093
138.01
120.585
119.137
118.731
119.157
120.627
123.438
128.191
136.283
147.986
164.788
126.648
124.551
124.154
124.778
127.02
131.322
138.872
152.806
174.519
211.767
129.576
126.716
125.937
126.88
129.968
136.168
147.591
170.435
209.029
287.063
134.408
130.813
130.015
131.1
134.955
142.822
157.814
189.682
247.1
382.375
146.443
142.888
141.889
143.132
147.073
155.499
172.425
210.571
285.798
489.595
310.676
306.883
305.761
307.053
312.058
323.561
348.969
395.707
478.41
665.134
4941.56
4935.68
4933.13
4934.93
4940.95
4951.03
4964.62
4985.4
5017.6
5061.17
4203.84
4204.37
4204.65
4204.69
4204.54
4203.6
4202.09
4200.47
4199.02
4197.87
233.266
232.974
232.94
232.576
231.859
231.469
231.515
231.752
232.313
233.431
115.618
115.592
115.683
115.641
115.647
115.756
116.049
116.631
117.504
118.421
111.053
110.434
110.25
110.414
111.014
112.13
113.905
116.646
120.262
124.291
115.34
114.406
114.258
114.506
115.479
117.272
120.208
125.092
131.956
140.883
117.863
116.418
116.002
116.456
117.96
120.861
125.822
134.685
148.062
168.042
122.233
120.252
119.819
120.364
122.39
126.356
133.336
146.536
167.487
202.647
134.494
132.504
131.917
132.623
134.818
139.379
148.002
165.267
195.197
251.893
293.638
291.318
290.519
291.367
294.829
302.988
320.187
348.497
393.025
461.173
4786.6
4781.46
4779.17
4780.69
4785.86
4794.41
4805.96
4822.79
4846.47
4875.22
4068.3
4068.94
4069.25
4069.26
4069.01
4068.15
4067.03
4065.85
4064.81
4063.97
224.731
224.091
223.941
223.681
223.27
223.148
223.141
223.249
223.639
224.639
111.054
111.118
111.204
111.151
111.067
110.987
110.937
110.967
111.125
111.315
105.733
105.458
105.371
105.434
105.681
106.134
106.822
107.809
109.05
110.236
108.512
108.114
108.075
108.164
108.571
109.297
110.432
112.169
114.46
116.947
110.373
109.668
109.456
109.667
110.379
111.71
113.876
117.396
122.325
128.294
114.011
112.946
112.725
112.986
114.028
116.003
119.288
124.892
132.998
143.414
125.837
124.795
124.473
124.861
126.042
128.458
132.869
140.823
153.411
171.631
278.585
277.295
276.717
277.287
279.742
285.772
297.598
315.298
340.747
370.386
4622.99
4618.68
4616.73
4617.97
4622.26
4629.18
4638.6
4651.69
4668.64
4687.51
3926.23
3926.87
3927.19
3927.18
3926.89
3926.26
3925.48
3924.66
3923.95
3923.36
217.144
216.283
216.038
215.857
215.692
215.665
215.672
215.772
216.135
217.119
108.453
108.512
108.573
108.531
108.453
108.352
108.246
108.17
108.174
108.234
102.844
102.709
102.664
102.688
102.795
102.989
103.273
103.658
104.137
104.574
104.512
104.346
104.347
104.374
104.539
104.827
105.264
105.89
106.689
107.504
105.745
105.413
105.309
105.405
105.731
106.33
107.272
108.698
110.608
112.717
108.641
108.076
107.971
108.091
108.622
109.602
111.169
113.628
116.947
120.536
119.69
119.197
119.034
119.244
119.858
121.115
123.364
127.082
132.574
139.372
265.082
264.483
264.046
264.454
266.269
270.891
279.108
290.453
305.58
319.691
4450.85
4447.42
4445.83
4446.81
4450.22
4455.58
4462.95
4472.75
4484.55
4496.73
3777.88
3778.39
3778.72
3778.69
3778.45
3778.03
3777.51
3776.96
3776.49
3776.07
209.684
208.794
208.476
208.346
208.306
208.301
208.324
208.432
208.788
209.757
106.855
106.895
106.93
106.902
106.845
106.766
106.679
106.608
106.593
106.635
101.324
101.246
101.22
101.231
101.281
101.371
101.499
101.666
101.877
102.076
102.247
102.175
102.183
102.189
102.257
102.374
102.547
102.782
103.074
103.389
102.992
102.841
102.792
102.834
102.98
103.242
103.646
104.227
104.988
105.844
105.252
104.95
104.903
104.959
105.231
105.725
106.488
107.609
109.033
110.446
115.373
115.179
115.107
115.221
115.53
116.179
117.302
119.04
121.449
124.296
252.654
252.501
252.145
252.464
253.885
257.475
263.212
270.596
279.857
286.683
4270.47
4267.87
4266.64
4267.39
4269.98
4273.95
4279.5
4286.56
4294.54
4302.25
3623.38
3623.79
3624.05
3624.04
3623.88
3623.61
3623.27
3622.91
3622.61
3622.3
202.006
201.141
200.828
200.732
200.706
200.709
200.741
200.85
201.196
202.139
105.756
105.776
105.795
105.776
105.738
105.686
105.629
105.582
105.576
105.617
100.549
100.5
100.484
100.488
100.514
100.558
100.621
100.701
100.808
100.916
101.013
100.974
100.979
100.98
101.011
101.066
101.145
101.245
101.365
101.512
101.422
101.355
101.333
101.352
101.415
101.526
101.696
101.931
102.238
102.628
103.185
103.017
102.997
103.025
103.172
103.431
103.818
104.356
105
105.63
112.325
112.282
112.26
112.323
112.475
112.804
113.343
114.138
115.156
116.45
240.838
240.962
240.644
240.919
242.104
244.836
248.821
253.652
259.447
262.537
4082.28
4080.41
4079.53
4080.07
4081.92
4084.78
4088.78
4093.68
4098.91
4103.7
3462.95
3463.28
3463.48
3463.48
3463.39
3463.21
3462.99
3462.77
3462.57
3462.33
193.932
193.102
192.819
192.735
192.711
192.716
192.748
192.851
193.182
194.091
104.898
104.904
104.912
104.9
104.877
104.846
104.813
104.787
104.793
104.832
100.168
100.136
100.127
100.129
100.142
100.163
100.194
100.235
100.293
100.359
100.37
100.342
100.341
100.342
100.361
100.394
100.441
100.496
100.558
100.642
100.57
100.541
100.531
100.539
100.565
100.611
100.681
100.775
100.899
101.097
101.963
101.862
101.853
101.871
101.956
102.103
102.313
102.593
102.909
103.234
110.111
110.136
110.138
110.175
110.251
110.409
110.648
110.989
111.37
112.003
229.224
229.506
229.196
229.453
230.503
232.432
235.162
238.303
241.975
243.062
3886.82
3885.56
3884.98
3885.35
3886.58
3888.61
3891.38
3894.64
3897.94
3900.87
3296.87
3297.15
3297.29
3297.3
3297.25
3297.14
3297.01
3296.86
3296.74
3296.53
185.354
184.564
184.314
184.241
184.215
184.217
184.245
184.338
184.651
185.519
104.156
104.154
104.154
104.147
104.133
104.117
104.101
104.091
104.106
104.143
99.9901
99.9705
99.9663
99.9672
99.9722
99.9809
99.9939
100.013
100.046
100.089
100.054
100.03
100.024
100.025
100.039
100.065
100.1
100.14
100.181
100.239
100.134
100.12
100.115
100.118
100.129
100.148
100.176
100.214
100.264
100.375
101.255
101.187
101.182
101.197
101.252
101.344
101.469
101.63
101.803
102.002
108.401
108.458
108.472
108.495
108.534
108.598
108.687
108.813
108.903
109.241
217.306
217.823
217.499
217.751
218.545
219.863
221.687
223.696
226.023
226.03
3684.83
3683.99
3683.64
3683.88
3684.7
3686.07
3687.9
3689.99
3691.99
3693.73
3125.54
3125.77
3125.88
3125.89
3125.86
3125.8
3125.72
3125.63
3125.54
3125.36
176.191
175.446
175.234
175.172
175.139
175.135
175.157
175.238
175.528
176.353
103.472
103.465
103.461
103.456
103.45
103.443
103.438
103.438
103.459
103.495
99.9161
99.9057
99.9051
99.9051
99.9055
99.9061
99.9084
99.9147
99.9329
99.9628
99.911
99.8896
99.8817
99.8823
99.8943
99.9162
99.9451
99.9773
100.009
100.053
99.928
99.9195
99.9164
99.9178
99.9228
99.9314
99.943
99.9587
99.9802
100.048
100.842
100.793
100.789
100.801
100.841
100.903
100.985
101.087
101.193
101.336
106.976
107.046
107.067
107.082
107.096
107.116
107.133
107.161
107.124
107.327
204.806
205.462
205.267
205.444
205.975
206.841
208.013
209.261
210.713
210.163
3477.1
3476.55
3476.34
3476.5
3477.03
3477.91
3479.06
3480.32
3481.47
3482.49
2949.48
2949.67
2949.75
2949.76
2949.75
2949.72
2949.66
2949.61
2949.55
2949.38
166.363
165.665
165.487
165.439
165.406
165.394
165.409
165.475
165.741
166.519
102.822
102.812
102.806
102.802
102.8
102.8
102.802
102.808
102.832
102.87
99.8958
99.8917
99.8932
99.8928
99.8905
99.8868
99.8831
99.8822
99.8911
99.9135
99.8584
99.8401
99.8316
99.8319
99.8416
99.8592
99.8824
99.9083
99.9341
99.9684
99.8453
99.8387
99.8361
99.8364
99.8391
99.8438
99.8496
99.8571
99.8671
99.9115
100.587
100.551
100.547
100.557
100.586
100.63
100.687
100.755
100.825
100.936
105.698
105.764
105.788
105.798
105.802
105.801
105.789
105.777
105.692
105.832
191.553
192.26
192.168
192.287
192.623
193.158
193.863
194.601
195.466
194.677
3264.48
3264.16
3264.03
3264.13
3264.46
3264.98
3265.67
3266.38
3266.98
3267.57
2769.4
2769.57
2769.63
2769.64
2769.64
2769.62
2769.58
2769.54
2769.5
2769.34
155.774
155.127
154.962
154.925
154.908
154.901
154.91
154.961
155.196
155.925
102.201
102.189
102.181
102.178
102.179
102.182
102.188
102.198
102.223
102.264
99.9038
99.9029
99.9051
99.9044
99.9012
99.8958
99.8899
99.8859
99.8892
99.9072
99.8515
99.8366
99.829
99.8289
99.8359
99.8489
99.8662
99.8855
99.9056
99.9329
99.8278
99.822
99.8195
99.8193
99.8209
99.8238
99.8271
99.8312
99.8364
99.8659
100.407
100.38
100.376
100.383
100.404
100.435
100.473
100.519
100.566
100.652
104.488
104.541
104.563
104.571
104.57
104.563
104.542
104.519
104.426
104.534
177.405
178.092
178.079
178.156
178.348
178.643
179.012
179.405
179.866
179.042
3048.05
3047.87
3047.8
3047.86
3048.05
3048.34
3048.71
3049.08
3049.36
3049.68
2586.29
2586.44
2586.48
2586.49
2586.49
2586.48
2586.45
2586.42
2586.39
2586.24
144.29
143.706
143.565
143.54
143.536
143.534
143.536
143.57
143.765
144.439
101.617
101.603
101.594
101.591
101.593
101.598
101.605
101.616
101.639
101.683
99.9237
99.9231
99.9248
99.9239
99.9209
99.9162
99.9108
99.9067
99.9072
99.9221
99.8684
99.8572
99.8514
99.8509
99.8554
99.8639
99.8753
99.8884
99.9028
99.9238
99.8457
99.841
99.8389
99.8384
99.8391
99.8406
99.8422
99.8441
99.8467
99.8653
100.252
100.232
100.228
100.233
100.245
100.265
100.289
100.316
100.346
100.41
103.313
103.349
103.366
103.371
103.369
103.36
103.34
103.315
103.235
103.324
162.205
162.816
162.866
162.912
162.998
163.115
163.24
163.39
163.554
162.835
2829.11
2829.02
2828.98
2829.01
2829.1
2829.25
2829.43
2829.59
2829.71
2829.86
2401.27
2401.39
2401.42
2401.43
2401.43
2401.42
2401.41
2401.39
2401.36
2401.24
131.684
131.188
131.097
131.087
131.086
131.082
131.078
131.092
131.226
131.824
101.089
101.072
101.064
101.061
101.062
101.067
101.074
101.084
101.103
101.147
99.9429
99.9411
99.9414
99.9405
99.9384
99.9355
99.9322
99.9298
99.9298
99.9413
99.9003
99.8928
99.889
99.8885
99.891
99.8958
99.9023
99.9101
99.9193
99.9339
99.8845
99.8815
99.88
99.8794
99.8794
99.8797
99.8799
99.8801
99.881
99.8909
100.104
100.091
100.088
100.09
100.097
100.107
100.118
100.132
100.149
100.19
102.185
102.203
102.213
102.214
102.21
102.199
102.182
102.161
102.107
102.177
145.434
145.914
145.95
145.986
146.045
146.123
146.203
146.259
146.186
145.662
2609.07
2609.03
2609.02
2609.03
2609.06
2609.1
2609.15
2609.2
2609.24
2609.31
2214.8
2214.87
2214.87
2214.87
2214.87
2214.87
2214.87
2214.87
2214.86
2214.81
117.407
117.07
117.04
117.045
117.047
117.043
117.032
117.025
117.069
117.502
100.624
100.606
100.598
100.594
100.594
100.598
100.604
100.614
100.629
100.666
99.9625
99.9605
99.9599
99.9592
99.9582
99.957
99.9559
99.9552
99.9557
99.9618
99.9461
99.942
99.9401
99.9398
99.941
99.9432
99.9464
99.9503
99.9551
99.963
99.9378
99.9364
99.9356
99.9352
99.9349
99.9346
99.9342
99.9337
99.9336
99.9372
100.002
99.9964
99.9948
99.9955
99.998
100.002
100.006
100.011
100.017
100.035
101.135
101.136
101.138
101.136
101.131
101.121
101.108
101.095
101.077
101.129
125.744
126.029
126.048
126.069
126.101
126.143
126.184
126.207
126.154
125.804
2388.67
2388.64
2388.65
2388.65
2388.65
2388.65
2388.65
2388.65
2388.63
2388.67
7171.94
7280.68
7236.26
7029.6
659735
684213
689450
696774
1.49723e+06
1.5826e+06
1.58948e+06
1.5687e+06
2.51998e+06
2.69574e+06
2.69245e+06
2.6101e+06
3.74849e+06
4.03965e+06
4.01261e+06
3.85063e+06
5.28765e+06
5.72531e+06
5.67382e+06
5.46362e+06
6.84137e+06
7.43346e+06
7.36977e+06
7.17567e+06
7.85489e+06
8.57549e+06
8.52064e+06
8.39449e+06
5.59852e+06
6.15213e+06
6.08713e+06
6.05345e+06
7891.01
8137.04
7975.02
7558.98
5744.41
5796.63
5798.74
5759.18
308497
324128
344407
375612
688725
778783
822027
857675
1.17529e+06
1.39727e+06
1.45931e+06
1.48378e+06
1.75783e+06
2.16722e+06
2.23989e+06
2.25211e+06
2.44901e+06
3.09544e+06
3.19542e+06
3.23258e+06
3.11863e+06
4.01874e+06
4.1808e+06
4.30095e+06
3.55916e+06
4.68109e+06
4.92401e+06
5.16004e+06
2.79501e+06
3.79945e+06
3.98909e+06
4.30229e+06
7114.77
7344.36
7273.21
7053.9
4935.6
4946.35
4945.44
4935.8
21705.1
25989
24606
19946.7
61665.1
73414.7
68623.7
55625
128740
152575
140525
113638
228032
269693
245329
198559
371474
440195
399833
325106
543594
645601
588992
483259
700354
835474
766077
633983
581902
693098
625960
521775
6335.05
6421.58
6399.07
6304.26
4713.98
4715.9
4716.41
4715.74
1602
1719.11
1686.7
1550.07
4718.79
5188.93
5023.95
4441.83
11256.2
12512.4
11921.5
10205.3
22566.1
25217
23641.9
19693.5
41660.2
46796.6
43380.5
35418.9
68156.8
76687.3
70479.7
56880.5
96875
109409
99930.8
80027.5
82976.5
93212.4
83659
66830.2
5896.16
5937.49
5934.49
5896.76
4566.03
4566.75
4566.93
4566.54
425.422
438.295
440.481
433.523
714.258
760.623
764.629
734.279
1600.87
1740.42
1731.37
1612.38
3209.22
3528.52
3454.25
3115.38
6142.06
6811.22
6564.97
5743.82
10484.7
11654
11060.9
9433.66
15650
17474.3
16373.2
13651.4
13792.4
15298.5
14012.2
11502.5
5571.94
5593.78
5595.19
5579.65
4442.95
4443.54
4443.6
4443.09
276.649
279.444
280.12
278.882
227.578
232.465
234.169
233.157
387.245
404.221
408.155
401.483
675.937
718.54
722.069
696.294
1216.75
1315.49
1310.18
1231.57
2022.46
2205.34
2167.14
1983.99
3039.31
3345.07
3243.38
2888.39
2913.85
3161.8
3000.28
2643.98
5312.19
5322.88
5324.97
5319.43
4320.6
4321.19
4321.23
4320.7
242.497
244.347
244.718
243.67
140.653
141.3
141.595
141.594
176.495
179.003
180.023
179.801
243.929
250.612
252.63
250.967
369.713
386.717
390.024
382.912
549.283
581.641
583.544
564.063
793.728
851.446
847.563
802.746
979.927
1023.38
1003.23
955.979
5090.42
5095.27
5097.1
5095.84
4193.49
4194.09
4194.14
4193.62
228.647
230.329
230.646
229.636
118.472
118.552
118.571
118.549
126.155
126.513
126.682
126.716
146.355
147.446
147.893
147.871
183.75
187.055
188.159
187.569
233.872
240.103
241.591
239.735
314.023
326.109
327.676
322.052
540.923
546.071
543.276
539.677
4888.82
4890.83
4892.1
4892.28
4059.98
4060.57
4060.63
4060.12
219.941
221.574
221.886
220.908
111.065
111.088
111.075
111.035
110.516
110.541
110.546
110.552
117.924
118.067
118.125
118.149
131.874
132.596
132.87
132.809
149.891
151.122
151.542
151.448
187.076
189.841
190.528
189.806
399.048
395.868
394.99
397.66
4694.07
4694.77
4695.54
4696.01
3919.75
3920.33
3920.38
3919.9
212.579
214.164
214.473
213.53
107.985
108.014
108.005
107.963
104.588
104.569
104.552
104.547
107.655
107.641
107.625
107.629
113.736
113.914
113.971
113.941
121.936
122.127
122.204
122.246
144.416
145.04
145.225
145.122
334.684
329.517
328.668
332.072
4499.85
4499.97
4500.4
4500.83
3772.84
3773.38
3773.43
3772.97
205.39
206.922
207.224
206.319
106.417
106.454
106.451
106.411
102.054
102.038
102.024
102.017
103.398
103.371
103.35
103.345
106.239
106.296
106.304
106.274
110.73
110.711
110.702
110.732
126.633
126.723
126.733
126.702
297.237
291.697
290.753
294.047
4303.55
4303.44
4303.67
4303.99
3619.42
3619.92
3619.96
3619.54
197.953
199.426
199.721
198.854
105.425
105.465
105.466
105.43
100.896
100.886
100.877
100.872
101.507
101.488
101.473
101.468
102.838
102.866
102.865
102.839
105.68
105.633
105.61
105.625
117.945
117.901
117.858
117.83
271.256
265.802
264.826
267.912
4103.96
4103.81
4103.92
4104.12
3459.78
3460.24
3460.27
3459.88
190.097
191.507
191.791
190.966
104.661
104.701
104.705
104.672
100.345
100.34
100.335
100.331
100.643
100.632
100.623
100.619
101.234
101.253
101.252
101.232
103.258
103.221
103.201
103.207
113.168
113.095
113.04
113.008
250.759
245.528
244.568
247.458
3900.5
3900.39
3900.44
3900.53
3294.31
3294.71
3294.73
3294.38
181.727
183.071
183.345
182.562
103.992
104.03
104.035
104.007
100.081
100.079
100.076
100.073
100.245
100.24
100.235
100.231
100.473
100.488
100.488
100.473
102.047
102.025
102.012
102.011
110.233
110.164
110.11
110.073
232.987
228.024
227.105
229.814
3692.96
3692.95
3692.97
3692.96
3123.45
3123.79
3123.79
3123.48
172.774
174.052
174.316
173.577
103.367
103.403
103.409
103.383
99.961
99.9613
99.9595
99.9563
100.063
100.061
100.058
100.055
100.119
100.131
100.131
100.119
101.406
101.398
101.39
101.384
108.203
108.147
108.097
108.054
216.492
211.819
210.956
213.491
3481.45
3481.55
3481.56
3481.46
2947.79
2948.05
2948.04
2947.78
163.17
164.381
164.635
163.942
102.77
102.804
102.81
102.787
99.9181
99.9202
99.9193
99.9159
99.9803
99.9803
99.9788
99.9765
99.9621
99.9705
99.97
99.9611
101.025
101.028
101.024
101.014
106.611
106.574
106.531
106.48
200.431
196.078
195.285
197.641
3266.36
3266.56
3266.57
3266.39
2768.08
2768.27
2768.24
2768.03
152.829
153.975
154.222
153.577
102.2
102.234
102.24
102.216
99.9182
99.9219
99.9216
99.9178
99.9459
99.9469
99.9461
99.9441
99.8998
99.9051
99.9043
99.898
100.749
100.76
100.758
100.746
105.217
105.203
105.167
105.108
184.26
180.277
179.571
181.728
3048.36
3048.65
3048.66
3048.44
2585.34
2585.44
2585.4
2585.25
141.648
142.74
142.983
142.383
101.656
101.688
101.693
101.671
99.9381
99.9431
99.9434
99.9392
99.9366
99.938
99.9377
99.936
99.8852
99.8878
99.8869
99.883
100.5
100.515
100.515
100.503
103.887
103.897
103.87
103.805
167.564
164.066
163.471
165.372
2828.51
2828.84
2828.86
2828.62
2400.76
2400.76
2400.7
2400.62
129.446
130.499
130.739
130.174
101.147
101.175
101.178
101.157
99.9582
99.9636
99.9642
99.9603
99.9445
99.9459
99.9459
99.9446
99.8999
99.9004
99.8996
99.8979
100.259
100.272
100.274
100.263
102.569
102.591
102.574
102.516
149.621
146.683
146.241
147.87
2608.11
2608.48
2608.5
2608.25
2214.8
2214.65
2214.59
2214.63
115.789
116.774
116.98
116.445
100.671
100.687
100.688
100.673
99.9717
99.9754
99.976
99.9738
99.9695
99.9703
99.9704
99.9699
99.9389
99.9383
99.9377
99.9376
100.07
100.078
100.079
100.074
101.303
101.307
101.298
101.275
128.31
126.29
126.054
127.21
2387.89
2388.27
2388.28
2388.02
6098.16
5439.22
5171.29
5075.62
5020.83
4982.44
4957.05
4943.01
4935.12
4930.47
794474
191057
33128.6
11616.3
5235.47
2796.77
1723.27
1194.28
914.52
754.011
1.41685e+06
243779
43892.7
14979.3
6691.78
3584.57
2165.53
1435.93
1029.84
788.03
1.98368e+06
235648
46339.7
14851.5
6393.7
3336.8
1966.03
1274.56
896.758
676.294
2.44007e+06
250279
48481.1
14388.9
6010.77
3051.17
1760.89
1124.62
782.32
587.346
2.91095e+06
274060
50666
13808.1
5558.21
2724.16
1535.63
965.464
667.432
501.63
3.2913e+06
292572
51517.8
13006.6
5087.11
2430.17
1354.63
849.192
588.157
445.686
3.37623e+06
285229
47277.9
10879.6
4110.1
1920.23
1078.8
692.316
498.232
391.94
2.32653e+06
180770
27137.1
5656.68
2254.69
1228.86
853.151
668.734
566.349
505.651
6009.9
5985.97
5840.69
5816.46
5773.39
5749.43
5730.48
5720.5
5713.82
5708.01
5438.54
5172.72
5043.72
4971.35
4925.85
4895.9
4876.56
4865.2
4859.03
4855.12
179055
44640.8
13568
5303.68
2621.32
1555.55
1055.63
794.809
649.85
566.623
373349
85899.5
23369.5
8252.18
3862.73
2167.86
1368.82
944.599
701.423
557.559
591017
125348
30512.5
9583.02
4188.02
2234.92
1354.46
903.165
652.351
508.17
824541
163736
36143
10323.9
4268.89
2190.44
1291.68
845.405
602.166
466.022
1.10339e+06
205787
41423
10757.5
4195.99
2062.84
1181.81
758.487
535.501
414.034
1.38123e+06
242805
44984.2
10738.1
4005.65
1913.04
1080.99
690.984
488.071
379.685
1.55636e+06
257056
43648.3
9454.98
3355.27
1565.8
890.378
582.038
426.631
343.836
1.1757e+06
177546
26640.2
5202.4
1950.53
1084.33
767.955
613.075
525.28
475.75
6243.99
5945.28
5785.87
5727.47
5677.01
5646.61
5624.64
5611.3
5601.95
5593.73
4902
4867.79
4840.52
4817.7
4799.85
4786.95
4778.4
4773.32
4770.46
4768.4
9190.44
4183.47
2305.78
1435.4
985.13
734.156
588.945
502.522
449.934
418.159
23967.9
9574.09
4657.25
2546.83
1538.51
1005.63
708.131
534.166
427.275
361.027
45316.6
15942.3
6926.93
3398.6
1886.75
1149.61
764.267
550.128
424.2
349.095
73306.3
22819.8
8969.44
4028.33
2100.59
1219.34
782.957
550.559
417.29
340.104
111603
30892.6
10968.3
4508.25
2211.5
1222.67
758.329
520.683
389.926
316.557
155312
38632
12475.3
4745.91
2225.71
1191.61
726.501
495.685
370.543
301.727
190519
42576.4
12409.6
4338.38
1952.32
1025.33
630.164
439.675
339.884
285.136
140714
27527.1
7238.34
2525.01
1298.5
838.547
640.386
535.273
472.267
436.199
6010
5828.27
5704.31
5630.99
5578.33
5545.55
5522.82
5507.38
5495.99
5486.07
4711.3
4703.3
4694.22
4685.97
4679.69
4675.44
4672.82
4671.52
4671.17
4670.73
1211.88
911.743
713.438
573.392
480.706
421.208
383.006
357.924
341.129
330.822
3036.08
1929.01
1277.24
864.16
613.394
460.627
366.216
306.363
266.784
240.77
6224.56
3488.78
2060.39
1251.34
810.506
562.017
417.764
330.993
276.525
242.354
10733.5
5346.08
2870.57
1602.61
972.211
639.235
456.545
351.88
287.953
248.956
17305.8
7641.33
3740.14
1923.85
1095.14
682.695
468.485
351.061
282.69
242.459
25125.4
9892.12
4460.29
2144.24
1166.38
702.507
472.181
350.335
280.452
240.089
31941.1
11160.9
4614.61
2072.31
1088.91
646.635
438.296
331.185
271.853
237.679
23370.8
7302.08
2934.92
1432.04
900.821
660.922
541.214
471.935
427.578
401.645
5781.44
5653.41
5555.25
5491.84
5448.13
5419.53
5399.04
5384.38
5373.34
5363.88
4565.96
4564.98
4563.78
4562.8
4562.2
4561.96
4562
4562.42
4563.37
4564.09
414.815
385.505
359.007
336.621
319.57
307.031
297.829
290.954
285.724
282.564
641.129
516.56
415.006
336.573
280.785
242.29
215.991
197.852
184.777
175.6
1291.41
930.577
668.821
487.078
369.632
294.315
245.85
214.162
192.765
178.602
2278.23
1483.3
972.411
650.776
460.686
346.984
278.159
235.563
207.518
189.351
3810.72
2235.94
1340.31
825.007
544.785
387.501
297.592
244.47
211.351
190.773
5686.04
3027.96
1682.56
969.089
609.117
417.434
312.924
253.558
217.008
194.625
7423.25
3572.01
1842.5
1001.65
610.942
413.936
311.691
255.021
221.388
200.954
5619.37
2613.62
1424.2
898.244
662.847
537.777
466.03
420.833
389.89
371.455
5528.88
5453.15
5388.32
5342.28
5308.65
5284.61
5266.54
5253
5242.55
5233.73
4443.11
4443.41
4443.74
4444.21
4444.8
4445.44
4446.11
4446.94
4448.19
4449.56
278.992
276.208
272.67
269.003
265.713
262.918
260.583
258.603
256.896
255.668
227.116
212.401
196.327
181.614
169.712
160.642
153.917
148.907
144.909
141.888
374.714
323.617
274.42
233.864
203.724
182.137
166.852
155.969
148.03
142.518
614.521
489.031
382.028
302.293
248.065
211.922
187.9
171.788
160.22
152.247
1013.09
736.554
527.063
384.448
294.992
239.055
203.884
181.325
166.133
156.184
1518
1017.28
676.002
462.041
337.394
263.635
219.407
192.213
174.025
162.196
2034.87
1256.73
782.377
509.417
362.128
279.36
231.795
203.113
184.771
173.076
1801.07
1172.93
819.262
625.555
518.024
451.718
408.648
379.357
358.001
345.074
5297.29
5255.84
5216.29
5184.65
5159.42
5139.86
5124.44
5112.42
5102.92
5095.03
4320.77
4321.18
4321.65
4322.26
4322.94
4323.63
4324.3
4325.08
4326.25
4327.74
244.89
244.816
244.426
243.836
243.188
242.537
241.896
241.244
240.559
239.796
141.16
139.245
136.637
133.907
131.484
129.502
127.947
126.712
125.574
124.622
177.141
168.955
159.185
149.941
142.231
136.117
131.354
127.655
124.75
122.671
242.081
220.488
197.567
177.99
163.002
151.935
143.856
137.976
133.337
129.946
355.702
303.234
253.676
214.872
187.263
168.042
154.693
145.353
138.552
133.911
502.542
402.299
315.922
253.618
212.272
185.019
166.949
154.868
146.044
139.976
677.501
509.366
379.165
292.568
238.76
204.852
183.172
168.922
159.139
152.663
821.515
670.928
556.233
479.382
427.644
391.35
365.177
346.151
331.461
322.437
5086.35
5064.59
5040.97
5019.55
5001
4985.6
4972.91
4962.67
4954.37
4947.59
4193.62
4193.93
4194.28
4194.74
4195.26
4195.77
4196.25
4196.83
4197.77
4199.07
230.964
231.218
231.284
231.226
231.096
230.911
230.669
230.352
229.933
229.301
118.583
118.379
117.989
117.517
117.076
116.717
116.45
116.236
115.956
115.669
126.4
124.886
122.741
120.465
118.372
116.553
115.008
113.714
112.641
111.871
146.775
142.647
137.462
132.505
128.299
124.883
122.168
120.048
118.207
116.785
183.551
172.523
160.279
149.438
140.772
134.067
128.94
125.052
122.025
119.917
230.993
209.568
187.287
169.019
155.289
145.195
137.81
132.474
128.232
125.171
301.372
262.217
225.675
197.727
177.81
163.736
153.787
146.723
141.576
138.096
513.04
470.397
428.583
395.041
368.644
348.076
331.92
319.485
309.381
303.102
4887.62
4875.93
4861.66
4847.32
4834.01
4822.31
4812.27
4803.9
4796.94
4791.35
4060.05
4060.26
4060.48
4060.79
4061.13
4061.45
4061.73
4062.09
4062.81
4063.88
222.206
222.468
222.582
222.607
222.572
222.481
222.327
222.083
221.714
221.086
111.09
111.102
111.071
111.019
110.982
110.976
111.003
111.036
110.995
110.91
110.5
110.157
109.601
108.961
108.331
107.745
107.213
106.74
106.337
106.056
117.984
117.074
115.783
114.44
113.207
112.128
111.213
110.462
109.737
109.143
131.971
129.237
125.899
122.622
119.727
117.273
115.24
113.596
112.25
111.317
150.083
145.011
138.859
133.199
128.432
124.565