/*--------------------------------*- C++ -*----------------------------------*\
| =========                 |                                                 |
| \\      /  F ield         | foam-extend: Open Source CFD                    |
|  \\    /   O peration     | Version:     4.0                                |
|   \\  /    A nd           | Web:         http://www.foam-extend.org         |
|    \\/     M anipulation  |                                                 |
\*---------------------------------------------------------------------------*/
FoamFile
{
    version     2.0;
    format      ascii;
    class       volScalarField;
    location    "1000";
    object      k;
}
// * * * * * * * * * * * * * * * * * * * * * * * * * * * * * * * * * * * * * //

dimensions      [0 2 -2 0 0 0 0];

internalField   nonuniform List<scalar> 
34480
(
8.76666
8.7644
8.76429
8.76594
8.76956
8.77558
8.79046
8.85288
9.07389
9.6792
9.18903
8.59119
8.50415
8.78375
9.3809
10.2734
11.8973
15.8618
28.8348
67.1675
14.8473
13.4009
12.9714
13.1297
13.7098
14.7639
17.139
22.9157
41.797
101.709
14.3238
12.8249
12.3935
12.5979
13.3164
14.7437
17.9361
25.3883
49.3631
128.028
13.3014
11.916
11.5825
11.8585
12.7162
14.4326
18.206
26.9206
55.3186
151.7
12.1303
10.8847
10.5877
10.878
11.7764
13.6741
17.9113
27.865
61.057
176.654
11.2657
10.1701
9.92932
10.2132
11.1161
13.0864
17.5818
28.3886
65.4666
197.868
9.80397
8.98583
8.79185
9.01545
9.73557
11.4109
15.5007
26.1037
64.465
205.346
6.87369
6.61116
6.56619
6.67886
7.0105
7.7373
9.7359
16.2652
43.3431
149.363
9.23381
9.2342
9.24003
9.25273
9.27066
9.29211
9.3177
9.35575
9.4261
9.49807
8.67766
8.67478
8.67422
8.67591
8.68052
8.6888
8.70216
8.73274
8.80652
9.06335
7.87105
7.45882
7.36885
7.52665
7.97129
8.81271
10.262
12.0913
15.4701
41.3012
12.108
11.0578
10.775
10.9831
11.6636
12.9294
15.1422
18.0893
23.8653
66.7314
12.0252
10.8748
10.5677
10.8156
11.6206
13.1695
15.9509
19.9556
28.4327
86.5196
11.5103
10.3972
10.1421
10.4225
11.3146
13.0511
16.231
21.0069
31.8406
104.577
10.7425
9.71212
9.46755
9.74594
10.6448
12.4675
15.9256
21.3932
34.8018
123.89
10.1718
9.23809
9.03102
9.29
10.1659
11.9925
15.5898
21.5042
37.0433
140.994
9.02926
8.32147
8.1456
8.34235
9.02344
10.5217
13.6635
19.2551
35.6206
147.248
6.6391
6.39674
6.3455
6.4216
6.68735
7.27298
8.61719
11.5533
22.4385
102.188
9.10641
9.10186
9.1024
9.10944
9.12191
9.13769
9.15831
9.19352
9.26574
9.44953
8.57566
8.57286
8.57197
8.5729
8.57596
8.58097
8.58702
8.59975
8.62841
8.69341
6.74886
6.54024
6.4877
6.56401
6.79509
7.24339
8.0455
9.35809
11.1628
16.4815
9.6163
9.00143
8.85287
9.0232
9.54387
10.5021
12.1292
14.5544
17.5931
29.313
9.82006
9.09137
8.91246
9.12868
9.78694
11.0403
13.2322
16.5985
21.1275
40.9348
9.70548
8.96252
8.80675
9.04582
9.78266
11.2211
13.8151
17.883
23.7553
52.4309
9.29326
8.57817
8.41753
8.65805
9.41173
10.9527
13.8551
18.5612
25.9732
65.0517
8.99095
8.31855
8.1791
8.40517
9.14757
10.7128
13.7864
18.9089
27.6756
76.9967
8.18189
7.66315
7.5397
7.71361
8.29047
9.57205
12.2704
17.1305
26.5695
82.8306
6.37126
6.18269
6.14506
6.20734
6.41879
6.88157
7.92737
10.3593
16.6537
56.9625
8.98674
8.97912
8.97661
8.9804
8.98979
9.00295
9.02064
9.05374
9.13178
9.33054
8.45996
8.45818
8.45766
8.4584
8.46054
8.46346
8.46502
8.46832
8.47723
8.49631
5.99061
5.90054
5.87403
5.90536
6.00617
6.20086
6.54383
7.13933
8.02299
9.91238
7.76815
7.4569
7.38635
7.48371
7.78653
8.35271
9.31398
10.8251
12.7023
17.1529
8.08694
7.67351
7.57322
7.71216
8.13778
8.95888
10.3934
12.7073
15.6156
23.6523
8.21777
7.76554
7.67282
7.83214
8.32926
9.31323
11.0938
14.0496
17.8684
30.2269
8.06424
7.60272
7.49737
7.66598
8.19487
9.29013
11.3665
14.9549
19.8201
37.7244
7.96399
7.50692
7.41192
7.5757
8.11293
9.25579
11.5126
15.54
21.303
45.0037
7.44044
7.07636
6.98834
7.11914
7.54389
8.48837
10.4796
14.3545
20.5791
48.736
6.13176
5.98745
5.95918
6.00604
6.16355
6.50104
7.22647
8.97715
12.944
32.9481
8.85277
8.84509
8.84228
8.84553
8.85445
8.86815
8.8867
8.9202
8.99274
9.14769
8.3321
8.33125
8.33106
8.33154
8.33275
8.33385
8.33255
8.33113
8.33105
8.33298
5.52875
5.49421
5.48134
5.49163
5.52852
5.59901
5.71834
5.9186
6.19856
6.64439
6.5459
6.40806
6.37843
6.42013
6.55788
6.81903
7.26547
7.99325
8.91822
10.4112
6.85335
6.63794
6.58316
6.65495
6.88221
7.32463
8.1008
9.4038
11.0677
14.0844
7.0879
6.8311
6.77716
6.86551
7.15047
7.7165
8.74504
10.5428
12.883
17.841
7.08921
6.80616
6.73707
6.83863
7.16188
7.83154
9.10449
11.4404
14.5869
22.2898
7.11734
6.81869
6.75351
6.8569
7.20168
7.93113
9.36807
12.1063
15.936
26.6758
6.81404
6.56634
6.50304
6.59061
6.87285
7.49215
8.77874
11.454
15.6358
28.9941
5.92013
5.81117
5.78963
5.82199
5.9328
6.16419
6.63131
7.73435
10.078
19.1884
8.70932
8.70171
8.6987
8.70147
8.70977
8.72326
8.74148
8.77258
8.83359
8.9455
8.19298
8.19285
8.19292
8.19319
8.19372
8.19364
8.1913
8.18869
8.1865
8.18502
5.26643
5.25475
5.2485
5.25104
5.26282
5.28566
5.32345
5.38296
5.45994
5.55236
5.80041
5.74842
5.73934
5.75371
5.80568
5.90432
6.07121
6.34408
6.70119
7.17427
6.03502
5.93136
5.90354
5.93668
6.04499
6.25341
6.61106
7.21223
8.00669
9.14917
6.27709
6.14153
6.11307
6.15736
6.30525
6.5936
7.10573
8.01349
9.24116
11.2453
6.34966
6.18571
6.14311
6.19993
6.3824
6.75271
7.43924
8.72724
10.5259
13.8396
6.44341
6.25766
6.21577
6.27675
6.48362
6.91057
7.72649
9.32472
11.6235
16.4112
6.29693
6.13645
6.09356
6.1494
6.32681
6.70554
7.46058
9.06249
11.6185
17.7558
5.73547
5.6557
5.64036
5.66199
5.73784
5.89191
6.18443
6.83025
8.08052
11.8141
8.55544
8.5482
8.54517
8.54756
8.55518
8.56789
8.58501
8.61258
8.66024
8.73459
8.04319
8.04354
8.04377
8.04391
8.04399
8.04317
8.04083
8.03832
8.03604
8.03426
5.12521
5.12156
5.11816
5.11825
5.12136
5.12813
5.13951
5.15652
5.17705
5.19529
5.37257
5.35716
5.35668
5.36012
5.37564
5.40566
5.45669
5.53961
5.64849
5.77125
5.52402
5.47672
5.46329
5.47743
5.52548
5.61595
5.76477
6.00442
6.32039
6.70589
5.72657
5.65937
5.64589
5.66622
5.73754
5.87248
6.1017
6.49498
7.03426
7.7758
5.81697
5.72654
5.70163
5.73152
5.82863
6.01991
6.35827
6.97611
7.8597
9.2086
5.93244
5.82178
5.79642
5.83015
5.94798
6.18334
6.61072
7.42921
8.63538
10.6711
5.88871
5.78973
5.76221
5.79606
5.90203
6.12166
6.53679
7.39155
8.77725
11.4608
5.58093
5.52394
5.51363
5.52749
5.578
5.67792
5.85864
6.22572
6.8756
8.30489
8.39059
8.38393
8.38105
8.3831
8.38993
8.40135
8.41672
8.44019
8.4765
8.52553
7.88306
7.88369
7.88401
7.88407
7.8839
7.88278
7.88088
7.87886
7.87705
7.87562
5.05173
5.05034
5.04814
5.0477
5.04836
5.0505
5.05407
5.05927
5.06546
5.06976
5.13721
5.13527
5.13757
5.13749
5.13992
5.14558
5.15673
5.17664
5.20448
5.23181
5.21956
5.19848
5.19214
5.1979
5.21849
5.25641
5.316
5.40593
5.52058
5.64111
5.36949
5.33803
5.33251
5.34111
5.37363
5.43324
5.52968
5.68514
5.89346
6.14104
5.45028
5.40257
5.38874
5.40371
5.45315
5.54761
5.70637
5.97855
6.36253
6.86777
5.56178
5.49833
5.48391
5.50152
5.56598
5.69063
5.90479
6.29039
6.85193
7.65182
5.57969
5.5219
5.50532
5.52491
5.58517
5.70685
5.92595
6.34993
7.02827
8.12737
5.45646
5.41656
5.41007
5.41866
5.45167
5.51534
5.62634
5.8333
6.17438
6.74445
8.21423
8.20835
8.20574
8.20748
8.21341
8.22321
8.23642
8.25563
8.28264
8.31537
7.71268
7.71345
7.71383
7.71384
7.71355
7.71248
7.71107
7.70959
7.70827
7.70722
5.01377
5.01279
5.01116
5.01075
5.01096
5.01197
5.01347
5.01558
5.01818
5.01998
5.01197
5.01399
5.01666
5.01581
5.01447
5.01304
5.01262
5.01463
5.01996
5.02528
5.04562
5.03599
5.03293
5.03525
5.04407
5.06005
5.08416
5.11826
5.1603
5.19959
5.1474
5.13337
5.13158
5.13491
5.14908
5.17436
5.21361
5.27275
5.34924
5.42969
5.20865
5.18447
5.17714
5.18435
5.20862
5.25378
5.32657
5.44257
5.60073
5.78387
5.30433
5.26907
5.26136
5.27008
5.30428
5.36857
5.47393
5.64975
5.89573
6.19357
5.35559
5.32397
5.31469
5.32555
5.35806
5.42239
5.53438
5.7367
6.05048
6.48534
5.36007
5.33247
5.3287
5.33393
5.35534
5.39567
5.46374
5.58066
5.76101
6.01089
8.02596
8.02098
8.01872
8.02016
8.02513
8.03316
8.04405
8.05918
8.07876
8.10052
7.53204
7.53283
7.53323
7.53322
7.53287
7.53206
7.53107
7.53003
7.52912
7.52837
4.99346
4.99248
4.99123
4.99094
4.9912
4.99196
4.99296
4.99427
4.99593
4.9973
4.94712
4.94968
4.95191
4.95115
4.94928
4.94665
4.94392
4.94197
4.94192
4.9428
4.95026
4.94547
4.94386
4.94483
4.94878
4.95584
4.96612
4.97987
4.99655
5.0114
5.01483
5.0087
5.00838
5.00954
5.01555
5.02605
5.04183
5.06419
5.09226
5.12023
5.05625
5.04443
5.0407
5.04407
5.05561
5.07664
5.10953
5.15861
5.22342
5.29343
5.13315
5.11389
5.11002
5.11416
5.13199
5.16468
5.21634
5.29651
5.40332
5.5168
5.2
5.18412
5.17944
5.18522
5.2017
5.23388
5.28892
5.38273
5.52355
5.70083
5.28824
5.26918
5.26722
5.27045
5.28445
5.31022
5.35213
5.41876
5.51403
5.63325
7.82546
7.82144
7.81957
7.82073
7.82474
7.83103
7.83967
7.85114
7.86494
7.87919
7.34106
7.34172
7.34212
7.3421
7.34179
7.34124
7.34057
7.33987
7.33926
7.33872
4.98153
4.98064
4.97966
4.97949
4.97981
4.98046
4.9813
4.98233
4.98365
4.98486
4.9142
4.91633
4.91797
4.91747
4.91598
4.9138
4.91136
4.90923
4.90834
4.90849
4.9002
4.89748
4.89654
4.89698
4.8989
4.90228
4.90705
4.91317
4.92064
4.92741
4.93893
4.93609
4.93617
4.93653
4.93913
4.94362
4.95018
4.95893
4.96963
4.9807
4.96439
4.95876
4.95692
4.95848
4.96383
4.97341
4.98806
5.00881
5.0356
5.065
5.02425
5.01368
5.01182
5.01379
5.02311
5.03983
5.06541
5.10273
5.14992
5.19649
5.09663
5.08965
5.08769
5.09067
5.09836
5.11329
5.13871
5.18042
5.24113
5.31813
5.23657
5.22328
5.22244
5.22456
5.234
5.25086
5.27699
5.31556
5.3657
5.4265
7.61258
7.60948
7.60803
7.60893
7.61201
7.61674
7.62332
7.63171
7.64118
7.65033
7.13949
7.14003
7.14036
7.14034
7.14015
7.13979
7.13934
7.13888
7.13848
7.13808
4.97351
4.97277
4.97207
4.97198
4.97227
4.97282
4.97352
4.97437
4.97548
4.97652
4.89764
4.89922
4.90035
4.90008
4.89909
4.89761
4.89594
4.89441
4.8937
4.89378
4.87514
4.87342
4.87284
4.87306
4.87406
4.8758
4.87821
4.88123
4.88502
4.88866
4.8973
4.89573
4.89577
4.89588
4.89715
4.89934
4.90243
4.90632
4.91086
4.91609
4.91159
4.90893
4.90804
4.90876
4.9112
4.9155
4.92194
4.93072
4.94193
4.95559
4.95798
4.95195
4.95107
4.95209
4.95715
4.966
4.9791
4.99724
5.01895
5.04013
5.03083
5.02853
5.02807
5.02957
5.03271
5.03882
5.04931
5.06642
5.09041
5.12641
5.20045
5.191
5.19082
5.19238
5.19904
5.21048
5.22715
5.25002
5.27633
5.30949
7.38725
7.385
7.38393
7.3846
7.38684
7.39029
7.39511
7.40102
7.40732
7.41309
6.92713
6.92758
6.92784
6.92783
6.92772
6.92749
6.9272
6.9269
6.92664
6.92632
4.96732
4.96677
4.96631
4.96626
4.9665
4.96693
4.96749
4.96816
4.96911
4.96998
4.88926
4.89039
4.89115
4.89103
4.89044
4.88956
4.88856
4.88763
4.88725
4.88731
4.86332
4.8622
4.86186
4.86197
4.86249
4.86338
4.86463
4.8662
4.86831
4.87049
4.87548
4.87438
4.87428
4.87434
4.8751
4.87644
4.87827
4.88044
4.88281
4.88581
4.88273
4.88145
4.88101
4.88134
4.88246
4.88438
4.8872
4.89093
4.89571
4.90274
4.91933
4.91563
4.91519
4.91583
4.91879
4.92382
4.93097
4.94047
4.95123
4.96232
4.9904
4.99032
4.99064
4.99139
4.99234
4.99422
4.99753
5.00336
5.01085
5.02935
5.17559
5.1687
5.16887
5.17018
5.17518
5.18323
5.19424
5.20826
5.22199
5.24164
7.14953
7.148
7.14728
7.14774
7.14926
7.15174
7.15513
7.15913
7.16318
7.16676
6.70382
6.7042
6.70439
6.7044
6.70434
6.7042
6.70401
6.70382
6.70365
6.70338
4.96203
4.96169
4.96143
4.96142
4.9616
4.96191
4.96232
4.96282
4.96366
4.96434
4.8849
4.88572
4.88622
4.88619
4.88587
4.88541
4.8849
4.88443
4.88435
4.88439
4.85826
4.85757
4.8574
4.85745
4.85769
4.85809
4.85867
4.85945
4.86066
4.86208
4.86465
4.86374
4.86352
4.86356
4.86413
4.86513
4.86646
4.86797
4.86953
4.87156
4.86781
4.86714
4.8669
4.86706
4.86759
4.86847
4.86972
4.87135
4.87345
4.87745
4.89755
4.89507
4.89481
4.8953
4.89721
4.90036
4.90463
4.91012
4.91606
4.92294
4.96589
4.96671
4.96737
4.96776
4.96778
4.96782
4.96796
4.96891
4.96929
4.9801
5.15827
5.1532
5.15355
5.15476
5.15864
5.16459
5.17217
5.18113
5.18814
5.20102
6.89965
6.8986
6.89817
6.89847
6.89949
6.9012
6.90349
6.90609
6.90858
6.91076
6.46949
6.46982
6.46995
6.46997
6.46994
6.46986
6.46974
6.46962
6.46951
6.46925
4.95725
4.95712
4.95702
4.95706
4.95718
4.95737
4.95764
4.95801
4.95878
4.9593
4.88248
4.8831
4.88339
4.88341
4.88328
4.88311
4.88293
4.88278
4.88293
4.88302
4.85657
4.8562
4.85616
4.85617
4.85623
4.85632
4.8565
4.85681
4.85749
4.85849
4.85964
4.85887
4.85858
4.85862
4.85907
4.85987
4.86093
4.8621
4.86328
4.8648
4.86061
4.8602
4.86005
4.86012
4.86039
4.86083
4.86142
4.86218
4.86316
4.86563
4.88542
4.88363
4.88343
4.88384
4.88519
4.88733
4.89013
4.89361
4.89727
4.90223
4.95043
4.95145
4.95221
4.95244
4.95216
4.95156
4.95054
4.94966
4.94727
4.95459
5.14559
5.14185
5.14234
5.14347
5.14659
5.15118
5.15666
5.16265
5.16596
5.17527
6.63784
6.63715
6.63688
6.63708
6.63776
6.63888
6.64035
6.64195
6.6434
6.64471
6.22419
6.22448
6.22457
6.22459
6.22458
6.22454
6.22446
6.22438
6.2243
6.22406
4.95282
4.95291
4.95293
4.95301
4.95309
4.95318
4.95333
4.95358
4.95433
4.95472
4.88095
4.8814
4.88155
4.88158
4.88156
4.88157
4.88161
4.88168
4.88203
4.88224
4.85654
4.85638
4.85641
4.8564
4.85635
4.85628
4.85622
4.85626
4.85662
4.85737
4.85762
4.85697
4.85668
4.8567
4.85704
4.85767
4.8585
4.85942
4.86034
4.86153
4.8575
4.85719
4.85707
4.8571
4.85725
4.8575
4.85782
4.85821
4.85871
4.86033
4.8783
4.87697
4.87679
4.87713
4.87811
4.87963
4.88156
4.8839
4.88632
4.8902
4.93922
4.94008
4.94082
4.94099
4.94069
4.94003
4.93882
4.93751
4.93433
4.93995
5.13536
5.13263
5.13317
5.13427
5.13685
5.14051
5.14464
5.14882
5.15
5.15723
6.36442
6.364
6.36384
6.36397
6.3644
6.36508
6.36597
6.36689
6.36768
6.36844
5.96821
5.96845
5.96853
5.96855
5.96855
5.96852
5.96847
5.96841
5.96835
5.96812
4.94863
4.94893
4.94903
4.94917
4.94922
4.94925
4.94929
4.94942
4.95018
4.95053
4.87971
4.88
4.88002
4.88003
4.88008
4.88019
4.88036
4.88058
4.88105
4.88149
4.85725
4.85721
4.85726
4.85725
4.85715
4.857
4.85684
4.85676
4.85692
4.85754
4.85705
4.85654
4.85628
4.85628
4.85653
4.85698
4.85758
4.85826
4.85896
4.8599
4.85649
4.85624
4.85614
4.85614
4.85623
4.85638
4.85657
4.85678
4.85705
4.85813
4.87335
4.87235
4.87218
4.87243
4.87313
4.87419
4.8755
4.87706
4.87869
4.88174
4.92897
4.92954
4.93017
4.93032
4.93012
4.9296
4.92859
4.92741
4.92437
4.92901
5.12563
5.12373
5.12427
5.12532
5.12747
5.13044
5.13364
5.1366
5.13652
5.14225
6.07993
6.07969
6.0796
6.07968
6.07993
6.08031
6.08081
6.0813
6.08167
6.08209
5.70212
5.70236
5.70243
5.70245
5.70245
5.70243
5.70239
5.70235
5.70229
5.70207
4.94442
4.94489
4.94508
4.94526
4.94531
4.94528
4.94522
4.94525
4.94597
4.94643
4.87838
4.87846
4.87839
4.87837
4.87843
4.87859
4.87881
4.87911
4.87962
4.88036
4.85814
4.85812
4.85816
4.85813
4.85804
4.8579
4.85774
4.85763
4.85768
4.85821
4.8572
4.85682
4.85662
4.85661
4.85676
4.85705
4.85744
4.8579
4.85839
4.85912
4.85657
4.85639
4.85631
4.8563
4.85634
4.85641
4.8565
4.85661
4.85675
4.85742
4.86881
4.86809
4.86795
4.8681
4.86854
4.8692
4.87001
4.87096
4.872
4.87425
4.91754
4.9178
4.91828
4.9184
4.91827
4.91789
4.91714
4.91624
4.91375
4.9176
5.11371
5.1125
5.113
5.11396
5.11571
5.11808
5.12053
5.12255
5.12169
5.12602
5.78519
5.78507
5.78502
5.78506
5.78518
5.78538
5.78563
5.78585
5.786
5.78622
5.4269
5.42705
5.42709
5.42711
5.42711
5.42709
5.42707
5.42704
5.42699
5.42681
4.93879
4.93934
4.93972
4.93996
4.94002
4.93994
4.93977
4.93962
4.94004
4.94078
4.87667
4.87649
4.87634
4.87628
4.87633
4.87648
4.87671
4.87702
4.8775
4.87847
4.85878
4.85872
4.85872
4.85869
4.85863
4.85853
4.85843
4.85837
4.85839
4.85879
4.85777
4.85751
4.85738
4.85737
4.85745
4.85761
4.85783
4.8581
4.85842
4.85891
4.85728
4.85718
4.85712
4.8571
4.85711
4.85713
4.85715
4.85717
4.85722
4.85758
4.86408
4.86363
4.86353
4.8636
4.86382
4.86415
4.86456
4.86502
4.86559
4.86702
4.90375
4.90375
4.90403
4.90408
4.90393
4.90359
4.90301
4.90234
4.90073
4.90368
5.09263
5.092
5.09242
5.09322
5.09454
5.09627
5.09801
5.09919
5.09792
5.10061
5.4812
5.48114
5.48113
5.48115
5.48119
5.48125
5.48132
5.48139
5.48144
5.48153
5.14217
5.14227
5.14228
5.14228
5.14228
5.14228
5.14228
5.14227
5.14227
5.14218
4.92417
4.92476
4.9254
4.92575
4.92584
4.92572
4.92543
4.92501
4.9246
4.92534
4.87356
4.87315
4.87292
4.87281
4.87282
4.87294
4.87314
4.87345
4.87391
4.87491
4.8592
4.85914
4.85912
4.85909
4.85906
4.85902
4.85899
4.85897
4.85899
4.8592
4.85874
4.85861
4.85854
4.85853
4.85857
4.85865
4.85875
4.85888
4.85905
4.85931
4.85847
4.85842
4.85839
4.85838
4.85837
4.85836
4.85835
4.85834
4.85834
4.85846
4.86052
4.86033
4.86027
4.86029
4.86038
4.8605
4.86064
4.8608
4.86102
4.86164
4.88706
4.88686
4.88691
4.88685
4.88666
4.88634
4.88592
4.8855
4.88495
4.88693
5.03925
5.03902
5.03929
5.0398
5.04059
5.0416
5.0426
5.04311
5.04203
5.04284
5.16801
5.16798
5.16799
5.16799
5.168
5.168
5.168
5.16799
5.16796
5.16802
11.2558
11.3694
11.3232
11.1065
82.8734
84.9135
85.3485
85.9547
143.142
148.537
148.97
147.671
202.548
211.864
211.696
207.358
263.932
277.433
276.198
268.714
331.948
350.026
347.927
339.278
394.117
416.543
414.16
406.851
432.095
458.131
456.172
451.652
344.724
367.087
364.495
363.145
11.4641
11.7011
11.5454
11.1405
9.70788
9.76668
9.76911
9.72466
76.2201
79.4051
80.1339
80.181
134.11
144.883
145.918
143.653
192.973
214.361
214.809
208.816
255.943
290.447
289.407
279.39
328.996
379.277
377.522
364.722
398.741
465.209
464.276
451.336
445.014
525.921
527.001
515.901
349.416
421.272
419.356
414.56
10.6995
10.9284
10.8578
10.6384
8.77411
8.78686
8.78579
8.77439
26.5937
29.0084
28.2616
25.7354
49.4813
53.8582
52.1654
47.468
74.6958
81.3867
78.2247
70.6944
103.504
112.928
107.699
96.6211
139.38
152.581
144.931
129.067
177.067
194.222
184.042
163.077
207.093
228.03
215.755
190.297
164.167
180.873
169.385
148.623
9.90308
9.99304
9.96972
9.87104
8.50959
8.51191
8.51254
8.51173
11.5032
11.753
11.7213
11.5202
21.2782
21.9946
21.9213
21.3743
32.0662
33.5256
33.2565
31.9402
44.5642
46.948
46.2587
43.7423
60.6544
64.349
62.998
58.6978
77.9982
83.0131
80.7102
74.2928
92.4072
98.846
95.5247
86.8698
71.6815
76.7445
73.2171
65.6528
9.44032
9.48439
9.48121
9.441
8.33065
8.33152
8.33176
8.33127
7.0611
7.15182
7.17644
7.14652
11.7171
12.0072
12.0863
12.0004
16.913
17.5143
17.6073
17.3428
22.873
23.8694
23.8927
23.2932
30.7359
32.3254
32.1947
31.0126
39.208
41.3938
40.9527
38.9827
46.1842
49.0629
48.2218
45.2547
34.2785
36.4587
35.2568
32.3913
9.09101
9.11475
9.11628
9.09941
8.18027
8.181
8.18107
8.18045
5.61835
5.63167
5.63641
5.63488
7.4788
7.54449
7.57489
7.57685
9.963
10.1392
10.2023
10.1788
12.8573
13.191
13.2702
13.1718
16.8137
17.4122
17.4914
17.2258
21.0426
21.9146
21.9231
21.3959
24.4391
25.6613
25.5436
24.6103
17.4187
18.2932
17.9307
16.9322
8.80622
8.81803
8.82034
8.81422
8.02938
8.03011
8.03017
8.02952
5.20455
5.20705
5.20752
5.2066
5.8361
5.84924
5.85639
5.85887
6.9294
6.97791
7.00062
7.00239
8.27383
8.37956
8.41981
8.41062
10.2459
10.4644
10.5281
10.4792
12.3589
12.6942
12.7555
12.6353
14.0315
14.5361
14.5725
14.3073
10.1881
10.5147
10.4311
10.1415
8.55937
8.56481
8.56685
8.56545
7.8711
7.87186
7.87192
7.87127
5.06854
5.06925
5.06895
5.06797
5.24061
5.2414
5.24187
5.24253
5.69282
5.70271
5.70773
5.70923
6.27433
6.3012
6.31334
6.3147
7.20199
7.27304
7.30006
7.29346
8.2163
8.33117
8.36576
8.34523
9.05626
9.24934
9.28783
9.22047
7.31903
7.42706
7.41818
7.35245
8.33184
8.33412
8.33557
8.33577
7.70311
7.70386
7.70393
7.70329
5.0172
5.01785
5.01755
5.01654
5.02478
5.02397
5.02341
5.02336
5.20958
5.21055
5.2109
5.21116
5.46013
5.46489
5.46704
5.46781
5.88503
5.90575
5.9142
5.91314
6.35876
6.39159
6.40389
6.40257
6.79857
6.86623
6.88527
6.86889
6.18586
6.21737
6.22009
6.20955
8.10905
8.10985
8.11074
8.11128
7.52467
7.52541
7.52548
7.52486
4.99432
4.99501
4.99478
4.9938
4.94161
4.94097
4.94047
4.94028
5.01274
5.01222
5.01177
5.01165
5.12597
5.12587
5.12558
5.12563
5.32571
5.33158
5.33368
5.33287
5.55869
5.56563
5.56852
5.56942
5.80879
5.8318
5.83891
5.83345
5.69031
5.69658
5.69828
5.69891
7.88378
7.88392
7.88441
7.88492
7.33541
7.33613
7.33619
7.3356
4.98194
4.98263
4.98244
4.98151
4.90771
4.90735
4.90703
4.90684
4.92733
4.92683
4.92641
4.92625
4.98149
4.98081
4.98024
4.98006
5.07784
5.07984
5.08024
5.07938
5.20526
5.20556
5.20563
5.2062
5.3627
5.37143
5.37362
5.3701
5.44866
5.44705
5.44703
5.44912
7.65279
7.65266
7.65292
7.6533
7.13515
7.13582
7.13587
7.13531
4.97373
4.97437
4.9742
4.97332
4.89329
4.8931
4.8929
4.89275
4.8885
4.88818
4.88791
4.88778
4.91621
4.91572
4.9153
4.91509
4.9624
4.9634
4.96345
4.9627
5.04127
5.04039
5.03988
5.04011
5.15114
5.15544
5.15591
5.15279
5.32139
5.3178
5.31692
5.3186
7.41429
7.41411
7.41424
7.41448
6.92375
6.92436
6.9244
6.92388
4.96736
4.96792
4.96775
4.96692
4.88696
4.88686
4.88674
4.88662
4.87045
4.87027
4.87011
4.87001
4.88602
4.88575
4.8855
4.88534
4.9072
4.90789
4.9079
4.9073
4.96253
4.96178
4.96131
4.96133
5.04722
5.05011
5.05004
5.04713
5.25068
5.24711
5.24596
5.24695
7.16716
7.16703
7.16709
7.1672
6.70115
6.7017
6.70173
6.70124
4.96192
4.9624
4.96221
4.96142
4.88413
4.88408
4.88401
4.88391
4.86216
4.86208
4.86199
4.86191
4.8719
4.87179
4.87165
4.87152
4.88066
4.88119
4.88121
4.88074
4.92382
4.92345
4.92314
4.92302
4.99518
4.99759
4.99738
4.99461
5.20941
5.20652
5.20538
5.20568
6.91061
6.9106
6.91062
6.91061
6.46738
6.46785
6.46785
6.46742
4.95711
4.95748
4.95727
4.95653
4.88287
4.88287
4.88283
4.88274
4.8587
4.85869
4.85864
4.85856
4.86523
4.86521
4.86514
4.86504
4.86801
4.86842
4.86844
4.86808
4.90402
4.90401
4.90384
4.90359
4.96831
4.97056
4.97033
4.96762
5.18367
5.18168
5.18067
5.1803
6.64417
6.64429
6.6443
6.64417
6.22255
6.22292
6.22291
6.22254
4.9528
4.95308
4.95285
4.95216
4.8823
4.88237
4.88235
4.88224
4.85773
4.85778
4.85776
4.85768
4.86202
4.86205
4.86201
4.86193
4.86207
4.86238
4.86238
4.8621
4.89272
4.89299
4.89293
4.89257
4.95287
4.95514
4.95492
4.9522
5.16576
5.16475
5.16393
5.16291
6.36761
6.36787
6.36788
6.36766
5.967
5.96727
5.96723
5.96693
4.94896
4.94917
4.94894
4.9483
4.88192
4.88208
4.88208
4.88191
4.85804
4.85815
4.85815
4.85805
4.86041
4.86047
4.86046
4.86038
4.85934
4.85955
4.85954
4.85932
4.88461
4.88507
4.88508
4.88465
4.94122
4.94361
4.94342
4.94064
5.15079
5.15081
5.15022
5.14859
6.08106
6.08143
6.08145
6.08116
5.70142
5.70157
5.7015
5.70128
4.94548
4.94571
4.94551
4.9449
4.88126
4.88153
4.88154
4.88129
4.85883
4.85898
4.859
4.85888
4.85961
4.85968
4.85968
4.85961
4.85817
4.85829
4.85827
4.85813
4.87702
4.87756
4.87761
4.87718
4.92859
4.93111
4.93098
4.92818
5.13413
5.13531
5.13501
5.13276
5.78505
5.7855
5.78552
5.78521
5.42673
5.42672
5.42663
5.42651
4.94112
4.94157
4.94145
4.94077
4.87967
4.88002
4.88003
4.87969
4.85941
4.85958
4.8596
4.85949
4.85932
4.85938
4.85939
4.85934
4.85794
4.85798
4.85796
4.85789
4.86921
4.86968
4.86974
4.8694
4.91203
4.91431
4.91422
4.91179
5.10732
5.10991
5.10998
5.10698
5.4805
5.48102
5.48105
5.48071
5.14277
5.14253
5.14244
5.14251
4.92735
4.92833
4.92832
4.92731
4.87574
4.87597
4.87593
4.87564
4.85956
4.85967
4.85969
4.85962
4.85955
4.85959
4.85959
4.85957
4.85854
4.85853
4.85852
4.8585
4.86276
4.86302
4.86306
4.8629
4.89096
4.89201
4.89193
4.89076
5.04586
5.04945
5.04977
5.04628
5.16751
5.16806
5.16807
5.1677
10.1036
9.36207
9.05213
8.94019
8.87578
8.83052
8.80054
8.78395
8.77458
8.76904
103.574
49.1094
35.7341
29.8446
24.4029
19.7907
16.2155
13.558
11.6648
10.3149
160.82
70.9081
51.0798
43.5822
36.9581
31.1755
26.3519
22.4873
19.458
17.0922
206.111
82.6474
55.9118
46.5077
39.0721
32.4723
26.9594
22.5979
19.2354
16.6687
241.358
88.7639
58.6683
47.693
39.7587
32.4291
26.4082
21.7293
18.1826
15.5677
277.236
94.3701
60.7172
47.9911
39.5209
31.4936
25.1077
20.2691
16.7293
14.2118
306.086
97.7262
61.3659
47.4548
38.7331
30.2519
23.7288
18.9095
15.4723
13.121
314.098
93.2722
56.291
41.9342
33.6582
25.5804
19.766
15.6811
12.9632
11.1717
223.398
55.7859
30.3564
20.9887
16.1862
12.1581
9.90988
8.58176
7.78193
7.26442
9.56272
9.5374
9.38246
9.3565
9.31024
9.28444
9.26401
9.25324
9.24601
9.2397
9.36152
9.05398
8.90285
8.81751
8.76365
8.72812
8.70514
8.69164
8.68427
8.67958
53.0819
28.7314
22.6156
19.4505
16.629
14.1375
12.0959
10.5336
9.39593
8.60539
89.9822
46.3696
35.8837
31.0081
27.1011
23.3957
20.1662
17.5058
15.3789
13.7586
122.137
58.6535
42.8893
35.5554
30.4066
25.6012
21.5345
18.2748
15.7399
13.8634
152.246
68.7024
47.78
38.3688
32.1888
26.4802
21.7989
18.1458
15.3598
13.3692
186.005
78.6915
51.9655
40.2604
33.0321
26.4634
21.2806
17.3566
14.4836
12.5071
216.556
86.1637
54.4463
40.9923
33.1161
25.9772
20.5384
16.539
13.6815
11.7884
232.392
86.3569
51.6148
37.2325
29.3694
22.415
17.4518
13.9949
11.7016
10.2407
166.604
54.4395
28.8847
19.265
14.6142
11.173
9.23874
8.10528
7.41709
6.99123
9.8093
9.49405
9.32359
9.26075
9.20626
9.17335
9.14952
9.13503
9.12487
9.1159
8.7354
8.69471
8.66222
8.63501
8.61368
8.59825
8.58801
8.58194
8.57849
8.57598
19.9753
16.6248
14.5428
12.7027
11.1131
9.79604
8.77356
8.02018
7.47881
7.10385
35.9831
28.8031
24.9897
21.7097
18.8978
16.4657
14.4574
12.846
11.5663
10.5994
51.0905
38.0111
31.565
26.3187
22.1925
18.7573
16.0113
13.866
12.213
11.0029
66.1318
45.6985
36.5767
29.4952
24.2613
20.0079
16.7068
14.1987
12.3033
10.9619
83.1545
53.2578
41.0059
31.9261
25.5823
20.5272
16.7309
13.9319
11.9072
10.5295
98.9248
58.9953
43.9317
33.2543
26.1628
20.5659
16.4899
13.5738
11.5136
10.1596
108.082
59.4775
42.3418
30.7919
23.604
18.0993
14.3387
11.797
10.1304
9.07192
75.567
36.4299
23.7229
16.1787
12.1642
9.64342
8.26452
7.45499
6.95213
6.63667
9.56273
9.36903
9.23571
9.1564
9.09922
9.06352
9.03871
9.02185
9.0094
8.99852
8.50745
8.49781
8.48689
8.47695
8.46938
8.46426
8.46109
8.45952
8.45909
8.45851
10.9649
10.1689
9.31878
8.46387
7.74453
7.19181
6.78596
6.49315
6.2812
6.13322
19.9159
18.0965
16.2358
14.3397
12.7006
11.3546
10.2813
9.43812
8.77377
8.27402
28.5267
24.6945
21.2237
17.9891
15.378
13.2932
11.6647
10.4116
9.45529
8.76102
37.2684
30.6843
25.4074
20.8109
17.3032
14.5754
12.5043
10.9586
9.80042
8.98298
47.453
36.9222
29.4329
23.2562
18.7681
15.3575
12.8488
11.0347
9.7367
8.85615
56.9726
41.9409
32.392
24.8664
19.6401
15.7394
12.9584
11.0121
9.64794
8.74831
62.609
43.0563
31.889
23.5537
18.1187
14.2239
11.6229
9.90326
8.77943
8.05673
42.5374
26.0477
17.8631
12.7216
9.97961
8.36406
7.45597
6.90768
6.55344
6.32598
9.31872
9.18065
9.07407
9.00488
8.95702
8.92563
8.90311
8.88697
8.87481
8.86436
8.33162
8.33042
8.32897
8.32778
8.32706
8.32676
8.32681
8.32731
8.32847
8.3293
7.01848
6.784
6.52993
6.28539
6.07992
5.91745
5.79255
5.69761
5.62574
5.57577
11.6481
10.9749
10.1974
9.40608
8.70445
8.1202
7.65262
7.28556
6.99339
6.77176
16.4794
15.005
13.4077
11.8713
10.5685
9.50908
8.67657
8.03721
7.54963
7.19692
21.5629
18.9551
16.3521
13.9869
12.0805
10.5815
9.44223
8.59784
7.9633
7.51291
27.7677
23.4193
19.4542
16.0242
13.3862
11.3744
9.89609
8.83562
8.07678
7.55948
33.6832
27.2945
21.9578
17.5441
14.3019
11.8976
10.1895
9.00588
8.17107
7.6125
37.2777
28.6462
22.1213
17.0429
13.5564
11.1043
9.47304
8.39921
7.68802
7.22039
24.4073
17.2309
12.735
9.90937
8.33366
7.38628
6.81855
6.46033
6.21731
6.05813
9.0453
8.96252
8.89132
8.8406
8.80344
8.77683
8.7568
8.74177
8.73018
8.72036
8.18149
8.18187
8.18227
8.18285
8.18357
8.18436
8.18518
8.1862
8.18772
8.18938
5.61999
5.57953
5.52744
5.47213
5.42127
5.37757
5.34153
5.31268
5.29067
5.27658
7.52703
7.34369
7.09363
6.82682
6.58326
6.37819
6.21321
6.08221
5.9736
5.88863
10.0027
9.5024
8.87281
8.23805
7.68041
7.22063
6.85587
6.57263
6.35316
6.1936
12.7542
11.7887
10.6606
9.58769
8.69079
7.97922
7.43576
7.03088
6.71943
6.49419
16.3293
14.596
12.7214
11.024
9.66548
8.62203
7.85104
7.29458
6.88948
6.60965
19.8331
17.1906
14.5147
12.2059
10.4395
9.12651
8.18867
7.53528
7.06239
6.73807
22.0448
18.3253
14.9046
12.1507
10.1866
8.808
7.88017
7.25957
6.83639
6.55077
14.3234
11.4741
9.38071
8.02063
7.19571
6.66729
6.32519
6.09878
5.93716
5.83001
8.79087
8.74496
8.70102
8.66579
8.63764
8.61579
8.59853
8.58507
8.57444
8.56557
8.0306
8.03111
8.0317
8.03245
8.0333
8.03415
8.03498
8.03595
8.03739
8.03922
5.20406
5.19702
5.18675
5.1744
5.16184
5.1501
5.13983
5.13144
5.12569
5.12326
5.8508
5.80883
5.74552
5.67458
5.60798
5.55096
5.50449
5.46658
5.43204
5.40309
6.96391
6.80863
6.59633
6.37415
6.17276
6.00197
5.86197
5.74926
5.65882
5.59245
8.30787
7.9708
7.54338
7.12521
6.76657
6.47652
6.2497
6.07606
5.93571
5.83089
10.2213
9.54473
8.74996
8.00984
7.40058
6.92434
6.56404
6.29649
6.09463
5.95276
12.1698
11.0908
9.88242
8.81131
7.96677
7.32972
6.86412
6.53113
6.27869
6.09987
13.4728
11.8907
10.281
8.95292
7.97237
7.27105
6.78325
6.44516
6.20531
6.0395
9.38504
8.3477
7.47773
6.86412
6.44811
6.15954
5.95797
5.8184
5.71359
5.64382
8.55589
8.53147
8.50491
8.48079
8.45988
8.44249
8.42816
8.41658
8.40719
8.3995
7.87226
7.87264
7.87308
7.87365
7.8743
7.87494
7.87554
7.87626
7.87744
7.87905
5.06773
5.06626
5.06372
5.06035
5.05666
5.05298
5.04967
5.04714
5.04613
5.04687
5.24188
5.23519
5.22279
5.20768
5.19321
5.18104
5.17161
5.16396
5.15502
5.14623
5.7014
5.65936
5.59681
5.52775
5.46207
5.4035
5.35288
5.31001
5.27429
5.24808
6.29179
6.18989
6.05156
5.91095
5.78548
5.67967
5.59317
5.5241
5.46423
5.41762
7.22026
6.98155
6.68711
6.40327
6.16016
5.96205
5.80497
5.68278
5.58645
5.51798
8.21511
7.81405
7.33481
6.89639
6.53674
6.2548
6.03916
5.87822
5.74868
5.65367
8.95557
8.33197
7.66006
7.08537
6.64025
6.30744
6.06385
5.88708
5.75646
5.66476
7.1613
6.7998
6.45009
6.17427
5.96568
5.80934
5.69239
5.60808
5.54149
5.49741
8.33153
8.31823
8.30199
8.28564
8.27046
8.25711
8.24564
8.23607
8.22811
8.22171
7.70417
7.70442
7.70471
7.70509
7.70552
7.70593
7.70629
7.70674
7.70764
7.70899
5.01659
5.01573
5.01447
5.01295
5.01133
5.00971
5.00829
5.00738
5.00755
5.00881
5.02333
5.02289
5.02121
5.01895
5.01715
5.01633
5.01659
5.0172
5.01601
5.01377
5.20924
5.19791
5.17952
5.15805
5.13659
5.11642
5.098
5.08162
5.06764
5.05757
5.46271
5.43438
5.39323
5.34937
5.30824
5.2717
5.24034
5.21422
5.18952
5.16924
5.89079
5.81232
5.7123
5.6108
5.51873
5.43915
5.37233
5.31769
5.27287
5.24112
6.37055
6.23766
6.06709
5.90265
5.75928
5.64002
5.54347
5.46796
5.40308
5.35374
6.78548
6.55833
6.30219
6.06974
5.87761
5.72515
5.60719
5.51764
5.44911
5.40089
6.16236
6.0315
5.88808
5.76187
5.65697
5.57259
5.50547
5.45537
5.41369
5.38652
8.10895
8.10146
8.09148