/*--------------------------------*- C++ -*----------------------------------*\
| =========                 |                                                 |
| \\      /  F ield         | foam-extend: Open Source CFD                    |
|  \\    /   O peration     | Version:     4.0                                |
|   \\  /    A nd           | Web:         http://www.foam-extend.org         |
|    \\/     M anipulation  |                                                 |
\*---------------------------------------------------------------------------*/
FoamFile
{
    version     2.0;
    format      ascii;
    class       volScalarField;
    location    "1000";
    object      p;
}
// * * * * * * * * * * * * * * * * * * * * * * * * * * * * * * * * * * * * * //

dimensions      [1 -1 -2 0 0 0 0];

internalField   nonuniform List<scalar> 
34480
(
108184
108083
108041
108054
108135
108312
108649
109324
110278
110607
108048
107947
107904
107911
107986
108156
108486
109146
110165
110116
107899
107794
107750
107748
107808
107947
108236
108826
109840
109236
107803
107698
107649
107635
107673
107769
108000
108490
109435
108251
107694
107578
107524
107494
107507
107559
107732
108117
108960
107233
107682
107570
107510
107474
107469
107484
107601
107879
108582
106331
107565
107441
107377
107329
107308
107294
107363
107542
108085
105378
107637
107520
107460
107427
107422
107418
107472
107578
107940
104770
107532
107409
107343
107305
107300
107305
107348
107397
107556
104017
107624
107515
107504
107567
107700
107883
108116
108340
108498
104477
108932
108806
108760
108783
108885
109085
109416
109938
110747
111807
108727
108594
108545
108568
108678
108898
109279
109924
111055
112646
108517
108379
108329
108347
108450
108662
109049
109745
111114
113083
108368
108226
108170
108176
108264
108451
108815
109501
111008
113226
108217
108064
108002
107991
108058
108211
108537
109178
110752
113113
108170
108018
107948
107928
107978
108098
108380
108952
110529
112920
108024
107862
107786
107753
107785
107874
108112
108610
110143
112507
108074
107917
107843
107818
107857
107946
108164
108595
110033
112279
107955
107793
107713
107680
107707
107789
107988
108371
109663
111832
108036
107885
107845
107889
108018
108222
108545
109031
110272
112236
109487
109373
109333
109360
109461
109644
109926
110324
110851
111459
109274
109141
109095
109127
109249
109476
109836
110374
111184
112186
109043
108899
108852
108884
109012
109256
109660
110302
111391
112811
108865
108711
108658
108683
108807
109049
109472
110173
111483
113281
108687
108521
108461
108474
108585
108811
109229
109948
111424
113547
108611
108444
108378
108381
108480
108686
109087
109794
111381
113752
108442
108265
108193
108185
108268
108451
108828
109506
111156
113723
108471
108298
108226
108224
108310
108490
108855
109500
111151
113828
108340
108163
108085
108073
108145
108311
108655
109276
110866
113659
108407
108238
108188
108230
108372
108618
109038
109724
111279
114071
109873
109785
109753
109776
109855
109992
110188
110439
110731
111011
109692
109575
109535
109566
109673
109865
110151
110539
111042
111560
109482
109344
109299
109333
109457
109683
110036
110546
111295
112131
109301
109147
109094
109125
109255
109500
109902
110512
111503
112682
109118
108947
108887
108909
109034
109282
109710
110385
111587
113107
109029
108852
108784
108800
108919
109161
109599
110310
111688
113516
108848
108659
108586
108591
108700
108929
109364
110091
111605
113717
108862
108676
108601
108610
108722
108951
109386
110116
111710
114047
108719
108529
108451
108452
108554
108772
109195
109927
111532
114097
108771
108589
108529
108569
108719
108992
109465
110243
111841
114548
110136
110074
110052
110068
110124
110216
110343
110494
110654
110792
109999
109906
109874
109899
109984
110131
110339
110601
110903
111179
109830
109709
109670
109700
109808
109999
110280
110655
111135
111606
109664
109521
109472
109504
109626
109850
110196
110681
111364
112083
109492
109327
109270
109297
109424
109665
110057
110631
111514
112504
109401
109226
109161
109183
109311
109560
109984
110625
111695
112956
109217
109028
108957
108972
109095
109343
109783
110471
111705
113239
109224
109034
108960
108978
109105
109359
109814
110535
111892
113668
109074
108880
108803
108815
108937
109185
109641
110389
111810
113845
109115
108927
108862
108901
109055
109341
109832
110621
112066
114297
110314
110274
110260
110270
110306
110364
110441
110527
110613
110680
110217
110150
110125
110144
110206
110310
110451
110619
110797
110945
110096
109998
109966
109991
110078
110226
110437
110700
111001
111269
109956
109832
109789
109818
109924
110113
110392
110758
111213
111646
109806
109657
109605
109632
109750
109967
110302
110762
111382
112009
109723
109560
109499
109525
109650
109886
110266
110806
111593
112431
109546
109365
109298
109318
109445
109691
110102
110708
111653
112717
109551
109367
109296
109319
109452
109710
110147
110805
111885
113166
109399
109208
109135
109154
109285
109544
109993
110693
111867
113391
109433
109246
109180
109218
109371
109656
110132
110872
112089
113801
110437
110413
110404
110411
110433
110468
110512
110561
110606
110641
110372
110325
110308
110321
110364
110433
110525
110629
110732
110814
110296
110221
110196
110215
110281
110390
110539
110717
110906
111061
110183
110083
110047
110071
110158
110307
110520
110785
111086
111350
110062
109934
109890
109915
110017
110200
110470
110822
111250
111649
109995
109849
109795
109821
109935
110145
110466
110900
111464
112017
109830
109664
109603
109626
109747
109975
110336
110842
111543
112269
109840
109669
109603
109629
109758
110002
110398
110965
111791
112692
109689
109509
109440
109464
109595
109846
110261
110877
111800
112905
109720
109542
109477
109514
109659
109930
110368
111022
111998
113253
110527
110512
110507
110511
110524
110544
110569
110596
110621
110638
110481
110451
110439
110448
110476
110520
110577
110640
110700
110745
110444
110390
110372
110386
110432
110509
110611
110727
110843
110935
110357
110279
110251
110270
110337
110450
110605
110790
110986
111150
110266
110162
110125
110146
110230
110377
110585
110844
111136
111391
110217
110094
110048
110071
110170
110346
110605
110939
111337
111702
110068
109923
109870
109892
110001
110200
110503
110907
111416
111909
110089
109935
109877
109903
110022
110241
110582
111047
111662
112288
109940
109776
109715
109740
109863
110093
110457
110973
111674
112454
109972
109810
109749
109783
109917
110163
110548
111098
111851
112742
110595
110587
110584
110586
110594
110605
110619
110634
110647
110656
110560
110541
110534
110539
110557
110584
110619
110657
110691
110717
110555
110518
110505
110514
110546
110598
110665
110739
110810
110863
110488
110430
110409
110423
110472
110554
110663
110789
110915
111016
110425
110344
110315
110332
110397
110510
110664
110849
111044
111207
110395
110295
110257
110277
110358
110500
110701
110948
111224
111464
110263
110141
110096
110116
110209
110376
110618
110929
111291
111624
110297
110166
110115
110140
110244
110432
110712
111079
111526
111955
110153
110009
109956
109980
110090
110291
110596
111010
111529
112066
110190
110046
109992
110022
110141
110355
110680
111124
111688
112304
110651
110646
110644
110645
110650
110656
110664
110672
110679
110684
110620
110608
110604
110607
110618
110634
110655
110677
110697
110711
110639
110614
110605
110612
110633
110666
110709
110755
110798
110829
110585
110544
110528
110538
110573
110630
110705
110788
110869
110931
110548
110487
110465
110478
110527
110610
110721
110849
110977
111080
110534
110456
110426
110443
110506
110616
110766
110944
111132
111288
110418
110319
110283
110301
110377
110509
110697
110928
111181
111403
110469
110360
110318
110340
110427
110581
110803
111082
111400
111689
110327
110206
110162
110183
110277
110445
110692
111011
111386
111749
110372
110251
110204
110230
110331
110510
110774
111120
111531
111948
110698
110695
110695
110695
110697
110701
110705
110709
110713
110716
110666
110659
110656
110658
110664
110674
110687
110700
110711
110720
110705
110689
110683
110687
110701
110722
110749
110777
110802
110820
110657
110629
110618
110625
110649
110687
110737
110791
110842
110881
110642
110598
110582
110591
110627
110686
110763
110849
110933
110998
110642
110584
110561
110573
110622
110703
110811
110937
111063
111163
110540
110463
110434
110448
110508
110610
110750
110917
111090
111236
110607
110521
110488
110505
110576
110697
110866
111072
111294
111485
110468
110369
110333
110351
110428
110562
110754
110994
111258
111500
110523
110424
110385
110407
110489
110634
110840
111101
111393
111670
110740
110738
110738
110738
110740
110742
110744
110746
110748
110750
110702
110699
110697
110698
110702
110708
110715
110723
110729
110735
110759
110748
110745
110748
110756
110769
110786
110802
110817
110827
110711
110693
110685
110689
110705
110731
110763
110798
110830
110854
110714
110683
110672
110679
110704
110744
110797
110854
110908
110948
110725
110682
110665
110675
110710
110768
110844
110930
111014
111078
110633
110575
110553
110564
110609
110685
110786
110904
111020
111116
110717
110652
110626
110640
110694
110786
110912
111059
111211
111335
110577
110499
110471
110485
110546
110650
110794
110968
111150
111309
110645
110567
110536
110553
110618
110731
110887
111077
111280
111462
110779
110778
110778
110778
110779
110780
110781
110782
110783
110784
110732
110730
110729
110730
110732
110736
110740
110745
110749
110752
110805
110798
110797
110798
110803
110811
110821
110831
110839
110844
110752
110740
110735
110738
110748
110764
110785
110807
110827
110842
110771
110750
110742
110747
110764
110791
110825
110862
110896
110921
110787
110757
110746
110752
110777
110817
110870
110927
110982
111022
110704
110662
110646
110654
110686
110741
110812
110892
110969
111031
110805
110757
110738
110749
110789
110856
110946
111048
111150
111229
110659
110600
110579
110590
110636
110713
110817
110940
111064
111168
110743
110684
110660
110674
110723
110807
110921
111056
111194
111311
110816
110815
110816
110816
110816
110817
110817
110818
110818
110818
110756
110756
110755
110755
110756
110759
110761
110764
110767
110769
110846
110842
110841
110843
110846
110850
110856
110861
110866
110868
110784
110776
110773
110774
110781
110791
110804
110818
110830
110840
110815
110801
110796
110800
110811
110828
110850
110874
110895
110910
110834
110814
110806
110811
110827
110855
110890
110927
110962
110987
110757
110728
110717
110722
110745
110782
110831
110884
110934
110974
110875
110842
110828
110836
110865
110912
110975
111044
111111
111160
110720
110676
110660
110668
110702
110757
110831
110915
110997
111064
110823
110780
110762
110772
110808
110869
110949
111042
111133
111208
110854
110853
110853
110853
110854
110854
110854
110854
110854
110854
110775
110774
110774
110774
110775
110776
110778
110780
110782
110784
110884
110883
110882
110883
110885
110888
110891
110894
110896
110896
110809
110803
110801
110802
110806
110812
110820
110829
110836
110843
110850
110841
110838
110840
110847
110859
110872
110887
110900
110908
110870
110856
110851
110854
110865
110883
110905
110929
110952
110967
110798
110778
110770
110774
110790
110815
110847
110881
110913
110938
110932
110910
110900
110906
110926
110959
111001
111046
111090
111119
110761
110730
110719
110725
110748
110786
110836
110892
110945
110989
110890
110860
110847
110854
110879
110921
110977
111038
111098
111144
110896
110895
110896
110896
110896
110896
110896
110896
110896
110895
110786
110785
110785
110785
110786
110787
110788
110790
110791
110794
110921
110921
110921
110922
110923
110924
110926
110927
110928
110927
110828
110824
110823
110823
110826
110830
110834
110840
110844
110848
110877
110871
110869
110871
110875
110882
110890
110899
110907
110912
110894
110885
110882
110883
110891
110902
110916
110932
110946
110955
110829
110816
110811
110814
110824
110840
110860
110882
110901
110917
110979
110965
110958
110962
110975
110997
111024
111054
111082
111098
110787
110765
110757
110761
110777
110802
110835
110872
110905
110934
110953
110932
110923
110928
110945
110974
111011
111050
111089
111116
110955
110954
110955
110955
110955
110955
110954
110954
110954
110953
110787
110786
110786
110786
110786
110787
110788
110789
110791
110794
110954
110955
110955
110955
110956
110957
110957
110958
110958
110956
110842
110840
110840
110840
110842
110844
110847
110849
110852
110855
110895
110892
110890
110891
110893
110898
110903
110908
110913
110916
110908
110902
110900
110901
110905
110912
110921
110931
110940
110946
110851
110843
110841
110843
110849
110859
110872
110885
110896
110905
111012
111003
110998
111000
111009
111023
111041
111060
111079
111088
110794
110779
110775
110777
110787
110804
110825
110848
110868
110888
111026
111013
111007
111010
111021
111040
111064
111089
111114
111129
111055
111055
111055
111055
111055
111055
111055
111055
111054
111053
110769
110767
110767
110767
110768
110768
110769
110770
110772
110776
110976
110976
110975
110975
110975
110976
110977
110978
110979
110977
110854
110853
110853
110853
110854
110856
110857
110859
110859
110861
110904
110902
110901
110901
110903
110905
110909
110912
110916
110918
110912
110908
110906
110907
110910
110914
110920
110926
110932
110936
110866
110862
110860
110862
110866
110872
110880
110888
110894
110899
111020
111013
111009
111010
111016
111025
111037
111050
111063
111069
110776
110767
110764
110766
110773
110783
110796
110811
110822
110835
111134
111126
111121
111123
111131
111143
111158
111174
111191
111200
111224
111224
111224
111223
111223
111223
111223
111223
111223
111223
110716
110716
110717
110718
110718
110718
110718
110718
110718
110720
110972
110970
110968
110967
110967
110968
110969
110971
110974
110975
110865
110865
110866
110866
110867
110868
110868
110869
110869
110869
110908
110906
110905
110905
110906
110908
110910
110913
110915
110917
110911
110908
110907
110907
110909
110912
110916
110920
110924
110928
110876
110874
110873
110874
110877
110881
110886
110891
110895
110897
110987
110980
110977
110978
110982
110988
110996
111006
111017
111024
110720
110715
110713
110715
110720
110727
110736
110744
110750
110757
111299
111293
111290
111291
111296
111305
111316
111327
111340
111344
111413
111411
111409
111408
111408
111409
111409
111411
111413
111417
110640
110645
110649
110651
110652
110652
110650
110648
110643
110636
110946
110942
110939
110938
110938
110938
110940
110942
110946
110952
110879
110879
110880
110880
110881
110881
110882
110882
110882
110881
110911
110910
110909
110909
110909
110911
110913
110915
110917
110920
110913
110910
110909
110909
110911
110913
110916
110920
110924
110927
110888
110886
110885
110886
110888
110892
110896
110901
110904
110905
110933
110927
110924
110925
110928
110933
110940
110948
110957
110967
110645
110643
110643
110644
110648
110654
110661
110668
110671
110669
111476
111471
111468
111469
111473
111481
111489
111499
111509
111513
122828
124041
123867
122601
126031
127437
127040
125428
128945
130532
129947
127969
131084
132787
132016
129760
132723
134505
133561
131101
134052
135893
134952
132374
134963
136836
136026
133379
135778
137657
137008
134323
135698
137550
137043
134365
135296
137134
136885
134359
113178
113368
113408
113289
115445
115816
115876
115590
117673
118227
118287
117783
119783
120503
120551
119802
121706
122562
122579
121573
123533
124498
124480
123261
125047
126097
126050
124672
126538
127647
127581
126095
127315
128455
128388
126849
127965
129140
129121
127629
111980
112069
112098
112072
113291
113459
113499
113433
114721
114988
115041
114913
116170
116542
116604
116393
117566
118041
118101
117786
119018
119594
119646
119215
120289
120956
120999
120449
121655
122399
122431
121768
122469
123261
123287
122529
123287
124116
124159
123346
111127
111150
111161
111162
111870
111924
111944
111938
112770
112874
112908
112884
113776
113945
113995
113941
114778
115019
115082
114985
115884
116203
116276
116121
116868
117265
117345
117122
118012
118480
118562
118266
118718
119237
119324
118963
119492
120053
120158
119757
110838
110847
110853
110853
111301
111326
111337
111337
111867
111917
111937
111933
112552
112636
112668
112658
113254
113381
113426
113402
114071
114248
114306
114262
114790
115020
115090
115016
115697
115980
116059
115949
116268
116592
116684
116541
116943
117303
117415
117249
110698
110702
110705
110705
110994
111003
111009
111010
111373
111393
111404
111406
111847
111886
111905
111907
112348
112412
112441
112441
112959
113055
113095
113090
113481
113611
113664
113649
114198
114366
114429
114399
114651
114848
114925
114881
115201
115426
115518
115461
110649
110651
110652
110653
110838
110843
110845
110846
111111
111121
111127
111128
111446
111465
111476
111479
111812
111845
111863
111867
112278
112329
112356
112360
112654
112728
112764
112767
113225
113323
113369
113367
113569
113688
113745
113738
114000
114137
114204
114192
110643
110644
110644
110644
110758
110760
110761
110762
110960
110965
110968
110969
111200
111210
111216
111218
111475
111493
111503
111507
111839
111867
111883
111888
112111
112153
112176
112182
112571
112628
112659
112665
112813
112885
112923
112928
113149
113232
113277
113279
110659
110659
110659
110659
110723
110724
110725
110726
110877
110880
110881
110882
111044
111050
111053
111054
111254
111264
111270
111272
111541
111557
111567
111571
111737
111761
111776
111781
112113
112147
112166
112172
112267
112311
112335
112341
112533
112583
112611
112616
110685
110685
110685
110685
110715
110716
110716
110716
110837
110838
110839
110839
110948
110951
110953
110954
111108
111114
111117
111119
111334
111344
111350
111352
111469
111483
111492
111496
111781
111801
111814
111818
111866
111893
111908
111913
112081
112111
112129
112134
110716
110716
110717
110717
110722
110722
110722
110722
110825
110825
110825
110826
110891
110893
110894
110894
111015
111018
111020
111021
111191
111197
111201
111202
111276
111285
111291
111293
111541
111553
111560
111563
111571
111587
111597
111600
111750
111768
111780
111783
110750
110750
110750
110750
110736
110736
110736
110736
110830
110830
110830
110830
110860
110861
110862
110862
110958
110960
110961
110961
111095
111099
111101
111102
111140
111146
111149
111151
111369
111377
111381
111383
111354
111364
111370
111372
111510
111522
111529
111531
110784
110784
110784
110784
110753
110753
110753
110753
110846
110846
110846
110845
110846
110846
110847
110847
110927
110928
110928
110929
111033
111036
111037
111038
111046
111049
111051
111053
111251
111256
111259
111260
111196
111202
111206
111208
111340
111348
111352
111354
110818
110818
110818
110818
110770
110770
110770
110770
110869
110869
110868
110868
110842
110842
110843
110843
110913
110913
110914
110914
110995
110996
110997
110998
110983
110985
110986
110987
111174
111177
111178
111179
111082
111086
111089
111090
111226
111230
111233
111234
110854
110854
110854
110854
110785
110785
110785
110785
110897
110897
110896
110896
110844
110844
110845
110845
110910
110910
110911
110911
110972
110973
110974
110974
110943
110944
110944
110945
111128
111130
111131
111131
111001
111004
111005
111006
111155
111157
111159
111160
110895
110895
110895
110895
110794
110794
110795
110795
110927
110927
110927
110927
110849
110849
110849
110849
110913
110913
110913
110913
110959
110960
110960
110960
110918
110919
110919
110920
111105
111106
111107
111107
110941
110943
110944
110945
111122
111123
111124
111125
110953
110953
110952
110952
110795
110795
110795
110795
110958
110958
110957
110957
110854
110854
110854
110854
110917
110917
110917
110917
110949
110950
110950
110950
110904
110904
110904
110905
111093
111094
111095
111095
110892
110894
110894
110895
111131
111131
111132
111133
111052
111052
111052
111052
110775
110776
110776
110777
110980
110980
110980
110980
110859
110859
110859
110859
110919
110919
110919
110920
110939
110940
110940
110940
110896
110895
110895
110896
111077
111079
111079
111079
110837
110838
110839
110839
111200
111200
111200
111202
111222
111223
111222
111222
110717
110717
110718
110718
110982
110983
110983
110983
110866
110865
110865
110865
110919
110919
110920
110920
110930
110931
110931
110931
110893
110892
110892
110892
111037
111040
111041
111040
110753
110752
110752
110752
111350
111350
111351
111352
111418
111419
111420
111420
110621
110618
110617
110617
110962
110964
110965
110966
110877
110876
110876
110876
110922
110922
110922
110923
110929
110930
110930
110930
110901
110900
110900
110901
110985
110989
110990
110989
110645
110639
110638
110642
111535
111538
111538
111536
116261
113759
111844
110564
109763
109246
108893
108644
108465
108329
117314
114147
111790
110399
109579
109058
108711
108471
108303
108178
117666
114175
111512
110201
109382
108866
108520
108280
108117
108010
117634
114056
111165
110019
109218
108736
108405
108178
108021
107913
117330
113812
110836
109815
109020
108573
108255
108041
107892
107797
116935
113663
110642
109753
108957
108548
108240
108038
107893
107790
116277
113386
110328
109576
108771
108401
108099
107907
107765
107671
115845
113396
110302
109692
108872
108536
108226
108031
107877
107758
115117
113058
109984
109553
108756
108467
108150
107950
107789
107662
115555
113753
110652
110246
109328
108935
108505
108218
107986
107790
112739
112001
111345
110796
110344
109977
109679
109439
109247
109097
114350
112996
111870
111022
110383
109903
109542
109267
109056
108897
115629
113692
112160
111093
110312
109751
109344
109044
108824
108674
116594
114159
112289
111091
110228
109635
109212
108907
108683
108528
117195
114401
112261
110985
110070
109468
109042
108741
108518
108372
117648
114627
112269
110963
110016
109420
108998
108703
108483
108330
117779
114640
112103
110800
109832
109252
108834
108546
108328
108181
117977
114829
112154
110892
109912
109351
108930
108638
108413
108246
117754
114627
111905
110749
109799
109270
108843
108545
108312
108136
118160
115138
112379
111245
110220
109617
109112
108751
108469
108243
111917
111604
111254
110917
110612
110346
110118
109925
109765
109635
113078
112443
111779
111204
110733
110353
110047
109799
109600
109445
114257
113215
112198
111381
110747
110261
109887
109597
109374
109215
115345
113870
112520
111512
110755
110197
109778
109462
109221
109048
116248
114342
112686
111523
110673
110067
109622
109292
109042
108869
117098
114794
112864
111586
110666
110032
109572
109237
108983
108801
117677
115016
112846
111488
110516
109869
109401
109065
108808
108630
118315
115367
113004
111609
110602
109952
109476
109132
108868
108673
118481
115315
112864
111507
110509
109869
109382
109029
108756
108552
118984
115732
113234
111872
110819
110126
109584
109186
108880
108641
111140
111045
110911
110760
110604
110454
110314
110188
110076
109983
111865
111639
111354
111062
110786
110537
110318
110129
109969
109839
112715
112284
111779
111304
110886
110531
110236
109992
109795
109648
113627
112943
112196
111539
110987
110539
110179
109891
109662
109490
114466
113494
112494
111666
110997
110474
110066
109747
109495
109314
115338
114059
112808
111830
111062
110483
110040
109700
109434
109238
116013
114422
112930
111824
110975
110355
109886
109533
109256
109059
116792
114910
113205
112005
111095
110446
109957
109588
109302
109087
117162
115032
113195
111960
111024
110360
109852
109472
109176
108954
117766
115460
113525
112242
111253
110548
110002
109589
109270
109023
110845
110806
110744
110669
110587
110502
110420
110342
110271
110210
111311
111216
111080
110924
110762
110605
110458
110326
110210
110113
111875
111685
111430
111158
110896
110654
110439
110252
110094
109972
112552
112229
111822
111416
111041
110711
110429
110190
109992
109838
113222
112731
112149
111601
111116
110705
110364
110084
109854
109682
113974
113288
112517
111828
111241
110761
110371
110058
109805
109612
114586
113682
112714
111893
111214
110675
110246
109908
109636
109436
115344
114218
113063
112129
111372
110786
110325
109964
109677
109458
115776
114445
113149
112138
111327
110708
110220
109843
109544
109318
116373
114863
113453
112374
111511
110854
110335
109933
109618
109373
110702
110685
110657
110620
110577
110531
110485
110440
110397
110360
111002
110960
110893
110809
110718
110624
110531
110445
110366
110299
111388
111302
111172
111020
110860
110702
110554
110420
110302
110208
111872
111719
111501
111259
111015
110785
110576
110391
110233
110104
112380
112135
111806
111459
111125
110822
110554
110323
110128
109978
112987
112629
112171
111713
111288
110914
110593
110323
110098
109921
113487
112991
112391
111818
111305
110867
110499
110197
109946
109757
114158
113513
112768
112087
111494
111000
110592
110261
109992
109781
114565
113771
112899
112129
111469
110932
110493
110142
109858
109639
115085
114152
113179
112338
111628
111054
110589
110216
109919
109685
110651
110643
110629
110610
110587
110562
110537
110511
110487
110465
110842
110820
110785
110740
110688
110632
110576
110522
110471
110427
111120
111076
111005
110917
110820
110719
110621
110529
110445
110378
111465
111387
111265
111119
110963
110807
110659
110523
110403
110302
111843
111716
111527
111310
111085
110868
110667
110488
110331
110207
112321
112130
111859
111560
111262
110983
110731
110511
110322
110170
112705
112433
112066
111678
111304
110964
110665
110409
110191
110022
113272
112906
112435
111957
111510
111114
110773
110485
110246
110054
113608
113139
112567
112007
111497
111056
110681
110372
110115
109914
114030
113470
112819
112198
111642
111167
110768
110439
110171
109956
110644
110639
110632
110622
110610
110597
110583
110569
110555
110542
110760
110749
110730
110705
110675
110643
110609
110576
110545
110517
110964
110941
110901
110850
110791
110728
110664
110603
110547
110502
111211
111168
111098
111009
110910
110807
110705
110609
110522
110447
111496
111426
111314
111177
111028
110877
110732
110598
110479
110382
111871
111766
111602
111408
111202
111001
110811
110640
110489
110364
112158
112004
111778
111518
111252
110998
110764
110558
110377
110235
112625
112415
112118
111790
111463
111159
110886
110648
110445
110278
112871
112596
112226
111832
111452
111106
110801
110541
110319
110142
113208
112876
112450
112008
111588
111213
110885
110607
110375
110185
110659
110657
110653
110647
110641
110634
110626
110618
110611
110604
110725
110719
110708
110694
110677
110659
110639
110619
110600
110583
110879
110866
110843
110812
110777
110738
110698
110659
110622
110593
111051
111026
110985
110931
110868
110801
110733
110668
110607
110553
111267
111226
111158
111072
110974
110871
110770
110674
110586
110513
111562
111501
111400
111274
111135
110993
110855
110727
110611
110513
111769
111679
111537
111365
111180
110995
110819
110659
110516
110400
112153
112030
111841
111619
111387
111161
110951
110762
110597
110458
112315
112152
111915
111645
111370
111109
110870
110659
110475
110326
112584
112387
112112
111806
111500
111213
110954
110728
110535
110374
110685
110684
110682
110679
110675
110672
110667
110663
110659
110655
110716
110713
110707
110699
110690
110679
110667
110656
110645
110633
110838
110830
110817
110799
110777
110754
110729
110704
110681
110663
110951
110937
110912
110879
110840
110797
110753
110709
110668
110631
111115
111091
111049
110995
110931
110863
110794
110726
110664
110612
111347
111310
111247
111166
111073
110975
110878
110785
110699
110625
111490
111435
111346
111232
111105
110975
110847
110727
110617
110527
111808
111734
111613
111465
111304
111141
110984
110840
110711
110600
111900
111802
111650
111468
111275
111083
110902
110738
110591
110470
112118
112000
111824
111616
111399
111187
110990
110813
110657
110526
110716
110716
110715
110713
110711
110709
110707
110704
110702
110700
110722
110721
110717
110713
110708
110701
110695
110688
110681
110674
110824
110820
110812
110801
110788
110774
110759
110743
110729
110719
110893
110885
110870
110849
110825
110798
110770
110741
110714
110689
111019
111004
110978
110944
110903
110858
110812
110766
110723
110687
111199
111177
111137
111085
111024
110958
110891
110825
110764
110709
111290
111256
111199
111125
111039
110949
110858
110771
110690
110623
111557
111512
111435
111338
111227
111113
111000
110893
110795
110710
111593
111533
111436
111315
111181
111045
110911
110788
110675
110581
111774
111703
111591
111452
111302
111150
111004
110870
110750
110647
110750
110749
110749
110748
110747
110746
110744
110743
110742
110741
110736
110735
110734
110731
110728
110725
110721
110717
110713
110708
110829
110826
110821
110815
110807
110799
110789
110780
110772
110766
110862
110856
110847
110835
110820
110803
110785
110767
110749
110732
110960
110951
110935
110913
110887
110858
110828
110797
110768
110745
111100
111086
111061
111028
110988
110944
110899
110854
110811
110773
111149
111128
111092
111043
110986
110925
110862
110800
110742
110694
111379
111352
111303
111239
111165
111086
111007
110930
110859
110795
111368
111331
111269
111189
111099
111003
110908
110818
110734
110663
111526
111483
111411
111320
111218
111112
111007
110909
110819
110741
110784
110784
110783
110783
110782
110782
110781
110780
110779
110779
110753
110753
110752
110751
110749
110747
110745
110743
110740
110736
110845
110843
110840
110836
110831
110826
110821
110815
110810
110808
110847
110844
110839
110831
110822
110812
110800
110789
110777
110766
110928
110922
110912
110899
110882
110864
110844
110824
110805
110790
111036
111028
111012
110991
110965
110936
110906
110876
110847
110821
111052
111038
111015
110984
110947
110906
110863
110821
110780
110747
111257
111240
111209
111168
111119
111066
111011
110958
110908
110861
111205
111182
111142
111090
111030
110965
110898
110835
110773
110722
111351
111324
111279
111220
111152
111080
111007
110937
110872
110815
110818
110818
110818
110818
110817
110817
110817
110816
110816
110816
110771
110770
110770
110769
110768
110767
110766
110765
110763
110760
110867
110866
110864
110862
110859
110856
110853
110850
110847
110847
110843
110841
110838
110834
110828
110822
110815
110808
110801
110793
110914
110910
110904
110895
110885
110873
110861
110848
110837
110827
110997
110991
110982
110968
110952
110934
110914
110894
110875
110857
110987
110978
110964