/*--------------------------------*- C++ -*----------------------------------*\
| =========                 |                                                 |
| \\      /  F ield         | foam-extend: Open Source CFD                    |
|  \\    /   O peration     | Version:     4.0                                |
|   \\  /    A nd           | Web:         http://www.foam-extend.org         |
|    \\/     M anipulation  |                                                 |
\*---------------------------------------------------------------------------*/
FoamFile
{
    version     2.0;
    format      ascii;
    class       surfaceScalarField;
    location    "1000";
    object      phi;
}
// * * * * * * * * * * * * * * * * * * * * * * * * * * * * * * * * * * * * * //

dimensions      [1 0 -1 0 0 0 0];

internalField   nonuniform List<scalar> 
97302
(
-0.000109798
9.97559e-07
-0.000867129
0.000876302
-0.000119567
1.19168e-06
-0.000868154
0.000876732
-0.000129456
1.2544e-06
-0.000868711
0.000877345
-0.000140033
1.19613e-06
-0.000868787
0.000878168
-0.000152127
1.00794e-06
-0.000868374
0.00087946
-0.000167219
6.80023e-07
-0.000867249
0.00088166
-0.000188401
1.86166e-07
-0.000864806
0.000885802
-0.000222675
-5.17875e-07
-0.00085923
0.000894021
-0.000271247
-1.55576e-06
-0.000849515
0.000899645
-4.31163e-06
-0.000822144
-0.000352898
0.000908107
-0.000150932
1.7164e-06
-0.00116294
0.00117291
-0.000161159
2.08802e-06
-0.00116394
0.00117327
-0.00017147
2.21127e-06
-0.00116459
0.00117395
-0.000182401
2.12424e-06
-0.00116468
0.00117468
-0.000194745
1.81268e-06
-0.00116394
0.00117548
-0.000210218
1.2659e-06
-0.00116199
0.00117688
-0.000232668
4.26874e-07
-0.00115844
0.00118065
-0.000271471
-7.99337e-07
-0.00115168
0.00119076
-0.000328207
-2.7186e-06
-0.00113939
0.00119729
-7.28243e-06
-0.00110161
-0.000432574
0.00120894
-0.000191303
2.06968e-06
-0.00145783
0.00146856
-0.000201828
2.57725e-06
-0.0014589
0.00146894
-0.000212309
2.76314e-06
-0.0014596
0.00146953
-0.000223254
2.69202e-06
-0.00145947
0.00146985
-0.000235586
2.34674e-06
-0.00145819
0.00146999
-0.000251439
1.71746e-06
-0.0014556
0.001471
-0.000275289
7.25834e-07
-0.00145178
0.00147533
-0.000318232
-7.25592e-07
-0.00144524
0.00148811
-0.000381487
-3.09289e-06
-0.00143209
0.00149572
-8.87456e-06
-0.00138353
-0.00050042
0.00150406
-0.000231579
2.30473e-06
-0.00174877
0.00175993
-0.000242389
2.95013e-06
-0.00175008
0.00176052
-0.000253158
3.21413e-06
-0.00175104
0.00176136
-0.00026441
3.18471e-06
-0.00175113
0.00176189
-0.000277132
2.83318e-06
-0.00175004
0.00176228
-0.000293645
2.15143e-06
-0.00174771
0.00176379
-0.000318757
1.03811e-06
-0.00174425
0.00176905
-0.000364823
-5.96968e-07
-0.00173812
0.00178406
-0.000432748
-3.36155e-06
-0.00172457
0.00179276
-1.03094e-05
-0.00166495
-0.000560439
0.00179408
-0.000271743
2.55878e-06
-0.00204094
0.00205231
-0.000282715
3.27085e-06
-0.00204264
0.00205329
-0.000293645
3.57274e-06
-0.00204411
0.00205468
-0.000305084
3.56085e-06
-0.00204468
0.00205575
-0.000318087
3.20321e-06
-0.00204415
0.00205678
-0.000335093
2.49104e-06
-0.00204248
0.00205914
-0.000361202
1.30875e-06
-0.00203971
0.00206554
-0.000409796
-4.2542e-07
-0.00203432
0.00208274
-0.00048165
-3.46965e-06
-0.0020212
0.00209316
-1.15166e-05
-0.00194986
-0.000614803
0.00208422
-0.000312458
2.63778e-06
-0.00233176
0.00234344
-0.000323524
3.37368e-06
-0.00233392
0.00234488
-0.000334516
3.66504e-06
-0.00233579
0.00234669
-0.000346009
3.62756e-06
-0.00233681
0.00234824
-0.000359108
3.23725e-06
-0.00233682
0.00234989
-0.000376337
2.49354e-06
-0.00233594
0.00235316
-0.000403069
1.27948e-06
-0.00233413
0.00236089
-0.000453553
-4.69053e-07
-0.00232991
0.00238044
-0.000528711
-3.57475e-06
-0.00231836
0.00239362
-1.24933e-05
-0.002235
-0.000665396
0.00237267
-0.000352987
2.5837e-06
-0.00262243
0.00263425
-0.000363989
3.22615e-06
-0.0026252
0.00263635
-0.000374899
3.44886e-06
-0.00262766
0.00263878
-0.000386298
3.3276e-06
-0.00262917
0.00264087
-0.000399344
2.86456e-06
-0.00262979
0.00264321
-0.00041659
2.05097e-06
-0.00262974
0.00264743
-0.000443658
8.237e-07
-0.00262911
0.00265663
-0.00049548
-8.31667e-07
-0.00262654
0.00267872
-0.000573416
-3.56862e-06
-0.0026177
0.00269563
-1.2702e-05
-0.0025221
-0.000712076
0.00266097
-0.000394789
2.16698e-06
-0.0029137
0.00292597
-0.000405836
2.61914e-06
-0.00291707
0.00292872
-0.00041674
2.65708e-06
-0.00291967
0.00293136
-0.000428087
2.33132e-06
-0.00292116
0.0029335
-0.000440997
1.67504e-06
-0.00292171
0.00293581
-0.000457968
6.833e-07
-0.00292186
0.0029402
-0.000484764
-6.15995e-07
-0.00292194
0.00295017
-0.000536779
-2.15065e-06
-0.00292084
0.00297417
-0.000616185
-3.93631e-06
-0.00291542
0.00299519
-1.19442e-05
-0.00280941
-0.000755223
0.00294769
-0.000436042
1.13445e-06
-0.0032015
0.00321391
-0.00044665
1.20506e-06
-0.00320568
0.0032177
-0.000457144
9.22513e-07
-0.0032089
0.00322112
-0.000468174
1.99636e-07
-0.00321103
0.00322419
-0.000480904
-8.48402e-07
-0.0032124
0.00322766
-0.000497717
-2.19948e-06
-0.00321359
0.00323328
-0.000524371
-3.66954e-06
-0.00321511
0.00324481
-0.000576121
-4.98204e-06
-0.00321632
0.00327091
-0.000655485
-5.39032e-06
-0.00321335
0.00329416
-1.00927e-05
-0.00309675
-0.000792042
0.00323145
-0.000477493
-0.00346985
0.00348283
-0.000488739
-0.00347353
0.00348598
-0.000499836
-0.00347442
0.00348644
-0.00051147
-0.00347212
0.00348396
-0.00052468
-0.00346725
0.00347962
-0.000541592
-0.00346085
0.00347556
-0.000567435
-0.00345406
0.00347624
-0.000616398
-0.00344845
0.00349243
-0.000689419
-0.00344523
0.00351286
-0.00333711
-0.000818377
0.00345598
1.45114e-05
9.39251e-07
-0.000858773
5.46525e-06
1.16887e-06
-0.000860276
-3.61305e-06
1.25313e-06
-0.000860885
-1.2908e-05
1.19907e-06
-0.000860691
-2.26195e-05
9.9684e-07
-0.000859659
-3.2968e-05
6.28196e-07
-0.000857528
-4.4105e-05
5.89924e-08
-0.000853728
-5.54558e-05
-7.89474e-07
-0.000847089
-6.6256e-05
-2.11389e-06
-0.000836601
-3.88552e-06
-0.000820397
-6.41172e-05
1.55746e-05
1.63454e-06
-0.00115322
5.59359e-06
2.061e-06
-0.00115485
-4.39043e-06
2.21938e-06
-0.00115557
-1.46939e-05
2.14482e-06
-0.00115532
-2.55817e-05
1.81608e-06
-0.00115387
-3.74192e-05
1.21129e-06
-0.00115073
-5.10463e-05
2.69083e-07
-0.00114502
-6.75112e-05
-1.12624e-06
-0.00113487
-8.82378e-05
-3.36297e-06
-0.00111742
-6.43035e-06
-0.00108845
-9.88449e-05
1.68957e-05
2.00686e-06
-0.0014469
6.20591e-06
2.58327e-06
-0.00144873
-4.40306e-06
2.81096e-06
-0.00144958
-1.52621e-05
2.75332e-06
-0.00144922
-2.6708e-05
2.37808e-06
-0.00144731
-3.9478e-05
1.66242e-06
-0.00144328
-5.53199e-05
5.15292e-07
-0.00143619
-7.69675e-05
-1.18365e-06
-0.00142354
-0.000108537
-4.02081e-06
-0.00139987
-8.12946e-06
-0.00135633
-0.000134041
1.80907e-05
2.26151e-06
-0.00173713
6.92724e-06
2.99294e-06
-0.00173933
-4.15676e-06
3.30713e-06
-0.00174045
-1.55565e-05
3.29619e-06
-0.00174027
-2.77271e-05
2.91256e-06
-0.0017384
-4.16627e-05
2.13556e-06
-0.00173425
-5.96754e-05
8.33643e-07
-0.00172656
-8.5894e-05
-1.10439e-06
-0.00171198
-0.000127896
-4.47239e-06
-0.00168211
-9.57344e-06
-0.00162228
-0.000169121
1.91757e-05
2.52928e-06
-0.0020289
7.7376e-06
3.33618e-06
-0.00203155
-3.61537e-06
3.69403e-06
-0.00203314
-1.534e-05
3.70648e-06
-0.00203337
-2.80295e-05
3.32077e-06
-0.00203187
-4.28627e-05
2.51537e-06
-0.00202802
-6.26169e-05
1.11976e-06
-0.00202024
-9.27185e-05
-9.66368e-07
-0.00200436
-0.00014468
-4.72566e-06
-0.00196898
-1.06988e-05
-0.00189196
-0.000201459
1.98533e-05
2.64066e-06
-0.00231928
8.25123e-06
3.4797e-06
-0.00232246
-3.22142e-06
3.83432e-06
-0.00232446
-1.50804e-05
3.83136e-06
-0.00232507
-2.80385e-05
3.42414e-06
-0.00232397
-4.34367e-05
2.60037e-06
-0.00232062
-6.44804e-05
1.16955e-06
-0.00231314
-9.77642e-05
-9.58352e-07
-0.00229664
-0.000159109
-4.86417e-06
-0.00225688
-1.15219e-05
-0.00216246
-0.000230826
2.02416e-05
2.57704e-06
-0.00260967
8.67532e-06
3.32039e-06
-0.00261348
-2.73747e-06
3.61131e-06
-0.00261602
-1.45294e-05
3.53723e-06
-0.00261708
-2.75424e-05
3.09035e-06
-0.00261644
-4.32257e-05
2.24004e-06
-0.0026137
-6.51622e-05
8.11742e-07
-0.00260681
-0.000100984
-1.28542e-06
-0.00259039
-0.000170999
-4.94443e-06
-0.00254761
-1.19345e-05
-0.0024359
-0.000256786
1.99674e-05
2.18214e-06
-0.0029005
8.40998e-06
2.73854e-06
-0.00290493
-2.88978e-06
2.87482e-06
-0.00290763
-1.45124e-05
2.64882e-06
-0.00290865
-2.73539e-05
2.08877e-06
-0.00290787
-4.29354e-05
1.1588e-06
-0.0029052
-6.5138e-05
-2.33674e-07
-0.00289869
-0.000102426
-2.19507e-06
-0.00288264
-0.000179837
-4.99698e-06
-0.00283795
-1.16691e-05
-0.00271013
-0.000279382
1.94019e-05
1.14261e-06
-0.00318802
8.32369e-06
1.28925e-06
-0.00319315
-2.46136e-06
1.13623e-06
-0.00319637
-1.35682e-05
5.61026e-07
-0.00319783
-2.60484e-05
-3.06846e-07
-0.00319753
-4.15335e-05
-1.47874e-06
-0.00319547
-6.41079e-05
-2.89862e-06
-0.00318987
-0.000102722
-4.55871e-06
-0.00317535
-0.0001861
-6.02857e-06
-0.00312894
-9.94599e-06
-0.00298273
-0.000301841
1.82399e-05
-0.0034561
6.91029e-06
-0.00346091
-3.92307e-06
-0.00346245
-1.49548e-05
-0.00346053
-2.71233e-05
-0.00345539
-4.20284e-05
-0.00344742
-6.35868e-05
-0.00343541
-0.000100979
-0.00341561
-0.000185757
-0.00336649
-0.00321284
-0.000319977
1.21138e-05
8.32482e-07
-0.000852194
4.53827e-06
1.07723e-06
-0.000853778
-3.1627e-06
1.16848e-06
-0.000854353
-1.09004e-05
1.10737e-06
-0.000854061
-1.85523e-05
8.87321e-07
-0.000852894
-2.58748e-05
4.92525e-07
-0.000850698
-3.23178e-05
-9.91688e-08
-0.000847186
-3.65793e-05
-9.25984e-07
-0.000841902
-3.67845e-05
-2.07282e-06
-0.000834323
-3.35606e-06
-0.0008247
-2.91257e-05
1.4015e-05
1.48901e-06
-0.00114482
5.01834e-06
1.93906e-06
-0.00114672
-4.05229e-06
2.10652e-06
-0.00114744
-1.32879e-05
2.02032e-06
-0.001147
-2.26949e-05
1.65953e-06
-0.00114524
-3.21244e-05
9.99701e-07
-0.00114181
-4.11781e-05
-1.28751e-08
-0.00113606
-4.8707e-05
-1.4504e-06
-0.00112682
-5.22583e-05
-3.53034e-06
-0.00111241
-5.96139e-06
-0.00109314
-4.49627e-05
1.61123e-05
1.89619e-06
-0.00143684
5.94696e-06
2.50326e-06
-0.00143913
-4.22513e-06
2.74085e-06
-0.00144004
-1.45995e-05
2.66527e-06
-0.00143949
-2.52717e-05
2.23924e-06
-0.00143722
-3.6308e-05
1.42795e-06
-0.00143267
-4.78257e-05
1.36374e-07
-0.00142482
-5.93613e-05
-1.7318e-06
-0.00141172
-6.85214e-05
-4.58943e-06
-0.00138965
-8.11419e-06
-0.00135754
-6.51514e-05
1.77439e-05
2.2004e-06
-0.00172604
6.80088e-06
2.97353e-06
-0.00172885
-4.14517e-06
3.29985e-06
-0.00173006
-1.54062e-05
3.26652e-06
-0.00172961
-2.72288e-05
2.81926e-06
-0.00172716
-3.99468e-05
1.92084e-06
-0.00172203
-5.41247e-05
4.23304e-07
-0.00171267
-6.9961e-05
-1.79236e-06
-0.00169608
-8.57664e-05
-5.38967e-06
-0.00166551
-1.00152e-05
-0.00161771
-8.84347e-05
1.91245e-05
2.51237e-06
-0.00201711
7.68453e-06
3.36784e-06
-0.0020205
-3.73753e-06
3.74185e-06
-0.00202216
-1.55623e-05
3.73315e-06
-0.00202201
-2.8216e-05
3.28162e-06
-0.00201968
-4.2285e-05
2.34551e-06
-0.00201438
-5.87865e-05
7.21732e-07
-0.00200403
-7.87192e-05
-1.73577e-06
-0.00198448
-0.000101853
-5.95517e-06
-0.00194528
-1.16136e-05
-0.00187992
-0.000112291
2.00401e-05
2.67231e-06
-0.00230687
8.27629e-06
3.56419e-06
-0.0023109
-3.41744e-06
3.93931e-06
-0.00231297
-1.5556e-05
3.92243e-06
-0.00231313
-2.87233e-05
3.45509e-06
-0.00231098
-4.3755e-05
2.5035e-06
-0.00230575
-6.21545e-05
8.34344e-07
-0.00229485
-8.58263e-05
-1.72133e-06
-0.00227298
-0.00011675
-6.2947e-06
-0.00222561
-1.2822e-05
-0.00214163
-0.00013638
2.05713e-05
2.63186e-06
-0.00259682
8.73923e-06
3.42785e-06
-0.00260151
-2.98717e-06
3.74476e-06
-0.0026041
-1.51689e-05
3.66967e-06
-0.00260465
-2.85554e-05
3.18693e-06
-0.00260279
-4.41903e-05
2.24899e-06
-0.00259781
-6.40605e-05
6.20108e-07
-0.00258673
-9.10066e-05
-1.91973e-06
-0.00256324
-0.000129819
-6.46219e-06
-0.00250863
-1.36309e-05
-0.00240553
-0.000159389
2.03808e-05
2.24809e-06
-0.00288715
8.52827e-06
2.85329e-06
-0.0028925
-3.10822e-06
3.03184e-06
-0.00289528
-1.51526e-05
2.84509e-06
-0.00289578
-2.84478e-05
2.30683e-06
-0.00289369
-4.42245e-05
1.36783e-06
-0.00288854
-6.49364e-05
-1.2428e-07
-0.00287723
-9.43184e-05
-2.43273e-06
-0.00285275
-0.000140507
-6.1733e-06
-0.00279205
-1.34971e-05
-0.00267011
-0.00018067
1.97367e-05
1.22119e-06
-0.00317433
8.34457e-06
1.39977e-06
-0.00318031
-2.78353e-06
1.32561e-06
-0.00318354
-1.4279e-05
8.58599e-07
-0.00318435
-2.71427e-05
1.21132e-07
-0.00318248
-4.28465e-05
-9.09418e-07
-0.00317748
-6.43485e-05
-2.22628e-06
-0.00316626
-9.61681e-05
-3.97366e-06
-0.00314199
-0.000148708
-6.24778e-06
-0.00307632
-1.13755e-05
-0.0029329
-0.00020066
1.85696e-05
-0.00344228
7.09449e-06
-0.00344804
-3.92551e-06
-0.0034501
-1.52069e-05
-0.00344839
-2.76406e-05
-0.00344284
-4.27082e-05
-0.00343326
-6.34068e-05
-0.00341693
-9.51414e-05
-0.00338785
-0.000150487
-0.00331739
-0.00315929
-0.000215414
9.39922e-06
6.67291e-07
-0.000847448
3.54728e-06
9.1518e-07
-0.000848841
-2.49423e-06
1.01011e-06
-0.000849322
-8.45316e-06
9.46924e-07
-0.000849049
-1.40234e-05
7.24174e-07
-0.000848048
-1.87826e-05
3.32873e-07
-0.000846272
-2.20883e-05
-2.34058e-07
-0.000843646
-2.29019e-05
-9.79267e-07
-0.000840109
-1.9639e-05
-1.90045e-06
-0.000835685
-2.79203e-06
-0.000830852
-1.06952e-05
1.1836e-05
1.24688e-06
-0.0011381
4.23824e-06
1.70663e-06
-0.00113991
-3.49979e-06
1.87883e-06
-0.00114057
-1.1241e-05
1.78478e-06
-0.00114009
-1.87697e-05
1.40777e-06
-0.00113839
-2.56975e-05
7.29711e-07
-0.00113528
-3.12653e-05
-2.8136e-07
-0.00113044
-3.39556e-05
-1.64784e-06
-0.00112346
-3.09309e-05
-3.43296e-06
-0.0011139
-5.26434e-06
-0.00110328
-1.83255e-05
1.4538e-05
1.67752e-06
-0.00142818
5.39215e-06
2.30026e-06
-0.00143058
-3.83226e-06
2.54046e-06
-0.00143148
-1.31367e-05
2.44429e-06
-0.00143085
-2.24153e-05
1.97601e-06
-0.00142851
-3.13755e-05
1.10105e-06
-0.00142409
-3.93413e-05
-2.58633e-07
-0.00141688
-4.47049e-05
-2.15562e-06
-0.00140585
-4.35444e-05
-4.7881e-06
-0.00138945
-7.66059e-06
-0.0013698
-2.88914e-05
1.66096e-05
2.03255e-06
-0.00171603
6.35779e-06
2.83409e-06
-0.00171914
-3.96868e-06
3.16419e-06
-0.00172036
-1.45092e-05
3.10059e-06
-0.00171973
-2.53104e-05
2.5894e-06
-0.00171697
-3.62873e-05
1.58879e-06
-0.00171154
-4.69753e-05
-3.82269e-08
-0.0017022
-5.57938e-05
-2.38292e-06
-0.00168704
-5.78973e-05
-5.87113e-06
-0.00166232
-9.87366e-06
-0.00163032
-4.3077e-05
1.8341e-05
2.39432e-06
-0.00200611
7.31566e-06
3.28777e-06
-0.00200993
-3.75281e-06
3.66952e-06
-0.0020116
-1.51435e-05
3.62779e-06
-0.00201115
-2.70955e-05
3.10095e-06
-0.00200824
-3.97749e-05
2.03771e-06
-0.00200215
-5.30236e-05
2.36466e-07
-0.00199106
-6.54815e-05
-2.44693e-06
-0.00197196
-7.19099e-05
-6.71624e-06
-0.00193801
-1.18528e-05
-0.00189104
-5.88114e-05
1.95557e-05
2.61427e-06
-0.00229502
7.99277e-06
3.5503e-06
-0.00229959
-3.55677e-06
3.93777e-06
-0.00230169
-1.54985e-05
3.89364e-06
-0.00230145
-2.82482e-05
3.35327e-06
-0.00229848
-4.22472e-05
2.26851e-06
-0.00229198
-5.77406e-05
3.94029e-07
-0.00227951
-7.37997e-05
-2.46578e-06
-0.0022569
-8.54755e-05
-7.26913e-06
-0.00221339
-1.34203e-05
-0.00214956
-7.59714e-05
2.02948e-05
2.61835e-06
-0.00258431
8.50808e-06
3.46007e-06
-0.00258963
-3.22131e-06
3.7943e-06
-0.00259223
-1.53776e-05
3.70266e-06
-0.0025923
-2.85632e-05
3.16065e-06
-0.00258941
-4.34781e-05
2.10935e-06
-0.00258274
-6.0828e-05
2.88283e-07
-0.00256927
-8.02562e-05
-2.58429e-06
-0.0025437
-9.77838e-05
-7.55306e-06
-0.00249082
-1.45826e-05
-0.00240887
-9.32766e-05
2.02626e-05
2.26387e-06
-0.00287404
8.38227e-06
2.91156e-06
-0.00288008
-3.33195e-06
3.1194e-06
-0.00288289
-1.54493e-05
2.95084e-06
-0.00288291
-2.86841e-05
2.40217e-06
-0.0028797
-4.39829e-05
1.41678e-06
-0.00287255
-6.2577e-05
-1.99016e-07
-0.00285815
-8.48248e-05
-2.80502e-06
-0.00283028
-0.000108396
-7.09964e-06
-0.00276894
-1.45864e-05
-0.00266828
-0.000110217
1.96878e-05
1.27105e-06
-0.00316079
8.20874e-06
1.47721e-06
-0.00316739
-3.05957e-06
1.46719e-06
-0.00317062
-1.4689e-05
1.08422e-06
-0.00317086
-2.75325e-05
4.39297e-07
-0.00316767
-4.27687e-05
-5.059e-07
-0.00316033
-6.22485e-05
-1.78652e-06
-0.0031452
-8.74404e-05
-3.63567e-06
-0.00311596
-0.000116917
-6.37122e-06
-0.00304758
-1.20765e-05
-0.00292557
-0.000126752
1.85966e-05
-0.00342864
7.15552e-06
-0.00343512
-3.89423e-06
-0.00343758
-1.52296e-05
-0.00343597
-2.76197e-05
-0.00343001
-4.22824e-05
-0.00341911
-6.11686e-05
-0.00339983
-8.68369e-05
-0.00336582
-0.00011954
-0.00329106
-0.00315141
-0.000139497
6.89715e-06
4.84792e-07
-0.000844181
2.63394e-06
7.1934e-07
-0.000845298
-1.83483e-06
8.12358e-07
-0.000845665
-6.17968e-06
7.52365e-07
-0.000845456
-1.00562e-05
5.42833e-07
-0.000844715
-1.30592e-05
1.82732e-07
-0.000843452
-1.46941e-05
-3.19668e-07
-0.000841692
-1.43556e-05
-9.43549e-07
-0.000839504
-1.13697e-05
-1.64422e-06
-0.000837027
-2.26179e-06
-0.000834521
-5.439e-06
9.47532e-06
9.53842e-07
-0.00113298
3.3979e-06
1.40223e-06
-0.00113452
-2.86535e-06
1.57229e-06
-0.00113507
-9.03502e-06
1.47666e-06
-0.00113465
-1.47689e-05
1.10434e-06
-0.00113322
-1.95969e-05
4.48464e-07
-0.00113072
-2.28026e-05
-4.96531e-07
-0.00112706
-2.328e-05
-1.70928e-06
-0.00112222
-1.93621e-05
-3.15002e-06
-0.00111631
-4.48997e-06
-0.00111052
-9.89345e-06
1.25364e-05
1.37678e-06
-0.00142109
4.69593e-06
1.99523e-06
-0.00142333
-3.28829e-06
2.23162e-06
-0.00142416
-1.12346e-05
2.11963e-06
-0.00142354
-1.88687e-05
1.62873e-06
-0.0014214
-2.57192e-05
7.34269e-07
-0.00141752
-3.09098e-05
-6.10835e-07
-0.00141157
-3.286e-05
-2.40936e-06
-0.0014032
-2.86798e-05
-4.68623e-06
-0.0013921
-6.92657e-06
-0.00138052
-1.55282e-05
1.49577e-05
1.76402e-06
-0.00170743
5.74365e-06
2.57782e-06
-0.0017105
-3.62002e-06
2.90617e-06
-0.00171167
-1.30698e-05
2.81424e-06
-0.00171097
-2.24434e-05
2.25306e-06
-0.00170822
-3.1378e-05
1.18705e-06
-0.00170306
-3.89825e-05
-4.87712e-07
-0.00169472
-4.33245e-05
-2.81305e-06
-0.00168229
-4.00795e-05
-5.97404e-06
-0.00166428
-9.25888e-06
-0.00164407
-2.39995e-05
1.7025e-05
2.16758e-06
-0.00199626
6.76869e-06
3.08699e-06
-0.00200018
-3.60296e-06
3.47164e-06
-0.00200179
-1.41709e-05
3.39542e-06
-0.00200116
-2.49436e-05
2.7995e-06
-0.00199801
-3.57479e-05
1.63296e-06
-0.00199179
-4.581e-05
-2.76195e-07
-0.00198121
-5.30007e-05
-3.03036e-06
-0.00196455
-5.16789e-05
-7.04834e-06
-0.00193826
-1.14511e-05
-0.00190673
-3.37966e-05
1.85543e-05
2.44816e-06
-0.0022841
7.53073e-06
3.42051e-06
-0.0022889
-3.55138e-06
3.81629e-06
-0.00229095
-1.49174e-05
3.74096e-06
-0.00229043
-2.67471e-05
3.12772e-06
-0.00228698
-3.91111e-05
1.92207e-06
-0.00227991
-5.14882e-05
-1.02898e-07
-0.00226731
-6.1765e-05
-3.11839e-06
-0.00224654
-6.33575e-05
-7.79241e-06
-0.00221105
-1.32581e-05
-0.00216595
-4.51599e-05
1.95339e-05
2.51053e-06
-0.00257254
8.10439e-06
3.39445e-06
-0.00257818
-3.33427e-06
3.74336e-06
-0.00258072
-1.51129e-05
3.63077e-06
-0.00258041
-2.76041e-05
3.02474e-06
-0.00257682
-4.11355e-05
1.85784e-06
-0.00256914
-5.55394e-05
-1.25852e-07
-0.00255484
-6.88941e-05
-3.19962e-06
-0.00253026
-7.4174e-05
-8.18938e-06
-0.00248514
-1.4647e-05
-0.00242466
-5.69927e-05
1.97063e-05
2.19726e-06
-0.00286153
8.07755e-06
2.88851e-06
-0.00286794
-3.45519e-06
3.1216e-06
-0.00287074
-1.53348e-05
2.96304e-06
-0.00287036
-2.80587e-05
2.39271e-06
-0.00286635
-4.22069e-05
1.34593e-06
-0.00285789
-5.80841e-05
-3.89245e-07
-0.00284201
-7.42232e-05
-3.19451e-06
-0.00281415
-8.38024e-05
-7.68099e-06
-0.00275987
-1.47659e-05
-0.0026828
-6.91677e-05
1.92606e-05
1.27115e-06
-0.00314771
7.94529e-06
1.50584e-06
-0.00315469
-3.23453e-06
1.55206e-06
-0.00315787
-1.47321e-05
1.23738e-06
-0.00315763
-2.71921e-05
6.61989e-07
-0.00315348
-4.14003e-05
-2.28147e-07
-0.00314454
-5.81564e-05
-1.50035e-06
-0.00312733
-7.70983e-05
-3.42375e-06
-0.00309679
-9.14631e-05
-6.35195e-06
-0.00303454
-1.19416e-05
-0.00293828
-8.15809e-05
1.82798e-05
-0.00341549
7.07587e-06
-0.00342241
-3.81935e-06
-0.00342514
-1.49896e-05
-0.00342356
-2.70293e-05
-0.00341731
-4.08084e-05
-0.00340556
-5.72737e-05
-0.00338487
-7.68991e-05
-0.00334962
-9.40479e-05
-0.00328026
-0.00316645
-9.09437e-05
4.85104e-06
3.12964e-07
-0.000841995
1.88335e-06
5.21183e-07
-0.000842851
-1.27234e-06
6.07357e-07
-0.000843117
-4.30764e-06
5.54601e-07
-0.000842975
-6.9159e-06
3.7028e-07
-0.000842477
-8.774e-06
5.92607e-08
-0.000841653
-9.55159e-06
-3.60294e-07
-0.000840554
-8.93256e-06
-8.56878e-07
-0.000839266
-6.68467e-06
-1.37487e-06
-0.0008379
-1.80283e-06
-0.000836507
-2.89535e-06
7.23736e-06
6.51156e-07
-0.00112924
2.59377e-06
1.06744e-06
-0.00113042
-2.24937e-06
1.22822e-06
-0.00113085
-6.96104e-06
1.13779e-06
-0.00113052
-1.11686e-05
7.90709e-07
-0.00112943
-1.44296e-05
1.91234e-07
-0.00112759
-1.61832e-05
-6.4449e-07
-0.00112502
-1.57453e-05
-1.66875e-06
-0.00112184
-1.23287e-05
-2.79616e-06
-0.00111831
-3.77485e-06
-0.00111513
-5.74537e-06
1.03941e-05
1.0329e-06
-0.00141554
3.94672e-06
1.62348e-06
-0.00141744
-2.68789e-06
1.84864e-06
-0.00141814
-9.20595e-06
1.729e-06
-0.00141761
-1.52342e-05
1.24083e-06
-0.00141582
-2.02526e-05
3.73806e-07
-0.00141268
-2.34622e-05
-8.84935e-07
-0.00140812
-2.36842e-05
-2.49666e-06
-0.00140215
-1.92076e-05
-4.38684e-06
-0.00139498
-6.11529e-06
-0.00138819
-9.19441e-06
1.30011e-05
1.42338e-06
-0.00170034
5.02762e-06
2.22724e-06
-0.00170313
-3.15966e-06
2.54711e-06
-0.00170418
-1.1324e-05
2.4341e-06
-0.00170351
-1.914e-05
1.84745e-06
-0.00170102
-2.60946e-05
7.65312e-07
-0.00169649
-3.12282e-05
-8.72167e-07
-0.0016896
-3.28852e-05
-3.05413e-06
-0.00168008
-2.80759e-05
-5.79228e-06
-0.00166768
-8.42725e-06
-0.00165517
-1.46655e-05
1.53196e-05
1.8502e-06
-0.00198777
6.0959e-06
2.77637e-06
-0.00199151
-3.3145e-06
3.15774e-06
-0.00199299
-1.2796e-05
3.05174e-06
-0.0019923
-2.21468e-05
2.40643e-06
-0.00198922
-3.09522e-05
1.18037e-06
-0.0019834
-3.8201e-05
-7.5085e-07
-0.00197408
-4.18415e-05
-3.43048e-06
-0.00196054
-3.74322e-05
-7.03138e-06
-0.00194143
-1.06865e-05
-0.0019209
-2.10014e-05
1.71266e-05
2.18174e-06
-0.0022744
6.92988e-06
3.17573e-06
-0.00227911
-3.40284e-06
3.57454e-06
-0.00228103
-1.38968e-05
3.46962e-06
-0.00228035
-2.44924e-05
2.79673e-06
-0.00227677
-3.49478e-05
1.50454e-06
-0.00226977
-4.43354e-05
-5.91571e-07
-0.00225808
-5.03721e-05
-3.60821e-06
-0.00224032
-4.72256e-05
-7.92089e-06
-0.00221331
-1.25967e-05
-0.00218262
-2.86462e-05
1.83405e-05
2.30816e-06
-0.00256181
7.55804e-06
3.22516e-06
-0.00256744
-3.31097e-06
3.58517e-06
-0.00256986
-1.44085e-05
3.45187e-06
-0.0025693
-2.58555e-05
2.78985e-06
-0.00256536
-3.76229e-05
1.53075e-06
-0.0025574
-4.89837e-05
-5.51837e-07
-0.00254352
-5.75826e-05
-3.67858e-06
-0.00252159
-5.643e-05
-8.4008e-06
-0.00248581
-1.40595e-05
-0.00244303
-3.66057e-05
1.87372e-05
2.04295e-06
-0.0028499
7.63365e-06
2.77478e-06
-0.00285639
-3.45662e-06
3.02872e-06
-0.00285909
-1.4809e-05
2.87507e-06
-0.00285843
-2.66734e-05
2.28088e-06
-0.00285397
-3.92459e-05
1.18014e-06
-0.00284497
-5.21395e-05
-6.32039e-07
-0.00282904
-6.32087e-05
-3.50119e-06
-0.00280325
-6.48215e-05
-7.87378e-06
-0.00275878
-1.4201e-05
-0.00270239
-4.50839e-05
1.84529e-05
1.21477e-06
-0.00313542
7.55688e-06
1.47653e-06
-0.0031425
-3.29253e-06
1.57063e-06
-0.00314556
-1.43879e-05
1.30978e-06
-0.00314497
-2.61406e-05
7.8519e-07
-0.00314023
-3.89377e-05
-6.81666e-08
-0.0031305
-5.27332e-05
-1.33488e-06
-0.00311283
-6.61452e-05
-3.26735e-06
-0.00308361
-7.11881e-05
-6.16912e-06
-0.0030312
-1.11578e-05
-0.00295882
-5.36918e-05
1.76109e-05
-0.00340311
6.85535e-06
-0.00341018
-3.68522e-06
-0.00341303
-1.4461e-05
-0.00341148
-2.58619e-05
-0.00340512
-3.83907e-05
-0.00339309
-5.21889e-05
-0.0033724
-6.64064e-05
-0.00333867
-7.36188e-05
-0.00327922
-0.00319158
-5.96546e-05
3.31568e-06
1.68768e-07
-0.000840539
1.31546e-06
3.43634e-07
-0.000841194
-8.39445e-07
4.19818e-07
-0.000841382
-2.897e-06
3.76387e-07
-0.000841294
-4.61662e-06
2.23367e-07
-0.00084098
-5.76464e-06
-3.12967e-08
-0.000840474
-6.13587e-06
-3.65247e-07
-0.000839817
-5.5776e-06
-7.45487e-07
-0.000839079
-4.04024e-06
-1.1207e-06
-0.000838316
-1.41645e-06
-0.000837453
-1.67776e-06
5.30003e-06
3.70821e-07
-0.00112655
1.88422e-06
7.39395e-07
-0.0011274
-1.71795e-06
8.85055e-07
-0.00112771
-5.18997e-06
8.0515e-07
-0.00112748
-8.19083e-06
4.98729e-07
-0.00112671
-1.03564e-05
-2.16908e-08
-0.00112543
-1.12913e-05
-7.26264e-07
-0.00112373
-1.06092e-05
-1.55603e-06
-0.00112172
-8.0055e-06
-2.41691e-06
-0.00111961
-3.1297e-06
-0.00111782
-3.60477e-06
8.32665e-06
6.83709e-07
-0.0014113
3.21048e-06
1.22389e-06
-0.00141281
-2.10791e-06
1.4304e-06
-0.00141337
-7.27477e-06
1.31174e-06
-0.00141295
-1.18898e-05
8.50832e-07
-0.00141156
-1.5466e-05
5.11949e-08
-0.00140918
-1.73733e-05
-1.07161e-06
-0.00140587
-1.68484e-05
-2.45071e-06
-0.00140178
-1.30325e-05
-3.96705e-06
-0.00139725
-5.28663e-06
-0.00139322
-5.84864e-06
1.09309e-05
1.04615e-06
-0.00169469
4.26592e-06
1.81479e-06
-0.00169706
-2.65425e-06
2.11827e-06
-0.00169795
-9.48004e-06
1.99379e-06
-0.00169737
-1.57932e-05
1.41032e-06
-0.00169526
-2.10366e-05
3.62675e-07
-0.00169156
-2.43596e-05
-1.1656e-06
-0.00168618
-2.45555e-05
-3.11878e-06
-0.00167921
-1.98604e-05
-5.40388e-06
-0.00167094
-7.48382e-06
-0.00166321
-9.62594e-06
1.33713e-05
1.47124e-06
-0.0019807
5.34016e-06
2.37901e-06
-0.00198404
-2.93464e-06
2.74905e-06
-0.00198535
-1.11816e-05
2.62171e-06
-0.00198468
-1.90471e-05
1.95483e-06
-0.0019819
-2.59847e-05
7.22789e-07
-0.00197682
-3.09827e-05
-1.14529e-06
-0.0019691
-3.23892e-05
-3.63258e-06
-0.00195862
-2.72496e-05
-6.73409e-06
-0.00194524
-9.70368e-06
-0.00193201
-1.39166e-05
1.53755e-05
1.83562e-06
-0.00226604
6.22115e-06
2.82928e-06
-0.0022704
-3.13948e-06
3.22367e-06
-0.00227215
-1.25505e-05
3.09477e-06
-0.00227142
-2.17562e-05
2.38521e-06
-0.002268
-3.02993e-05
1.0554e-06
-0.00226156
-3.71146e-05
-1.02351e-06
-0.00225139
-4.01985e-05
-3.90123e-06
-0.00223697
-3.52719e-05
-7.71185e-06
-0.00221726
-1.16026e-05
-0.00219674
-1.92574e-05
1.67805e-05
2.02334e-06
-0.00255233
6.88963e-06
2.9569e-06
-0.00255768
-3.16482e-06
3.32207e-06
-0.0025599
-1.33359e-05
3.17144e-06
-0.0025592
-2.35186e-05
2.47057e-06
-0.00255526
-3.34031e-05
1.15896e-06
-0.00254762
-4.19736e-05
-9.42267e-07
-0.00253503
-4.69931e-05
-3.97591e-06
-0.0025165
-4.28702e-05
-8.23329e-06
-0.00248941
-1.30043e-05
-0.00245983
-2.46659e-05
1.73946e-05
1.80637e-06
-0.00283942
7.06295e-06
2.56938e-06
-0.00284567
-3.34095e-06
2.83806e-06
-0.0028482
-1.39119e-05
2.6867e-06
-0.00284738
-2.4665e-05
2.07386e-06
-0.00284282
-3.5469e-05
9.39865e-07
-0.00283394
-4.54993e-05
-8.92242e-07
-0.00281906
-5.25137e-05
-3.68865e-06
-0.00279653
-4.99661e-05
-7.70251e-06
-0.00276186
-1.30616e-05
-0.00272172
-3.05815e-05
1.72836e-05
1.10201e-06
-0.0031242
7.04761e-06
1.38565e-06
-0.00313108
-3.23525e-06
1.51852e-06
-0.00313396
-1.36775e-05
1.29916e-06
-0.00313314
-2.44617e-05
8.12452e-07
-0.00312819
-3.56269e-05
-1.11081e-08
-0.00311838
-4.65653e-05
-1.25912e-06
-0.00310152
-5.54204e-05
-3.132e-06
-0.00307531
-5.50582e-05
-5.84084e-06
-0.00303343
-9.98587e-06
-0.00298076
-3.61952e-05
1.66012e-05
-0.00339178
6.49801e-06
-0.00339869
-3.48701e-06
-0.00340152
-1.36481e-05
-0.00340002
-2.41667e-05
-0.00339379
-3.52083e-05
-0.00338206
-4.63556e-05
-0.00336252
-5.60491e-05
-0.00333211
-5.73165e-05
-0.00328379
-0.00321913
-3.97469e-05
2.22946e-06
5.8558e-08
-0.000839559
9.11619e-07
1.99094e-07
-0.000840076
-5.26375e-07
2.64224e-07
-0.000840208
-1.89324e-06
2.30418e-07
-0.000840158
-3.01361e-06
1.09336e-07
-0.000839969
-3.72685e-06
-9.04151e-08
-0.00083967
-3.9085e-06
-3.46393e-07
-0.000839289
-3.48674e-06
-6.2928e-07
-0.000838872
-2.47076e-06
-8.97294e-07
-0.000838435
-1.10182e-06
-0.000837832
-9.89999e-07
3.7309e-06
1.32416e-07
-0.00112463
1.29665e-06
4.45229e-07
-0.00112521
-1.29533e-06
5.72304e-07
-0.00112543
-3.77776e-06
5.05973e-07
-0.00112527
-5.86934e-06
2.48398e-07
-0.00112475
-7.29294e-06
-1.83454e-07
-0.00112392
-7.78509e-06
-7.54097e-07
-0.00112283
-7.1389e-06
-1.40397e-06
-0.00112159
-5.26314e-06
-2.0479e-06
-0.00112034
-2.56241e-06
-0.00111928
-2.34035e-06
6.47602e-06
3.59286e-07
-0.00140814
2.53758e-06
8.3186e-07
-0.00140926
-1.59247e-06
1.01368e-06
-0.00140968
-5.56836e-06
9.0311e-07
-0.00140938
-9.01566e-06
4.88389e-07
-0.00140835
-1.15216e-05
-2.16603e-07
-0.00140664
-1.26247e-05
-1.17801e-06
-0.00140434
-1.18641e-05
-2.31561e-06
-0.00140163
-8.8658e-06
-3.50052e-06
-0.00139879
-4.49228e-06
-0.00139636
-3.79518e-06
8.90902e-06
6.66991e-07
-0.0016903
3.51178e-06
1.37646e-06
-0.00169221
-2.15483e-06
1.65571e-06
-0.00169292
-7.69267e-06
1.52944e-06
-0.00169246
-1.26578e-05
9.76068e-07
-0.00169078
-1.65233e-05
5.90086e-09
-0.00168792
-1.86069e-05
-1.36309e-06
-0.00168391
-1.81012e-05
-3.04511e-06
-0.00167899
-1.40832e-05
-4.89624e-06
-0.00167356
-6.50545e-06
-0.00166877
-6.5082e-06
1.133e-05
1.06376e-06
-0.00197499
4.54936e-06
1.92574e-06
-0.00197781
-2.50848e-06
2.27546e-06
-0.00197891
-9.47383e-06
2.13688e-06
-0.00197832
-1.59108e-05
1.47876e-06
-0.00197596
-2.12376e-05
2.93467e-07
-0.00197178
-2.45648e-05
-1.44088e-06
-0.0019657
-2.46844e-05
-3.65833e-06
-0.00195788
-1.98492e-05
-6.24309e-06
-0.00194873
-8.60121e-06
-0.00194025
-9.52234e-06
1.34253e-05
1.4379e-06
-0.00225907
5.44407e-06
2.40433e-06
-0.0022629
-2.79541e-06
2.78517e-06
-0.00226442
-1.09998e-05
2.64055e-06
-0.00226371
-1.87813e-05
1.92281e-06
-0.00226066
-2.55731e-05
6.09417e-07
-0.00225509
-3.03492e-05
-1.37074e-06
-0.00224668
-3.15272e-05
-4.00355e-06
-0.00223545
-2.63307e-05
-7.24926e-06
-0.00222145
-1.04001e-05
-0.00220786
-1.34122e-05
1.49488e-05
1.67639e-06
-0.00254421
6.1293e-06
2.60381e-06
-0.00254906
-2.91889e-06
2.96603e-06
-0.00255103
-1.19873e-05
2.80391e-06
-0.0025503
-2.07977e-05
2.08767e-06
-0.00254662
-2.88616e-05
7.71741e-07
-0.00253972
-3.50898e-05
-1.26753e-06
-0.00252891
-3.75925e-05
-4.08936e-06
-0.00251391
-3.24456e-05
-7.77507e-06
-0.00249404
-1.16545e-05
-0.00247387
-1.71522e-05
1.57493e-05
1.50074e-06
-0.00283022
6.38818e-06
2.27932e-06
-0.00283598
-3.12268e-06
2.55498e-06
-0.00283828
-1.27103e-05
2.40587e-06
-0.00283739
-2.21947e-05
1.78631e-06
-0.00283304
-3.12114e-05
6.49687e-07
-0.0028248
-3.87395e-05
-1.14063e-06
-0.00281166
-4.27305e-05
-3.75627e-06
-0.00279287
-3.8324e-05
-7.2684e-06
-0.00276677
-1.15919e-05
-0.00273873
-2.13785e-05
1.58025e-05
9.38645e-07