/*--------------------------------*- C++ -*----------------------------------*\
| =========                 |                                                 |
| \\      /  F ield         | foam-extend: Open Source CFD                    |
|  \\    /   O peration     | Version:     4.0                                |
|   \\  /    A nd           | Web:         http://www.foam-extend.org         |
|    \\/     M anipulation  |                                                 |
\*---------------------------------------------------------------------------*/
FoamFile
{
    version     2.0;
    format      ascii;
    class       volScalarField;
    location    "1000";
    object      rho;
}
// * * * * * * * * * * * * * * * * * * * * * * * * * * * * * * * * * * * * * //

dimensions      [1 -3 0 0 0 0 0];

internalField   nonuniform List<scalar> 
34480
(
1.34786
1.34714
1.34701
1.34745
1.34863
1.3509
1.35506
1.36309
1.37369
1.37803
1.34884
1.34816
1.34808
1.34851
1.34962
1.35176
1.35578
1.36383
1.37554
1.37718
1.34756
1.34689
1.34687
1.34722
1.34817
1.34999
1.35372
1.36139
1.37347
1.36981
1.34623
1.34565
1.34568
1.34602
1.34685
1.34838
1.35171
1.35865
1.37049
1.36125
1.34487
1.34429
1.34437
1.34466
1.34539
1.34664
1.34958
1.35576
1.3671
1.35274
1.34447
1.34403
1.34416
1.34449
1.34515
1.34619
1.34875
1.35414
1.36467
1.34552
1.34293
1.34247
1.34265
1.34295
1.34358
1.34446
1.34672
1.35142
1.36098
1.33788
1.34353
1.34326
1.34356
1.34409
1.34494
1.34603
1.34827
1.35248
1.3608
1.33381
1.34198
1.34173
1.34203
1.3426
1.34357
1.3449
1.34722
1.35111
1.3579
1.32788
1.33923
1.3392
1.34003
1.34152
1.3437
1.34659
1.35055
1.35595
1.3629
1.32906
1.35464
1.35354
1.35314
1.35336
1.35429
1.35608
1.35895
1.36324
1.37003
1.37892
1.35526
1.35401
1.35357
1.35379
1.35478
1.35673
1.36008
1.36571
1.37589
1.39059
1.35368
1.35234
1.35188
1.35201
1.35289
1.35473
1.35817
1.36447
1.37734
1.39625
1.35214
1.35075
1.35023
1.35027
1.35102
1.35265
1.35593
1.36223
1.37668
1.39845
1.35068
1.34918
1.34861
1.3485
1.34909
1.35042
1.35339
1.35934
1.37465
1.39814
1.3502
1.34872
1.34808
1.3479
1.34834
1.3494
1.35198
1.35732
1.37283
1.39683
1.34864
1.34706
1.34638
1.34607
1.34636
1.34715
1.34936
1.35403
1.36928
1.39318
1.34921
1.34771
1.34703
1.34681
1.34718
1.34799
1.35004
1.3541
1.36851
1.39142
1.34768
1.34615
1.34543
1.34514
1.34542
1.34622
1.34816
1.35185
1.36486
1.38724
1.34502
1.34357
1.34318
1.34354
1.34466
1.3465
1.34947
1.35407
1.36662
1.38773
1.35929
1.35836
1.35804
1.35828
1.35916
1.36074
1.36313
1.3664
1.37051
1.375
1.35985
1.35867
1.35828
1.35858
1.35966
1.36165
1.36473
1.3692
1.37579
1.38363
1.35809
1.35677
1.35637
1.35667
1.35781
1.35995
1.36344
1.36893
1.37817
1.38976
1.35632
1.35492
1.35445
1.3547
1.35583
1.35799
1.36172
1.36781
1.37914
1.39415
1.35467
1.35313
1.35262
1.35276
1.3538
1.35586
1.35961
1.36592
1.37885
1.39685
1.35396
1.35242
1.35185
1.35192
1.35287
1.35478
1.35843
1.36466
1.37869
1.39901
1.35221
1.35058
1.34997
1.34993
1.35076
1.35248
1.35595
1.36197
1.37668
1.39887
1.35262
1.35104
1.35043
1.35045
1.3513
1.35302
1.35642
1.3622
1.37699
1.40023
1.35102
1.34941
1.34874
1.34867
1.34939
1.35099
1.35425
1.35994
1.37416
1.39848
1.34833
1.34677
1.34632
1.3467
1.34797
1.35021
1.35408
1.36035
1.37436
1.39898
1.36248
1.3618
1.36156
1.36175
1.36241
1.36353
1.3651
1.36705
1.36918
1.371
1.36331
1.36231
1.36197
1.36223
1.36315
1.36476
1.36712
1.37022
1.37409
1.37781
1.36176
1.36053
1.36015
1.36045
1.36152
1.36345
1.36642
1.3706
1.37668
1.38312
1.36002
1.35864
1.35818
1.35846
1.3596
1.36174
1.3652
1.37032
1.3786
1.38801
1.35837
1.35682
1.3563
1.35651
1.35764
1.35984
1.36359
1.36934
1.37956
1.39197
1.35757
1.35597
1.35539
1.35554
1.35664
1.35882
1.36271
1.36883
1.38068
1.39585
1.35576
1.35404
1.35342
1.35348
1.3545
1.35659
1.3605
1.36681
1.37995
1.39773
1.35605
1.35437
1.35373
1.35383
1.35488
1.35698
1.36094
1.36735
1.38126
1.40113
1.35438
1.35266
1.35198
1.35202
1.35297
1.35499
1.35885
1.36538
1.37942
1.40138
1.35166
1.34998
1.34945
1.3498
1.35114
1.35359
1.35785
1.3648
1.37885
1.40232
1.36466
1.36422
1.36406
1.3642
1.36464
1.36538
1.36637
1.36752
1.36867
1.36957
1.36581
1.36504
1.36477
1.36498
1.36569
1.36689
1.36857
1.37062
1.37289
1.37485
1.36462
1.36358
1.36325
1.36351
1.36442
1.36602
1.36834
1.37135
1.37509
1.37862
1.36305
1.3618
1.36138
1.36165
1.36271
1.36463
1.36755
1.37154
1.37704
1.38262
1.36154
1.36008
1.35959
1.35983
1.36096
1.36306
1.36643
1.37123
1.37849
1.38634
1.36075
1.3592
1.35864
1.35885
1.36
1.3622
1.36589
1.37131
1.38025
1.39042
1.35895
1.35725
1.35665
1.35679
1.35792
1.36013
1.36401
1.3699
1.38032
1.39288
1.3592
1.35751
1.35687
1.35705
1.35821
1.36049
1.36454
1.37078
1.38235
1.39705
1.35749
1.35575
1.35509
1.35522
1.35633
1.35858
1.36266
1.36921
1.38139
1.39838
1.35479
1.35308
1.3525
1.35285
1.35422
1.35677
1.36112
1.36806
1.38048
1.39937
1.36616
1.36591
1.36582
1.3659
1.36618
1.36663
1.36721
1.36786
1.36846
1.36887
1.36757
1.36702
1.36683
1.36698
1.36748
1.36832
1.36943
1.37072
1.37204
1.37309
1.3668
1.36597
1.3657
1.36591
1.36663
1.36785
1.36956
1.37165
1.37396
1.37591
1.36546
1.3644
1.36404
1.36428
1.36519
1.36678
1.36909
1.37207
1.37566
1.37895
1.36418
1.36288
1.36245
1.36268
1.36371
1.36556
1.3684
1.3722
1.37719
1.38207
1.36349
1.36206
1.36155
1.36178
1.36288
1.36493
1.36819
1.37271
1.37915
1.38577
1.36178
1.36017
1.3596
1.35979
1.36092
1.36308
1.36664
1.37177
1.3796
1.38815
1.36203
1.36041
1.3598
1.36002
1.36121
1.36348
1.36732
1.37294
1.38199
1.3924
1.36033
1.35864
1.358
1.35819
1.35937
1.36167
1.36562
1.37169
1.38159
1.39415
1.35769
1.356
1.35542
1.35576
1.3571
1.35962
1.36379
1.37021
1.38054
1.3948
1.36724
1.36712
1.36706
1.36711
1.36728
1.36755
1.36788
1.36824
1.36856
1.36874
1.36881
1.36844
1.36831
1.36841
1.36875
1.3693
1.37
1.37079
1.37155
1.37213
1.36842
1.3678
1.3676
1.36775
1.36829
1.36917
1.37037
1.37176
1.3732
1.37434
1.36733
1.36648
1.36619
1.36639
1.36711
1.36835
1.3701
1.37223
1.37459
1.37658
1.36633
1.36523
1.36486
1.36507
1.36594
1.36749
1.36975
1.37263
1.37604
1.37912
1.36579
1.36453
1.36407
1.3643
1.36529
1.36708
1.36981
1.3734
1.37796
1.38228
1.3642
1.36275
1.36224
1.36244
1.3635
1.36547
1.36856
1.3728
1.37853
1.3843
1.36452
1.36302
1.36246
1.3627
1.36384
1.36597
1.36939
1.37419
1.38101
1.38826
1.36285
1.36126
1.36067
1.36089
1.36205
1.36426
1.36786
1.37313
1.38084
1.38986
1.36031
1.35872
1.35815
1.35847
1.35975
1.36211
1.36592
1.37153
1.3797
1.39003
1.36806
1.36801
1.36799
1.36802
1.36812
1.36827
1.36846
1.36865
1.36882
1.36888
1.36969
1.36946
1.36937
1.36943
1.36965
1.36999
1.37043
1.3709
1.37133
1.37164
1.36963
1.36918
1.36904
1.36915
1.36952
1.37013
1.37094
1.37184
1.37272
1.37338
1.36875
1.3681
1.36787
1.36803
1.36858
1.3695
1.37076
1.37224
1.37377
1.375
1.36802
1.36714
1.36684
1.36701
1.36772
1.36894
1.37067
1.37277
1.37508
1.37704
1.36765
1.3666
1.36621
1.36642
1.36726
1.36875
1.37092
1.37366
1.37686
1.3797
1.36622
1.36496
1.36452
1.36472
1.36565
1.36736
1.36992
1.37328
1.3774
1.3813
1.36664
1.36532
1.36482
1.36505
1.36609
1.36798
1.37088
1.37479
1.37983
1.38483
1.36502
1.36359
1.36306
1.36329
1.36437
1.36636
1.36949
1.37386
1.37966
1.38598
1.36263
1.36118
1.36066
1.36095
1.36212
1.36425
1.36755
1.37223
1.37848
1.38575
1.36873
1.36873
1.36872
1.36873
1.36879
1.36888
1.36898
1.36908
1.36917
1.36917
1.37033
1.37019
1.37013
1.37017
1.37031
1.37052
1.37078
1.37105
1.3713
1.37146
1.37053
1.37022
1.37012
1.3702
1.37045
1.37086
1.37138
1.37195
1.37248
1.37286
1.36981
1.36934
1.36917
1.36928
1.36968
1.37034
1.37122
1.37222
1.3732
1.37396
1.36935
1.36866
1.36842
1.36857
1.36911
1.37004
1.3713
1.37279
1.37433
1.37558
1.36914
1.36829
1.36798
1.36815
1.36883
1.37002
1.37168
1.3737
1.37591
1.37777
1.36786
1.36682
1.36645
1.36662
1.36742
1.36882
1.37085
1.37341
1.37633
1.37896
1.36842
1.3673
1.36687
1.36708
1.36798
1.36958
1.37194
1.375
1.37864
1.38205
1.36684
1.3656
1.36515
1.36536
1.36631
1.36804
1.37064
1.37411
1.37836
1.38269
1.36465
1.36338
1.36292
1.36317
1.3642
1.36603
1.36879
1.37253
1.37717
1.38217
1.36931
1.36933
1.36933
1.36934
1.36937
1.36941
1.36947
1.36953
1.36957
1.36954
1.37081
1.37073
1.3707
1.37072
1.3708
1.37093
1.37108
1.37124
1.37138
1.37146
1.37121
1.37101
1.37095
1.371
1.37116
1.37142
1.37175
1.37211
1.37242
1.37263
1.3706
1.37027
1.37015
1.37023
1.37051
1.37096
1.37156
1.37222
1.37284
1.3733
1.37036
1.36985
1.36968
1.36978
1.37019
1.37086
1.37176
1.37278
1.3738
1.37458
1.37029
1.36965
1.3694
1.36954
1.37007
1.37097
1.3722
1.37365
1.37514
1.37635
1.36917
1.36833
1.36803
1.36818
1.36882
1.36993
1.37149
1.37338
1.3754
1.37715
1.36987
1.36896
1.3686
1.36879
1.36953
1.37083
1.37268
1.37499
1.37756
1.37985
1.36834
1.3673
1.36692
1.36711
1.36791
1.36934
1.37142
1.37408
1.37713
1.38003
1.36637
1.3653
1.3649
1.36512
1.36598
1.36751
1.36973
1.37261
1.37597
1.37934
1.36983
1.36986
1.36987
1.36987
1.36989
1.36992
1.36995
1.36998
1.36999
1.36995
1.37119
1.37115
1.37113
1.37114
1.37119
1.37126
1.37136
1.37145
1.37153
1.37157
1.37176
1.37163
1.37159
1.37162
1.37172
1.37189
1.37209
1.37231
1.37249
1.3726
1.37119
1.37097
1.37088
1.37093
1.37112
1.37143
1.37182
1.37225
1.37264
1.37292
1.37114
1.37078
1.37065
1.37073
1.37102
1.37149
1.37211
1.3728
1.37346
1.37395
1.37119
1.37071
1.37052
1.37063
1.37102
1.37169
1.37257
1.37358
1.37458
1.37535
1.37019
1.36954
1.36931
1.36943
1.36993
1.37077
1.37192
1.37328
1.37465
1.3758
1.37104
1.37033
1.37004
1.3702
1.37079
1.3718
1.3732
1.37488
1.37667
1.37817
1.36954
1.36869
1.36839
1.36855
1.3692
1.37033
1.37193
1.3739
1.37604
1.37797
1.36782
1.36695
1.36662
1.36681
1.36751
1.36872
1.37044
1.3726
1.37497
1.37721
1.37032
1.37036
1.37037
1.37037
1.37038
1.37039
1.37041
1.37042
1.37043
1.37038
1.3715
1.37148
1.37147
1.37148
1.37151
1.37155
1.3716
1.37166
1.3717
1.37172
1.37221
1.37213
1.37211
1.37213
1.37219
1.37229
1.37242
1.37254
1.37265
1.3727
1.37164
1.37149
1.37143
1.37146
1.37159
1.37179
1.37204
1.37231
1.37256
1.37273
1.37175
1.3715
1.37141
1.37146
1.37166
1.37199
1.3724
1.37285
1.37327
1.37357
1.37187
1.37153
1.3714
1.37147
1.37176
1.37223
1.37284
1.37353
1.37419
1.37467
1.37097
1.37049
1.37032
1.37041
1.37078
1.3714
1.37222
1.37317
1.37409
1.37483
1.37197
1.37143
1.37122
1.37134
1.37179
1.37255
1.37358
1.37477
1.37599
1.37695
1.37047
1.36981
1.36958
1.3697
1.3702
1.37107
1.37226
1.37368
1.37515
1.37641
1.36904
1.36835
1.3681
1.36824
1.36879
1.36972
1.37101
1.37257
1.3742
1.37568
1.3708
1.37084
1.37085
1.37085
1.37086
1.37086
1.37087
1.37088
1.37088
1.37082
1.37176
1.37175
1.37175
1.37175
1.37177
1.37179
1.37183
1.37186
1.37188
1.37189
1.3726
1.37256
1.37254
1.37256
1.3726
1.37266
1.37273
1.3728
1.37286
1.37287
1.37198
1.37188
1.37185
1.37187
1.37195
1.37207
1.37223
1.37241
1.37256
1.37266
1.37222
1.37206
1.372
1.37203
1.37217
1.37238
1.37265
1.37294
1.37321
1.37338
1.37239
1.37216
1.37206
1.37212
1.37232
1.37264
1.37306
1.37351
1.37394
1.37424
1.37157
1.37122
1.3711
1.37116
1.37143
1.37187
1.37244
1.37308
1.37369
1.37417
1.37271
1.37233
1.37217
1.37226
1.37259
1.37314
1.37387
1.37469
1.37551
1.37611
1.37117
1.37067
1.3705
1.37059
1.37097
1.37161
1.37246
1.37346
1.37444
1.37526
1.37006
1.36955
1.36935
1.36946
1.36987
1.37056
1.3715
1.37259
1.37369
1.37465
1.37127
1.37131
1.37132
1.37132
1.37133
1.37133
1.37133
1.37134
1.37133
1.37128
1.37197
1.37197
1.37197
1.37197
1.37198
1.372
1.37202
1.37204
1.37205
1.37206
1.37296
1.37294
1.37293
1.37294
1.37297
1.373
1.37304
1.37308
1.37311
1.3731
1.37225
1.37219
1.37216
1.37217
1.37222
1.3723
1.3724
1.37251
1.3726
1.37267
1.3726
1.3725
1.37246
1.37248
1.37257
1.37271
1.37288
1.37306
1.37322
1.37333
1.37279
1.37263
1.37257
1.37261
1.37274
1.37296
1.37323
1.37353
1.3738
1.37398
1.37203
1.37179
1.3717
1.37175
1.37193
1.37223
1.37262
1.37304
1.37343
1.37373
1.37331
1.37304
1.37293
1.373
1.37323
1.37362
1.37412
1.37467
1.37521
1.37557
1.37169
1.37132
1.3712
1.37126
1.37154
1.37199
1.37258
1.37326
1.37391
1.37444
1.37095
1.37057
1.37043
1.37051
1.37081
1.3713
1.37196
1.3727
1.37343
1.37404
1.37176
1.3718
1.37181
1.37181
1.37182
1.37182
1.37182
1.37182
1.37181
1.37176
1.37213
1.37214
1.37214
1.37214
1.37214
1.37216
1.37217
1.37219
1.3722
1.3722
1.37331
1.3733
1.3733
1.3733
1.37332
1.37334
1.37336
1.37338
1.37339
1.37337
1.37246
1.37243
1.37241
1.37242
1.37245
1.3725
1.37256
1.37262
1.37268
1.37272
1.3729
1.37284
1.37282
1.37283
1.37289
1.37297
1.37308
1.37319
1.37329
1.37334
1.37309
1.37299
1.37294
1.37297
1.37305
1.3732
1.37337
1.37356
1.37374
1.37384
1.37238
1.37222
1.37217
1.3722
1.37232
1.37252
1.37277
1.37304
1.37328
1.37347
1.3738
1.37363
1.37355
1.37359
1.37375
1.37402
1.37435
1.37471
1.37506
1.37526
1.37205
1.37179
1.3717
1.37175
1.37194
1.37225
1.37265
1.37309
1.37351
1.37385
1.37174
1.37148
1.37138
1.37143
1.37164
1.37198
1.37243
1.37291
1.37339
1.37377
1.37232
1.37235
1.37236
1.37236
1.37236
1.37236
1.37236
1.37236
1.37235
1.3723
1.37224
1.37224
1.37224
1.37224
1.37225
1.37225
1.37227
1.37228
1.37229
1.3723
1.37364
1.37364
1.37364
1.37364
1.37365
1.37366
1.37367
1.37368
1.37369
1.37366
1.37264
1.37261
1.37261
1.37261
1.37263
1.37266
1.37269
1.37273
1.37276
1.37279
1.37314
1.3731
1.37308
1.37309
1.37313
1.37318
1.37325
1.37331
1.37337
1.3734
1.37329
1.37323
1.3732
1.37321
1.37327
1.37336
1.37347
1.37359
1.3737
1.37376
1.37266
1.37256
1.37252
1.37255
1.37263
1.37275
1.37291
1.37308
1.37322
1.37334
1.3742
1.37409
1.37403
1.37406
1.37417
1.37434
1.37456
1.37479
1.37502
1.37513
1.37227
1.37209
1.37203
1.37206
1.37219
1.37239
1.37266
1.37294
1.3732
1.37343
1.37253
1.37235
1.37228
1.37232
1.37246
1.37269
1.37298
1.37329
1.3736
1.37383
1.37306
1.37309
1.37309
1.3731
1.3731
1.3731
1.37309
1.37309
1.37308
1.37303
1.37225
1.37225
1.37225
1.37225
1.37225
1.37226
1.37227
1.37228
1.37229
1.37231
1.37393
1.37393
1.37393
1.37394
1.37394
1.37395
1.37396
1.37396
1.37396
1.37393
1.37278
1.37277
1.37276
1.37277
1.37278
1.3728
1.37282
1.37284
1.37285
1.37287
1.3733
1.37327
1.37326
1.37327
1.37329
1.37332
1.37336
1.3734
1.37344
1.37345
1.37341
1.37337
1.37335
1.37335
1.37339
1.37345
1.37352
1.37359
1.37366
1.3737
1.37287
1.37281
1.37279
1.37281
1.37286
1.37294
1.37304
1.37314
1.37322
1.37328
1.37447
1.3744
1.37436
1.37438
1.37444
1.37456
1.3747
1.37485
1.375
1.37505
1.37234
1.37222
1.37218
1.3722
1.37228
1.37241
1.37258
1.37276
1.37292
1.37307
1.37346
1.37334
1.37329
1.37331
1.3734
1.37355
1.37374
1.37394
1.37413
1.37427
1.37423
1.37425
1.37425
1.37425
1.37425
1.37425
1.37425
1.37424
1.37423
1.37419
1.37209
1.37208
1.37208
1.37208
1.37208
1.37209
1.3721
1.37211
1.37212
1.37214
1.3741
1.3741
1.3741
1.37409
1.37409
1.3741
1.37411
1.37412
1.37413
1.3741
1.3729
1.3729
1.3729
1.3729
1.37291
1.37292
1.37293
1.37294
1.37295
1.37295
1.37338
1.37336
1.37335
1.37336
1.37337
1.37339
1.37342
1.37344
1.37347
1.37348
1.37344
1.37341
1.3734
1.3734
1.37342
1.37346
1.3735
1.37355
1.3736
1.37363
1.37302
1.37299
1.37298
1.37299
1.37302
1.37307
1.37313
1.37319
1.37323
1.37326
1.37449
1.37443
1.3744
1.37441
1.37446
1.37453
1.37462
1.37473
1.37484
1.37488
1.37217
1.37209
1.37207
1.37209
1.37214
1.37222
1.37233
1.37244
1.37253
1.37263
1.37474
1.37467
1.37463
1.37465
1.37471
1.3748
1.37493
1.37505
1.37519
1.37527
1.37605
1.37606
1.37606
1.37606
1.37606
1.37606
1.37606
1.37606
1.37605
1.37603
1.37159
1.3716
1.37161
1.37162
1.37162
1.37162
1.37162
1.37162
1.37161
1.37162
1.37402
1.374
1.37398
1.37397
1.37397
1.37398
1.37399
1.37401
1.37403
1.37404
1.37303
1.37303
1.37304
1.37304
1.37305
1.37305
1.37306
1.37306
1.37306
1.37305
1.37342
1.3734
1.37339
1.37339
1.3734
1.37341
1.37343
1.37345
1.37348
1.37349
1.37343
1.37341
1.3734
1.3734
1.37342
1.37344
1.37347
1.37351
1.37354
1.37357
1.37313
1.37311
1.3731
1.37311
1.37313
1.37317
1.37321
1.37325
1.37328
1.37329
1.37411
1.37406
1.37403
1.37404
1.37407
1.37412
1.37419
1.37427
1.37436
1.37442
1.37163
1.3716
1.37159
1.3716
1.37164
1.3717
1.37177
1.37184
1.37188
1.37193
1.37659
1.37654
1.37651
1.37652
1.37656
1.37663
1.37672
1.37681
1.37691
1.37696
1.37797
1.37796
1.37794
1.37793
1.37793
1.37793
1.37794
1.37796
1.37798
1.37801
1.37092
1.37098
1.37102
1.37104
1.37105
1.37104
1.37103
1.371
1.37095
1.37087
1.37374
1.3737
1.37368
1.37366
1.37366
1.37367
1.37368
1.3737
1.37374
1.37379
1.37318
1.37319
1.37319
1.3732
1.3732
1.37321
1.37321
1.37321
1.37321
1.37319
1.37346
1.37345
1.37344
1.37344
1.37344
1.37346
1.37347
1.37349
1.37351
1.37353
1.37347
1.37345
1.37344
1.37344
1.37346
1.37348
1.3735
1.37353
1.37356
1.37359
1.37326
1.37325
1.37324
1.37325
1.37327
1.3733
1.37333
1.37337
1.3734
1.37341
1.37359
1.37354
1.37351
1.37352
1.37354
1.37359
1.37365
1.37372
1.3738
1.37388
1.37098
1.37097
1.37097
1.37098
1.37102
1.37107
1.37113
1.37119
1.37121
1.37118
1.37846
1.37842
1.37839
1.3784
1.37844
1.3785
1.37858
1.37866
1.37874
1.37878
1.47452
1.48012
1.47671
1.46957
1.50695
1.51272
1.50589
1.4952
1.53308
1.53817
1.52851
1.51529
1.55176
1.55571
1.5432
1.52797
1.56616
1.56871
1.55346
1.53672
1.57786
1.57894
1.56293
1.54419
1.58567
1.58511
1.56962
1.54852
1.59271
1.5904
1.57571
1.55233
1.59063
1.58645
1.57232
1.54689
1.58293
1.57772
1.56523
1.53867
1.37424
1.37394
1.3745
1.37556
1.39549
1.39687
1.39788
1.39756
1.41462
1.41733
1.41859
1.41671
1.43292
1.43684
1.43823
1.43444
1.4501
1.45488
1.45623
1.45037
1.46678
1.47208
1.47314
1.46563
1.48072
1.48629
1.48696
1.47833
1.49486
1.5005
1.50086
1.4916
1.50183
1.50748
1.50768
1.49819
1.50549
1.51165
1.51186
1.50271
1.3784
1.37886
1.37904
1.37905
1.39097
1.39197
1.39226
1.39211
1.40282
1.40441
1.40484
1.40449
1.41432
1.41657
1.41711
1.41641
1.42557
1.42848
1.42905
1.42782
1.43755
1.44107
1.44162
1.43971
1.44796
1.45201
1.4525
1.44981
1.4597
1.46416
1.46458
1.4611
1.46568
1.47047
1.47082
1.46649
1.46921
1.47477
1.47512
1.46977
1.37162
1.37159
1.37163
1.37173
1.37953
1.37978
1.37989
1.3799
1.3872
1.38775
1.38796
1.38792
1.39532
1.3963
1.39664
1.39648
1.40351
1.40497
1.40545
1.40507
1.41267
1.41467
1.41526
1.41455
1.42064
1.42317
1.42385
1.42273
1.4304
1.43341
1.43415
1.43255
1.43523
1.43867
1.43949
1.4374
1.43791
1.44221
1.44317
1.44039
1.37016
1.37011
1.37011
1.37017
1.3757
1.37586
1.37592
1.37592
1.38053
1.38086
1.38098
1.38095
1.38603
1.38658
1.38678
1.38673
1.3918
1.39262
1.39292
1.39281
1.3986
1.39975
1.40015
1.39995
1.40436
1.40587
1.40637
1.40602
1.41214
1.414
1.41461
1.41405
1.416
1.41821
1.41899
1.41823
1.41804
1.42103
1.42201
1.42079
1.36928
1.36919
1.36918
1.36923
1.3734
1.37346
1.37349
1.3735
1.37663
1.37676
1.37682
1.37684
1.38037
1.38063
1.38075
1.38077
1.38451
1.38493
1.38512
1.38514
1.38964
1.39027
1.39054
1.39054
1.3938
1.39467
1.39503
1.39498
1.40006
1.40118
1.40164
1.40151
1.40318
1.40456
1.40518
1.40499
1.40441
1.40645
1.40723
1.4067
1.3691
1.36899
1.36897
1.36903
1.3723
1.37233
1.37234
1.37235
1.37468
1.37474
1.37477
1.37479
1.37726
1.37738
1.37745
1.37748
1.38027
1.38048
1.3806
1.38064
1.38417
1.38451
1.38469
1.38474
1.38711
1.38761
1.38786
1.38791
1.39218
1.39285
1.39318
1.39321
1.39458
1.39543
1.39589
1.3959
1.39501
1.39641
1.39697
1.39669
1.3692
1.36909
1.36906
1.36912
1.37172
1.37174
1.37174
1.37175
1.37355
1.37357
1.37359
1.3736
1.37534
1.37541
1.37545
1.37547
1.37763
1.37774
1.37781
1.37784
1.38067
1.38086
1.38097
1.38102
1.38275
1.38302
1.38319
1.38325
1.38688
1.38728
1.3875
1.38757
1.38854
1.38906
1.38936
1.38942
1.38832
1.38931
1.38969
1.38949
1.36947
1.36936
1.36933
1.36938
1.3715
1.3715
1.37151
1.37151
1.37294
1.37295
1.37296
1.37296
1.37414
1.37417
1.37419
1.37421
1.3759
1.37595
1.376
1.37602
1.37831
1.37842
1.37849
1.37852
1.37975
1.37991
1.38002
1.38007
1.38319
1.38342
1.38356
1.38362
1.38413
1.38445
1.38464
1.3847
1.38349
1.38423
1.38448
1.38429
1.36983
1.36971
1.36967
1.36973
1.37147
1.37147
1.37147
1.37148
1.37266
1.37266
1.37266
1.37267
1.37339
1.37341
1.37342
1.37343
1.37475
1.37478
1.37481
1.37483
1.37666
1.37672
1.37677
1.37679
1.3776
1.3777
1.37776
1.3778
1.3805
1.38064
1.38073
1.38078
1.38087
1.38107
1.38119
1.38123
1.37998
1.38057
1.38073
1.38054
1.37022
1.3701
1.37007
1.37012
1.37156
1.37155
1.37155
1.37156
1.3726
1.3726
1.3726
1.3726
1.37296
1.37297
1.37298
1.37299
1.37403
1.37405
1.37406
1.37407
1.37553
1.37557
1.37559
1.37561
1.37606
1.37611
1.37616
1.37619
1.37856
1.37864
1.3787
1.37873
1.37847
1.37859
1.37866
1.3787
1.37748
1.37796
1.37807
1.37787
1.37064
1.37051
1.37048
1.37054
1.3717
1.37169
1.37169
1.3717
1.37268
1.37267
1.37267
1.37267
1.37274
1.37274
1.37275
1.37276
1.37361
1.37361
1.37362
1.37363
1.37478
1.3748
1.37481
1.37483
1.37498
1.37501
1.37503
1.37505
1.37718
1.37723
1.37726
1.37728
1.37671
1.37678
1.37683
1.37685
1.37573
1.37614
1.37621
1.37603
1.37107
1.37094
1.37091
1.37097
1.37186
1.37185
1.37185
1.37186
1.37285
1.37284
1.37284
1.37284
1.37266
1.37265
1.37265
1.37266
1.37339
1.37339
1.37339
1.3734
1.3743
1.37431
1.37432
1.37433
1.37424
1.37425
1.37427
1.37429
1.37624
1.37627
1.37629
1.37631
1.37544
1.37548
1.37552
1.37553
1.37458
1.37494
1.37499
1.37481
1.37151
1.37138
1.37135
1.37141
1.37203
1.37202
1.37202
1.37202
1.37308
1.37307
1.37306
1.37307
1.37265
1.37265
1.37265
1.37266
1.37332
1.37331
1.37331
1.37332
1.37401
1.37402
1.37402
1.37403
1.37376
1.37376
1.37377
1.37378
1.37564
1.37566
1.37567
1.37568
1.37454
1.37456
1.37458
1.3746
1.37391
1.37422
1.37425
1.37408
1.37198
1.37185
1.37182
1.37188
1.37217
1.37216
1.37216
1.37217
1.37335
1.37334
1.37333
1.37333
1.37269
1.37269
1.37269
1.3727
1.37333
1.37332
1.37332
1.37333
1.37386
1.37386
1.37386
1.37387
1.37346
1.37346
1.37346
1.37348
1.37531
1.37531
1.37532
1.37533
1.3739
1.37391
1.37393
1.37394
1.37361
1.37388
1.3739
1.37375
1.37251
1.37238
1.37235
1.37241
1.37227
1.37226
1.37226
1.37227
1.37364
1.37363
1.37363
1.37363
1.37276
1.37275
1.37275
1.37276
1.37338
1.37337
1.37337
1.37338
1.37377
1.37377
1.37377
1.37378
1.3733
1.37329
1.3733
1.37331
1.37515
1.37515
1.37516
1.37516
1.37344
1.37345
1.37346
1.37347
1.37366
1.37389
1.3739
1.37377
1.37322
1.37309
1.37306
1.37313
1.37228
1.37227
1.37228
1.37228
1.37392
1.37392
1.37391
1.37391
1.37283
1.37282
1.37282
1.37283
1.37343
1.37343
1.37343
1.37343
1.3737
1.3737
1.3737
1.37371
1.37322
1.37321
1.37321
1.37322
1.37508
1.37508
1.37508
1.37509
1.37306
1.37306
1.37307
1.37308
1.37411
1.37429
1.3743
1.37419
1.37435
1.37423
1.3742
1.37426
1.37211
1.3721
1.3721
1.37211
1.37412
1.37412
1.37412
1.37412
1.3729
1.37289
1.37289
1.3729
1.37347
1.37346
1.37346
1.37347
1.37363
1.37363
1.37363
1.37364
1.37319
1.37318
1.37318
1.37319
1.37493
1.37494
1.37494
1.37494
1.37259
1.37259
1.3726
1.37261
1.37514
1.37526
1.37527
1.3752
1.37617
1.37606
1.37604
1.3761
1.37155
1.37154
1.37155
1.37155
1.3741
1.37411
1.37412
1.37412
1.37299
1.37299
1.37298
1.37299
1.37348
1.37348
1.37349
1.37349
1.37357
1.37357
1.37357
1.37358
1.37321
1.3732
1.3732
1.37321
1.37453
1.37455
1.37456
1.37455
1.37183
1.37181
1.37181
1.37182
1.37693
1.37702
1.37703
1.37698
1.3781
1.37805
1.37805
1.37809
1.37066
1.37062
1.37061
1.37061
1.37388
1.3739
1.37391
1.37392
1.37314
1.37313
1.37313
1.37313
1.37353
1.37353
1.37354
1.37354
1.37359
1.3736
1.3736
1.3736
1.37335
1.37334
1.37334
1.37335
1.37404
1.37408
1.37408
1.37407
1.37089
1.37082
1.37081
1.37086
1.37897
1.37903
1.37903
1.37899
1.43135
1.40694
1.38591
1.37173
1.36322
1.35796
1.3545
1.35214
1.3505
1.3493
1.44354
1.41069
1.38564
1.37096
1.3628
1.3578
1.35459
1.35243
1.35096
1.3499
1.44496
1.40855
1.3812
1.36807
1.36033
1.3556
1.35251
1.35045
1.34911
1.34833
1.4416
1.40448
1.37568
1.3649
1.35769
1.35349
1.35069
1.34884
1.34764
1.34691
1.43552
1.39931
1.37066
1.36168
1.35484
1.35115
1.34861
1.34698
1.34593
1.34539
1.428
1.39513
1.36704
1.35986
1.3533
1.35017
1.34785
1.34645
1.3455
1.34495
1.41763
1.38985
1.36227
1.3569
1.35048
1.3479
1.34575
1.34454
1.34369
1.34329
1.40962
1.38764
1.36055
1.35701
1.3507
1.34863
1.34652
1.34538
1.34452
1.34396
1.39862
1.38165
1.35565
1.3542
1.34835
1.34688
1.34484
1.34379
1.34297
1.34242
1.39554
1.38176
1.35634
1.35547
1.34875
1.34662
1.34379
1.34214
1.34085
1.3398
1.3793
1.37655
1.37325
1.36992
1.36671
1.36383
1.36135
1.35928
1.3576
1.35632
1.39681
1.38892
1.38154
1.37524
1.37001
1.3659
1.36272
1.36024
1.35831
1.35684
1.40953
1.39658
1.3855
1.37684
1.37005
1.36502
1.36131
1.35856
1.35651
1.35514
1.41891
1.40146
1.38718
1.37702
1.36935
1.36393
1.36004
1.35721
1.35509
1.35365
1.42496
1.40422
1.38726
1.37617
1.36795
1.3624
1.35846
1.35563
1.35351
1.35214
1.42954
1.40672
1.38755
1.37602
1.36748
1.36197
1.35805
1.35527
1.35317
1.35172
1.43095
1.40702
1.386
1.37436
1.36561
1.36023
1.35633
1.35362
1.35151
1.35012
1.43312
1.4091
1.38668
1.37533
1.36648
1.36128
1.35734
1.35459
1.35242
1.35083
1.43067
1.40672
1.38393
1.3735
1.36495
1.35999
1.35601
1.35322
1.35101
1.34936
1.43107
1.40776
1.38458
1.37421
1.365
1.35942
1.35483
1.35151
1.34892
1.34679
1.37827
1.37624
1.37371
1.37114
1.36874
1.36659
1.36472
1.36312
1.36179
1.36075
1.3903
1.38581
1.38063
1.37601
1.3722
1.36908
1.36653
1.36443
1.36271
1.36136
1.40102
1.3932
1.38491
1.37809
1.37276
1.36864
1.36544
1.36294
1.36099
1.35961
1.4106
1.39912
1.3879
1.37934
1.37288
1.36807
1.36443
1.36165
1.35951
1.35797
1.41884
1.40354
1.38957
1.37958
1.37224
1.36696
1.36304
1.36011
1.35785
1.35632
1.42673
1.4078
1.39134
1.38028
1.37228
1.36671
1.36264
1.35964
1.35732
1.35569
1.4321
1.40983
1.39114
1.3793
1.37079
1.36508
1.36091
1.35788
1.35552
1.35392
1.43829
1.41328
1.39284
1.38064
1.37181
1.36605
1.36177
1.35866
1.35624
1.35446
1.43932
1.41226
1.39122
1.37938
1.37062
1.36489
1.36049
1.35729
1.35479
1.35294
1.44049
1.41251
1.39115
1.37918
1.3699
1.3637
1.35887
1.35529
1.35254
1.35033
1.37165
1.37118
1.37038
1.36938
1.36828
1.36717
1.3661
1.36512
1.36426
1.36357
1.37958
1.3782
1.37628
1.37422
1.37217
1.37026
1.36852
1.36698
1.36566
1.36457
1.38702
1.38408
1.38034
1.3767
1.3734
1.37054
1.36812
1.36609
1.36442
1.36318
1.39469
1.3898
1.38406
1.37884
1.37434
1.37063
1.3676
1.36515
1.36317
1.36167
1.40196
1.39475
1.38685
1.38012
1.37456
1.37015
1.36666
1.3639
1.36169
1.36011
1.40963
1.3999
1.38983
1.38175
1.37529
1.37035
1.36652
1.36354
1.36118
1.35944
1.41551
1.40312
1.3909
1.38166
1.37444
1.36909
1.36499
1.36188
1.35939
1.35764
1.42269
1.4078
1.39372
1.3836
1.37581
1.37017
1.36586
1.36259
1.36001
1.35808
1.42541
1.40846
1.39337
1.38294
1.37487
1.36904
1.36454
1.36114
1.35848
1.35648
1.42756
1.40904
1.39311
1.38215
1.3736
1.3674
1.36258
1.35892
1.35607
1.3538
1.37001
1.36974
1.36933
1.3688
1.36821
1.36758
1.36696
1.36638
1.36585
1.36544
1.37572
1.3751
1.37417
1.37306
1.37187
1.37068
1.36954
1.36849
1.36755
1.36676
1.38052
1.37917
1.37731
1.37527
1.37326
1.37136
1.36965
1.36812
1.36682
1.36581
1.386
1.38368
1.38061
1.37746
1.37449
1.37183
1.36952
1.36753
1.36586
1.36454
1.39163
1.38802
1.38352
1.37917
1.37525
1.37187
1.36902
1.36664
1.36466
1.36319
1.39807
1.39293
1.38686
1.38131
1.37648
1.37248
1.36918
1.36649
1.36429
1.36261
1.40318
1.39627
1.38853
1.38182
1.37617
1.37162
1.36795
1.36501
1.36261
1.36087
1.41002
1.40129
1.39196
1.38425
1.3779
1.3729
1.36891
1.36575
1.36322
1.36127
1.41328
1.40295
1.39252
1.38412
1.37724
1.37189
1.36763
1.36431
1.36166
1.35965
1.41544
1.40357
1.39213
1.38307
1.37572
1.37003
1.36551
1.36198
1.3592
1.35696
1.36911
1.36898
1.36878
1.36852
1.36822
1.36789
1.36755
1.36722
1.36693
1.36671
1.37344
1.37317
1.37272
1.37213
1.37147
1.37076
1.37006
1.36939
1.36878
1.36824
1.37671
1.37612
1.3752
1.37409
1.37288
1.37167
1.3705
1.36942
1.36847
1.36772
1.38054
1.37946
1.37785
1.37602
1.37413
1.37231
1.37063
1.36911
1.36779
1.36672
1.38474
1.38297
1.38049
1.3778
1.37516
1.3727
1.3705
1.36857
1.36691
1.36565
1.38986
1.38723
1.38371
1.3801
1.37668
1.37361
1.37094
1.36865
1.36672
1.36521
1.39391
1.39019
1.38551
1.38092
1.37673
1.37309
1.36999
1.3674
1.36523
1.3636
1.39992
1.39502
1.38913
1.38363
1.37872
1.37457
1.37109
1.36823
1.36588
1.36404
1.40301
1.39699
1.39009
1.38377
1.37825
1.37367
1.36989
1.36685
1.36435
1.36243
1.40454
1.39736
1.38957
1.38263
1.37665
1.37176
1.36774
1.36451
1.36191
1.35979
1.36891
1.36883
1.36873
1.36859
1.36843
1.36825
1.36807
1.36789
1.36773
1.36763
1.37231
1.37217
1.37193
1.37161
1.37123
1.37082
1.3704
1.36999
1.3696
1.36925
1.37472
1.37442
1.37392
1.37328
1.37254
1.37177
1.37101
1.37027
1.36961
1.36908
1.37738
1.37683
1.37595
1.37485
1.37365
1.37242
1.37124
1.37013
1.36914
1.36832
1.38049
1.37958
1.37817
1.3765
1.37474
1.373
1.37136
1.36988
1.36857
1.36754
1.38449
1.3831
1.38105
1.37872
1.37634
1.37408
1.372
1.37016
1.36857
1.36728
1.38752
1.3855
1.38268
1.37961
1.37659
1.3738
1.3713
1.36914
1.36727
1.36584
1.39259
1.38985
1.38618
1.38236
1.3787
1.37541
1.37253
1.37008
1.36802
1.36636
1.39512
1.3916
1.3871
1.38255
1.37832
1.37461
1.37143
1.36877
1.36654
1.3648
1.39587
1.3916
1.38645
1.38137
1.37674
1.37274
1.36934
1.36651
1.36419
1.36226
1.36901
1.36896
1.36891
1.36884
1.36875
1.36866
1.36855
1.36846
1.36838
1.36836
1.37173
1.37166
1.37154
1.37137
1.37116
1.37092
1.37068
1.37043
1.37019
1.36997
1.37357
1.37341
1.37313
1.37275
1.37231
1.37183
1.37134
1.37086
1.37042
1.37008
1.37542
1.37513
1.37462
1.37395
1.37319
1.37238
1.37157
1.3708
1.3701
1.36949
1.37778
1.37728
1.37645
1.37539
1.37422
1.37302
1.37185
1.37076
1.36977
1.36898
1.38092
1.38016
1.37892
1.37741
1.37578
1.37416
1.37261
1.37119
1.36993
1.36889
1.38311
1.38199
1.38025
1.37821
1.37608
1.374
1.37207
1.37035
1.36882
1.36762
1.38732
1.38577
1.38346
1.38086
1.37821
1.3757
1.37342
1.37141
1.36969
1.36826
1.38909
1.38702
1.38412
1.38095
1.37783
1.37495
1.37238
1.37017
1.36826
1.36675
1.38922
1.38669
1.38334
1.37977
1.37631
1.37318
1.37041
1.36805
1.36605
1.36437
1.36928
1.36925
1.36922
1.36918
1.36913
1.36908
1.36903
1.36898
1.36895
1.36897
1.37151
1.37148
1.37141
1.37132
1.3712
1.37107
1.37093
1.37078
1.37064
1.3705
1.37295
1.37286
1.37271
1.37249
1.37222
1.37193
1.37162
1.37131
1.37103
1.37081
1.37419
1.37403
1.37372
1.37332
1.37284
1.37231
1.37178
1.37126
1.37077
1.37034
1.376
1.37571
1.3752
1.37453
1.37376
1.37295
1.37214
1.37136
1.37064
1.37006
1.37848
1.37803
1.37727
1.37628
1.37519
1.37405
1.37293
1.37188
1.37092
1.37011
1.38001
1.37935
1.37826
1.37691
1.37542
1.37393
1.37249
1.37116
1.36996
1.36901
1.38351
1.3826
1.38113
1.37938
1.3775
1.37565
1.37391
1.37234
1.37095
1.36978
1.38455
1.38332
1.38146
1.3793
1.37706
1.37491
1.37291
1.37114
1.36958
1.36831
1.38424
1.38274
1.38059
1.37813