/*--------------------------------*- C++ -*----------------------------------*\
| =========                 |                                                 |
| \\      /  F ield         | foam-extend: Open Source CFD                    |
|  \\    /   O peration     | Version:     4.0                                |
|   \\  /    A nd           | Web:         http://www.foam-extend.org         |
|    \\/     M anipulation  |                                                 |
\*---------------------------------------------------------------------------*/
FoamFile
{
    version     2.0;
    format      ascii;
    class       volScalarField;
    location    "1000";
    object      T;
}
// * * * * * * * * * * * * * * * * * * * * * * * * * * * * * * * * * * * * * //

dimensions      [0 0 0 1 0 0 0];

internalField   nonuniform List<scalar> 
34480
(
278.984
278.873
278.79
278.733
278.698
278.685
278.695
278.773
279.036
278.988
278.432
278.312
278.216
278.146
278.11
278.108
278.128
278.167
278.377
277.919
278.311
278.178
278.07
277.992
277.951
277.934
277.909
277.851
277.972
277.181
278.339
278.185
278.054
277.95
277.874
277.806
277.716
277.552
277.55
276.411
278.338
278.16
278.001
277.864
277.747
277.624
277.465
277.189
277.031
275.535
278.391
278.191
278.011
277.848
277.697
277.523
277.297
276.906
276.561
274.683
278.406
278.181
277.977
277.79
277.608
277.39
277.101
276.597
276.041
273.776
278.468
278.222
278.006
277.81
277.619
277.386
277.063
276.474
275.71
273.025
278.517
278.252
278.018
277.803
277.588
277.326
276.96
276.288
275.313
272.274
279.329
279.052
278.849
278.705
278.596
278.47
278.254
277.72
276.706
273.235
279.506
279.413
279.375
279.389
279.459
279.602
279.858
280.31
280.971
281.832
278.854
278.769
278.734
278.748
278.825
278.988
279.275
279.768
280.554
281.565
278.64
278.56
278.528
278.545
278.628
278.796
279.08
279.564
280.408
281.512
278.575
278.495
278.459
278.468
278.537
278.683
278.942
279.401
280.273
281.423
278.488
278.403
278.36
278.356
278.406
278.524
278.75
279.17
280.041
281.205
278.465
278.378
278.33
278.317
278.353
278.444
278.636
279.006
279.848
280.989
278.412
278.318
278.264
278.242
278.264
278.331
278.489
278.806
279.595
280.694
278.421
278.326
278.274
278.257
278.282
278.344
278.482
278.754
279.47
280.478
278.431
278.329
278.271
278.246
278.258
278.304
278.417
278.641
279.277
280.205
279.191
279.102
279.079
279.119
279.218
279.366
279.58
279.878
280.465
281.118
279.969
279.87
279.834
279.852
279.929
280.072
280.3
280.643
281.138
281.756
279.31
279.212
279.175
279.197
279.285
279.456
279.742
280.195
280.899
281.824
279.081
278.982
278.945
278.967
279.06
279.244
279.557
280.068
280.936
282.144
278.987
278.884
278.842
278.857
278.942
279.117
279.431
279.97
280.97
282.428
278.872
278.763
278.714
278.718
278.789
278.945
279.244
279.785
280.882
282.544
278.824
278.712
278.658
278.653
278.711
278.847
279.125
279.65
280.805
282.619
278.749
278.631
278.572
278.558
278.603
278.718
278.971
279.467
280.646
282.574
278.74
278.621
278.562
278.552
278.598
278.707
278.943
279.406
280.573
282.561
278.732
278.61
278.547
278.53
278.567
278.664
278.877
279.298
280.428
282.494
279.46
279.349
279.313
279.345
279.446
279.616
279.896
280.357
281.432
283.417
280.299
280.213
280.183
280.201
280.268
280.387
280.563
280.803
281.106
281.442
279.668
279.575
279.542
279.566
279.652
279.81
280.054
280.405
280.889
281.437
279.45
279.349
279.313
279.339
279.435
279.616
279.906
280.345
280.999
281.79
279.346
279.235
279.194
279.216
279.312
279.498
279.814
280.315
281.132
282.178
279.215
279.097
279.049
279.063
279.151
279.332
279.655
280.194
281.149
282.436
279.151
279.028
278.974
278.981
279.061
279.231
279.552
280.108
281.174
282.67
279.061
278.931
278.872
278.871
278.941
279.098
279.407
279.965
281.113
282.788
279.036
278.905
278.846
278.847
278.918
279.072
279.372
279.92
281.111
282.923
279.014
278.881
278.82
278.815
278.88
279.024
279.314
279.84
281.036
282.995
279.709
279.587
279.544
279.574
279.682
279.877
280.209
280.765
281.932
283.922
280.52
280.453
280.43
280.444
280.494
280.579
280.697
280.846
281.014
281.179
279.936
279.858
279.83
279.852
279.924
280.05
280.235
280.48
280.781
281.078
279.749
279.655
279.623
279.648
279.735
279.893
280.133
280.47
280.918
281.387
279.65
279.543
279.503
279.527
279.622
279.798
280.081
280.496
281.098
281.773
279.519
279.4
279.354
279.372
279.466
279.65
279.958
280.434
281.182
282.072
279.449
279.321
279.269
279.283
279.374
279.558
279.881
280.399
281.278
282.374
279.35
279.215
279.158
279.165
279.251
279.429
279.757
280.3
281.29
282.581
279.315
279.178
279.12
279.129
279.216
279.395
279.725
280.28
281.348
282.806
279.283
279.144
279.083
279.089
279.171
279.344
279.672
280.23
281.338
282.975
279.945
279.816
279.768
279.797
279.91
280.117
280.473
281.057
282.165
283.898
280.665
280.615
280.599
280.609
280.642
280.698
280.772
280.86
280.953
281.041
280.131
280.071
280.049
280.066
280.121
280.214
280.345
280.506
280.687
280.849
279.98
279.902
279.874
279.895
279.968
280.096
280.28
280.522
280.812
281.088
279.898
279.801
279.766
279.789
279.874
280.028
280.262
280.582
281
281.421
279.777
279.665
279.623
279.643
279.734
279.905
280.176
280.565
281.114
281.699
279.709
279.586
279.537
279.555
279.648
279.829
280.128
280.574
281.248
282.005
279.61
279.477
279.423
279.436
279.528
279.712
280.028
280.517
281.307
282.237
279.57
279.433
279.377
279.392
279.487
279.676
280.005
280.523
281.404
282.495
279.531
279.392
279.334
279.346
279.438
279.626
279.96
280.497
281.438
282.705
280.162
280.032
279.982
280.01
280.123
280.334
280.689
281.251
282.213
283.593
280.757
280.721
280.71
280.716
280.737
280.772
280.816
280.866
280.917
280.967
280.269
280.226
280.211
280.222
280.261
280.326
280.413
280.515
280.622
280.712
280.156
280.094
280.071
280.088
280.145
280.242
280.376
280.541
280.725
280.887
280.094
280.012
279.982
280.002
280.074
280.2
280.382
280.617
280.897
281.158
279.99
279.891
279.854
279.874
279.955
280.103
280.328
280.63
281.016
281.395
279.931
279.818
279.774
279.793
279.881
280.046
280.306
280.669
281.164
281.675
279.837
279.712
279.662
279.678
279.769
279.945
280.231
280.645
281.247
281.897
279.798
279.667
279.614
279.632
279.728
279.913
280.219
280.673
281.365
282.153
279.754
279.62
279.566
279.582
279.678
279.865
280.182
280.665
281.423
282.361
280.355
280.229
280.18
280.207
280.316
280.52
280.854
281.363
282.153
283.194
280.816
280.789
280.782
280.785
280.798
280.818
280.844
280.872
280.901
280.933
280.367
280.338
280.327
280.335
280.361
280.404
280.46
280.523
280.586
280.637
280.286
280.24
280.223
280.236
280.278
280.347
280.44
280.55
280.665
280.761
280.245
280.179
280.155
280.171
280.228
280.326
280.461
280.628
280.812
280.973
280.161
280.078
280.047
280.064
280.133
280.255
280.431
280.657
280.922
281.166
280.114
280.016
279.977
279.995
280.074
280.217
280.431
280.715
281.068
281.408
280.029
279.916
279.872
279.889
279.974
280.131
280.376
280.713
281.156
281.603
279.994
279.875
279.828
279.847
279.938
280.108
280.377
280.757
281.28
281.836
279.949
279.825
279.776
279.794
279.887
280.063
280.347
280.76
281.347
282.02
280.522
280.405
280.358
280.383
280.486
280.675
280.974
281.412
282.034
282.789
280.853
280.832
280.827
280.829
280.837
280.848
280.863
280.879
280.895
280.918
280.438
280.418
280.411
280.416
280.433
280.46
280.495
280.533
280.57
280.601
280.383
280.35
280.338
280.347
280.376
280.424
280.487
280.558
280.629
280.687
280.358
280.309
280.29
280.302
280.345
280.417
280.515
280.63
280.749
280.849
280.295
280.229
280.203
280.218
280.273
280.368
280.502
280.665
280.844
281
280.262
280.18
280.148
280.164
280.23
280.347
280.516
280.73
280.977
281.202
280.187
280.09
280.053
280.069
280.143
280.277
280.478
280.741
281.059
281.362
280.161
280.056
280.015
280.033
280.115
280.264
280.491
280.795
281.18
281.565
280.115
280.005
279.962
279.98
280.065
280.222
280.466
280.803
281.244
281.715
280.661
280.557
280.514
280.537
280.629
280.797
281.055
281.415
281.889
282.42
280.876
280.859
280.855
280.856
280.861
280.867
280.875
280.884
280.894
280.912
280.489
280.477
280.472
280.475
280.486
280.502
280.523
280.546
280.568
280.588
280.456
280.433
280.425
280.431
280.451
280.482
280.523
280.568
280.612
280.648
280.443
280.407
280.393
280.402
280.433
280.484
280.552
280.629
280.706
280.769
280.399
280.348
280.328
280.339
280.381
280.453
280.551
280.666
280.784
280.884
280.379
280.313
280.287
280.301
280.354
280.446
280.575
280.731
280.901
281.048
280.314
280.234
280.203
280.217
280.279
280.389
280.547
280.745
280.97
281.174
280.299
280.211
280.176
280.192
280.262
280.387
280.57
280.806
281.083
281.345
280.253
280.159
280.122
280.138
280.212
280.347
280.547
280.813
281.136
281.459
280.773
280.683
280.646
280.666
280.746
280.888
281.102
281.388
281.739
282.102
280.889
280.875
280.872
280.872
280.875
280.878
280.883
280.888
280.894
280.91
280.528
280.52
280.517
280.519
280.525
280.535
280.548
280.561
280.575
280.588
280.511
280.496
280.491
280.495
280.508
280.528
280.554
280.582
280.609
280.632
280.506
280.481
280.471
280.477
280.498
280.534
280.579
280.63
280.679
280.719
280.478
280.44
280.425
280.434
280.465
280.517
280.586
280.664
280.743
280.806
280.469
280.418
280.399
280.409
280.45
280.52
280.615
280.726
280.841
280.937
280.414
280.35
280.325
280.337
280.387
280.473
280.593
280.738
280.895
281.03
280.411
280.339
280.311
280.325
280.382
280.483
280.625
280.802
280.997
281.173
280.364
280.286
280.255
280.27
280.332
280.442
280.601
280.803
281.034
281.252
280.857
280.783
280.752
280.769
280.835
280.953
281.123
281.342
281.596
281.838
280.895
280.882
280.88
280.881
280.882
280.884
280.886
280.889
280.893
280.907
280.558
280.552
280.55
280.552
280.555
280.561
280.569
280.577
280.585
280.595
280.555
280.545
280.542
280.544
280.553
280.565
280.581
280.598
280.615
280.63
280.553
280.535
280.528
280.532
280.547
280.57
280.6
280.633
280.664
280.69
280.538
280.51
280.5
280.506
280.528
280.565
280.612
280.665
280.715
280.756
280.538
280.5
280.485
280.493
280.524
280.575
280.643
280.72
280.797
280.859
280.49
280.441
280.422
280.431
280.469
280.534
280.623
280.727
280.833
280.922
280.5
280.444
280.422
280.433
280.478
280.556
280.663
280.791
280.927
281.043
280.451
280.388
280.364
280.376
280.426
280.512
280.634
280.783
280.945
281.09
280.917
280.858
280.833
280.847
280.901
280.993
281.125
281.288
281.466
281.624
280.896
280.884
280.883
280.883
280.884
280.885
280.886
280.888
280.891
280.903
280.581
280.577
280.576
280.576
280.579
280.582
280.587
280.591
280.597
280.604
280.591
280.585
280.583
280.584
280.589
280.597
280.607
280.617
280.627
280.637
280.587
280.575
280.57
280.572
280.582
280.597
280.617
280.638
280.657
280.674
280.583
280.564
280.557
280.561
280.576
280.601
280.633
280.668
280.7
280.726
280.59
280.563
280.552
280.558
280.58
280.616
280.663
280.715
280.765
280.806
280.547
280.511
280.496
280.503
280.531
280.579
280.642
280.714
280.786
280.844
280.57
280.528
280.511
280.52
280.555
280.613
280.691
280.781
280.873
280.949
280.516
280.468
280.449
280.458
280.497
280.563
280.653
280.76
280.871
280.965
280.956
280.911
280.891
280.902
280.944
281.015
281.112
281.229
281.353
281.453
280.893
280.882
280.881
280.881
280.882
280.882
280.883
280.884
280.886
280.898
280.599
280.596
280.595
280.595
280.596
280.599
280.601
280.604
280.608
280.614
280.622
280.618
280.617
280.618
280.621
280.626
280.631
280.637
280.643
280.65
280.612
280.604
280.6
280.602
280.608
280.618
280.63
280.643
280.655
280.667
280.618
280.605
280.6
280.603
280.613
280.63
280.65
280.673
280.693
280.71
280.628
280.609
280.602
280.606
280.621
280.646
280.678
280.712
280.745
280.771
280.589
280.563
280.552
280.557
280.578
280.611
280.655
280.704
280.751
280.789
280.626
280.595
280.583
280.59
280.615
280.657
280.712
280.774
280.835
280.884
280.563
280.527
280.513
280.52
280.549
280.597
280.661
280.736
280.81
280.872
280.976
280.944
280.929
280.937
280.968
281.02
281.091
281.172
281.255
281.318
280.887
280.877
280.876
280.876
280.876
280.877
280.877
280.878
280.879
280.89
280.611
280.609
280.608
280.608
280.609
280.61
280.612
280.614
280.617
280.622
280.65
280.647
280.647
280.647
280.649
280.652
280.655
280.658
280.662
280.666
280.63
280.624
280.622
280.623
280.627
280.633
280.64
280.649
280.656
280.664
280.644
280.636
280.633
280.635
280.641
280.652
280.665
280.679
280.692
280.702
280.656
280.644
280.639
280.641
280.651
280.668
280.689
280.711
280.732
280.749
280.619
280.601
280.594
280.597
280.611
280.634
280.663
280.696
280.726
280.751
280.67
280.649
280.641
280.646
280.663
280.692
280.73
280.771
280.811
280.843
280.595
280.569
280.559
280.564
280.584
280.618
280.663
280.713
280.762
280.802
280.983
280.96
280.949
280.955
280.977
281.014
281.064
281.119
281.174
281.211
280.88
280.871
280.871
280.871
280.871
280.871
280.871
280.871
280.873
280.882
280.618
280.616
280.615
280.615
280.616
280.617
280.618
280.619
280.622
280.626
280.676
280.674
280.674
280.674
280.676
280.677
280.679
280.681
280.682
280.685
280.642
280.638
280.637
280.637
280.64
280.644
280.648
280.653
280.658
280.664
280.664
280.659
280.657
280.658
280.662
280.669
280.677
280.685
280.693
280.7
280.676
280.668
280.664
280.666
280.673
280.683
280.697
280.711
280.724
280.735
280.64
280.628
280.624
280.626
280.635
280.65
280.669
280.69
280.709
280.725
280.707
280.693
280.687
280.69
280.702
280.722
280.747
280.774
280.799
280.819
280.613
280.595
280.588
280.591
280.605
280.629
280.658
280.692
280.723
280.749
280.98
280.965
280.958
280.962
280.977
281.003
281.036
281.072
281.107
281.129
280.879
280.871
280.871
280.87
280.87
280.87
280.871
280.871
280.871
280.879
280.618
280.616
280.615
280.615
280.615
280.616
280.617
280.618
280.62
280.625
280.7
280.699
280.699
280.699
280.7
280.701
280.702
280.702
280.703
280.705
280.65
280.648
280.647
280.647
280.649
280.651
280.654
280.657
280.66
280.663
280.678
280.674
280.673
280.674
280.676
280.68
280.685
280.69
280.695
280.7
280.688
280.682
280.68
280.681
280.685
280.692
280.7
280.709
280.718
280.725
280.655
280.647
280.644
280.646
280.652
280.661
280.673
280.686
280.697
280.708
280.735
280.726
280.722
280.724
280.732
280.745
280.761
280.778
280.795
280.807
280.619
280.606
280.602
280.604
280.613
280.629
280.648
280.669
280.689
280.706
280.977
280.968
280.962
280.965
280.976
280.992
281.014
281.037
281.06
281.072
280.894
280.889
280.889
280.889
280.889
280.889
280.889
280.889
280.889
280.895
280.606
280.604
280.603
280.603
280.603
280.604
280.605
280.606
280.607
280.612
280.719
280.718
280.718
280.718
280.718
280.719
280.72
280.72
280.721
280.722
280.655
280.653
280.653
280.653
280.654
280.655
280.657
280.659
280.66
280.663
280.685
280.682
280.682
280.682
280.683
280.686
280.689
280.692
280.695
280.698
280.692
280.688
280.687
280.687
280.69
280.694
280.699
280.705
280.71
280.715
280.663
280.658
280.656
280.657
280.661
280.667
280.675
280.682
280.689
280.695
280.75
280.744
280.741
280.742
280.747
280.756
280.766
280.778
280.789
280.796
280.609
280.6
280.597
280.599
280.605
280.615
280.627
280.64
280.652
280.663
280.987
280.982
280.978
280.98
280.986
280.997
281.011
281.026
281.041
281.047
280.949
280.945
280.944
280.944
280.944
280.944
280.944
280.944
280.944
280.949
280.574
280.572
280.572
280.572
280.573
280.573
280.573
280.573
280.574
280.578
280.726
280.725
280.724
280.724
280.724
280.724
280.725
280.726
280.727
280.729
280.658
280.657
280.657
280.657
280.658
280.659
280.659
280.66
280.661
280.662
280.687
280.685
280.684
280.684
280.685
280.687
280.689
280.691
280.693
280.695
280.69
280.688
280.686
280.687
280.688
280.691
280.694
280.698
280.702
280.705
280.666
280.663
280.662
280.663
280.665
280.669
280.674
280.678
280.682
280.685
280.743
280.738
280.736
280.737
280.74
280.745
280.753
280.76
280.769
280.775
280.574
280.57
280.568
280.569
280.573
280.58
280.587
280.595
280.602
280.608
281.028
281.024
281.021
281.022
281.027
281.034
281.043
281.053
281.063
281.066
281.033
281.03
281.03
281.029
281.029
281.029
281.03
281.03
281.032
281.035
280.518
280.519
280.521
280.522
280.523
280.523
280.522
280.521
280.519
280.519
280.717
280.715
280.713
280.712
280.712
280.713
280.714
280.715
280.718
280.721
280.661
280.661
280.661
280.662
280.662
280.662
280.663
280.663
280.663
280.663
280.686
280.685
280.684
280.684
280.685
280.686
280.687
280.689
280.691
280.693
280.687
280.685
280.684
280.685
280.686
280.688
280.69
280.693
280.696
280.698
280.667
280.666
280.665
280.666
280.667
280.67
280.674
280.677
280.679
280.681
280.715
280.71
280.708
280.708
280.711
280.715
280.72
280.726
280.733
280.74
280.518
280.516
280.515
280.516
280.519
280.524
280.529
280.535
280.538
280.538
281.091
281.087
281.085
281.086
281.089
281.095
281.101
281.109
281.116
281.119
289.539
291.291
291.556
289.976
290.696
292.819
293.23
291.58
292.347
294.966
295.501
293.542
293.62
296.679
297.349
295.18
294.559
298.029
298.841
296.532
295.301
299.151
300.125
297.964
295.846
300.057
301.224
299.386
296.316
300.852
302.227
300.765
296.529
301.367
302.956
301.917
297.088
302.118
303.975
303.518
286.26
286.804
286.787
286.267
287.546
288.188
288.129
287.481
289.135
289.937
289.829
288.977
290.56
291.509
291.341
290.297
291.725
292.813
292.581
291.352
292.736
293.962
293.709
292.323
293.536
294.892
294.649
293.129
294.227
295.688
295.466
293.835
294.66
296.184
295.99
294.294
295.442
296.94
296.856
295.213
282.375
282.507
282.539
282.473
283.099
283.316
283.357
283.224
284.251
284.589
284.635
284.388
285.503
285.961
286.003
285.626
286.651
287.225
287.254
286.734
287.773
288.459
288.474
287.818
288.755
289.549
289.551
288.77
289.685
290.571
290.564
289.678
290.435
291.361
291.353
290.416
291.672
292.527
292.559
291.699
281.609
281.674
281.695
281.675
281.866
281.951
281.981
281.961
282.564
282.712
282.755
282.703
283.426
283.648
283.701
283.601
284.253
284.553
284.611
284.449
285.131
285.512
285.571
285.334
285.939
286.4
286.458
286.139
286.766
287.299
287.352
286.952
287.511
288.077
288.125
287.671
288.847
289.338
289.4
288.989
281.176
281.211
281.223
281.213
281.215
281.244
281.259
281.259
281.656
281.713
281.74
281.737
282.255
282.354
282.394
282.379
282.839
282.988
283.04
283.003
283.495
283.701
283.763
283.694
284.11
284.375
284.445
284.335
284.776
285.097
285.169
285.011
285.402
285.752
285.822
285.625
286.645
286.924
287
286.84
281.002
281.03
281.039
281.029
280.907
280.92
280.927
280.929
281.205
281.231
281.245
281.246
281.635
281.682
281.705
281.706
282.052
282.127
282.162
282.158
282.541
282.651
282.698
282.685
282.998
283.148
283.204
283.177
283.513
283.702
283.766
283.717
284.004
284.215
284.28
284.209
285.116
285.259
285.328
285.297
280.916
280.942
280.949
280.938
280.738
280.744
280.748
280.749
280.943
280.955
280.962
280.964
281.262
281.286
281.299
281.301
281.57
281.609
281.63
281.632
281.946
282.006
282.035
282.037
282.29
282.374
282.413
282.411
282.689
282.798
282.845
282.835
283.058
283.183
283.233
283.213
284.046
284.104
284.156
284.181
280.877
280.903
280.91
280.898
280.652
280.655
280.657
280.658
280.792
280.798
280.802
280.803
281.03
281.043
281.05
281.051
281.261
281.282
281.294
281.296
281.555
281.589
281.606
281.609
281.818
281.865
281.89
281.893
282.13
282.193
282.224
282.225
282.4
282.473
282.508
282.506
283.284
283.289
283.324
283.37
280.862
280.887
280.894
280.882
280.61
280.613
280.614
280.614
280.706
280.71
280.712
280.713
280.883
280.891
280.895
280.895
281.055
281.068
281.075
281.075
281.287
281.306
281.317
281.319
281.486
281.514
281.529
281.532
281.732
281.77
281.789
281.792
281.929
281.972
281.995
281.998
282.725
282.699
282.721
282.772
280.856
280.882
280.888
280.877
280.595
280.597
280.598
280.598
280.661
280.664
280.666
280.665
280.791
280.796
280.799
280.798
280.919
280.927
280.931
280.931
281.101
281.112
281.119
281.119
281.249
281.266
281.275
281.277
281.444
281.467
281.479
281.481
281.584
281.611
281.625
281.628
282.305
282.262
282.274
282.325
280.855
280.881
280.887
280.875
280.595
280.597
280.597
280.597
280.642
280.644
280.645
280.645
280.735
280.739
280.74
280.74
280.83
280.836
280.838
280.837
280.971
280.979
280.983
280.983
281.078
281.089
281.095
281.095
281.235
281.249
281.257
281.258
281.33
281.346
281.355
281.357
281.983
281.932
281.939
281.986
280.855
280.88
280.887
280.875
280.602
280.604
280.604
280.603
280.639
280.641
280.641
280.64
280.703
280.705
280.706
280.706
280.774
280.777
280.779
280.778
280.883
280.888
280.89
280.89
280.955
280.963
280.966
280.966
281.084
281.093
281.098
281.098
281.141
281.152
281.157
281.158
281.735
281.68
281.683
281.728
280.853
280.879
280.886
280.873
280.612
280.614
280.614
280.613
280.645
280.647
280.647
280.646
280.685
280.687
280.688
280.687
280.739
280.742
280.743
280.742
280.823
280.827
280.829
280.828
280.868
280.873
280.876
280.875
280.977
280.983
280.986
280.986
281.002
281.009
281.012
281.012
281.542
281.487
281.488
281.529
280.849
280.876
280.883
280.87
280.622
280.623
280.624
280.623
280.657
280.659
280.659
280.658
280.676
280.678
280.679
280.678
280.72
280.722
280.723
280.722
280.784
280.787
280.788
280.788
280.807
280.811
280.812
280.812
280.904
280.908
280.91
280.909
280.899
280.904
280.906
280.906
281.39
281.338
281.338
281.375
280.844
280.871
280.877
280.864
280.63
280.631
280.632
280.631
280.673
280.674
280.674
280.673
280.672
280.674
280.674
280.674
280.711
280.713
280.713
280.712
280.76
280.762
280.763
280.762
280.765
280.768
280.769
280.768
280.857
280.86
280.862
280.861
280.823
280.827
280.828
280.827
281.271
281.222
281.222
281.255
280.839
280.866
280.872
280.859
280.634
280.635
280.636
280.635
280.69
280.692
280.692
280.691
280.671
280.672
280.673
280.672
280.707
280.709
280.709
280.708
280.744
280.746
280.747
280.746
280.737
280.739
280.739
280.738
280.83
280.833
280.833
280.832
280.767
280.77
280.77
280.769
281.178
281.135
281.134
281.163
280.84
280.866
280.872
280.858
280.632
280.633
280.634
280.633
280.709
280.71
280.71
280.709
280.669
280.671
280.671
280.67
280.706
280.707
280.707
280.707
280.733
280.735
280.735
280.734
280.717
280.719
280.719
280.718
280.816
280.818
280.819
280.818
280.721
280.724
280.724
280.722
281.11
281.074
281.073
281.097
280.86
280.885
280.89
280.877
280.619
280.62
280.621
280.621
280.726
280.726
280.726
280.726
280.668
280.669
280.669
280.668
280.704
280.705
280.706
280.705
280.723
280.724
280.725
280.724
280.702
280.703
280.704
280.702
280.805
280.808
280.808
280.807
280.676
280.679
280.679
280.677
281.075
281.047
281.047
281.065
280.92
280.943
280.946
280.933
280.585
280.586
280.587
280.586
280.733
280.734
280.734
280.734
280.665
280.666
280.666
280.666
280.701
280.702
280.702
280.702
280.712
280.714
280.714
280.713
280.69
280.691
280.691
280.69
280.786
280.788
280.789
280.788
280.618
280.62
280.62
280.618
281.086
281.069
281.069
281.081
281.019
281.033
281.034
281.026
280.523
280.523
280.523
280.522
280.727
280.729
280.73
280.73
280.665
280.665
280.665
280.664
280.697
280.698
280.699
280.698
280.704
280.705
280.705
280.705
280.683
280.684
280.684
280.683
280.754
280.757
280.758
280.757
280.537
280.538
280.537
280.536
281.136
281.132
281.132
281.135
282.325
281.041
280.503
280.159
279.866
279.626
279.435
279.284
279.163
279.059
282.478
281.251
280.422
279.9
279.485
279.178
278.95
278.78
278.651
278.546
283.045
281.748
280.623
279.986
279.487
279.141
278.887
278.696
278.552
278.438
283.629
282.269
280.875
280.174
279.611
279.241
278.968
278.764
278.608
278.482
284.092
282.707
281.067
280.316
279.693
279.304
279.013
278.796
278.631
278.497
284.628
283.182
281.319
280.532
279.849
279.443
279.131
278.9
278.72
278.57
285.096
283.566
281.503
280.693
279.954
279.534
279.202
278.958
278.764
278.605
285.65
284.043
281.793
280.966
280.168
279.732
279.371
279.103
278.883
278.692
286.088
284.424
281.995
281.192
280.359
279.918
279.521
279.224
278.977
278.763
287.813
286.148
283.563
282.706
281.747
281.181
280.66
280.261
279.93
279.641
284.105
282.807
281.827
281.119
280.63
280.286
280.037
279.85
279.705
279.585
284.552
282.779
281.457
280.602
280.052
279.675
279.407
279.212
279.069
278.963
285.139
282.959
281.381
280.456
279.864
279.468
279.189
278.988
278.844
278.742
285.615
283.133
281.362
280.414
279.796
279.394
279.114
278.915
278.775
278.675
285.869
283.175
281.274
280.32
279.68
279.281
279.004
278.812
278.678
278.584
286.056
283.232
281.238
280.295
279.639
279.248
278.975
278.788
278.657
278.563
286.091
283.202
281.135
280.221
279.554
279.176
278.908
278.728
278.601
278.51
286.139
283.25
281.127
280.256
279.577
279.213
278.944
278.764
278.63
278.529
286.088
283.23
281.059
280.268
279.604
279.27
278.995
278.807
278.663
278.55
286.992
284.285
282.118
281.377
280.664
280.275
279.931
279.688
279.498
279.357
282.243
281.869
281.502
281.175
280.895
280.66
280.464
280.302
280.165
280.048
282.704
282.028
281.414
280.905
280.493
280.167
279.91
279.71
279.554
279.436
283.465
282.456
281.594
280.929
280.415
280.024
279.727
279.502
279.333
279.209
284.221
282.889
281.794
281.002
280.409
279.976
279.657
279.42
279.245
279.118
284.781
283.167
281.871
280.982
280.331
279.873
279.543
279.302
279.127
279.001
285.278
283.425
281.958
280.999
280.306
279.835
279.499
279.259
279.084
278.956
285.614
283.566
281.953
280.952
280.229
279.755
279.418
279.181
279.007
278.882
285.927
283.734
282.002
280.982
280.24
279.769
279.432
279.193
279.014
278.881
286.122
283.812
281.98
280.981
280.247
279.795
279.455
279.211
279.024
278.882
287.105
284.79
282.921
281.944
281.18
280.692
280.306
280.025
279.808
279.65
281.636
281.492
281.316
281.137
280.968
280.814
280.677
280.558
280.452
280.356
281.843
281.557
281.228
280.913
280.633
280.393
280.193
280.027
279.892
279.785
282.461
281.98
281.472
281.019
280.635
280.32
280.066
279.862
279.702
279.581
283.181
282.467
281.763
281.175
280.698
280.321
280.026
279.797
279.619
279.486
283.794
282.837
281.942
281.233
280.677
280.254
279.931
279.686
279.499
279.361
284.397
283.2
282.124
281.313
280.694
280.237
279.895
279.639
279.446
279.303
284.876
283.451
282.21
281.317
280.648
280.17
279.816
279.555
279.359
279.214
285.34
283.712
282.327
281.376
280.671
280.18
279.818
279.552
279.349
279.197
285.699
283.881
282.371
281.398
280.681
280.192
279.824
279.551
279.342
279.183
286.739
284.819
283.25
282.268
281.523
281.006
280.607
280.308
280.079
279.914
281.225
281.18
281.109
281.026
280.939
280.852
280.77
280.693
280.621
280.55
281.234
281.122
280.967
280.799
280.633
280.479
280.341
280.22
280.116
280.032
281.679
281.473
281.21
280.941
280.688
280.463
280.27
280.107
279.973
279.866
282.26
281.923
281.526
281.144
280.803
280.512
280.269
280.07
279.911
279.786
282.792
282.299
281.755
281.261
280.838
280.489
280.207
279.981
279.803
279.667
283.359
282.694
281.999
281.399
280.902
280.505
280.192
279.946
279.754
279.607
283.843
282.998
282.153
281.458
280.898
280.464
280.128
279.868
279.667
279.514
284.335
283.313
282.328
281.555
280.944
280.484
280.13
279.859
279.649
279.488
284.742
283.54
282.43
281.606
280.966
280.492
280.126
279.847
279.629
279.462
285.774
284.45
283.269
282.412
281.741
281.243
280.854
280.556
280.324
280.157
281.047
281.03
280.999
280.958
280.912
280.864
280.816
280.768
280.721
280.671
280.92
280.868
280.791
280.7
280.604
280.509
280.418
280.336
280.263
280.202
281.227
281.13
280.99
280.833
280.674
280.523
280.386
280.265
280.162
280.077
281.667
281.502
281.279
281.041
280.811
280.601
280.417
280.258
280.125
280.018
282.086
281.832
281.51
281.184
280.881
280.614
280.386
280.196
280.039
279.915
282.565
282.204
281.772
281.354
280.981
280.662
280.396
280.178
280.002
279.863
282.989
282.507
281.957
281.452
281.012
280.649
280.352
280.113
279.922
279.773
283.442
282.83
282.164
281.578
281.083
280.684
280.363
280.107
279.903
279.744
283.827
283.073
282.299
281.652
281.118
280.695
280.356
280.089
279.877
279.711
284.804
283.947
283.102
282.413
281.845
281.398
281.04
280.757
280.534
280.372
280.958
280.953
280.938
280.918
280.894
280.868
280.841
280.813
280.783
280.747
280.746
280.72
280.68
280.63
280.575
280.518
280.462
280.408
280.36
280.318
280.955
280.906
280.83
280.739
280.642
280.545
280.453
280.368
280.293
280.23
281.285
281.199
281.073
280.929
280.779
280.635
280.502
280.383
280.279
280.193
281.604
281.469
281.28
281.072
280.865
280.671
280.497
280.345
280.216
280.111
281.99
281.793
281.53
281.251
280.983
280.74
280.528
280.346
280.194
280.071
282.337
282.065
281.718
281.366
281.039
280.75
280.503
280.296
280.125
279.989
282.723
282.365
281.931
281.509
281.127
280.8
280.525
280.297
280.111
279.963
283.047
282.593
282.075
281.595
281.172
280.816
280.52
280.279
280.082
279.927
283.947
283.419
282.841
282.317
281.86
281.481
281.167
280.912
280.707
280.556
280.919
280.918
280.911
280.9
280.887
280.873
280.858
280.841
280.822
280.795
280.656
280.642
280.619
280.591
280.559
280.525
280.491
280.457
280.427
280.4
280.798
280.77
280.727
280.674
280.615
280.554
280.494
280.437
280.385
280.34
281.042
280.995
280.922
280.834
280.739
280.643
280.55
280.464
280.388
280.322
281.281
281.206
281.095
280.963
280.825
280.689
280.561
280.446
280.345
280.26
281.587
281.476
281.316
281.134
280.948
280.77
280.607
280.463
280.338
280.234
281.86
281.704
281.487
281.249
281.013
280.794
280.598
280.428
280.282
280.164
282.175
281.966
281.688
281.394
281.111
280.855
280.63
280.438
280.276
280.144
282.432
282.163
281.825
281.481
281.16
280.875
280.628
280.421
280.247
280.108
283.248
282.932
282.547
282.165
281.814
281.507
281.244
281.023
280.842
280.707
280.902
280.903
280.899
280.894
280.887
280.879
280.871
280.861
280.848
280.826
280.613
280.604
280.59
280.574
280.555
280.535
280.514
280.494
280.475
280.458
280.709
280.692
280.667
280.635
280.599
280.561
280.523
280.485
280.451
280.42
280.889
280.861
280.818
280.764
280.704
280.641
280.578
280.519
280.464
280.417
281.066
281.022
280.955
280.873
280.782
280.689
280.598
280.514
280.438
280.373
281.306
281.241
281.143
281.025
280.899
280.772
280.652
280.542
280.444
280.361
281.514
281.423
281.287
281.129
280.963
280.802
280.652
280.518
280.4
280.302
281.767
281.643
281.466
281.266
281.063
280.87
280.693
280.537
280.403
280.291
281.962
281.803
281.584
281.346
281.11
280.89
280.693
280.522
280.375
280.255