/*--------------------------------*- C++ -*----------------------------------*\
| =========                 |                                                 |
| \\      /  F ield         | foam-extend: Open Source CFD                    |
|  \\    /   O peration     | Version:     4.0                                |
|   \\  /    A nd           | Web:         http://www.foam-extend.org         |
|    \\/     M anipulation  |                                                 |
\*---------------------------------------------------------------------------*/
FoamFile
{
    version     2.0;
    format      ascii;
    class       volVectorField;
    location    "1000";
    object      U;
}
// * * * * * * * * * * * * * * * * * * * * * * * * * * * * * * * * * * * * * //

dimensions      [0 1 -1 0 0 0 0];

internalField   nonuniform List<vector> 
34480
(
(208.155 2.19474 3.27082)
(208.481 1.23461 1.54561)
(208.649 0.453482 -0.240864)
(208.668 -0.167825 -2.13496)
(208.534 -0.66112 -4.27672)
(208.211 -1.02227 -6.84411)
(207.618 -1.22448 -10.239)
(206.48 -1.14424 -14.8056)
(203.845 -0.546481 -22.7134)
(196.958 2.01995 -49.9576)
(209.101 3.15349 2.87023)
(209.371 2.342 1.06278)
(209.513 1.6229 -0.747938)
(209.503 0.992426 -2.63518)
(209.287 0.423459 -4.71836)
(208.805 -0.0944956 -7.20787)
(208.022 -0.57069 -10.5647)
(206.755 -0.941869 -15.5303)
(203.65 -1.04002 -24.3234)
(195.546 0.737564 -54.9998)
(209.837 2.81169 3.27101)
(210.082 1.94378 1.40131)
(210.192 1.17472 -0.487968)
(210.139 0.524886 -2.41814)
(209.863 -0.0495398 -4.51982)
(209.359 -0.571109 -7.05257)
(208.632 -1.05572 -10.5462)
(207.517 -1.42218 -16.0296)
(204.25 -1.49544 -25.6888)
(195.109 0.495524 -59.3407)
(209.906 3.36394 3.21073)
(210.151 2.5431 1.28813)
(210.274 1.8057 -0.631392)
(210.253 1.18643 -2.5872)
(210.038 0.642164 -4.7178)
(209.648 0.149613 -7.31209)
(209.059 -0.309765 -10.903)
(208.114 -0.642994 -16.7409)
(204.828 -0.667439 -27.018)
(194.895 1.47383 -62.6113)
(210.137 2.82788 3.70974)
(210.408 1.93266 1.75145)
(210.566 1.14505 -0.24559)
(210.605 0.501506 -2.27493)
(210.48 -0.0586464 -4.50083)
(210.224 -0.556698 -7.22437)
(209.786 -1.00376 -10.9759)
(209.029 -1.29407 -17.194)
(205.847 -1.23386 -28.1357)
(195.277 1.07228 -65.282)
(210.09 3.50404 3.48517)
(210.371 2.6248 1.53156)
(210.545 1.8539 -0.425702)
(210.616 1.23126 -2.42335)
(210.558 0.706662 -4.61893)
(210.419 0.255345 -7.33844)
(210.135 -0.132977 -11.0968)
(209.594 -0.352352 -17.5053)
(206.663 -0.187587 -28.9311)
(195.697 2.21762 -67.2594)
(210.23 2.65048 4.00395)
(210.547 1.67697 2.05093)
(210.748 0.833252 0.0519333)
(210.858 0.150314 -1.97766)
(210.858 -0.427783 -4.22516)
(210.816 -0.917558 -7.01827)
(210.673 -1.30332 -10.876)
(210.35 -1.46108 -17.5319)
(207.751 -1.09971 -29.5349)
(196.49 1.59684 -68.8899)
(210.101 3.40428 3.54048)
(210.421 2.41835 1.62069)
(210.601 1.59397 -0.2989)
(210.67 0.937606 -2.26362)
(210.632 0.41702 -4.42448)
(210.573 -0.00315631 -7.11468)
(210.476 -0.297177 -10.8369)
(210.309 -0.335062 -17.414)
(208.118 0.32725 -29.6055)
(196.889 3.3844 -69.5002)
(210.078 2.06419 4.09186)
(210.438 0.961471 2.22558)
(210.65 0.0148253 0.331278)
(210.76 -0.792545 -1.60919)
(210.775 -1.49227 -3.78921)
(210.764 -2.09043 -6.51931)
(210.736 -2.50608 -10.3367)
(210.708 -2.56101 -17.0335)
(208.845 -1.51201 -29.5983)
(197.502 2.49543 -69.4716)
(209.125 2.78704 3.51918)
(209.396 1.582 1.6096)
(209.35 0.636774 -0.280187)
(209.011 -0.144608 -2.23085)
(208.418 -0.749348 -4.37836)
(207.664 -1.19148 -7.00881)
(206.829 -1.37824 -10.597)
(206.081 -1.0916 -16.7484)
(204.19 0.428233 -28.4614)
(194.09 5.28885 -66.442)
(205.085 1.93824 3.00199)
(205.567 1.14183 1.55503)
(205.761 0.46306 0.0102793)
(205.688 -0.0783215 -1.58293)
(205.322 -0.505976 -3.2873)
(204.575 -0.820211 -5.11614)
(203.244 -1.02478 -7.12366)
(200.897 -1.13058 -9.28568)
(197.455 -1.21504 -11.2234)
(192.913 -1.11537 -14.3968)
(206.4 2.93705 2.78677)
(206.838 2.24236 1.16189)
(207.021 1.60332 -0.480178)
(206.947 1.03163 -2.16748)
(206.551 0.507086 -3.9666)
(205.713 0.0240323 -5.9363)
(204.238 -0.431973 -8.17019)
(201.671 -0.89545 -10.9196)
(197.521 -1.4831 -13.9719)
(191.869 -1.72429 -20.5744)
(207.393 2.66684 3.28239)
(207.81 1.87315 1.53252)
(207.98 1.15285 -0.254461)
(207.896 0.534823 -2.07537)
(207.476 -0.0180875 -4.00377)
(206.622 -0.517838 -6.12402)
(205.159 -0.993134 -8.62547)
(202.603 -1.45952 -12.0402)
(198.082 -2.02506 -16.2836)
(191.506 -1.93971 -26.6933)
(207.693 3.27427 3.26973)
(208.116 2.51161 1.43768)
(208.306 1.80902 -0.404983)
(208.262 1.20748 -2.28374)
(207.906 0.669281 -4.28348)
(207.155 0.183488 -6.53105)
(205.809 -0.282016 -9.25243)
(203.353 -0.718754 -13.2052)
(198.611 -1.22005 -18.4176)
(191.232 -0.788803 -32.4193)
(208.112 2.76317 3.79833)
(208.56 1.91507 1.91367)
(208.786 1.15508 -0.0238233)
(208.805 0.526894 -1.99556)
(208.54 -0.0244802 -4.11821)
(207.926 -0.509717 -6.54594)
(206.732 -0.962989 -9.52074)
(204.443 -1.35396 -14.0035)
(199.631 -1.76113 -20.1649)
(191.552 -0.930031 -37.6484)
(208.21 3.47459 3.5948)
(208.67 2.63369 1.70052)
(208.92 1.88344 -0.206743)
(208.981 1.26937 -2.15835)
(208.789 0.744643 -4.26539)
(208.303 0.295468 -6.72805)
(207.275 -0.108298 -9.78762)
(205.21 -0.427248 -14.5992)
(200.489 -0.703854 -21.4788)
(191.89 0.492715 -42.1609)
(208.469 2.63209 4.12337)
(208.962 1.69262 2.22238)
(209.241 0.871394 0.263827)
(209.347 0.205685 -1.72772)
(209.223 -0.35486 -3.89938)
(208.852 -0.821509 -6.46735)
(207.987 -1.21003 -9.68575)
(206.168 -1.46636 -14.8525)
(201.656 -1.55133 -22.4977)
(192.636 0.107066 -46.1935)
(208.424 3.41734 3.6665)
(208.924 2.46412 1.79674)
(209.192 1.66116 -0.0752816)
(209.273 1.01993 -1.99518)
(209.134 0.514038 -4.07815)
(208.785 0.111578 -6.5707)
(208.014 -0.18915 -9.72107)
(206.416 -0.343429 -14.9405)
(202.233 -0.133256 -22.9848)
(193.087 1.90776 -49.1687)
(208.468 2.07631 4.21985)
(208.997 1.00946 2.39903)
(209.292 0.107459 0.54309)
(209.411 -0.641317 -1.34429)
(209.332 -1.26713 -3.43466)
(209.059 -1.78259 -5.97574)
(208.41 -2.13935 -9.27405)
(207.038 -2.27352 -14.7299)
(203.194 -1.69697 -23.4234)
(193.801 1.04705 -51.4558)
(207.558 2.86183 3.62262)
(208.031 1.7022 1.79576)
(208.154 0.813448 -0.00936937)
(207.956 0.0892716 -1.86493)
(207.45 -0.451344 -3.87829)
(206.67 -0.833725 -6.29564)
(205.501 -0.99391 -9.40744)
(203.734 -0.816191 -14.5018)
(200.035 0.234462 -22.9748)
(191.463 4.05011 -51.3093)
(202.752 1.45347 2.33146)
(203.258 0.863891 1.22048)
(203.444 0.33629 -0.00248116)
(203.348 -0.0958249 -1.2478)
(202.956 -0.445178 -2.53579)
(202.219 -0.708979 -3.81261)
(201.044 -0.896716 -5.03065)
(199.279 -1.03344 -6.04091)
(196.734 -1.20447 -6.493)
(193.531 -1.39393 -6.52617)
(204.167 2.47953 2.29807)
(204.667 1.94546 0.939774)
(204.855 1.42412 -0.445604)
(204.743 0.936874 -1.85519)
(204.291 0.474383 -3.31509)
(203.416 0.0316196 -4.82853)
(201.955 -0.404241 -6.35943)
(199.637 -0.864988 -7.84507)
(196.018 -1.46243 -8.79104)
(191.181 -2.04875 -9.81814)
(205.244 2.29613 2.92008)
(205.75 1.62411 1.37821)
(205.94 0.991699 -0.213382)
(205.827 0.432119 -1.83206)
(205.353 -0.0855258 -3.52387)
(204.416 -0.570755 -5.30611)
(202.816 -1.04809 -7.18917)
(200.185 -1.54671 -9.26614)
(195.692 -2.21194 -10.9803)
(189.259 -2.79437 -13.5823)
(205.693 2.98655 2.95869)
(206.221 2.32069 1.29624)
(206.435 1.68592 -0.387683)
(206.357 1.12528 -2.10612)
(205.921 0.605899 -3.92289)
(205.024 0.118614 -5.89688)
(203.412 -0.367821 -8.07471)
(200.62 -0.870069 -10.7071)
(195.399 -1.55004 -13.1695)
(187.481 -2.03551 -17.5498)
(206.254 2.51448 3.52854)
(206.813 1.74831 1.78127)
(207.062 1.0455 -0.0269742)
(207.039 0.450461 -1.87004)
(206.673 -0.0871057 -3.8492)
(205.865 -0.575305 -6.05559)
(204.315 -1.04937 -8.56455)
(201.484 -1.51379 -11.791)
(195.724 -2.15644 -15.0916)
(186.495 -2.44626 -21.5555)
(206.476 3.27573 3.35095)
(207.052 2.50282 1.57304)
(207.327 1.80008 -0.225747)
(207.345 1.21269 -2.07218)
(207.042 0.695944 -4.06667)
(206.332 0.237937 -6.35134)
(204.883 -0.196039 -9.01937)
(202.114 -0.604038 -12.6686)
(196.013 -1.15997 -16.6719)
(185.699 -1.22062 -25.3129)
(206.842 2.45127 3.90308)
(207.448 1.57372 2.10017)
(207.752 0.798673 0.232812)
(207.816 0.163081 -1.67237)
(207.574 -0.381628 -3.75509)
(206.964 -0.843624 -6.1806)
(205.635 -1.24501 -9.07383)
(202.987 -1.57495 -13.182)
(196.715 -1.97095 -17.9809)
(185.478 -1.6987 -28.9322)
(206.887 3.27605 3.45046)
(207.499 2.3827 1.67513)
(207.796 1.62361 -0.108236)
(207.844 1.01197 -1.94592)
(207.596 0.521217 -3.94866)
(207.015 0.1252 -6.32269)
(205.771 -0.18799 -9.21002)
(203.276 -0.418231 -13.5027)
(197.022 -0.549708 -18.8248)
(185.127 0.00245224 -31.8479)
(207.01 1.92348 4.00883)
(207.638 0.917138 2.27073)
(207.957 0.0726236 0.48622)
(208.034 -0.617498 -1.33343)
(207.829 -1.18483 -3.34837)
(207.311 -1.63971 -5.76806)
(206.179 -1.94631 -8.8242)
(203.878 -2.08203 -13.4624)
(197.758 -1.81753 -19.5939)
(185.087 -0.753979 -34.24)
(206.167 2.76804 3.37901)
(206.743 1.68471 1.66828)
(206.933 0.865628 -0.0314454)
(206.774 0.206123 -1.78992)
(206.256 -0.273722 -3.70406)
(205.369 -0.596227 -5.98792)
(203.879 -0.709462 -8.8689)
(201.341 -0.532842 -13.2537)
(195.357 0.229356 -19.4988)
(182.629 2.31385 -34.6742)
(201.055 0.974247 1.69606)
(201.494 0.576391 0.910648)
(201.648 0.196912 0.0117608)
(201.554 -0.124864 -0.889239)
(201.212 -0.394559 -1.79093)
(200.603 -0.606652 -2.61205)
(199.698 -0.773132 -3.28765)
(198.469 -0.917231 -3.68261)
(196.914 -1.09437 -3.58137)
(195.188 -1.33116 -2.76151)
(202.399 1.96901 1.77379)
(202.87 1.60043 0.707137)
(203.039 1.20728 -0.391351)
(202.915 0.817114 -1.49514)
(202.476 0.431668 -2.59578)
(201.675 0.0484327 -3.66304)
(200.434 -0.342927 -4.62108)
(198.645 -0.765189 -5.34151)
(196.176 -1.28733 -5.40251)
(193.369 -1.86188 -4.62953)
(203.428 1.83816 2.47407)
(203.942 1.30797 1.1855)
(204.126 0.783186 -0.16088)
(203.993 0.30115 -1.51932)
(203.504 -0.16071 -2.90655)
(202.587 -0.610441 -4.30304)
(201.107 -1.06742 -5.64274)
(198.866 -1.55728 -6.83434)
(195.511 -2.18731 -7.29189)
(191.423 -2.89077 -6.92839)
(203.934 2.60888 2.55149)
(204.495 2.06391 1.1079)
(204.707 1.51793 -0.365545)
(204.594 1.01743 -1.8611)
(204.106 0.537669 -3.41456)
(203.153 0.0698136 -5.04065)
(201.541 -0.414811 -6.69418)
(198.969 -0.938598 -8.36025)
(194.76 -1.64137 -9.2784)
(189.293 -2.41155 -9.54006)
(204.573 2.18175 3.16358)
(205.177 1.52181 1.60018)
(205.423 0.895922 -0.0305185)
(205.351 0.350502 -1.6852)
(204.899 -0.156869 -3.43867)
(203.972 -0.633838 -5.33505)
(202.313 -1.11345 -7.35578)
(199.53 -1.61364 -9.58485)
(194.578 -2.32433 -11.1182)
(187.78 -3.06425 -12.3629)
(204.88 2.99843 3.01565)
(205.511 2.31712 1.39703)
(205.783 1.68027 -0.249775)
(205.745 1.13484 -1.93625)
(205.332 0.641915 -3.73975)
(204.455 0.189411 -5.75266)
(202.806 -0.259846 -7.97864)
(199.92 -0.723777 -10.6361)
(194.368 -1.40042 -12.7144)
(186.37 -2.05878 -15.127)
(205.326 2.20199 3.597)
(205.988 1.40793 1.93051)
(206.287 0.694924 0.193262)
(206.29 0.1013 -1.57642)
(205.924 -0.417082 -3.49714)
(205.112 -0.867877 -5.6853)
(203.512 -1.27757 -8.18404)
(200.598 -1.65768 -11.3301)
(194.593 -2.21059 -14.0924)
(185.511 -2.68173 -17.9381)
(205.446 3.0791 3.15505)
(206.116 2.26515 1.50855)
(206.412 1.56335 -0.153055)
(206.404 0.991246 -1.86722)
(206.034 0.523946 -3.72611)
(205.24 0.139461 -5.88917)
(203.679 -0.183359 -8.42637)
(200.805 -0.471516 -11.8162)
(194.544 -0.814566 -15.0767)
(184.581 -1.12569 -20.3054)
(205.637 1.72719 3.74225)
(206.314 0.798166 2.11834)
(206.626 0.0177685 0.434225)
(206.642 -0.613927 -1.28473)
(206.307 -1.128 -3.17712)
(205.557 -1.53161 -5.39839)
(204.054 -1.80373 -8.09978)
(201.271 -1.95419 -11.8467)
(194.94 -1.90657 -15.9504)
(184.011 -1.85524 -22.3663)
(204.863 2.64688 3.09054)
(205.492 1.65227 1.51786)
(205.715 0.906096 -0.0584021)
(205.562 0.30996 -1.6975)
(205.008 -0.11439 -3.47864)
(204.005 -0.386431 -5.56996)
(202.262 -0.466786 -8.12193)
(199.289 -0.303826 -11.6829)
(192.977 0.239276 -16.0215)
(181.561 1.21479 -22.8515)
(199.881 0.575529 1.18647)
(200.224 0.321897 0.662046)
(200.341 0.062936 0.0349354)
(200.269 -0.165061 -0.581569)
(200.014 -0.365619 -1.18455)
(199.579 -0.530958 -1.69439)
(198.971 -0.670458 -2.06433)
(198.21 -0.799153 -2.20445)
(197.347 -0.943562 -2.02287)
(196.498 -1.11189 -1.43485)
(201.061 1.49163 1.29259)
(201.456 1.26282 0.496281)
(201.597 0.986711 -0.329608)
(201.489 0.690466 -1.14969)
(201.122 0.38367 -1.93709)
(200.479 0.0678122 -2.6487)
(199.539 -0.261489 -3.21044)
(198.294 -0.614327 -3.51356)
(196.764 -1.0198 -3.33112)
(195.252 -1.44555 -2.525)
(201.948 1.36445 2.02093)
(202.421 0.970557 0.993253)
(202.588 0.554989 -0.0971133)
(202.461 0.156261 -1.18712)
(202.017 -0.239711 -2.26889)
(201.216 -0.637385 -3.30115)
(199.991 -1.04997 -4.19955)
(198.277 -1.49462 -4.8338)
(195.988 -2.0285 -4.81208)
(193.583 -2.60816 -3.93109)
(202.43 2.19188 2.11385)
(202.976 1.77368 0.910745)
(203.177 1.32486 -0.329402)
(203.054 0.894393 -1.57894)
(202.574 0.467328 -2.84457)
(201.674 0.0375221 -4.10698)
(200.235 -0.418985 -5.28437)
(198.111 -0.921563 -6.26119)
(195.023 -1.55923 -6.46031)
(191.542 -2.27095 -5.60896)
(203.076 1.80179 2.75707)
(203.684 1.25985 1.40565)
(203.92 0.721925 -0.0193889)
(203.824 0.236582 -1.45592)
(203.343 -0.228421 -2.94678)
(202.406 -0.678833 -4.49336)
(200.829 -1.14337 -6.02814)
(198.387 -1.64324 -7.47633)
(194.532 -2.3204 -8.07452)
(189.909 -3.09156 -7.53293)
(203.417 2.66945 2.63491)
(204.067 2.09448 1.2056)
(204.332 1.53563 -0.259876)
(204.26 1.04247 -1.75421)
(203.793 0.584791 -3.32377)
(202.851 0.151815 -5.01016)
(201.197 -0.293377 -6.76109)
(198.53 -0.777089 -8.58386)
(193.985 -1.46308 -9.54339)
(188.245 -2.2577 -9.45618)
(203.905 1.90418 3.24406)
(204.593 1.20954 1.74397)
(204.885 0.570276 0.165728)
(204.845 0.0274814 -1.43634)
(204.406 -0.455837 -3.15024)
(203.488 -0.886499 -5.03817)
(201.805 -1.29342 -7.08326)
(198.99 -1.70004 -9.36964)
(193.853 -2.29777 -10.8573)
(187.035 -3.01651 -11.4965)
(204.077 2.83983 2.81441)
(204.777 2.12104 1.32394)
(205.072 1.48774 -0.189911)
(205.024 0.963629 -1.7514)
(204.578 0.527944 -3.4251)
(203.658 0.162422 -5.3146)
(201.96 -0.160742 -7.42571)
(199.075 -0.484066 -9.95997)
(193.514 -0.930168 -11.8427)
(185.743 -1.59359 -13.2383)
(204.318 1.49218 3.43687)
(205.024 0.655366 1.95277)
(205.331 -0.0535042 0.393983)
(205.302 -0.624695 -1.19633)
(204.88 -1.08684 -2.93017)
(203.988 -1.44451 -4.90436)
(202.305 -1.68927 -7.18954)
(199.398 -1.85263 -10.0408)
(193.595 -1.94365 -12.657)
(184.786 -2.35356 -14.8091)
(203.606 2.50071 2.76393)
(204.269 1.60554 1.34673)
(204.514 0.936422 -0.0895036)
(204.367 0.403984 -1.58893)
(203.793 0.032476 -3.2086)
(202.726 -0.19481 -5.06612)
(200.877 -0.25092 -7.23525)
(197.803 -0.107603 -9.96598)
(191.898 0.270164 -12.7838)
(182.384 0.652196 -15.1239)
(199.083 0.274944 0.816488)
(199.337 0.118228 0.482373)
(199.42 -0.0530806 0.0598973)
(199.371 -0.20901 -0.344661)
(199.198 -0.353966 -0.736246)
(198.912 -0.478901 -1.04692)
(198.529 -0.589907 -1.25149)
(198.078 -0.694486 -1.29549)
(197.602 -0.803403 -1.14635)
(197.149 -0.917007 -0.780848)
(200.084 1.09248 0.891922)
(200.388 0.967791 0.32121)
(200.497 0.787396 -0.271396)
(200.413 0.573489 -0.85304)
(200.133 0.33976 -1.39204)
(199.658 0.0906395 -1.84754)
(198.996 -0.172701 -2.16213)
(198.175 -0.450992 -2.2626)
(197.258 -0.749953 -2.0424)
(196.433 -1.04682 -1.43545)
(200.792 0.926167 1.60757)
(201.191 0.646494 0.819331)
(201.333 0.329764 -0.0312766)
(201.224 0.011513 -0.874026)
(200.853 -0.315915 -1.68676)
(200.206 -0.652917 -2.42088)
(199.265 -1.00598 -3.0001)
(198.037 -1.38371 -3.31547)
(196.554 -1.80995 -3.14541)
(195.147 -2.25145 -2.34834)
(201.197 1.7785 1.68786)
(201.688 1.47709 0.721645)
(201.868 1.12352 -0.28492)
(201.751 0.766144 -1.29128)
(201.317 0.398844 -2.2826)
(200.533 0.0195818 -3.21944)
(199.343 -0.388337 -4.01502)
(197.709 -0.837543 -4.54174)
(195.573 -1.37551 -4.43571)
(193.415 -1.95658 -3.43965)
(201.796 1.40823 2.34297)
(202.366 0.982739 1.21198)
(202.583 0.535907 0.00376069)
(202.478 0.116501 -1.20543)
(202.014 -0.297523 -2.43071)
(201.144 -0.708651 -3.64245)
(199.759 -1.13877 -4.75424)
(197.765 -1.60657 -5.63803)
(194.951 -2.20296 -5.76891)
(191.932 -2.87326 -4.76493)
(202.129 2.31372 2.23597)
(202.757 1.8493 1.01123)
(203.006 1.37455 -0.256021)
(202.914 0.940619 -1.54167)
(202.437 0.526749 -2.86287)
(201.515 0.125092 -4.21926)
(199.987 -0.296821 -5.52809)
(197.699 -0.765573 -6.69777)
(194.227 -1.39719 -7.03692)
(190.304 -2.14284 -6.09377)
(202.623 1.57627 2.86561)
(203.3 0.988897 1.55098)
(203.577 0.43076 0.151789)
(203.509 -0.0545307 -1.26212)
(203.037 -0.495561 -2.74756)
(202.097 -0.897257 -4.3184)
(200.475 -1.28737 -5.9166)
(197.958 -1.69426 -7.48529)
(193.875 -2.26935 -8.21119)
(189.024 -3.0009 -7.55553)
(202.819 2.571 2.44554)
(203.517 1.957 1.13004)
(203.801 1.40023 -0.21648)
(203.726 0.93082 -1.6041)
(203.24 0.533525 -3.06839)
(202.274 0.194195 -4.66089)
(200.587 -0.116989 -6.33598)
(197.915 -0.447844 -8.11742)
(193.348 -0.91782 -9.11781)
(187.622 -1.65992 -8.78907)
(203.094 1.22668 3.10464)
(203.8 0.492231 1.77935)
(204.094 -0.139473 0.366007)
(204.033 -0.648382 -1.07328)
(203.56 -1.05935 -2.62273)
(202.602 -1.37439 -4.32593)
(200.892 -1.59445 -6.19041)
(198.116 -1.76075 -8.25245)
(193.215 -1.92326 -9.8121)
(186.522 -2.47666 -9.90742)
(202.434 2.33577 2.40896)
(203.1 1.54763 1.15993)
(203.355 0.958781 -0.122616)
(203.212 0.490357 -1.46554)
(202.636 0.16941 -2.90222)
(201.555 -0.0182596 -4.50252)
(199.72 -0.0566363 -6.27623)
(196.785 0.0656701 -8.26952)
(191.705 0.32284 -9.96329)
(184.295 0.422876 -10.0778)
(198.541 0.0638122 0.56769)
(198.726 -0.0335804 0.362767)
(198.782 -0.146447 0.0823903)
(198.751 -0.25109 -0.176287)
(198.642 -0.354075 -0.428381)
(198.465 -0.445982 -0.61867)
(198.236 -0.530531 -0.738343)
(197.978 -0.610096 -0.754637)
(197.716 -0.687712 -0.660276)
(197.456 -0.76102 -0.453297)
(199.385 0.787175 0.580689)
(199.602 0.73271 0.184323)
(199.682 0.624277 -0.223824)
(199.621 0.477214 -0.619701)
(199.423 0.306547 -0.974718)
(199.094 0.118141 -1.25683)
(198.653 -0.0829479 -1.42708)
(198.133 -0.292328 -1.44195)
(197.591 -0.505663 -1.25684)
(197.134 -0.705829 -0.853285)
(199.912 0.552563 1.25759)
(200.227 0.359179 0.671967)
(200.34 0.124669 0.0289158)
(200.254 -0.121579 -0.60319)
(199.965 -0.383418 -1.19738)
(199.475 -0.658118 -1.70804)
(198.791 -0.946652 -2.07572)
(197.948 -1.25046 -2.22557)
(197.012 -1.57452 -2.04515)
(196.187 -1.89433 -1.47291)
(200.217 1.40031 1.3007)
(200.631 1.19642 0.550355)
(200.784 0.928844 -0.239075)
(200.683 0.642101 -1.02247)
(200.318 0.336594 -1.77319)
(199.678 0.0142079 -2.44497)
(198.75 -0.333891 -2.96196)
(197.55 -0.71262 -3.22)
(196.122 -1.14136 -3.01402)
(194.79 -1.58583 -2.19196)
(200.734 1.02981 1.94672)
(201.239 0.709302 1.02835)
(201.429 0.349915 0.0332847)
(201.329 -0.00214105 -0.955429)
(200.913 -0.360187 -1.93342)
(200.157 -0.72308 -2.8546)
(199.012 -1.10493 -3.63345)
(197.465 -1.51848 -4.14398)
(195.488 -2.01446 -4.06359)
(193.541 -2.55107 -3.1171)
(201.027 1.95491 1.84113)
(201.602 1.596 0.822418)
(201.827 1.20565 -0.241992)
(201.729 0.834439 -1.31615)
(201.279 0.470288 -2.39455)
(200.436 0.10902 -3.44927)
(199.111 -0.274404 -4.38844)
(197.251 -0.701409 -5.09064)
(194.708 -1.24435 -5.09977)
(192.076 -1.87309 -4.02966)
(201.498 1.2373 2.48027)
(202.134 0.757062 1.35876)
(202.388 0.282731 0.148932)
(202.305 -0.140994 -1.06743)
(201.839 -0.534295 -2.32029)
(200.943 -0.899462 -3.58845)
(199.481 -1.2601 -4.79321)
(197.35 -1.64321 -5.81362)
(194.251 -2.15622 -6.09029)
(190.881 -2.79971 -5.07132)
(201.694 2.28695 2.06406)
(202.359 1.78059 0.933352)
(202.624 1.30449 -0.233948)
(202.533 0.894206 -1.43532)
(202.044 0.540349 -2.68021)
(201.101 0.232898 -3.97957)
(199.536 -0.0560243 -5.25666)
(197.2 -0.370117 -6.43616)
(193.629 -0.808256 -6.87136)
(189.53 -1.4884 -5.92031)
(201.987 0.941284 2.75862)
(202.665 0.313654 1.60325)
(202.94 -0.237847 0.349105)
(202.859 -0.683709 -0.924213)
(202.371 -1.04434 -2.27513)
(201.417 -1.31936 -3.70463)
(199.796 -1.51574 -5.17848)
(197.31 -1.67547 -6.6084)
(193.382 -1.8583 -7.4484)
(188.477 -2.38552 -6.69408)
(201.364 2.1602 2.03698)
(202.009 1.48271 0.962789)
(202.26 0.975752 -0.15676)
(202.123 0.571128 -1.3316)
(201.564 0.298497 -2.57265)
(200.52 0.145806 -3.90993)
(198.798 0.12023 -5.30676)
(196.156 0.221953 -6.69295)
(192.013 0.392921 -7.60021)
(186.494 0.381111 -6.77773)
(198.163 -0.0787475 0.409332)
(198.3 -0.142042 0.288359)
(198.338 -0.218322 0.1012)
(198.32 -0.288422 -0.0625119)
(198.254 -0.36124 -0.226708)
(198.149 -0.427582 -0.346326)
(198.016 -0.489967 -0.422759)
(197.871 -0.548052 -0.434912)
(197.724 -0.601689 -0.384737)
(197.558 -0.648214 -0.273951)
(198.886 0.571349 0.350119)
(199.034 0.560767 0.0813071)
(199.089 0.503097 -0.189414)
(199.048 0.407133 -0.448566)
(198.915 0.28766 -0.673731)
(198.698 0.150728 -0.842562)
(198.416 0.00334967 -0.930723)
(198.096 -0.148162 -0.913942)
(197.776 -0.296564 -0.77599)
(197.513 -0.430061 -0.514596)
(199.254 0.254289 0.977787)
(199.488 0.120847 0.553544)
(199.573 -0.0496207 0.0795106)
(199.51 -0.23529 -0.383473)
(199.298 -0.438405 -0.809751)
(198.945 -0.654589 -1.16181)
(198.469 -0.881517 -1.39704)
(197.909 -1.11588 -1.46907)
(197.324 -1.3539 -1.32411)
(196.833 -1.5785 -0.944714)
(199.46 1.07659 0.967595)
(199.79 0.947745 0.402468)
(199.913 0.752796 -0.196787)
(199.832 0.5302 -0.787308)
(199.543 0.284298 -1.33881)
(199.047 0.0197263 -1.8074)
(198.356 -0.265718 -2.13385)
(197.506 -0.570944 -2.2438)
(196.568 -0.898703 -2.03035)
(195.745 -1.22426 -1.42112)
(199.878 0.688522 1.58688)
(200.302 0.455746 0.861553)
(200.462 0.175182 0.0643045)
(200.374 -0.112093 -0.722446)
(200.023 -0.412836 -1.48321)
(199.402 -0.722829 -2.16769)
(198.5 -1.04928 -2.70203)
(197.345 -1.39823 -2.98436)
(195.99 -1.79304 -2.83018)
(194.74 -2.20101 -2.08212)
(200.111 1.61377 1.46952)
(200.612 1.34844 0.646544)
(200.807 1.03773 -0.221589)
(200.715 0.729222 -1.0931)
(200.314 0.417811 -1.94781)
(199.588 0.102818 -2.74421)
(198.496 -0.232507 -3.39609)
(197.044 -0.602285 -3.7897)
(195.234 -1.04468 -3.64343)
(193.487 -1.54093 -2.71024)
(200.541 0.905967 2.10574)
(201.112 0.525804 1.1741)
(201.336 0.133404 0.154098)
(201.25 -0.227593 -0.865943)
(200.818 -0.569914 -1.89571)
(200.015 -0.893043 -2.89341)
(198.763 -1.21502 -3.77678)
(197.037 -1.55734 -4.41146)
(194.759 -1.98944 -4.44118)
(192.452 -2.51129 -3.45473)
(200.712 2.00287 1.68616)
(201.32 1.60048 0.740576)
(201.56 1.20513 -0.244025)
(201.464 0.855808 -1.25597)
(201.001 0.548497 -2.28406)
(200.133 0.27698 -3.31216)
(198.757 0.0177273 -4.25141)
(196.809 -0.264157 -4.98902)
(194.114 -0.640121 -5.08105)
(191.238 -1.19739 -4.02661)
(201.01 0.647909 2.41323)
(201.639 0.125746 1.43039)
(201.889 -0.345535 0.341881)
(201.798 -0.72902 -0.758819)
(201.326 -1.04062 -1.90849)
(200.43 -1.27777 -3.07827)
(198.977 -1.45065 -4.2115)
(196.86 -1.597 -5.16806)
(193.829 -1.77068 -5.55319)
(190.334 -2.20328 -4.56693)
(200.413 1.98352 1.66069)
(201.012 1.41601 0.761343)
(201.25 0.990439 -0.191292)
(201.121 0.648418 -1.19279)
(200.599 0.421555 -2.23493)
(199.633 0.299574 -3.31829)
(198.09 0.283169 -4.37762)
(195.826 0.366028 -5.29365)
(192.581 0.476037 -5.6835)
(188.613 0.431637 -4.58848)
(197.89 -0.174186 0.313435)
(197.996 -0.218759 0.245336)
(198.022 -0.273274 0.116704)
(198.012 -0.321074 0.0122202)
(197.974 -0.373087 -0.0984803)
(197.913 -0.420651 -0.177571)
(197.838 -0.465844 -0.232124)
(197.756 -0.507228 -0.247129)
(197.672 -0.543628 -0.227381)
(197.553 -0.572835 -0.173646)
(198.526 0.431121 0.183919)
(198.623 0.446398 0.00477215)
(198.66 0.42285 -0.168052)
(198.634 0.364155 -0.330768)
(198.548 0.284192 -0.467417)
(198.411 0.188541 -0.563688)
(198.236 0.0844338 -0.605333)
(198.042 -0.0216862 -0.579123)
(197.853 -0.122813 -0.481106)
(197.696 -0.211175 -0.312219)
(198.763 0.028989 0.763908)
(198.93 -0.0656788 0.462288)
(198.991 -0.188818 0.119189)
(198.947 -0.326074 -0.214421)
(198.798 -0.479469 -0.51703)
(198.555 -0.644426 -0.760352)
(198.236 -0.817035 -0.915565)
(197.873 -0.991865 -0.955994)
(197.511 -1.16229 -0.856543)
(197.212 -1.31698 -0.619753)
(198.885 0.815193 0.693308)
(199.137 0.740153 0.2797)
(199.232 0.603224 -0.161112)
(199.17 0.435883 -0.592645)
(198.952 0.244265 -0.986316)
(198.585 0.0344261 -1.30535)
(198.089 -0.191361 -1.50682)
(197.505 -0.42853 -1.54188)
(196.896 -0.671785 -1.35848)
(196.385 -0.903529 -0.928544)
(199.203 0.398122 1.27416)
(199.543 0.234084 0.715535)
(199.672 0.0208642 0.092976)
(199.599 -0.207274 -0.517548)
(199.318 -0.452701 -1.09608)
(198.831 -0.709159 -1.59601)
(198.149 -0.978893 -1.95896)
(197.314 -1.26225 -2.11152)
(196.4 -1.56662 -1.95328)
(195.601 -1.8654 -1.40815)
(199.369 1.30575 1.13525)
(199.787 1.11818 0.489182)
(199.949 0.878663 -0.198187)
(199.868 0.629696 -0.884806)
(199.531 0.371125 -1.5431)
(198.934 0.105015 -2.12853)
(198.071 -0.177805 -2.56826)
(196.977 -0.484863 -2.77176)
(195.714 -0.831166 -2.57199)
(194.564 -1.20431 -1.83866)
(199.748 0.598321 1.7568)
(200.239 0.306312 1.0027)
(200.431 -0.00985155 0.164095)
(200.349 -0.309802 -0.670041)
(199.971 -0.600291 -1.49596)
(199.285 -0.87832 -2.26344)
(198.26 -1.15643 -2.89764)
(196.914 -1.44923 -3.27845)
(195.277 -1.79794 -3.19177)
(193.717 -2.19731 -2.37341)
(199.878 1.7329 1.32664)
(200.411 1.4255 0.557952)
(200.62 1.10721 -0.248671)
(200.528 0.818044 -1.07674)
(200.112 0.558311 -1.90087)
(199.352 0.325014 -2.69014)
(198.196 0.100082 -3.35722)
(196.636 -0.142029 -3.79083)
(194.656 -0.447797 -3.69627)
(192.672 -0.872499 -2.75353)
(200.173 0.358329 2.08249)
(200.734 -0.0649058 1.26668)
(200.954 -0.459013 0.342738)
(200.863 -0.782468 -0.586995)
(200.431 -1.04707 -1.54286)
(199.63 -1.24846 -2.47847)
(198.386 -1.39786 -3.3296)
(196.657 -1.52644 -3.95026)
(194.388 -1.67732 -4.0727)
(191.953 -2.00558 -3.14181)
(199.588 1.8157 1.29268)
(200.124 1.35335 0.56166)
(200.341 1.00633 -0.226031)
(200.224 0.724449 -1.05561)
(199.753 0.540304 -1.90437)
(198.896 0.445069 -2.75408)
(197.571 0.43519 -3.52634)
(195.709 0.501589 -4.09666)
(193.246 0.569104 -4.17056)
(190.477 0.52534 -3.11315)
(197.683 -0.240535 0.258867)
(197.771 -0.275057 0.223334)
(197.789 -0.31721 0.130135)
(197.784 -0.351108 0.0612838)
(197.762 -0.389277 -0.0177373)
(197.728 -0.423675 -0.0741517)
(197.685 -0.456301 -0.11776)
(197.639 -0.485477 -0.13686)
(197.589 -0.509903 -0.136793)
(197.495 -0.527902 -0.116719)
(198.262 0.350057 0.0646658)
(198.324 0.380059 -0.0530287)
(198.348 0.378705 -0.158253)
(198.331 0.346269 -0.254853)
(198.278 0.295571 -0.332417)
(198.194 0.231539 -0.382392)
(198.087 0.160529 -0.396946)
(197.972 0.0882751 -0.368702)
(197.859 0.0204422 -0.298751)
(197.76 -0.0379488 -0.186352)
(198.395 -0.133026 0.606293)
(198.509 -0.204131 0.39428)
(198.551 -0.293728 0.148474)
(198.521 -0.393945 -0.0901211)
(198.421 -0.507224 -0.304718)
(198.259 -0.629807 -0.475241)
(198.051 -0.757308 -0.582915)
(197.822 -0.884035 -0.613326)
(197.599 -1.00345 -0.554347)
(197.414 -1.10859 -0.415718)
(198.455 0.615213 0.47531)
(198.639 0.576388 0.180897)
(198.71 0.483665 -0.133443)
(198.665 0.361788 -0.439209)
(198.507 0.217188 -0.712272)
(198.246 0.0563212 -0.924238)
(197.902 -0.116374 -1.04568)
(197.51 -0.29487 -1.0462)
(197.119 -0.471243 -0.902692)
(196.798 -0.633506 -0.606681)
(198.68 0.164698 1.01224)
(198.942 0.0515886 0.591507)
(199.041 -0.106676 0.116628)
(198.985 -0.283277 -0.346546)
(198.769 -0.477991 -0.777957)
(198.403 -0.683754 -1.13861)
(197.905 -0.899674 -1.38514)
(197.318 -1.12234 -1.46889)
(196.71 -1.35139 -1.33734)
(196.199 -1.56491 -0.960379)
(198.781 1.04015 0.846831)
(199.115 0.913406 0.353797)
(199.246 0.73447 -0.174409)
(199.178 0.539428 -0.699609)
(198.907 0.331149 -1.19246)
(198.437 0.113451 -1.61196)
(197.78 -0.116778 -1.90093)
(196.981 -0.362418 -1.99456)
(196.114 -0.625047 -1.79624)
(195.361 -0.896486 -1.2513)
(199.108 0.326441 1.44395)
(199.514 0.108118 0.848598)
(199.673 -0.140218 0.175928)
(199.601 -0.383256 -0.489689)
(199.285 -0.623403 -1.137)
(198.725 -0.855828 -1.71605)
(197.917 -1.08863 -2.16455)
(196.901 -1.32979 -2.38743)
(195.747 -1.60256 -2.26343)
(194.703 -1.89604 -1.63565)
(199.185 1.48861 0.997522)
(199.635 1.2636 0.390664)
(199.811 1.01567 -0.24983)
(199.727 0.783415 -0.90695)
(199.371 0.570244 -1.54734)
(198.735 0.375598 -2.13489)
(197.801 0.187073 -2.59179)
(196.596 -0.0129987 -2.82717)
(195.173 -0.252678 -2.64886)
(193.825 -0.562917 -1.88545)
(199.475 0.0827917 1.77856)
(199.958 -0.252033 1.11745)
(200.145 -0.574736 0.350088)
(200.061 -0.842192 -0.417774)
(199.683 -1.06274 -1.19531)
(198.999 -1.23078 -1.9289)
(197.976 -1.35715 -2.55678)
(196.616 -1.46571 -2.95076)
(194.958 -1.58897 -2.94071)
(193.296 -1.82675 -2.17269)
(198.893 1.6662 0.944106)
(199.354 1.30074 0.36921)
(199.543 1.02716 -0.261186)
(199.44 0.801637 -0.926588)
(199.033 0.656598 -1.59485)
(198.301 0.584419 -2.23831)
(197.205 0.579175 -2.77701)
(195.73 0.63169 -3.1049)
(193.912 0.669886 -3.00436)
(192.028 0.638302 -2.10494)
(197.52 -0.291479 0.231627)
(197.595 -0.320599 0.21567)
(197.609 -0.356138 0.143089)
(197.607 -0.381698 0.0947686)
(197.594 -0.410984 0.0339428)
(197.575 -0.436518 -0.0104051)
(197.551 -0.460364 -0.0489415)
(197.525 -0.480957 -0.0719632)
(197.494 -0.497201 -0.0846706)
(197.413 -0.507849 -0.0849109)
(198.061 0.313213 -0.0227158)
(198.101 0.351639 -0.0987468)
(198.116 0.364483 -0.158096)
(198.107 0.350146 -0.209964)
(198.075 0.320534 -0.248332)
(198.024 0.279773 -0.268365)
(197.96 0.233051 -0.266166)
(197.891 0.185099 -0.237326)
(197.823 0.140092 -0.185017)
(197.756 0.101368 -0.105689)
(198.113 -0.244482 0.493759)
(198.188 -0.301946 0.344999)
(198.216 -0.368526 0.168969)
(198.197 -0.441454 -0.00225181)
(198.131 -0.523805 -0.155993)
(198.027 -0.612913 -0.278681)
(197.895 -0.704702 -0.358326)
(197.753 -0.794194 -0.387655)
(197.616 -0.876067 -0.359812)
(197.499 -0.946403 -0.286745)
(198.137 0.470133 0.306764)
(198.267 0.454233 0.103173)
(198.317 0.393859 -0.113872)
(198.287 0.307932 -0.323596)
(198.177 0.202308 -0.507243)
(197.997 0.0831075 -0.644081)
(197.764 -0.0447505 -0.714786)
(197.506 -0.175149 -0.70099)
(197.257 -0.300301 -0.594275)
(197.054 -0.41258 -0.39245)
(198.28 -0.0117821 0.799331)