# Region type : patch inlet
# Faces  :   1348
# Area   :   1.000000e-04
# Time       	average(p)
600          	-2.265041e+00
