# Region type : patch inlet
# Faces  :   1348
# Area   :   1.000000e-04
# Time       	average(p)
1050         	-2.263470e+00
