# Region type : patch inlet
# Faces  :   1348
# Area   :   1.000000e-04
# Time       	average(p)
4950         	-2.260560e+00
