/*--------------------------------*- C++ -*----------------------------------*\
| =========                 |                                                 |
| \\      /  F ield         | foam-extend: Open Source CFD                    |
|  \\    /   O peration     | Version:     4.0                                |
|   \\  /    A nd           | Web:         http://www.foam-extend.org         |
|    \\/     M anipulation  |                                                 |
\*---------------------------------------------------------------------------*/
FoamFile
{
    version     2.0;
    format      ascii;
    class       volScalarField;
    location    "2150";
    object      epsilon;
}
// * * * * * * * * * * * * * * * * * * * * * * * * * * * * * * * * * * * * * //

dimensions      [0 2 -3 0 0 0 0];

internalField   nonuniform List<scalar> 
34480
(
4930.64
4928.61
4928.5
4930
4933.21
4938.38
4951
5004.65
5194.51
5725.83
655.482
602.175
601.255
653.229
838.779
1576.1
5099.58
22849.9
103710
382389
618.875
523.211
509.559
569.198
810.005
1829.18
7041.74
35119.1
172535
699241
524.883
439.47
427.43
485.134
733.86
1883.48
8219.47
44412.7
232219
1.01097e+06
456.711
384.829
377.391
433.159
684.862
1927.61
9178.12
52591.9
289186
1.33362e+06
392.529
332.846
326.611
378.483
628.392
1956.31
10121.5
61046.3
350637
1.6987e+06
353.284
302.79
298.392
346.415
591.495
1962.81
10725.9
67200.5
400355
2.02276e+06
321.374
282.114
277.711
317.504
534.202
1820.52
10350.5
66984.3
412654
2.16764e+06
460.055
435.972
433.363
458.771
597.096
1410.14
6840.99
43696.4
275990
1.49853e+06
5709.13
5709.36
5714.8
5726.76
5743.58
5763.66
5787.86
5823.81
5890.22
5958.88
4856.06
4853.54
4853.05
4854.54
4858.55
4865.56
4876.69
4902.82
4965.46
5186
512.096
479.22
473.583
487.703
532.11
648.559
1002.9
2354.59
11801.5
103650
447.095
384.019
370.317
389.724
458.52
645.803
1229.74
3567.19
21358.2
197644
399.681
338.737
325.277
344.985
416.458
620.214
1294.53
4289.64
30234.8
294758
365.896
311.161
300.622
319.833
390.789
598.938
1321.87
4812.33
38717.5
396504
326.363
278.979
269.171
286.457
352.241
554.152
1294.15
5180.55
47349.6
508569
302.552
260.856
252.677
267.94
328.935
521.463
1256.19
5361.2
54217.5
607818
283.116
249.968
242.291
253.909
301.563
456.644
1074.65
4828.07
54993.4
652028
432.85
410.961
405.858
413.322
443.442
531.682
848.136
2980.72
36400.7
467552
5591.66
5587.34
5587.85
5594.49
5606.16
5620.75
5640.11
5673.12
5740.79
5913.69
4770.93
4768.53
4767.78
4768.59
4771.22
4775.36
4780.18
4790.97
4815.04
4870.1
399.904
386.455
383.791
388.549
403.684
439.053
527.108
758.62
1516.87
5758.68
308.168
276.935
270.098
279.276
309.689
379.309
550.43
1030.19
2859.55
14988.6
290.295
256.47
248.796
259.373
294.533
378.456
597.252
1279.84
4409.25
28919.6
280.883
247.922
241.473
252.43
289.542
380.333
629.055
1481.38
6140.55
47809.7
261.351
231.097
224.605
235.004
270.703
361.674
625.248
1625.66
8151
73153.4
250.554
222.532
216.94
226.431
260.522
349.187
617.199
1724.58
10165.6
101599
243.075
220.107
214.694
222.319
249.656
322.185
549.948
1594.49
11043.6
122899
402.721
386.379
382.628
388.276
408.709
461.62
607.131
1235.58
7681.24
92099.5
5481.99
5474.89
5472.59
5476.17
5484.97
5496.95
5513.46
5544.24
5616.72
5802.13
4674.91
4673.41
4672.98
4673.61
4675.41
4677.7
4678.7
4681.51
4688.91
4705.03
328.467
324.344
323.523
324.618
328.699
339.055
365.068
421.611
541.221
940.402
219.327
206.072
203.221
207.263
220.656
248.947
309.085
445.248
772.143
2085.86
214.452
197.731
193.798
199.32
217.277
256.769
345.558
565.55
1169.55
4141.64
217.582
199.543
195.956
202.155
222.76
269.308
379.545
675.995
1611.24
7155.32
210.718
192.771
188.733
195.124
216.353
266.434
392.108
761.695
2117.75
11600
208.511
190.729
187.084
193.235
214.632
266.164
401.083
827.429
2633.64
17124.2
209.982
194.706
190.983
196.276
214.346
258.898
379.8
795.231
2861
21851.5
375.687
363.702
360.868
365.06
380.023
416.999
508.756
782.717
2181.24
16546.1
5360
5352.91
5350.36
5353.42
5361.69
5374.06
5391.2
5422.06
5488.87
5632.08
4569.51
4568.83
4568.68
4569.08
4570.05
4570.76
4569.44
4568.31
4568.25
4570.01
285.511
284.769
284.669
284.438
284.433
286.171
293.409
307.382
329.719
375.963
167.911
162.892
161.851
163.27
168.302
178.523
198.306
237.439
308.119
484.234
166.475
158.751
156.79
159.288
167.543
184.779
219.577
294.22
443.14
889.754
173.919
164.611
162.678
165.769
176.217
198.557
246.042
356.48
601.433
1497.99
173.617
163.425
160.933
164.479
176.214
202.443
261.467
410.93
783.904
2434.97
176.092
165.191
162.82
166.445
179.079
207.883
275.364
457.588
966.56
3640.79
183.352
173.473
170.903
174.283
185.609
212.178
276.684
463.607
1058.72
4746.75
351.357
342.756
340.573
343.461
354.004
379.258
438.184
581.556
1009.54
3814.51
5230.33
5223.39
5220.68
5223.26
5230.87
5242.96
5259.62
5288
5343.69
5446.04
4455.69
4455.64
4455.72
4455.94
4456.31
4455.97
4453.95
4451.86
4450.08
4449.01
259.798
259.878
259.96
259.441
258.448
258.051
259.948
263.301
268.033
275.307
139.447
137.8
137.531
137.916
139.531
142.774
148.676
159.188
175.183
203.048
137.54
134.16
133.236
134.282
137.833
144.901
157.841
182.37
222.509
303.001
145.047
140.515
139.565
140.993
145.962
156.016
175.328
215.183
286.345
458.036
147.361
141.841
140.389
142.252
148.411
161.441
187.87
247.291
364.062
701.808
151.78
145.381
143.933
145.959
153.086
168.451
200.812
278.317
444.186
1014.09
162.269
156.168
154.492
156.571
163.398
178.66
212.138
297.472
500.469
1320.62
329.479
323.583
321.976
323.928
331.268
348.55
387.057
467.62
640.011
1290.64
5092.37
5085.84
5083.14
5085.34
5092.26
5103.54
5119.03
5143.94
5187.01
5254.27
4334.18
4334.54
4334.77
4334.87
4334.85
4333.89
4332.02
4330.02
4328.2
4326.86
243.797
243.749
243.773
243.299
242.37
241.928
242.29
243.019
244.122
245.927
123.986
123.573
123.58
123.618
124.005
124.852
126.395
128.977
132.497
137.196
120.668
119.233
118.809
119.224
120.697
123.519
128.271
136.265
147.555
163.746
126.666
124.564
124.141
124.754
127.007
131.347
138.964
152.945
174.382
210.556
129.507
126.629
125.818
126.751
129.858
136.116
147.663
170.706
209.288
285.81
134.271
130.644
129.806
130.877
134.751
142.687
157.84
190.048
247.85
381.558
146.168
142.566
141.524
142.75
146.712
155.221
172.353
210.938
286.974
489.922
310.147
306.298
305.14
306.432
311.513
323.505
349.143
396.336
480.008
667.565
4945.9
4939.97
4937.42
4939.29
4945.41
4955.45
4969.2
4990.2
5022.66
5066.5
4205.49
4206.1
4206.42
4206.45
4206.2
4205.12
4203.63
4202.04
4200.6
4199.53
232.909
232.482
232.377
232.026
231.434
231.251
231.269
231.417
231.804
232.796
115.602
115.58
115.658
115.608
115.615
115.728
116
116.503
117.192
117.984
111.053
110.45
110.256
110.416
111.022
112.154
113.945
116.658
120.074
123.797
115.292
114.364
114.202
114.445
115.432
117.258
120.251
125.187
131.93
140.366
117.754
116.307
115.872
116.323
117.847
120.798
125.853
134.852
148.242
167.559
122.084
120.091
119.632
120.171
122.221
126.25
133.356
146.777
167.942
202.424
134.228
132.209
131.593
132.292
134.516
139.158
147.946
165.503
195.877
252.192
293.168
290.806
289.976
290.832
294.385
302.959
320.356
349.004
394.13
462.641
4790.76
4785.58
4783.3
4784.86
4790.11
4798.63
4810.32
4827.31
4851.18
4880.1
4069.94
4070.69
4071.06
4071.05
4070.68
4069.79
4068.7
4067.54
4066.51
4065.72
224.504
223.702
223.466
223.231
222.984
222.932
222.912
222.975
223.259
224.151
111.006
111.069
111.145
111.089
111.014
110.94
110.888
110.889
110.952
111.059
105.704
105.442
105.35
105.412
105.667
106.138
106.847
107.835
108.976
109.979
108.445
108.057
108.01
108.099
108.518
109.274
110.456
112.242
114.483
116.707
110.262
109.561
109.336
109.548
110.279
111.653
113.89
117.509
122.461
128.096
113.878
112.81
112.572
112.832
113.899
115.929
119.311
125.066
133.302
143.386
125.6
124.54
124.196
124.584
125.795
128.287
132.824
140.977
153.82
171.853
278.195
276.872
276.264
276.847
279.403
285.767
297.757
315.707
341.53
371.326
4626.92
4622.59
4620.64
4621.93
4626.26
4633.16
4642.69
4655.9
4672.99
4691.97
3927.95
3928.6
3929
3928.96
3928.61
3927.99
3927.22
3926.43
3925.73
3925.16
216.926
216.032
215.685
215.537
215.483
215.461
215.462
215.538
215.834
216.726
108.393
108.455
108.507
108.465
108.394
108.3
108.2
108.117
108.073
108.077
102.811
102.686
102.638
102.664
102.779
102.988
103.293
103.688
104.116
104.434
104.449
104.294
104.289
104.318
104.495
104.808
105.281
105.949
106.729
107.39
105.648
105.322
105.21
105.308
105.651
106.284
107.281
108.778
110.712
112.635
108.536
107.972
107.856
107.978
108.53
109.557
111.197
113.76
117.162
120.57
119.492
118.985
118.806
119.019
119.661
120.986
123.326
127.181
132.826
139.523
264.784
264.158
263.69
264.112
266.038
270.906
279.257
290.784
306.144
320.306
4454.52
4451.07
4449.49
4450.51
4453.94
4459.29
4466.74
4476.63
4488.53
4500.78
3779.62
3780.14
3780.47
3780.44
3780.21
3779.79
3779.28
3778.75
3778.29
3777.87
209.481
208.6
208.259
208.151
208.117
208.113
208.134
208.228
208.539
209.427
106.793
106.836
106.869
106.84
106.787
106.714
106.636
106.566
106.529
106.536
101.295
101.227
101.2
101.212
101.269
101.371
101.516
101.695
101.88
101.999
102.197
102.134
102.139
102.148
102.225
102.362
102.563
102.829
103.117
103.339
102.916
102.77
102.716
102.761
102.921
103.209
103.654
104.285
105.066
105.813
105.178
104.878
104.824
104.883
105.174
105.704
106.521
107.713
109.19
110.497
115.214
115.009
114.926
115.042
115.377
116.078
117.268
119.101
121.603
124.39
252.454
252.278
251.886
252.219
253.76
257.512
263.35
270.867
280.272
287.091
4273.86
4271.24
4270.03
4270.8
4273.39
4277.37
4282.98
4290.1
4298.15
4305.9
3625.1
3625.52
3625.77
3625.76
3625.62
3625.35
3625.02
3624.67
3624.37
3624.04
201.821
200.967
200.656
200.561
200.535
200.54
200.57
200.671
200.985
201.857
105.698
105.721
105.739
105.721
105.686
105.639
105.589
105.546
105.532
105.552
100.53
100.488
100.472
100.478
100.509
100.563
100.638
100.728
100.822
100.874
100.978
100.947
100.951
100.953
100.993
101.062
101.161
101.283
101.404
101.494
101.368
101.306
101.28
101.301
101.375
101.506
101.704
101.974
102.295
102.62
103.14
102.975
102.95
102.981
103.142
103.429
103.854
104.441
105.119
105.681
112.203
112.149
112.119
112.185
112.359
112.725
113.313
114.171
115.246
116.503
240.737
240.838
240.481
240.768
242.082
244.891
248.951
253.877
259.76
262.814
4085.34
4083.47
4082.6
4083.16
4085
4087.88
4091.92
4096.87
4102.14
4106.95
3464.59
3464.93
3465.13
3465.13
3465.05
3464.88
3464.66
3464.44
3464.25
3463.98
193.768
192.947
192.665
192.582
192.559
192.566
192.598
192.696
193.003
193.847
104.848
104.856
104.863
104.852
104.831
104.804
104.776
104.755
104.76
104.789
100.159
100.133
100.124
100.127
100.143
100.172
100.211
100.259
100.311
100.338
100.35
100.328
100.326
100.328
100.353
100.397
100.457
100.528
100.592
100.641
100.535
100.509
100.497
100.507
100.541
100.601
100.69
100.807
100.941
101.099
101.943
101.844
101.832
101.852
101.949
102.116
102.352
102.664
103.001
103.281
110.018
110.035
110.032
110.072
110.165
110.346
110.619
111.003
111.418
112.027
229.212
229.479
229.126
229.392
230.529
232.499
235.282
238.494
242.22
243.26
3889.54
3888.28
3887.71
3888.09
3889.32
3891.37
3894.17
3897.46
3900.79
3903.72
3298.39
3298.67
3298.83
3298.83
3298.79
3298.68
3298.55
3298.41
3298.28
3298.04
185.211
184.431
184.176
184.103
184.082
184.087
184.115
184.205
184.498
185.309
104.114
104.113
104.114
104.107
104.096
104.082
104.07
104.063
104.079
104.114
99.9895
99.9744
99.9704
99.9719
99.9794
99.9923
100.011
100.035
100.064
100.08
100.045
100.025
100.02
100.021
100.04
100.073
100.117
100.167
100.21
100.245
100.114
100.102
100.096
100.101
100.118
100.146
100.187
100.239
100.296
100.382
101.253
101.188
101.181
101.197
101.261
101.366
101.509
101.691
101.877
102.044
108.329
108.384
108.393
108.42
108.468
108.549
108.66
108.813
108.924
109.246
217.327
217.841
217.517
217.776
218.589
219.935
221.796
223.861
226.223
226.182
3687.22
3686.37
3686.02
3686.26
3687.09
3688.48
3690.33
3692.43
3694.45
3696.2
3126.89
3127.13
3127.24
3127.25
3127.23
3127.17
3127.08
3126.99
3126.91
3126.69
176.07
175.333
175.106
175.045
175.023
175.026
175.048
175.125
175.401
176.175
103.438
103.433
103.429
103.425
103.42
103.415
103.412
103.414
103.437
103.475
99.9214
99.9143
99.9138
99.9142
99.916
99.9193
99.925
99.9342
99.9506
99.9614
99.9114
99.8931
99.8852
99.8867
99.9016
99.928
99.9625
100.001
100.034
100.062
99.9194
99.9129
99.9091
99.9115
99.9203
99.9351
99.955
99.9793
100.005
100.056
100.853
100.807
100.801
100.815
100.86
100.931
101.025
101.14
101.253
101.373
106.921
106.989
107.009
107.025
107.046
107.076
107.108
107.153
107.128
107.32
204.845
205.498
205.301
205.483
206.027
206.911
208.109
209.405
210.88
210.288
3479.13
3478.58
3478.36
3478.53
3479.07
3479.96
3481.12
3482.39
3483.55
3484.57
2950.62
2950.83
2950.91
2950.92
2950.91
2950.87
2950.82
2950.76
2950.7
2950.51
166.263
165.573
165.376
165.327
165.305
165.305
165.32
165.384
165.638
166.371
102.797
102.789
102.782
102.78
102.778
102.779
102.782
102.79
102.815
102.856
99.9047
99.9027
99.9042
99.9039
99.9025
99.9002
99.8986
99.8995
99.9075
99.9167
99.8648
99.8485
99.8401
99.8411
99.8526
99.873
99.8996
99.9287
99.9549
99.9786
99.8451
99.8398
99.8368
99.8379
99.843
99.8515
99.8623
99.8749
99.8868
99.9199
100.607
100.572
100.567
100.578
100.61
100.66
100.724
100.801
100.875
100.97
105.657
105.722
105.745
105.756
105.764
105.77
105.767
105.766
105.687
105.818
191.597
192.301
192.206
192.328
192.671
193.218
193.94
194.723
195.606
194.786
3266.16
3265.83
3265.7
3265.8
3266.13
3266.67
3267.36
3268.07
3268.68
3269.27
2770.32
2770.49
2770.55
2770.57
2770.56
2770.54
2770.51
2770.47
2770.42
2770.24
155.694
155.056
154.887
154.85
154.833
154.832
154.84
154.889
155.116
155.807
102.185
102.174
102.167
102.165
102.166
102.17
102.176
102.186
102.211
102.254
99.9138
99.9141
99.9161
99.9155
99.9126
99.9081
99.9033
99.9004
99.9034
99.9131
99.8611
99.8475
99.8401
99.8404
99.8485
99.863
99.8821
99.9032
99.9231
99.9424
99.8324
99.8276
99.825
99.8253
99.8283
99.8334
99.8396
99.8465
99.8525
99.8737
100.43
100.403
100.399
100.407
100.429
100.464
100.506
100.557
100.607
100.683
104.458
104.51
104.532
104.54
104.542
104.539
104.524
104.506
104.416
104.517
177.438
178.121
178.105
178.184
178.38
178.682
179.062
179.504
179.977
179.136
3049.37
3049.19
3049.12
3049.18
3049.37
3049.66
3050.04
3050.4
3050.69
3051.01
2586.98
2587.12
2587.17
2587.18
2587.18
2587.16
2587.14
2587.11
2587.07
2586.91
144.231
143.654
143.514
143.489
143.485
143.482
143.484
143.517
143.707
144.352
101.609
101.596
101.588
101.586
101.588
101.593
101.601
101.611
101.633
101.677
99.9328
99.9327
99.9341
99.9332
99.9304
99.9261
99.9213
99.9178
99.9185
99.9291
99.8784
99.8681
99.8624
99.8623
99.8673
99.8765
99.8888
99.9027
99.9167
99.9316
99.8521
99.8483
99.8462
99.846
99.8475
99.8501
99.8532
99.8564
99.8593
99.8717
100.273
100.253
100.249
100.254
100.268
100.289
100.315
100.345
100.377
100.436
103.291
103.327
103.345
103.35
103.349
103.343
103.325
103.304
103.225
103.304
162.21
162.817
162.865
162.912
163
163.12
163.25
163.456
163.63
162.906
2830.09
2829.99
2829.95
2829.99
2830.08
2830.22
2830.41
2830.56
2830.68
2830.84
2401.73
2401.84
2401.87
2401.88
2401.88
2401.87
2401.85
2401.83
2401.8
2401.68
131.646
131.154
131.062
131.052
131.05
131.047
131.042
131.056
131.188
131.768
101.087
101.072
101.065
101.062
101.064
101.069
101.076
101.085
101.102
101.142
99.9496
99.9477
99.9479
99.947
99.945
99.9422
99.9392
99.9371
99.9375
99.948
99.9084
99.9015
99.8979
99.8976
99.9003
99.9054
99.9122
99.9203
99.9291
99.9393
99.89
99.8877
99.8863
99.8859
99.8863
99.8871
99.8878
99.8886
99.8894
99.895
100.119
100.106
100.103
100.106
100.113
100.123
100.136
100.151
100.169
100.208
102.169
102.188
102.198
102.2
102.196
102.187
102.17
102.151
102.097
102.156
145.453
145.929
145.963
145.999
146.059
146.139
146.221
146.281
146.213
145.694
2609.71
2609.66
2609.65
2609.67
2609.69
2609.74
2609.79
2609.84
2609.87
2609.94
2215.03
2215.09
2215.1
2215.1
2215.1
2215.1
2215.1
2215.09
2215.09
2215.03
117.389
117.051
117.021
117.025
117.027
117.022
117.012
117.006
117.05
117.478
100.625
100.609
100.602
100.598
100.599
100.602
100.608
100.617
100.63
100.662
99.966
99.9637
99.9631
99.9623
99.9614
99.9603
99.9592
99.9587
99.9594
99.9664
99.9507
99.947
99.9451
99.9449
99.9462
99.9485
99.9518
99.9557
99.9602
99.9658
99.9406
99.9396
99.9389
99.9386
99.9385
99.9384
99.9381
99.9376
99.9373
99.9386
100.009
100.004
100.002
100.003
100.006
100.01
100.014
100.019
100.026
100.045
101.125
101.127
101.129
101.128
101.122
101.113
101.1
101.087
101.069
101.111
125.762
126.045
126.062
126.083
126.115
126.158
126.2
126.224
126.175
125.834
2388.98
2388.96
2388.97
2388.97
2388.97
2388.97
2388.97
2388.97
2388.95
2388.99
7183.97
7294.27
7250.53
7044.08
658913
683859
689422
697307
1.49737e+06
1.58407e+06
1.59159e+06
1.5717e+06
2.52524e+06
2.70353e+06
2.70099e+06
2.61948e+06
3.76093e+06
4.05604e+06
4.02971e+06
3.86814e+06
5.30801e+06
5.75133e+06
5.69979e+06
5.48691e+06
6.8685e+06
7.46745e+06
7.40365e+06
7.20692e+06
7.88289e+06
8.6108e+06
8.55613e+06
8.42807e+06
5.61975e+06
6.17919e+06
6.11514e+06
6.08131e+06
7903.63
8151.38
7989.02
7569.8
5749.32
5802.11
5804.63
5765.5
308552
324670
345344
377327
689317
780856
824919
861805
1.17796e+06
1.40287e+06
1.46608e+06
1.49201e+06
1.76355e+06
2.17757e+06
2.25148e+06
2.26495e+06
2.45884e+06
3.11243e+06
3.21168e+06
3.24757e+06
3.13175e+06
4.04027e+06
4.20106e+06
4.31988e+06
3.5733e+06
4.70402e+06
4.94531e+06
5.18019e+06
2.80679e+06
3.81857e+06
4.00718e+06
4.32032e+06
7126.37
7357.97
7287.02
7066.66
4937.89
4948.84
4947.99
4938.27
21661
25959.9
24596.6
19966.3
61569.1
73408.4
68677.3
55730.2
128747
152837
140885
114031
228359
270533
246266
199436
372378
441929
401379
326402
545329
648538
591606
485402
702806
839398
769573
636843
584463
696872
629360
524657
6344.36
6431.67
6409.35
6314.02
4715.99
4718.12
4718.67
4717.87
1594.31
1711.27
1679.83
1544.97
4698.08
5172.31
5012.46
4434.49
11230.4
12504.8
11926.1
10213.4
22554.5
25253.4
23699.2
19745.7
41691.4
46922.8
43527.7
35536.7
68295.6
76985.7
70796.7
57129.2
97161.5
109915
100445
80429.8
83359.9
93767.2
84200.7
67266.9
5904.03
5945.73
5942.84
5904.92
4568
4568.9
4569.12
4568.58
423.285
436.211
438.463
431.549
710.102
757.035
761.545
731.358
1595
1736.78
1729.27
1610.25
3203.57
3529.26
3458.47
3118.59
6140.09
6823.34
6583.07
5758.19
10498.3
11693.8
11109.3
9472.69
15692.4
17555.9
16464
13724.8
13860.7
15397.7
14114.2
11586.6
5578.73
5600.76
5602.24
5586.63
4444.95
4445.7
4445.78
4445.15
275.587
278.458
279.17
277.911
226.357
231.456
233.283
232.243
385.579
403.069
407.305
400.537
674.043
717.852
722.103
696.11
1215.16
1316.48
1312.64
1233.51
2023.66
2211.47
2175.78
1991.42
3047.03
3360.56
3262.02
2904.6
2929.08
3183.42
3023.54
2664.24
5318.18
5328.96
5331.1
5325.54
4322.61
4323.33
4323.39
4322.76
241.776
243.681
244.08
243.023
140.135
140.888
141.241
141.227
175.865
178.564
179.692
179.437
243.198
250.226
252.462
250.762
368.971
386.597
390.326
383.185
549.229
582.695
585.338
565.818
795.541
855.012
852.169
807.158
984.719
1029.77
1010.3
962.531
5095.79
5100.67
5102.52
5101.27
4195.5
4196.2
4196.25
4195.65
228.095
229.813
230.151
229.141
118.189
118.327
118.381
118.358
125.852
126.302
126.527
126.554
146.029
147.259
147.803
147.782
183.406
186.918
188.186
187.624
233.79
240.346
242.102
240.315
314.621
327.197
329.137
323.58
543.045
548.711
546.197
542.506
4893.67
4895.68
4896.97
4897.16
4061.95
4062.61
4062.67
4062.1
219.491
221.145
221.474
220.499
110.888
110.945
110.954
110.915
110.347
110.419
110.457
110.466
117.765
117.976
118.086
118.119
131.711
132.523
132.877
132.844
149.879
151.237
151.778
151.738
187.362
190.305
191.152
190.492
400.192
397.218
396.472
399.131
4698.46
4699.15
4699.93
4700.41
3921.66
3922.27
3922.32
3921.8
212.196
213.795
214.116
213.177
107.868
107.917
107.921
107.881
104.484
104.491
104.494
104.494
107.574
107.596
107.611
107.623
113.656
113.878
113.978
113.97
121.961
122.213
122.353
122.43
144.582
145.286
145.55
145.488
335.334
330.254
329.474
332.89
4503.82
4503.92
4504.35
4504.8
3774.64
3775.19
3775.24
3774.77
205.055
206.596
206.907
206.007
106.338
106.386
106.391
106.353
101.988
101.986
101.984
101.983
103.358
103.35
103.347
103.35
106.199
106.278
106.31
106.297
110.766
110.779
110.806
110.858
126.73
126.861
126.915
126.909
297.594
292.084
291.179
294.494
4307.11
4306.98
4307.2
4307.55
3621.09
3621.59
3621.62
3621.2
197.658
199.136
199.437
198.575
105.37
105.417
105.423
105.388
100.853
100.851
100.849
100.849
101.489
101.481
101.476
101.476
102.817
102.857
102.87
102.857
105.716
105.686
105.684
105.714
117.999
117.977
117.959
117.947
271.429
265.976
265.022
268.137
4107.12
4106.95
4107.06
4107.28
3461.3
3461.74
3461.76
3461.39
189.834
191.247
191.537
190.716
104.624
104.668
104.674
104.641
100.318
100.317
100.316
100.316
100.637
100.632
100.629
100.628
101.224
101.249
101.256
101.245
103.289
103.261
103.254
103.27
113.193
113.134
113.093
113.072
250.821
245.573
244.627
247.55
3903.27
3903.14
3903.19
3903.3
3295.66
3296.02
3296.04
3295.72
181.495
182.842
183.12
182.341
103.966
104.007
104.013
103.983
100.064
100.064
100.064
100.064
100.245
100.243
100.241
100.239
100.47
100.488
100.492
100.482
102.072
102.055
102.049
102.056
110.241
110.181
110.135
110.104
232.986
227.997
227.087
229.832
3695.35
3695.32
3695.34
3695.34
3124.61
3124.91
3124.92
3124.64
172.574
173.852
174.119
173.385
103.349
103.387
103.392
103.364
99.9513
99.9524
99.9525
99.9516
100.065
100.064
100.063
100.061
100.119
100.133
100.135
100.127
101.425
101.42
101.416
101.415
108.201
108.152
108.107
108.067
216.462
211.761
210.904
213.476
3483.47
3483.55
3483.56
3483.47
2948.76
2948.99
2948.97
2948.75
163
164.211
164.468
163.78
102.757
102.792
102.798
102.772
99.9134
99.9155
99.9158
99.9143
99.9828
99.9828
99.9821
99.9809
99.9646
99.9739
99.9751
99.9686
101.04
101.044
101.042
101.036
106.605
106.574
106.534
106.484
200.395
196.013
195.225
197.615
3268
3268.19
3268.2
3268.04
2768.85
2769.01
2768.98
2768.8
152.691
153.837
154.086
153.445
102.191
102.224
102.229
102.205
99.9168
99.92
99.9203
99.918
99.9476
99.9482
99.9479
99.9471
99.9036
99.9096
99.91
99.905
100.762
100.771
100.771
100.761
105.208
105.2
105.166
105.106
184.226
180.218
179.515
181.701
3049.66
3049.93
3049.94
3049.73
2585.93
2586
2585.96
2585.83
141.543
142.634
142.878
142.282
101.648
101.68
101.685
101.662
99.9387
99.9428
99.9432
99.9402
99.9375
99.9385
99.9386
99.9381
99.889
99.8925
99.8924
99.8892
100.511
100.524
100.525
100.514
103.876
103.891
103.867
103.8
167.524
164.01
163.417
165.337
2829.47
2829.79
2829.81
2829.58
2401.16
2401.14
2401.08
2401.02
129.373
130.425
130.665
130.103
101.141
101.169
101.172
101.151
99.9599
99.9642
99.9646
99.9613
99.9448
99.946
99.9464
99.9463
99.9027
99.904
99.9038
99.9024
100.268
100.28
100.281
100.272
102.554
102.58
102.565
102.506
149.616
146.671
146.229
147.866
2608.74
2609.11
2609.13
2608.88
2215.02
2214.86
2214.81
2214.85
115.752
116.733
116.939
116.406
100.666
100.683
100.684
100.67
99.9739
99.9765
99.9767
99.9747
99.9697
99.9706
99.9711
99.9712
99.9404
99.9405
99.9404
99.9402
100.077
100.084
100.085
100.08
101.287
101.295
101.288
101.264
128.331
126.31
126.074
127.231
2388.21
2388.59
2388.6
2388.34
6105.84
5442.89
5173.14
5077
5022.19
4983.67
4958.06
4943.68
4935.7
4930.96
798402
193286
33404
11732.6
5300.94
2836.48
1749.45
1212.61
928.376
765.179
1.42406e+06
247048
44254
15129.5
6776.6
3637.55
2200.63
1460.54
1048.34
803.094
1.99546e+06
239532
46768
15018.2
6483.33
3391.27
2000.63
1297.57
912.982
688.64
2.45862e+06
252608
48934.5
14561.1
6098.38
3102.31
1792.11
1144.49
795.539
596.746
2.93035e+06
276395
51142.7
13974.8
5638.66
2768.65
1561.59
981.237
677.419
508.308
3.31255e+06
294968
52001.7
13162.4
5158.74
2467.9
1375.81
861.566
595.65
450.421
3.3965e+06
287383
47701.2
11002.2
4164.25
1946.75
1093.05
700.33
502.955
394.811
2.3416e+06
182151
27371.7
5711.29
2275.23
1237.92
858.029
671.624
568.196
506.586
6016.21
5992.98
5847.2
5822.8
5779.39
5755.09
5735.81
5725.56
5718.64
5712.69
5443.28
5175.18
5045.25
4972.68
4927.13
4897.12
4877.67
4866.11
4859.9
4855.96
180240
44895.2
13613.5
5322.79
2635.52
1567.25
1065.16
802.523
656.289
572.33
375674
86408.5
23467
8290.81
3889.1
2187.83
1383.92
956.248
710.833
565.792
595027
126243
30701
9651.53
4228.08
2261.61
1372.64
915.889
661.629
515.529
830488
165010
36427
10417.5
4317.62
2219.99
1310.4
857.66
610.427
472.031
1.10978e+06
207208
41753
10864.1
4247.21
2091.48
1198.78
768.918
542.104
418.496
1.38888e+06
244449
45355.5
10850.8
4055.86
1939.29
1095.72
699.608
493.245
382.96
1.56425e+06
258678
43998.3
9553.34
3395.84
1585.34
900.747
587.806
429.947
345.824
1.18223e+06
178727
26853
5249.86
1966.84
1091.42
771.671
615.216
526.609
476.294
6252.85
5952.92
5792.79
5733.96
5683.09
5652.32
5630.02
5616.42
5606.84
5598.54
4903.99
4869.15
4841.69
4818.88
4801.06
4788.14
4779.53
4774.37
4771.51
4769.46
9199.53
4175.77
2298.82
1432.77
985.412
735.88
591.237
504.984
452.27
420.459
23997.4
9564.39
4650.08
2546.81
1542.06
1010.25
712.698
538.368
431.138
364.781
45436.6
15961.4
6937.88
3411.09
1898.32
1159.04
771.55
555.711
428.552
352.761
73591.8
22901.9
9011.61
4056.06
2119.72
1232.37
791.819
556.674
421.556
343.296
112046
31041
11040.6
4548.41
2235.3
1237.05
767.204
526.301
393.528
318.998
156043
38868.7
12577.5
4795.13
2251.8
1206.03
734.786
500.6
373.48
303.544
191500
42870.9
12521.4
4385.67
1974.95
1036.75
636.279
443.068
341.773
286.186
141663
27755.7
7304.45
2547.4
1307.86
842.962
642.724
536.582
473.008
436.298
6018.34
5835.86
5711.24
5637.39
5584.29
5551.16
5528.15
5512.47
5500.89
5490.92
4712.97
4704.6
4695.43
4687.19
4680.94
4676.68
4674.03
4672.67
4672.35
4671.96
1208.04
906.478
708.86
570.472
479.264
420.78
383.201
358.49
341.807
331.533
3028.67
1919.44
1270.35
860.746
612.387
460.957
367.189
307.625
268.182
242.317
6220.78
3481.1
2057.47
1252.16
812.886
564.712
420.261
333.15
278.348
243.995
10746.8
5351.1
2878.26
1610.55
978.852
644.293
460.275
354.613
289.926
250.465
17346.1
7666.67
3761.51
1939.12
1105.25
689.181
472.663
353.787
284.446
243.626
25221.7
9947.75
4496.94
2165.95
1178.91
709.712
476.414
352.875
281.941
240.949
32103.4
11242.4
4659.42
2095.22
1100.71
652.787
441.615
333.006
272.8
238.104
23544.1
7367.31
2961.86
1443.43
906.153
663.597
542.631
472.678
427.917
401.454
5789.07
5660.54
5561.8
5497.9
5453.81
5424.93
5404.21
5389.35
5378.15
5368.67
4567.56
4566.33
4565.08
4564.12
4563.54
4563.3
4563.32
4563.7
4564.61
4565.45
412.726
382.962
356.667
334.885
318.459
306.416
297.568
290.94
285.862
282.613
637.75
512.535
411.718
334.512
279.76
241.962
216.08
198.18
185.243
176.188
1287.25
926.058
666.259
486.296
369.851
294.973
246.643
214.945
193.472
179.273
2276.08
1481.71
973.394
652.893
462.869
348.846
279.643
236.71
208.353
189.982
3814.25
2240.98
1346.92
830.663
548.866
390.266
299.442
245.701
212.123
191.242
5703.64
3044.37
1696.36
978.351
614.803
420.829
314.961
254.783
217.682
194.943
7460.55
3599.91
1861.26
1012.38
616.781
417.078
313.395
255.927
221.788
201.02
5662.37
2637.1
1436.21
904.16
665.899
539.39
466.866
421.215
389.975
371.104
5535.69
5459.64
5394.37
5347.97
5314.05
5289.79
5271.53
5257.83
5247.25
5238.43
4444.77
4444.89
4445.18
4445.66
4446.26
4446.9
4447.55
4448.35
4449.56
4451
277.886
274.888
271.416
267.992
264.975
262.415
260.262
258.416
256.793
255.488
225.923
210.874
194.96
180.652
169.147
160.378
153.854
148.967
145.039
142.079
373.13
321.825
273.236
233.343
203.638
182.284
167.103
156.246
148.282
142.756
613.187
488.031
382.073
302.913
248.821
212.621
188.489
172.251
160.537
152.457
1013.13
737.752
529.294
386.606
296.651
240.225
204.684
181.853
166.427
156.307
1522.13
1022.71
681.324
465.953
339.929
265.203
220.361
192.772
174.283
162.239
2045.52
1267.03
790.232
514.315
364.944
280.925
232.641
203.528
184.882
172.958
1814.42
1182.4
824.927
628.744
519.816
452.697
409.129
379.521
357.938
344.657
5303.34
5261.69
5221.86
5189.97
5164.54
5144.8
5129.23
5117.08
5107.47
5099.59
4322.5
4322.77
4323.22
4323.83
4324.51
4325.2
4325.85
4326.61
4327.75
4329.21
244.175
244.014
243.667
243.198
242.684
242.15
241.602
241.017
240.376
239.619
140.67
138.602
136.041
133.465
131.203
129.35
127.885
126.702
125.586
124.656
176.555
168.27
158.709
149.715
142.178
136.162
131.445
127.755
124.827
122.729
241.576
220.115
197.595
178.255
163.325
152.235
144.106
138.163
133.437
129.973
355.626
303.669
254.58
215.801
188.002
168.573
155.053
145.574
138.636
133.883
503.857
404.356
318.126
255.357
213.457
185.775
167.409
155.119
146.113
139.9
681.142
513.417
382.548
294.851
240.149
205.648
183.591
169.092
159.112
152.471
826.683
675.216
559.144
481.207
428.736
391.954
365.449
346.196
331.332
322.026
5091.78
5069.9
5046.11
5024.52
5005.82
4990.29
4977.48
4967.13
4958.75
4951.98
4195.41
4195.62
4195.95
4196.41
4196.93
4197.43
4197.9
4198.46
4199.38
4200.65
230.442
230.67
230.774
230.787
230.728
230.604
230.411
230.125
229.722
229.085
118.339
118.071
117.706
117.305
116.937
116.635
116.405
116.208
115.927
115.639
126.158
124.612
122.561
120.39
118.366
116.583
115.051
113.751
112.652
111.858
146.602
142.549
137.537
132.674
128.479
125.039
122.288
120.124
118.22
116.742
183.563
172.779
160.747
149.917
141.155
134.339
129.116
125.144
122.024
119.833
231.577
210.508
188.333
169.885
155.903
145.596
138.05
132.589
128.225
125.059
302.869
263.988
227.255
198.867
178.539
164.161
153.999
146.779
141.494
137.89
515.5
472.605
430.223
396.146
369.333
348.457
332.072
319.472
309.236
302.744
4892.54
4880.78
4866.4
4851.94
4838.52
4826.72
4816.59
4808.13
4801.1
4795.52
4061.87
4062.01
4062.22
4062.52
4062.86
4063.18
4063.45
4063.8
4064.5
4065.55
221.791
222.057
222.206
222.276
222.282
222.225
222.094
221.865
221.499
220.867
110.951
110.94
110.928
110.914
110.911
110.929
110.97
111.005
110.953
110.857
110.388
110.046
109.543
108.953
108.349
107.773
107.24
106.756
106.327
106.022
117.935
117.078
115.872
114.566
113.326
112.221
111.278
110.493
109.72
109.08
132.024
129.425
126.189
122.908
119.954
117.431
115.337
113.635
112.222
111.225
150.425
145.533
139.437
133.689
128.79
124.802
121.628
119.18
117.057
115.444
186.11