/*--------------------------------*- C++ -*----------------------------------*\
| =========                 |                                                 |
| \\      /  F ield         | foam-extend: Open Source CFD                    |
|  \\    /   O peration     | Version:     4.0                                |
|   \\  /    A nd           | Web:         http://www.foam-extend.org         |
|    \\/     M anipulation  |                                                 |
\*---------------------------------------------------------------------------*/
FoamFile
{
    version     2.0;
    format      ascii;
    class       volScalarField;
    location    "2150";
    object      k;
}
// * * * * * * * * * * * * * * * * * * * * * * * * * * * * * * * * * * * * * //

dimensions      [0 2 -2 0 0 0 0];

internalField   nonuniform List<scalar> 
34480
(
8.76718
8.76477
8.76464
8.76642
8.77023
8.77635
8.7913
8.85469
9.07725
9.68613
9.28022
8.66844
8.57572
8.85536
9.45448
10.3413
11.9399
15.8521
28.7379
67.0247
15.0405
13.5711
13.125
13.2732
13.8436
14.8765
17.2099
22.9055
41.6356
101.406
14.4919
12.9644
12.5142
12.7085
13.419
14.8335
18.0056
25.4065
49.25
127.781
13.4287
12.0128
11.6618
11.9288
12.7804
14.4905
18.26
26.9562
55.2703
151.575
12.2197
10.9462
10.6338
10.9156
11.8072
13.7007
17.9423
27.9027
61.0609
176.657
11.3266
10.2065
9.95186
10.2269
11.122
13.0876
17.5896
28.4201
65.5188
198.016
9.83974
9.00346
8.79862
9.01434
9.72688
11.3971
15.4914
26.1249
64.5449
205.595
6.8824
6.61384
6.56518
6.67521
7.00464
7.72926
9.72988
16.2736
43.4121
149.67
9.23848
9.23873
9.24461
9.2575
9.27561
9.29722
9.32323
9.3618
9.43283
9.506
8.67855
8.67555
8.67497
8.67674
8.68152
8.68986
8.70311
8.73417
8.80841
9.06734
7.93022
7.5103
7.41693
7.57464
8.02167
8.86407
10.3056
12.108
15.4276
41.1741
12.2358
11.1731
10.8808
11.084
11.7627
13.0238
15.2216
18.1225
23.7877
66.413
12.1397
10.9714
10.6526
10.8959
11.701
13.2515
16.0323
20.0145
28.3903
86.179
11.5989
10.4651
10.1982
10.4743
11.3671
13.1085
16.2973
21.0756
31.8421
104.294
10.8053
9.75495
9.49955
9.7734
10.6718
12.4986
15.9683
21.4562
34.8379
123.7
10.2148
9.26266
9.04547
9.29906
10.1725
12.0009
15.608
21.5522
37.1097
140.953
9.05414
8.33225
8.14811
8.33966
9.01742
10.5151
13.6623
19.2851
35.7049
147.365
6.64485
6.3975
6.3433
6.41747
6.68219
7.26721
8.6141
11.5618
22.4921
102.42
9.11132
9.10663
9.10718
9.11439
9.12707
9.14289
9.16388
9.1996
9.27261
9.45787
8.57682
8.57394
8.57304
8.57402
8.57717
8.58213
8.5879
8.60083
8.62961
8.69527
6.78283
6.57119
6.51713
6.59303
6.82445
7.27146
8.06599
9.35993
11.1354
16.4372
9.69174
9.07161
8.91826
9.08585
9.60554
10.5605
12.1755
14.57
17.5473
29.1791
9.88928
9.15129
8.96592
9.17982
9.83924
11.0951
13.2875
16.6421
21.1139
40.7607
9.75976
9.00458
8.84177
9.07852
9.81705
11.2608
13.864
17.9409
23.7782
52.2517
9.33107
8.60366
8.43615
8.67408
9.42847
10.9743
13.889
18.619
26.0241
64.9004
9.016
8.33161
8.18539
8.40801
9.14954
10.7176
13.8026
18.9565
27.748
76.9247
8.19524
7.66692
7.53765
7.70805
8.28309
9.56559
12.2713
17.1626
26.6524
82.8789
6.37357
6.18134
6.1415
6.20245
6.41339
6.87615
7.92509
10.3686
16.699
57.1076
8.99179
8.98403
8.98151
8.98543
8.99505
9.00815
9.02618
9.05973
9.13852
9.33854
8.46135
8.45954
8.45902
8.45979
8.46196
8.46472
8.46593
8.46931
8.47824
8.49766
6.00876
5.91793
5.89082
5.92166
6.02188
6.21448
6.5512
7.1326
7.99608
9.88118
7.80894
7.49628
7.42339
7.51882
7.82031
8.38316
9.33421
10.8211
12.6577
17.0738
8.12495
7.7075
7.60375
7.74123
8.16738
8.98971
10.4234
12.7268
15.5983
23.5538
8.24754
7.78893
7.69207
7.8499
8.34816
9.33577
11.1226
14.0849
17.8847
30.1245
8.08394
7.61552
7.5059
7.67287
8.20247
9.30165
11.3877
14.9955
19.8643
37.635
7.97587
7.51157
7.4121
7.57362
8.1106
9.25627
11.5228
15.5772
21.3679
44.9592
7.44527
7.07498
6.98294
7.11138
7.5353
8.48136
10.4799
14.3821
20.6527
48.7685
6.1316
5.98463
5.95473
6.0007
6.15811
6.49612
7.22481
8.98547
12.9808
33.0382
8.8579
8.85009
8.84727
8.85064
8.85976
8.87339
8.89224
8.92614
8.99931
9.15518
8.33369
8.33286
8.33269
8.33317
8.33435
8.33521
8.33361
8.33224
8.33216
8.3343
5.53771
5.50325
5.49015
5.50003
5.53621
5.60496
5.72023
5.91167
6.17869
6.62122
6.56618
6.42849
6.39769
6.43795
6.57432
6.83263
7.27164
7.98215
8.87908
10.3567
6.87217
6.65551
6.59888
6.66963
6.89687
7.33951
8.11424
9.4083
11.0453
14.0195
7.10213
6.8424
6.78604
6.87335
7.15886
7.72703
8.75934
10.5601
12.8859
17.7756
7.09733
6.81073
6.73901
6.83951
7.16333
7.83581
9.11561
11.4646
14.6138
22.2335
7.12082
6.81803
6.74994
6.85188
7.19679
7.92878
9.3734
12.1315
15.9828
26.6474
6.81341
6.56179
6.4957
6.58177
6.86388
7.48519
8.77853
11.4748
15.692
29.0132
5.91841
5.80753
5.78478
5.8166
5.92761
6.15994
6.6303
7.74143
10.1056
19.2396
8.71446
8.70675
8.70373
8.7066
8.71506
8.72848
8.74696
8.7784
8.83992
8.95244
8.19473
8.19466
8.19476
8.19503
8.19548
8.19507
8.19259
8.19003
8.18785
8.18653
5.27039
5.25898
5.25264
5.2549
5.2662
5.28803
5.3235
5.37808
5.44752
5.53736
5.80951
5.75807
5.74835
5.76176
5.81277
5.90962
6.07218
6.33476
6.67422
7.13893
6.04307
5.93939
5.9106
5.94308
6.0513
6.2598
6.61652
7.21176
7.98786
9.10662
6.28235
6.14569
6.11585
6.15949
6.30775
6.59752
7.11211
8.02121
9.23796
11.2028
6.35109
6.18552
6.14132
6.19752
6.38055
6.75306
7.44444
8.74059
10.5398
13.8037
6.44212
6.25416
6.21038
6.27053
6.47786
6.90716
7.72907
9.34069
11.6535
16.3938
6.29318
6.13029
6.08548
6.14044
6.31822
6.69918
7.46013
9.07715
11.6576
17.7687
5.73292
5.65177
5.63554
5.65687
5.73313
5.88842
6.184
6.83626
8.10072
11.8451
8.56054
8.55321
8.55019
8.55266
8.56041
8.57305
8.59038
8.61824
8.66627
8.74103
8.04506
8.0455
8.04579
8.04591
8.04589
8.04469
8.04238
8.0399
8.03765
8.03599
5.12663
5.12322
5.11976
5.11969
5.12258
5.12898
5.13908
5.15345
5.16959
5.18567
5.37598
5.36104
5.36017
5.36303
5.37805
5.40724
5.45625
5.53392
5.63284
5.75053
5.52658
5.47967
5.46573
5.4795
5.52761
5.61837
5.76711
6.00385
6.30878
6.68033
5.7272
5.65978
5.6455
5.66548
5.73718
5.87331
6.10454
6.49913
7.03144
7.75009
5.81505
5.724
5.69811
5.7277
5.82544
6.01859
6.36064
6.98398
7.86733
9.1869
5.92895
5.81719
5.7906
5.82392
5.94243
6.18
6.61217
7.43976
8.65445
10.6616
5.88355
5.78308
5.75425
5.78765
5.89429
6.11617
6.53638
7.40187
8.80339
11.4705
5.57812
5.52015
5.50917
5.52292
5.57396
5.67522
5.85871
6.23088
6.89046
8.32528
8.39559
8.38887
8.38599
8.38811
8.39504
8.40639
8.42194
8.44565
8.48223
8.53152
7.885
7.88577
7.88617
7.8862
7.8859
7.88455
7.88268
7.88069
7.8789
7.87756
5.052
5.05077
5.04852
5.04801
5.04863
5.05067
5.05363
5.05745
5.06101
5.06341
5.13789
5.13624
5.13828
5.13787
5.14013
5.14559
5.15604
5.17357
5.19605
5.22003
5.21963
5.19899
5.19238
5.19798
5.21876
5.25718
5.31723
5.40618
5.51478
5.62679
5.36809
5.33678
5.33079
5.33924
5.37219
5.43288
5.53111
5.68811
5.89274
6.12695
5.44707
5.39922
5.38478
5.39966
5.44976
5.54586
5.70756
5.98381
6.36792
6.85609
5.55771
5.49378
5.47854
5.496
5.56125
5.68792
5.90594
6.29797
6.86491
7.64811
5.57425
5.51554
5.49804
5.51745
5.57852
5.70232
5.92566
6.35735
7.04579
8.13541
5.45381
5.41321
5.40623
5.41482
5.44841
5.51343
5.62684
5.8378
6.18546
6.75861
8.21909
8.21316
8.21056
8.21235
8.21835
8.22809
8.24145
8.26084
8.28805
8.32096
7.71465
7.7156
7.71607
7.71605
7.71559
7.71447
7.71308
7.71162
7.71032
7.70932
5.01365
5.01275
5.01108
5.01065
5.01093
5.01192
5.01317
5.01456
5.01551
5.01565
5.01145
5.01362
5.01609
5.01509
5.01376
5.01244
5.01196
5.01304
5.01555
5.01856
5.04477
5.03555
5.03233
5.03461
5.0437
5.06025
5.08503
5.11909
5.15792
5.19174
5.1454
5.13164
5.12959
5.13288
5.1475
5.17375
5.21453
5.27519
5.35
5.42253
5.20531
5.18121
5.17349
5.18071
5.20561
5.25217
5.3273
5.44639
5.60508
5.77832
5.30061
5.26518
5.25693
5.26564
5.30063
5.36668
5.47512
5.65557
5.90517
6.19343
5.35053
5.31834
5.30841
5.31923
5.35257
5.41879
5.53421
5.74208
6.06234
6.49189
5.35787
5.32979
5.32564
5.33095
5.35293
5.39451
5.46461
5.58463
5.76942
6.02094
8.03062
8.02561
8.02335
8.02484
8.02986
8.03784
8.04885
8.06412
8.08384
8.10571
7.53416
7.535
7.53551
7.53546
7.53501
7.53421
7.53324
7.53221
7.53132
7.53059
4.99322
4.99239
4.99108
4.99082
4.99116
4.99192
4.99283
4.99375
4.99433
4.99423
4.94616
4.94879
4.95088
4.95006
4.94828
4.94586
4.94333
4.94113
4.93966
4.93897
4.94928
4.94483
4.94314
4.94413
4.94835
4.95594
4.96688
4.98094
4.99594
5.00714
5.01295
5.00712
5.00665
5.00784
5.01426
5.02558
5.04259
5.06625
5.09367
5.11683
5.05336
5.04169
5.03771
5.04114
5.05325
5.07543
5.11011
5.16148
5.22695
5.29112
5.13021
5.11095
5.10671
5.11093
5.12947
5.16363
5.21766
5.30114
5.41043
5.5183
5.19567
5.17941
5.17426
5.18009
5.19733
5.23111
5.28882
5.3866
5.53159
5.70584
5.28668
5.26728
5.26504
5.26837
5.28292
5.30978
5.35335
5.42233
5.52057
5.64048
7.82988
7.82584
7.82398
7.82517
7.8292
7.83546
7.84419
7.85577
7.86968
7.88399
7.34328
7.34395
7.34437
7.34434
7.34404
7.3435
7.34284
7.34215
7.34155
7.341
4.98135
4.98063
4.97967
4.97952
4.97986
4.98054
4.98135
4.98216
4.98272
4.98262
4.91315
4.91532
4.91688
4.91636
4.91498
4.91301
4.91082
4.90874
4.9072
4.90635
4.89944
4.89701
4.89603
4.89652
4.89867
4.90247
4.9078
4.9143
4.9209
4.92515
4.93747
4.93492
4.93492
4.93534
4.93828
4.94343
4.95092
4.96069
4.9712
4.97929
4.96217
4.95671
4.95471
4.95634
4.96216
4.97264
4.98863
5.01101
5.03839
5.06426
5.02225
5.01175
5.00964
5.01172
5.02164
5.03953
5.06689
5.10652
5.15538
5.19851
5.09315
5.0859
5.0836
5.08666
5.095
5.11121
5.13866
5.18315
5.24653
5.32172
5.23574
5.22222
5.22116
5.22339
5.23332
5.25108
5.27853
5.31883
5.37095
5.43183
7.61671
7.6136
7.61216
7.61308
7.61616
7.62089
7.62754
7.636
7.64554
7.65473
7.14174
7.14229
7.14263
7.14262
7.14243
7.14207
7.14164
7.14118
7.14079
7.14036
4.97347
4.97292
4.97226
4.97218
4.97249
4.97307
4.97376
4.97446
4.97501
4.97486
4.89666
4.89827
4.89937
4.8991
4.8982
4.8969
4.89545
4.89407
4.89313
4.89263
4.87472
4.87324
4.87265
4.87291
4.87409
4.87615
4.87897
4.88231
4.88566
4.88754
4.89636
4.89504
4.89504
4.89522
4.89676
4.89944
4.9032
4.90781
4.91237
4.91573
4.91007
4.90756
4.90657
4.90736
4.91017
4.91514
4.92254
4.93244
4.94411
4.95559
4.95689
4.95095
4.94991
4.95103
4.95657
4.96631
4.98069
5.00042
5.02322
5.04217
5.02815
5.02566
5.02496
5.02654
5.0302
5.03731
5.04927
5.06829
5.09396
5.12884
5.20038
5.19076
5.19041
5.19207
5.19917
5.2113
5.22898
5.25311
5.28072
5.31357
7.39106
7.3888
7.38775
7.38843
7.39064
7.39412
7.39899
7.40495
7.4113
7.41709
6.92935
6.9298
6.93007
6.93007
6.92996
6.92973
6.92945
6.92915
6.9289
6.92853
4.96746
4.9671
4.9667
4.96667
4.96693
4.96737
4.96793
4.96849
4.96899
4.96874
4.88841
4.88959
4.89034
4.89024
4.88972
4.88896
4.88813
4.88736
4.88696
4.88674
4.86323
4.86231
4.86198
4.86212
4.86277
4.86389
4.86541
4.86721
4.86909
4.87003
4.87503
4.87413
4.87402
4.87413
4.8751
4.87679
4.87908
4.88173
4.88416
4.88599
4.88184
4.88068
4.88018
4.88058
4.88196
4.88436
4.88784
4.89231
4.8974
4.90307
4.91901
4.91541
4.91485
4.91558
4.91891
4.92459
4.93264
4.94319
4.95463
4.9642
4.98842
4.9882
4.98834
4.98917
4.99052
4.99313
4.99748
5.00458
5.01311
5.03089
5.17624
5.16924
5.16928
5.17067
5.17601
5.18459
5.19635
5.21126
5.22583
5.24496
7.15297
7.15143
7.15073
7.1512
7.1527
7.15521
7.15864
7.16268
7.16676
7.17035
6.70593
6.70632
6.70652
6.70653
6.70647
6.70632
6.70614
6.70595
6.70578
6.70546
4.96236
4.96222
4.96202
4.96204
4.96222
4.96254
4.96294
4.96335
4.96382
4.96346
4.88422
4.88509
4.8856
4.88559
4.88533
4.88495
4.88456
4.88421
4.88418
4.88416
4.85845
4.85792
4.85777
4.85784
4.85816
4.8587
4.85946
4.8604
4.86147
4.862
4.86459
4.86384
4.86362
4.86371
4.86442
4.86566
4.86729
4.86911
4.87072
4.87198
4.86743
4.86685
4.86658
4.86679
4.8675
4.86871
4.8704
4.87249
4.87479
4.87791
4.89784
4.89544
4.8951
4.89566
4.89784
4.90144
4.90632
4.91249
4.91883
4.92463
4.96447
4.96519
4.96573
4.96617
4.96648
4.96704
4.96788
4.96966
4.97066
4.981
5.15954
5.15441
5.15467
5.15595
5.16007
5.16641
5.17453
5.18411
5.19166
5.20394
6.90272
6.90166
6.90123
6.90153
6.90256
6.90429
6.9066
6.90922
6.91174
6.91392
6.47141
6.47175
6.47191
6.47192
6.47189
6.4718
6.47168
6.47156
6.47145
6.47115
4.95775
4.95784
4.9578
4.95785
4.95798
4.95817
4.95843
4.95872
4.95918
4.95872
4.88198
4.88264
4.88296
4.883
4.88291
4.88279
4.88268
4.88261
4.88284
4.88298
4.85696
4.85671
4.85668
4.8567
4.85681
4.85699
4.85728
4.85768
4.85828
4.85863
4.85988
4.85922
4.85894
4.85901
4.85956
4.86051
4.86176
4.86312
4.86432
4.86531
4.86061
4.86027
4.86009
4.8602
4.8606
4.86125
4.86212
4.86316
4.86425
4.86613
4.88612
4.88439
4.88414
4.8846
4.88614
4.88858
4.89177
4.89569
4.89958
4.90374
4.94944
4.95038
4.95107
4.95134
4.95125
4.951
4.95044
4.95008
4.94804
4.95504
5.14741
5.14361
5.14403
5.14522
5.14851
5.15338
5.15923
5.16565
5.16931
5.17805
6.64051
6.63981
6.63953
6.63974
6.64043
6.64156
6.64304
6.64466
6.64613
6.64743
6.22587
6.22616
6.22628
6.22629
6.22628
6.22623
6.22615
6.22607
6.22599
6.22571
4.95347
4.95378
4.95385
4.95395
4.95402
4.95412
4.95426
4.95443
4.95493
4.95441
4.88063
4.88113
4.8813
4.88135
4.88136
4.8814
4.88147
4.88159
4.88198
4.88228
4.85703
4.85696
4.85699
4.85699
4.85697
4.85694
4.85695
4.85705
4.85735
4.85764
4.85805
4.85748
4.85719
4.85723
4.85764
4.85836
4.8593
4.86032
4.86125
4.86205
4.85775
4.85749
4.85737
4.85742
4.85765
4.85803
4.85852
4.85907
4.85962
4.86083
4.87924
4.87794
4.87773
4.87811
4.87921
4.88092
4.8831
4.8857
4.88827
4.89156
4.93853
4.93935
4.94005
4.94025
4.94008
4.93964
4.93871
4.93772
4.93473
4.94011
5.13761
5.13483
5.13532
5.13645
5.13914
5.143
5.14738
5.15184
5.15326
5.16002
6.36667
6.36624
6.36607
6.36621
6.36664
6.36733
6.36823
6.36916
6.36995
6.37071
5.96959
5.96984
5.96992
5.96994
5.96994
5.96991
5.96986
5.9698
5.96973
5.96947
4.94939
4.9499
4.95005
4.95019
4.95023
4.95025
4.95028
4.95036
4.95093
4.95047
4.87956
4.8799
4.87995
4.87999
4.88005
4.88018
4.88036
4.88059
4.88107
4.88157
4.85776
4.85777
4.85782
4.85781
4.85773
4.8576
4.85748
4.85743
4.85756
4.85786
4.85756
4.8571
4.85685
4.85687
4.85715
4.85765
4.85831
4.85904
4.85973
4.86038
4.85687
4.85666
4.85656
4.85658
4.85671
4.85694
4.85721
4.85752
4.85781
4.85858
4.87435
4.87336
4.87318
4.87346
4.87422
4.87539
4.87685
4.87856
4.88028
4.88294
4.92851
4.92907
4.92969
4.92986
4.92974
4.92935
4.9285
4.9275
4.92454
4.92896
5.12818
5.12621
5.12671
5.12778
5.13001
5.13311
5.13647
5.13962
5.13971
5.14514
6.08174
6.0815
6.0814
6.08149
6.08173
6.08212
6.08263
6.08311
6.08349
6.08392
5.70321
5.70342
5.70349
5.70351
5.7035
5.70348
5.70345
5.7034
5.70334
5.70311
4.94522
4.94587
4.94609
4.94627
4.94631
4.94627
4.9462
4.94619
4.94678
4.94658
4.87839
4.87852
4.87849
4.87849
4.87856
4.87873
4.87895
4.87924
4.87971
4.88042
4.85859
4.85859
4.85863
4.8586
4.85851
4.85838
4.85824
4.85815
4.8582
4.85854
4.85769
4.85734
4.85715
4.85715
4.85732
4.85764
4.85806
4.85853
4.85901
4.8595
4.85697
4.85682
4.85674
4.85674
4.8568
4.85692
4.85705
4.8572
4.85734
4.85779
4.86971
4.86899
4.86884
4.869
4.86948
4.8702
4.87108
4.87212
4.87321
4.87525
4.91724
4.91752
4.918
4.91814
4.91805
4.91774
4.91707
4.91626
4.91381
4.91738
5.11636
5.11508
5.11554
5.11651
5.11831
5.12075
5.1233
5.12544
5.12472
5.12895
5.78656
5.78644
5.78638
5.78643
5.78655
5.78675
5.787
5.78721
5.78737
5.78759
5.42759
5.42776
5.4278
5.42781
5.42781
5.4278
5.42778
5.42775
5.4277
5.42751
4.93955
4.94019
4.94056
4.9408
4.94085
4.94076
4.94058
4.94043
4.94079
4.94109
4.87679
4.87667
4.87656
4.87652
4.87657
4.87673
4.87695
4.87724
4.87765
4.87849
4.85911
4.85905
4.85905
4.85902
4.85895
4.85887
4.85877
4.85871
4.85874
4.85908
4.85815
4.85792
4.85779
4.85778
4.85787
4.85805
4.85828
4.85855
4.85885
4.85918
4.8576
4.85751
4.85746
4.85745
4.85747
4.8575
4.85754
4.85758
4.85763
4.85783
4.86473
4.86428
4.86417
4.86425
4.86449
4.86485
4.86528
4.86578
4.86638
4.86774
4.90353
4.90357
4.90386
4.90391
4.90378
4.90347
4.90293
4.9023
4.90068
4.9033
5.09507
5.09437
5.09476
5.09556
5.0969
5.09867
5.10046
5.10171
5.10056
5.10336
5.48212
5.48206
5.48205
5.48207
5.48211
5.48217
5.48224
5.4823
5.48236
5.48246
5.14253
5.14263
5.14264
5.14265
5.14265
5.14264
5.14264
5.14263
5.14263
5.14254
4.92471
4.92528
4.9259
4.92623
4.92631
4.92619
4.9259
4.92549
4.92509
4.92572
4.87368
4.87333
4.87313
4.87303
4.87305
4.87316
4.87336
4.87364
4.87404
4.87487
4.85937
4.8593
4.85928
4.85925
4.85922
4.85919
4.85915
4.85914
4.85917
4.85939
4.85895
4.85883
4.85877
4.85876
4.8588
4.85888
4.85899
4.85912
4.85927
4.85945
4.85863
4.85859
4.85857
4.85856
4.85856
4.85855
4.85855
4.85853
4.85853
4.85857
4.86083
4.86064
4.86059
4.86061
4.8607
4.86083
4.86098
4.86115
4.86139
4.86202
4.88685
4.88669
4.88674
4.88669
4.88651
4.8862
4.88578
4.88536
4.88479
4.88649
5.04093
5.04063
5.04088
5.04139
5.04218
5.04321
5.04424
5.04479
5.04379
5.04483
5.16848
5.16845
5.16846
5.16846
5.16847
5.16847
5.16847
5.16846
5.16843
5.16849
11.269
11.3841
11.3385
11.1222
82.8101
84.8872
85.3469
85.9964
143.136
148.61
149.079
147.835
202.799
212.235
212.102
207.813
264.481
278.141
276.936
269.483
332.776
351.056
348.955
340.212
395.159
417.81
415.427
408.035
433.167
459.438
457.491
452.915
345.682
368.259
365.709
364.359
11.4769
11.7155
11.5594
11.1514
9.71376
9.77313
9.77596
9.73197
76.0778
79.3211
80.0805
80.202
133.883
144.803
145.904
143.739
192.903
214.532
215.067
209.171
256.138
290.98
290.033
280.083
329.51
380.272
378.497
365.622
399.601
466.621
465.654
452.623
446.088
527.575
528.617
517.425
350.525
422.883
420.975
416.139
10.7115
10.9424
10.8719
10.6516
8.77682
8.78979
8.78878
8.77727
26.5382
28.9547
28.2173
25.7083
49.3564
53.7621
52.098
47.4245
74.5816
81.3406
78.2212
70.7059
103.455
112.995
107.816
96.7342
139.441
152.804
145.176
129.284
177.31
194.674
184.515
163.492
207.53
228.706
216.447
190.91
164.731
181.624
170.141
149.304
9.91284
10.0036
9.98041
9.8812
8.51187
8.51443
8.51509
8.51412
11.473
11.7225
11.6929
11.4958
21.2125
21.9396
21.8762
21.3341
31.9967
33.4834
33.2314
31.9158
44.5099
46.9433
46.2791
43.7571
60.6335
64.402
63.0822
58.766
78.0554
83.1683
80.9016
74.4575
92.576
99.1266
95.8398
87.1475
71.9362
77.0765
73.5646
65.963
9.44869
9.49313
9.49006
9.44964
8.33284
8.33395
8.33421
8.33355
7.04188
7.13341
7.15859
7.12873
11.6778
11.974
12.057
11.971
16.8709
17.4854
17.5858
17.3191
22.8363
23.8562
23.8921
23.2882
30.7127
32.3378
32.2252
31.0364
39.223
41.4579
41.0403
39.061
46.2617
49.198
48.3811
45.4009
34.4016
36.6203
35.4301
32.5499
9.09835
9.12229
9.1239
9.10695
8.18253
8.18345
8.18354
8.18277
5.60671
5.62098
5.62619
5.62446
7.45585
7.52578
7.55849
7.55984
9.93733
10.1211
10.1883
10.1632
12.8335
13.1793
13.2657
13.1651
16.796
17.4125
17.5025
17.2347
21.0457
21.9425
21.966
21.4368
24.4785
25.7306
25.6291
24.6929
17.4812
18.3753
18.0209
17.0172
8.81281
8.82472
8.82708
8.82094
8.03169
8.03258
8.03265
8.03187
5.19693
5.20012
5.20099
5.2
5.82311
5.83892
5.84756
5.84976
6.91424
6.96714
6.99231
6.9934
8.25889
8.37116
8.41551
8.40579
10.2336
10.4613
10.5312
10.4824
12.3586
12.7065
12.7768
12.6577
14.0532
14.573
14.6197
14.3555
10.222
10.5583
10.4798
10.1886
8.56539
8.57086
8.57293
8.57153
7.87345
7.87433
7.87439
7.87364
5.06322
5.06438
5.06439
5.06345
5.23312
5.23551
5.23694
5.23759
5.68404
5.69641
5.70295
5.70432
6.26557
6.29593
6.3105
6.31202
7.1941
7.26972
7.3004
7.2947
8.21565
8.33667
8.37656
8.3579
9.06882
9.26938
9.314
9.24861
7.33905
7.45181
7.44577
7.37967
8.33738
8.33965
8.34112
8.34133
7.70547
7.70631
7.70637
7.70567
5.01329
5.01422
5.01416
5.01323
5.02032
5.02044
5.0205
5.02054
5.20441
5.20675
5.20804
5.20841
5.45536
5.46198
5.46557
5.46669
5.88059
5.90359
5.91416
5.91403
6.35904
6.3949
6.41024
6.41053
6.80648
6.87781
6.90035
6.88569
6.19859
6.23254
6.23689
6.22637
8.11415
8.11495
8.11584
8.1164
7.52701
7.52779
7.52786
7.5272
4.99134
4.99219
4.99214
4.99126
4.93892
4.93883
4.93873
4.93863
5.00959
5.00982
5.00995
5.01
5.12348
5.12439
5.12497
5.12535
5.3234
5.33043
5.33375
5.33368
5.5598
5.56827
5.57291
5.57497
5.81414
5.83902
5.84812
5.84388
5.6987
5.70627
5.70895
5.70971
7.88848
7.88859
7.88909
7.88962
7.33769
7.33841
7.33847
7.33787
4.97959
4.98037
4.98032
4.97948
4.90613
4.90609
4.90601
4.9059
4.92538
4.92528
4.92522
4.92523
4.9803
4.98016
4.9801
4.98019
5.0767
5.07927
5.08039
5.08008
5.20669
5.20779
5.20887
5.21024
5.36636
5.37608
5.37942
5.37673
5.45418
5.45325
5.45384
5.45613
7.65708
7.65693
7.65719
7.6576
7.13733
7.13798
7.13803
7.13747
4.97183
4.97253
4.97246
4.97166
4.89242
4.89243
4.89237
4.89225
4.8873
4.88718
4.88713
4.88714
4.91575
4.91554
4.91542
4.9154
4.96188
4.96315
4.96361
4.96326
5.04268
5.04222
5.04232
5.04307
5.15358
5.15844
5.15959
5.15702
5.32497
5.32167
5.32117
5.32311
7.41819
7.41797
7.41811
7.41838
6.92579
6.92637
6.9264
6.92591
4.9658
4.9664
4.9663
4.96555
4.88653
4.88655
4.8865
4.88638
4.86973
4.86964
4.86961
4.86964
4.88596
4.88583
4.88574
4.8857
4.907
4.90781
4.90806
4.90774
4.96377
4.96324
4.96313
4.9635
5.0488
5.05202
5.05237
5.0498
5.25296
5.24942
5.24851
5.24982
7.17065
7.17049
7.17055
7.17068
6.70303
6.70352
6.70355
6.70311
4.96066
4.96114
4.96101
4.96031
4.88397
4.884
4.88395
4.88382
4.86175
4.8617
4.86169
4.86171
4.87203
4.87197
4.87191
4.87186
4.88064
4.88121
4.88136
4.8811
4.92485
4.92457
4.92447
4.92459
4.99618
4.99881
4.99886
4.99628
5.2109
5.20786
5.20687
5.20753
6.91369
6.91365
6.91367
6.91368
6.46905
6.46946
6.46947
6.46908
4.9561
4.95647
4.95631
4.95565
4.88285
4.88289
4.88284
4.8827
4.85849
4.85848
4.85847
4.85848
4.86542
4.8654
4.86536
4.86532
4.8681
4.86851
4.8686
4.86838
4.90485
4.90484
4.90479
4.90472
4.96895
4.97137
4.97129
4.96869
5.18477
5.1825
5.18159
5.18161
6.64682
6.64692
6.64693
6.64682
6.22399
6.22431
6.22429
6.22397
4.95205
4.95231
4.95212
4.95151
4.88233
4.8824
4.88236
4.8822
4.85766
4.85768
4.85768
4.85767
4.86219
4.86219
4.86217
4.86214
4.86223
4.86252
4.86257
4.86238
4.89337
4.89359
4.89359
4.89337
4.95329
4.95571
4.95558
4.9529
5.1668
5.16545
5.16468
5.16407
6.36983
6.37008
6.37009
6.36988
5.96819
5.96841
5.96837
5.96811
4.94847
4.94864
4.94844
4.94788
4.88193
4.88208
4.88205
4.88185
4.85805
4.85811
4.85812
4.85808
4.86054
4.86056
4.86055
4.86053
4.85953
4.85972
4.85973
4.85959
4.88513
4.88551
4.88554
4.88524
4.94149
4.94402
4.9439
4.9411
5.15203
5.1517
5.15114
5.14989
6.08284
6.08321
6.08323
6.08295
5.70235
5.70246
5.70239
5.7022
4.94521
4.94538
4.9452
4.94467
4.88122
4.88148
4.88147
4.8812
4.85888
4.85898
4.85899
4.85892
4.85969
4.85972
4.85972
4.85971
4.85835
4.85846
4.85846
4.85837
4.87745
4.8779
4.87795
4.87762
4.92868
4.93134
4.93127
4.92843
5.13574
5.13662
5.13634
5.13439
5.78641
5.78685
5.78688
5.78657
5.42738
5.42735
5.42726
5.42716
4.941
4.94139
4.94127
4.94066
4.8796
4.87994
4.87993
4.8796
4.85947
4.85959
4.8596
4.85952
4.85936
4.8594
4.85941
4.85941
4.85809
4.85813
4.85813
4.85808
4.86956
4.86996
4.87001
4.86974
4.91187
4.91428
4.91426
4.91179
5.10927
5.11166
5.11174
5.10893
5.48142
5.48194
5.48196
5.48162
5.14313
5.14289
5.1428
5.14287
4.92732
4.92821
4.92819
4.92723
4.87564
4.87587
4.87584
4.87558
4.85963
4.8597
4.85971
4.85965
4.85958
4.85961
4.85962
4.85963
4.85863
4.85864
4.85863
4.85863
4.86301
4.86323
4.86327
4.86313
4.89063
4.8918
4.89177
4.89056
5.04767
5.05119
5.05151
5.04808
5.16798
5.16853
5.16855
5.16817
10.1126
9.36666
9.05456
8.94203
8.87755
8.8321
8.80182
8.7848
8.77534
8.76972
103.674
49.1181
35.7478
29.9539
24.5571
19.9496
16.3636
13.6898
11.7819
10.4198
160.951
70.8595
51.0931
43.7431
37.1921
31.4262
26.5936
22.7129
19.6692
17.2947
206.425
82.5925
55.982
46.7286
39.3627
32.7673
27.2293
22.8358
19.4443
16.8565
242.062
88.9511
58.8263
47.9658
40.0779
32.7369
26.6773
21.9549
18.3682
15.7228
278.035
94.6909
60.9747
48.3027
39.8458
31.7874
25.3528
20.4651
16.8823
14.3311
307.093
98.1593
61.6913
47.7813
39.0459
30.5197
23.9434
19.0742
15.5947
13.2105
315.206
93.7531
56.6289
42.228
33.9173
25.7867
19.9241
15.7969
13.046
11.2291
224.473
56.1347
30.5437
21.1161
16.2832
12.224
9.95511
8.61304
7.8041
7.27992
9.56922
9.54456
9.38916
9.36301
9.31642
9.29029
9.26953
9.25848
9.25102
9.2446
9.3671
9.05695
8.90471
8.81911
8.76518
8.72955
8.70641
8.69266
8.68526
8.68057
53.1033
28.6707
22.5565
19.4496
16.669
14.1982
12.1635
10.6009
9.46121
8.66909
89.9983
46.2739
35.8003
31.021
27.1816
23.5095
20.291
17.6321
15.5041
13.8852
122.264
58.6113
42.8646
35.6345
30.5509
25.7672
21.6967
18.4235
15.8735
13.9869
152.563
68.7672
47.8566
38.5207
32.3851
26.6789
21.9779
18.2986
15.4861
13.4759
186.437
78.8757
52.1456
40.4763
33.2585
26.6701
21.4545
17.4963
14.5917
12.5916
217.205
86.4754
54.7143
41.2507
33.3539
26.1779
20.6983
16.6612
13.771
11.8535
233.197
86.751
51.9191
37.4849
29.5785
22.5776
17.5743
14.0835
11.7635
10.2831
167.408
54.7565
29.0629
19.3797
14.6948
11.2265
9.27456
8.12952
7.4336
7.00275
9.81853
9.50198
9.33082
9.26754
9.21263
9.17935
9.1552
9.14045
9.13005
9.12103
8.73771
8.69628
8.66355
8.63632
8.61502
8.59956
8.58924
8.58306
8.57963
8.57717
19.9483
16.5764
14.5027
12.6845
11.115
9.81199
8.79773
8.04886
7.51014
7.13756
35.9203
28.7119
24.9251
21.6895
18.914
16.5059
14.5109
12.9065
11.6313
10.6695
51.037
37.9358
31.5407
26.3505
22.2596
18.8402
16.097
13.9478
12.2884
11.0746
66.1278
45.6921
36.6301
29.594
24.3796
20.1259
16.8138
14.2908
12.3793
11.0261
83.2255
53.3441
41.1446
32.0849
25.7358
20.6619
16.8423
14.0204
11.9743
10.5808
99.1242
59.1914
44.1512
33.4589
26.3367
20.7056
16.5979
13.6544
11.5706
10.1994
108.42
59.7592
42.6006
31.0011
23.7648
18.2181
14.4246
11.8569
10.1704
9.09754
75.9447
36.65
23.8688
16.273
12.2256
9.68242
8.28971
7.47147
6.96267
6.64326
9.57147
9.37701
9.24304
9.16318
9.10555
9.06951
9.04442
9.02732
9.01466
9.00377
8.50931
8.49924
8.48818
8.47825
8.47071
8.46558
8.46237
8.46074
8.46034
8.45988
10.9415
10.1334
9.28426
8.43989
7.73277
7.1901
6.79132
6.50332
6.29478
6.14974
19.8677
18.0284
16.1766
14.3038
12.6881
11.36
10.2986
9.46289
8.80369
8.30919
28.4776
24.6329
21.1902
17.9885
15.4007
13.3286
11.7051
10.4522
9.49372
8.79856
37.2429
30.6667
25.4313
20.8637
17.3676
14.6402
12.5635
11.0096
9.84187
9.01757
47.4699
36.9713
29.5249
23.3603
18.8651
15.44
12.9155
11.0864
9.77447
8.88361
57.069
42.0774
32.5538
25.0139
19.76
15.8316
13.0269
11.0613
9.68092
8.76934
62.7992
43.2659
32.0897
23.7129
18.2357
14.3065
11.6798
9.94104
8.80278
8.06971
42.7464
26.2046
17.9728
12.7917
10.0236
8.39136
7.47312
6.91839
6.5596
6.32896
9.32682
9.18826
9.08109
9.0114
8.96316
8.93149
8.90874
8.8924
8.88007
8.86963
8.33337
8.33187
8.33036
8.32919
8.32848
8.32819
8.32821
8.32867
8.32978
8.33081
6.99877
6.75856
6.50559
6.26722
6.06892
5.91253
5.79219
5.70056
5.63123
5.58327
11.611
10.925
10.1512
9.37369
8.68698
8.11474
7.65557
7.29402
7.00557
6.78767
16.4398
14.9571
13.3754
11.8595
10.5721
9.52174
8.69358
8.0554
7.56713
7.21435
21.5362
18.9346
16.3582
14.0119
12.1133
10.6149
9.4727
8.62381
7.98364
7.52916
27.7677
23.4443
19.5089
16.0873
13.444
11.4221
9.93342
8.86351
8.09575
7.57179
33.7358
27.3833
22.0662
17.6425
14.3796
11.9552
10.2306
9.03391
8.18811
7.62141
37.3946
28.7916
22.2631
17.1547
13.6365
11.1587
9.50879
8.42154
7.70017
7.22511
24.5291
17.3351
12.8096
9.9573
8.36372
7.40495
6.83003
6.46703
6.2205
6.05872
9.05264
8.96954
8.89791
8.84681
8.80937
8.78254
8.76232
8.74712
8.73539
8.7256
8.18334
8.18349
8.18385
8.18444
8.18517
8.18595
8.18675
8.18774
8.18922
8.19099
5.608
5.56477
5.51341
5.46124
5.41405
5.3736
5.34011
5.31316
5.2926
5.27964
7.50452
7.31342
7.06502
6.80568
6.57049
6.37234
6.21228
6.08447
5.97786
5.89491
9.97762
9.4718
8.8506
8.2274
7.67864
7.22433
6.86236
6.58001
6.36009
6.20037
12.736
11.7742
10.6615
9.59967
8.70704
7.99567
7.45057
7.04308
6.72812
6.50019
16.3273
14.6098
12.7536
11.0611
9.69846
8.64828
7.87074
7.30844
6.8976
6.61331
19.8649
17.2469
14.5838
12.2681
10.4875
9.16075
8.212
7.55016
7.06991
6.73997
22.1189
18.4208
14.9983
12.2244
10.2384
8.84217
7.90164
7.27198
6.84162
6.55058
14.3945
11.5387
9.42812
8.05208
7.21596
6.68002
6.33283
6.10284
5.93847
5.82916
8.79753
8.75141
8.70719
8.6717
8.64335
8.62132
8.60391
8.59031
8.57956
8.57073
8.03257
8.03291
8.03346
8.03422
8.03507
8.03592
8.03673
8.03767
8.03908
8.04088
5.1967
5.18853
5.17887
5.16821
5.15758
5.14755
5.13864
5.13125
5.12619
5.12431
5.83873
5.79277
5.73039
5.66327
5.60091
5.5474
5.5034
5.46698
5.43315
5.40498
6.95002
6.79199
6.58422
6.36811
6.17125
6.00319
5.86454
5.75209
5.66103
5.59419
8.29787
7.96323
7.54442
7.13206
6.77527
6.4849
6.25688
6.08151
5.93868
5.83182
10.2207
9.55386
8.76958
8.03172
7.41939
6.9387
6.57425
6.30299
6.09724
5.95213
12.1906
11.1263
9.92536
8.84951
7.99564
7.34976
6.87719
6.53873
6.28122
6.09832
13.5199
11.951
10.3402
8.9994
8.00475
7.29206
6.79596
6.45176
6.20675
6.03683
9.42648
8.38652
7.50745
6.88484
6.46196
6.16837
5.96314
5.82084
5.71382
5.64227
8.56198
8.53744
8.5107
8.48641
8.46535
8.44782
8.43336
8.42167
8.41219
8.40453
7.87434
7.8746
7.87502
7.87559
7.87624
7.87687
7.87745
7.87815
7.87931
7.8809
5.06296
5.06118
5.05921
5.05687
5.05424
5.05148
5.04889
5.04684
5.04609
5.04701
5.23563
5.22716
5.21543
5.20229
5.1899
5.17939
5.17107
5.16394
5.15499
5.14624
5.69441
5.65145
5.59145
5.52542
5.4618
5.40435
5.35415
5.31111
5.27463
5.24775
6.28733
6.18742
6.05376
5.91589
5.79089
5.68443
5.5969
5.52648
5.4647
5.41642
7.22118
6.98858
6.69986
6.4168
6.17139
5.97029
5.81047
5.68575
5.58659
5.51563
8.22918
7.83687
7.36152
6.91988
6.55435
6.26686
6.04676
5.88215
5.74896
5.65085
8.98529
8.36927
7.69643
7.11413
6.66041
6.32049
6.07149
5.89052
5.75607
5.66114
7.18624
6.82369
6.46928
6.18832
5.9754
5.81565
5.69603
5.60962
5.54125
5.49571
8.33714
8.32378
8.30742
8.29096
8.27567
8.2622
8.25064
8.24098
8.23295
8.22656
7.70634
7.70652
7.70679
7.70717
7.7076
7.708
7.70834
7.70878
7.70967
7.71101
5.01329
5.01254
5.0118
5.01096
5.00997
5.00886
5.00781
5.00712
5.00735
5.0086
5.02002
5.01895
5.01783
5.01664
5.01586
5.01578
5.01647
5.01712
5.0156
5.01306
5.20582
5.19451
5.17769
5.15774
5.13714
5.1173
5.09887
5.08213
5.06736
5.05657
5.4613
5.43459
5.39599
5.35332
5.31203
5.27474
5.24248
5.21528
5.18907
5.1674
5.89256
5.81803
5.7211
5.61967
5.52591
5.44426
5.37554
5.31908
5.27213
5.23842
6.38051
6.25277
6.08416
5.91758
5.77052
5.64775
5.54825
5.47019
5.40261
5.35085
6.80426
6.58137
6.32462
6.08772
5.89043
5.73351
5.61197
5.51945
5.44803
5.39724
6.1782
6.04692
5.90098
5.77172
5.66402
5.57729
5.50821
5.4565
5.41339
5.38503
8.11414