/*--------------------------------*- C++ -*----------------------------------*\
| =========                 |                                                 |
| \\      /  F ield         | foam-extend: Open Source CFD                    |
|  \\    /   O peration     | Version:     4.0                                |
|   \\  /    A nd           | Web:         http://www.foam-extend.org         |
|    \\/     M anipulation  |                                                 |
\*---------------------------------------------------------------------------*/
FoamFile
{
    version     2.0;
    format      ascii;
    class       volScalarField;
    location    "2150";
    object      MaU;
}
// * * * * * * * * * * * * * * * * * * * * * * * * * * * * * * * * * * * * * //

dimensions      [0 0 0 0 0 0 0];

internalField   nonuniform List<scalar> 
34480
(
0.623811
0.624808
0.625343
0.625455
0.625149
0.624349
0.622916
0.620169
0.614072
0.608275
0.627232
0.628059
0.628519
0.628551
0.627991
0.626696
0.624691
0.621726
0.614706
0.60915
0.629419
0.630177
0.630549
0.630456
0.62972
0.628371
0.626596
0.6243
0.617263
0.612142
0.629414
0.630193
0.630634
0.630672
0.63016
0.629215
0.62794
0.626358
0.619709
0.615062
0.629875
0.630759
0.63134
0.631597
0.631409
0.630942
0.630213
0.629402
0.623537
0.619376
0.629471
0.630413
0.631079
0.631466
0.631515
0.631454
0.63126
0.631271
0.62659
0.623248
0.629676
0.63076
0.631533
0.632061
0.63232
0.632599
0.632901
0.633731
0.630496
0.627956
0.629086
0.630212
0.630942
0.631355
0.631498
0.631732
0.632186
0.633556
0.631837
0.630484
0.628837
0.630119
0.630963
0.631511
0.631831
0.632225
0.632928
0.634794
0.634346
0.6329
0.625034
0.626059
0.626097
0.62522
0.623599
0.621612
0.619712
0.619167
0.618367
0.619153
0.613911
0.615373
0.615946
0.615697
0.614553
0.612237
0.608122
0.600852
0.590141
0.576284
0.618527
0.619835
0.62036
0.620098
0.618855
0.616259
0.611716
0.603868
0.591209
0.575049
0.621597
0.622821
0.623293
0.622997
0.621681
0.619039
0.614567
0.60688
0.593376
0.576037
0.622406
0.623641
0.624179
0.624017
0.622908
0.62061
0.616537
0.60928
0.595384
0.577625
0.623549
0.624859
0.625514
0.625559
0.62475
0.622905
0.619353
0.612739
0.598939
0.581335
0.623685
0.625039
0.625775
0.625955
0.625382
0.623952
0.620946
0.615119
0.601869
0.585055
0.624339
0.6258
0.62663
0.626956
0.6266
0.625542
0.623073
0.6181
0.605777
0.590037
0.624072
0.625562
0.626361
0.626603
0.626192
0.625198
0.62302
0.618765
0.60763
0.593579
0.624069
0.625667
0.626557
0.626914
0.626682
0.625921
0.624135
0.620626
0.61075
0.597499
0.620459
0.621872
0.622206
0.621543
0.61994
0.617546
0.614087
0.609279
0.599878
0.58975
0.606282
0.607848
0.608413
0.608092
0.60685
0.604531
0.600836
0.595268
0.587195
0.577005
0.611182
0.612716
0.613274
0.612896
0.611464
0.608714
0.604138
0.59688
0.58549
0.570333
0.614527
0.616059
0.616611
0.616231
0.614735
0.611805
0.606821
0.598656
0.584639
0.564817
0.615829
0.617423
0.618053
0.617785
0.616418
0.613628
0.608639
0.600048
0.583878
0.559951
0.617449
0.619133
0.619873
0.619786
0.618649
0.616167
0.611415
0.602805
0.585135
0.55792
0.618005
0.619746
0.620571
0.620617
0.619681
0.617521
0.613114
0.604782
0.586226
0.556641
0.619022
0.620856
0.621771
0.621962
0.621229
0.619394
0.615396
0.607539
0.588671
0.55742
0.619055
0.620915
0.621814
0.621951
0.62119
0.619442
0.615715
0.608387
0.589731
0.557639
0.619311
0.621235
0.622205
0.622431
0.621801
0.620246
0.61688
0.610216
0.592205
0.558712
0.615942
0.617696
0.618253
0.617721
0.616081
0.613337
0.608825
0.601391
0.583936
0.550857
0.600721
0.602095
0.602567
0.602258
0.601167
0.599235
0.596364
0.59246
0.5875
0.58197
0.605356
0.606821
0.60733
0.606921
0.605521
0.602983
0.59906
0.593406
0.58558
0.576655
0.608549
0.610133
0.610678
0.610238
0.608686
0.605796
0.601143
0.5941
0.583506
0.57057
0.610049
0.611772
0.612405
0.61203
0.610484
0.607495
0.602446
0.5944
0.581147
0.563933
0.611938
0.613788
0.614526
0.614284
0.612861
0.609974
0.604816
0.59618
0.580675
0.559465
0.612785
0.614718
0.615542
0.615409
0.614116
0.611396
0.606294
0.597399
0.580099
0.55541
0.614074
0.616104
0.61701
0.617005
0.615868
0.613369
0.60845
0.599555
0.580975
0.553342
0.614364
0.61642
0.617322
0.617281
0.616124
0.613676
0.60889
0.600165
0.580894
0.551002
0.614843
0.616934
0.617889
0.617923
0.616872
0.61456
0.609962
0.601572
0.582274
0.549844
0.611722
0.613659
0.614326
0.613818
0.612063
0.608937
0.603573
0.594577
0.575472
0.541842
0.596858
0.59794
0.598301
0.598064
0.597249
0.595865
0.593929
0.591508
0.588755
0.586036
0.600937
0.602177
0.602608
0.602252
0.601077
0.599032
0.596047
0.5921
0.587252
0.582466
0.603677
0.605149
0.605655
0.605236
0.60382
0.601282
0.597413
0.591994
0.584748
0.577128
0.605107
0.606801
0.607412
0.607009
0.60548
0.602639
0.598097
0.591397
0.581613
0.570564
0.607036
0.608916
0.609635
0.609315
0.607797
0.604852
0.599902
0.59224
0.580063
0.565426
0.608011
0.610019
0.610831
0.610588
0.609114
0.606165
0.600987
0.592657
0.578334
0.560214
0.609449
0.611576
0.612469
0.61233
0.61095
0.608088
0.60285
0.594117
0.578012
0.556631
0.609916
0.612083
0.612986
0.612821
0.611413
0.608543
0.603264
0.594345
0.576968
0.552742
0.610567
0.61276
0.613703
0.613597
0.612265
0.609482
0.604257
0.595305
0.577297
0.549997
0.607674
0.609726
0.610473
0.609987
0.608168
0.604823
0.599074
0.589598
0.571364
0.541984
0.594214
0.595019
0.595276
0.595114
0.59456
0.593649
0.59243
0.590995
0.589478
0.588027
0.597696
0.598654
0.598991
0.598714
0.597817
0.596304
0.594197
0.591594
0.588699
0.586121
0.599866
0.601118
0.601552
0.601194
0.600009
0.597954
0.594972
0.591081
0.586393
0.581968
0.601058
0.602593
0.603146
0.602764
0.60138
0.598893
0.59512
0.589938
0.583156
0.576318
0.602852
0.604628
0.605294
0.60495
0.603477
0.600727
0.596355
0.590056
0.581133
0.571549
0.603814
0.605768
0.606536
0.606232
0.604719
0.601809
0.596994
0.589786
0.578781
0.566311
0.605287
0.607394
0.608245
0.608016
0.606526
0.60357
0.598483
0.590591
0.577703
0.562324
0.605842
0.608015
0.60889
0.608637
0.607099
0.604062
0.598772
0.59041
0.576016
0.557895
0.606611
0.608815
0.609723
0.609514
0.608017
0.605007
0.59965
0.59099
0.575617
0.554503
0.603911
0.605989
0.606771
0.606301
0.60447
0.601067
0.595322
0.586166
0.570291
0.546964
0.592398
0.592986
0.593162
0.59306
0.592709
0.592147
0.591416
0.590595
0.589764
0.588933
0.595363
0.596052
0.596299
0.596102
0.595465
0.594417
0.593012
0.591365
0.589665
0.588268
0.596964
0.597955
0.598304
0.598024
0.5971
0.59554
0.593369
0.590698
0.58775
0.585187
0.597845
0.599146
0.599618
0.599289
0.598123
0.596086
0.593134
0.58932
0.584785
0.580592
0.599389
0.600968
0.601557
0.601229
0.599904
0.597508
0.59388
0.588972
0.582694
0.576527
0.600233
0.602031
0.602728
0.602408
0.600974
0.598304
0.594108
0.588213
0.580128
0.571759
0.601647
0.603634
0.604419
0.604143
0.602666
0.599837
0.595222
0.588498
0.578674
0.56796
0.602207
0.604287
0.60511
0.604808
0.603254
0.600274
0.595334
0.587969
0.576653
0.56361
0.603042
0.60517
0.606023
0.605751
0.604203
0.601189
0.596084
0.588263
0.575859
0.56027
0.600494
0.602512
0.60329
0.602841
0.601063
0.597762
0.592339
0.584038
0.570992
0.553475
0.591119
0.591556
0.591675
0.591616
0.591404
0.59107
0.590646
0.590184
0.589719
0.589187
0.593687
0.594157
0.594329
0.594197
0.59377
0.593079
0.59218
0.591167
0.590175
0.589401
0.59479
0.595528
0.595794
0.595588
0.594909
0.593786
0.592275
0.5905
0.588668
0.587173
0.595361
0.596402
0.596785
0.596521
0.595596
0.594016
0.591813
0.589107
0.586132
0.583566
0.596602
0.597933
0.59843
0.598142
0.597023
0.59505
0.592185
0.588513
0.584206
0.580271
0.597264
0.598838
0.599445
0.599141
0.597865
0.595556
0.592086
0.58747
0.581706
0.576163
0.598558
0.600347
0.601045
0.60076
0.599388
0.596841
0.592876
0.587409
0.580167
0.572838
0.599049
0.600956
0.601703
0.601386
0.599912
0.597159
0.592797
0.586626
0.578056
0.568893
0.599909
0.601885
0.602664
0.602364
0.600864
0.598023
0.593426
0.58673
0.577121
0.565981
0.59747
0.599354
0.600094
0.599674
0.598009
0.594947
0.590071
0.582918
0.572647
0.560015
0.590186
0.590525
0.590606
0.590574
0.59045
0.590258
0.590017
0.589758
0.589492
0.589113
0.592471
0.592779
0.592896
0.592812
0.592538
0.592099
0.591542
0.590931
0.590353
0.589917
0.593168
0.593693
0.593884
0.593741
0.593266
0.592491
0.591477
0.590329
0.589202
0.588324
0.59348
0.594273
0.59457
0.59437
0.593671
0.592501
0.590919
0.589057
0.587128
0.585556
0.594411
0.59548
0.595882
0.595646
0.594747
0.593199
0.59103
0.588373
0.585467
0.582967
0.594868
0.596182
0.59669
0.596424
0.595347
0.593446
0.590699
0.587215
0.583188
0.579552
0.596008
0.597552
0.598151
0.597883
0.596678
0.594499
0.591245
0.586968
0.581759
0.576814
0.596375
0.598052
0.598706
0.598402
0.597075
0.594659
0.590984
0.586025
0.579715
0.573398
0.597235
0.599002
0.59969
0.599392
0.598014
0.595471
0.591522
0.586037
0.578823
0.57106
0.594868
0.596557
0.597232
0.596851
0.595351
0.592627
0.588425
0.582522
0.574705
0.565878
0.589479
0.589756
0.589813
0.589797
0.589726
0.589618
0.589482
0.589337
0.589177
0.58888
0.591573
0.59177
0.591847
0.591796
0.591626
0.591356
0.591017
0.590654
0.590316
0.590064
0.591951
0.592309
0.592441
0.592346
0.592026
0.59151
0.590851
0.590124
0.589437
0.588918
0.592076
0.592655
0.592876
0.592733
0.592227
0.591393
0.590294
0.589043
0.587806
0.58684
0.592722
0.593544
0.593856
0.593672
0.592983
0.591817
0.590232
0.588363
0.58643
0.584846
0.592979
0.594031
0.59444
0.594219
0.593352
0.591854
0.58976
0.58721
0.584444
0.582076
0.593963
0.595242
0.595738
0.595504
0.594495
0.592712
0.590144
0.58691
0.583236
0.579936
0.594165
0.595582
0.596135
0.595861
0.594723
0.592695
0.589722
0.58588
0.581342
0.577056
0.595019
0.596541
0.597129
0.596854
0.595648
0.593472
0.590217
0.585892
0.580616
0.575318
0.59269
0.594145
0.594739
0.594405
0.593102
0.590774
0.587292
0.582604
0.576823
0.570814
0.588924
0.589162
0.589203
0.589197
0.589156
0.589096
0.589019
0.588937
0.588838
0.588587
0.590895
0.591019
0.59107
0.59104
0.590937
0.590774
0.590573
0.590357
0.590158
0.590008
0.591023
0.591258
0.591346
0.591285
0.591076
0.590744
0.590326
0.589875
0.589459
0.589152
0.59104
0.591448
0.591607
0.591508
0.591156
0.590581
0.589839
0.589015
0.588228
0.587633
0.591437
0.592045
0.592278
0.592142
0.591633
0.590787
0.589664
0.588382
0.587113
0.586113
0.591521
0.592331
0.592648
0.592474
0.591804
0.590668
0.589125
0.58731
0.585438
0.583907
0.592365
0.593385
0.593782
0.593588
0.59278
0.591379
0.589424
0.58705
0.584504
0.582324
0.592379
0.59353
0.593981
0.593747
0.592811
0.591178
0.58886
0.585981
0.582783
0.579919
0.593236
0.5945
0.594986
0.594748
0.593737
0.591951
0.589368
0.586073
0.5823
0.578747
0.59092
0.592125
0.592626
0.592344
0.591256
0.58934
0.586559
0.582962
0.578795
0.574798
0.588477
0.588689
0.58872
0.588719
0.588696
0.588662
0.588619
0.588572
0.588506
0.588285
0.590375
0.590454
0.590488
0.590471
0.59041
0.590313
0.590194
0.590066
0.589946
0.589853
0.590297
0.590447
0.590503
0.590464
0.590332
0.590123
0.589864
0.589589
0.589341
0.58916
0.590282
0.590561
0.590672
0.590607
0.59037
0.589985
0.589495
0.588962
0.588464
0.588096
0.590469
0.590903
0.59107
0.590972
0.590611
0.590016
0.589244
0.588384
0.587562
0.586933
0.590417
0.591017
0.591254
0.591124
0.590626
0.589794
0.58869
0.587431
0.586183
0.585199
0.59115
0.591935
0.59224
0.592089
0.591467
0.590406
0.588966
0.587271
0.585535
0.584107
0.590962
0.591861
0.592214
0.592025
0.591286
0.590021
0.588274
0.586181
0.583972
0.582085
0.591849
0.592862
0.593249
0.593054
0.592241
0.590833
0.588854
0.586421
0.58378
0.58143
0.589525
0.590482
0.590889
0.59066
0.589783
0.588265
0.586121
0.58345
0.580516
0.577914
0.588112
0.588305
0.588329
0.58833
0.588317
0.588298
0.588274
0.588246
0.588201
0.588
0.589975
0.590027
0.590051
0.590042
0.590006
0.589949
0.589878
0.589801
0.589726
0.589664
0.58971
0.589801
0.589835
0.589811
0.58973
0.589602
0.589445
0.589281
0.589135
0.589029
0.589732
0.589918
0.589995
0.589954
0.589799
0.589547
0.589231
0.588891
0.588578
0.588349
0.589743
0.590042
0.590157
0.59009
0.589841
0.589436
0.588918
0.588355
0.587829
0.587437
0.589595
0.590025
0.590196
0.590101
0.589744
0.589155
0.588388
0.587535
0.586714
0.586088
0.59025
0.590833
0.591061
0.590948
0.590487
0.589712
0.588683
0.587504
0.58634
0.585412
0.589851
0.590526
0.590793
0.590646
0.590085
0.58914
0.587866
0.586388
0.584891
0.583665
0.59081
0.591595
0.591892
0.59174
0.591112
0.590042
0.588578
0.586833
0.585022
0.583487
0.588455
0.589183
0.589502
0.589323
0.588643
0.587484
0.585885
0.583963
0.581944
0.580287
0.58781
0.587987
0.588004
0.588007
0.587999
0.587989
0.587975
0.587959
0.587926
0.587743
0.589677
0.589714
0.589732
0.589727
0.589706
0.589672
0.58963
0.589582
0.589532
0.589485
0.589215
0.589269
0.589288
0.589272
0.589223
0.589146
0.589054
0.588959
0.588876
0.588817
0.58934
0.589463
0.589515
0.58949
0.589391
0.589231
0.58903
0.588815
0.588619
0.588476
0.589199
0.589398
0.589475
0.58943
0.589263
0.588995
0.588658
0.588296
0.587966
0.587725
0.588994
0.589291
0.589411
0.589345
0.589098
0.588693
0.588175
0.587609
0.587078
0.586683
0.589601
0.59002
0.590184
0.590103
0.589773
0.589227
0.588513
0.587714
0.586948
0.586349
0.588982
0.589469
0.589664
0.589554
0.589143
0.588462
0.587562
0.586547
0.585552
0.58477
0.590069
0.590657
0.590878
0.590764
0.590298
0.589515
0.588466
0.58725
0.586034
0.585042
0.587654
0.588183
0.588424
0.588289
0.587781
0.586927
0.585774
0.584433
0.583074
0.582045
0.587551
0.587712
0.587724
0.587727
0.587723
0.587717
0.58771
0.5877
0.587676
0.58751
0.589475
0.589504
0.589518
0.589516
0.589504
0.589483
0.589456
0.589425
0.589388
0.589347
0.588782
0.58881
0.588819
0.588808
0.588779
0.588734
0.588681
0.588629
0.588584
0.588555
0.58907
0.58915
0.589185
0.589171
0.589109
0.589009
0.588884
0.58875
0.588628
0.588536
0.588796
0.588924
0.588973
0.588943
0.588835
0.588663
0.588448
0.588221
0.588018
0.587873
0.588568
0.588767
0.588849
0.588805
0.588639
0.588369
0.588028
0.587661
0.587321
0.587075
0.589147
0.589438
0.589552
0.589495
0.589268
0.588894
0.588415
0.587888
0.587394
0.587012
0.588295
0.588633
0.58877
0.588691
0.588401
0.587926
0.58731
0.586632
0.585983
0.585496
0.589581
0.590008
0.590165
0.590084
0.589751
0.589198
0.588472
0.587648
0.58685
0.586213
0.587054
0.587421
0.587597
0.587498
0.587134
0.586527
0.585722
0.584815
0.58392
0.5833
0.587296
0.587439
0.587447
0.58745
0.587448
0.587445
0.587441
0.587435
0.587418
0.587272
0.589375
0.5894
0.589412
0.589413
0.589405
0.589391
0.589373
0.58935
0.589319
0.589279
0.588386
0.588399
0.588401
0.588393
0.588375
0.58835
0.588321
0.588295
0.588274
0.588263
0.588896
0.588948
0.588971
0.588963
0.588926
0.588865
0.588788
0.588705
0.58863
0.588571
0.58851
0.588589
0.58862
0.588601
0.588533
0.588424
0.588291
0.588152
0.588029
0.587943
0.588287
0.588418
0.588473
0.588444
0.588336
0.588161
0.587942
0.587709
0.587495
0.587343
0.588843
0.589035
0.589111
0.589072
0.588921
0.588674
0.588363
0.588025
0.587716
0.587475
0.587747
0.587972
0.588066
0.588012
0.587815
0.587494
0.587083
0.586642
0.586225
0.585931
0.58931
0.589611
0.58972
0.589664
0.589435
0.589058
0.588572
0.58803
0.587518
0.587109
0.586568
0.586811
0.586936
0.586867
0.586614
0.586199
0.585654
0.585059
0.584481
0.584123
0.586946
0.587068
0.587073
0.587075
0.587074
0.587073
0.587071
0.587069
0.587059
0.586935
0.589402
0.589427
0.589438
0.589439
0.589434
0.589424
0.589411
0.589391
0.589363
0.589318
0.588028
0.588031
0.58803
0.588024
0.588014
0.588
0.587985
0.587972
0.587964
0.587966
0.588801
0.588833
0.588847
0.588842
0.588819
0.588783
0.588738
0.588689
0.588645
0.588607
0.588331
0.588379
0.588399
0.588388
0.588346
0.58828
0.588198
0.588114
0.58804
0.58799
0.588141
0.588225
0.588261
0.588244
0.588176
0.588065
0.587927
0.587781
0.587647
0.587552
0.588658
0.588778
0.588825
0.588799
0.588701
0.588543
0.588347
0.588139
0.587953
0.587807
0.587334
0.587481
0.587545
0.58751
0.58738
0.58717
0.586902
0.586619
0.58635
0.586178
0.58925
0.589456
0.589529
0.589491
0.589339
0.589091
0.588776
0.588429
0.588111
0.587845
0.586062
0.586214
0.586302
0.586255
0.586087
0.585811
0.585453
0.585073
0.584702
0.58451
0.58628
0.586375
0.586377
0.586378
0.586378
0.586379
0.58638
0.58638
0.586378
0.586282
0.589624
0.58965
0.589659
0.58966
0.589656
0.589649
0.589638
0.589623
0.589597
0.589543
0.587753
0.587754
0.587756
0.587755
0.587749
0.587741
0.587731
0.587722
0.587716
0.58772
0.588769
0.588785
0.58879
0.588785
0.588771
0.58875
0.588725
0.5887
0.588678
0.588658
0.588258
0.588289
0.588303
0.588297
0.588272
0.588232
0.588182
0.588131
0.588084
0.588054
0.588121
0.588176
0.5882
0.588189
0.588147
0.588079
0.587993
0.587901
0.587817
0.587756
0.588577
0.588647
0.588674
0.588655
0.588593
0.588495
0.588375
0.58825
0.588145
0.588064
0.587133
0.587232
0.587278
0.587257
0.587174
0.587038
0.586865
0.586681
0.586501
0.586396
0.589455
0.589588
0.589634
0.589608
0.589509
0.58935
0.589151
0.588938
0.588749
0.588575
0.585305
0.585399
0.58546
0.58543
0.58532
0.585141
0.584909
0.58467
0.584427
0.584333
0.584985
0.58505
0.585054
0.585056
0.585058
0.585058
0.585058
0.585057
0.585057
0.584989
0.590181
0.590199
0.590196
0.59019
0.590185
0.590182
0.590179
0.590175
0.590164
0.590114
0.587675
0.587688
0.587701
0.587706
0.587705
0.587699
0.587687
0.587672
0.587654
0.587643
0.588769
0.588772
0.588769
0.588763
0.588753
0.588742
0.58873
0.58872
0.588716
0.588713
0.588276
0.588298
0.588309
0.588306
0.588292
0.588266
0.588235
0.588201
0.58817
0.588147
0.588198
0.588234
0.58825
0.588244
0.588218
0.588174
0.588119
0.588061
0.588006
0.587964
0.588579
0.588617
0.58863
0.588617
0.588576
0.588514
0.588439
0.588365
0.588308
0.58827
0.587298
0.587375
0.587411
0.5874
0.587346
0.587256
0.587141
0.587015
0.586883
0.586796
0.590047
0.590122
0.590148
0.590127
0.590061
0.589958
0.589832
0.589704
0.589603
0.589506
0.584022
0.584086
0.584131
0.584111
0.584038
0.583919
0.583766
0.58361
0.58344
0.583393
0.583163
0.583203
0.583216
0.583223
0.583225
0.583223
0.583216
0.583203
0.583186
0.583131
0.591107
0.591078
0.591049
0.591029
0.59102
0.591021
0.591033
0.591056
0.591089
0.591099
0.587859
0.587895
0.587918
0.587931
0.587933
0.587926
0.587911
0.587887
0.58785
0.587806
0.58876
0.588752
0.588745
0.588738
0.58873
0.588723
0.588717
0.588715
0.588721
0.588734
0.588332
0.58835
0.588358
0.588357
0.588347
0.588329
0.588306
0.588281
0.588257
0.588238
0.588295
0.588321
0.588333
0.588329
0.588309
0.588278
0.588239
0.588197
0.588158
0.588126
0.588601
0.588623
0.588631
0.588621
0.588591
0.588546
0.588492
0.588441
0.588406
0.588392
0.587819
0.58789
0.587921
0.587914
0.587875
0.587809
0.587723
0.587626
0.587518
0.587419
0.591006
0.591034
0.591045
0.591026
0.590976
0.5909
0.590811
0.590727
0.59068
0.590678
0.582337
0.582394
0.582427
0.582413
0.582357
0.582269
0.582157
0.582041
0.581913
0.581871
0.439206
0.418453
0.425359
0.466318
0.39143
0.368191
0.379232
0.436468
0.34824
0.321093
0.338431
0.417355
0.310169
0.280772
0.305107
0.406434
0.27869
0.248625
0.280193
0.404021
0.251586
0.222069
0.261905
0.401211
0.229869
0.202225
0.25085
0.398575
0.209483
0.185366
0.242829
0.39648
0.19154
0.173517
0.239245
0.398111
0.172079
0.162207
0.234933
0.393614
0.499287
0.489088
0.489413
0.499128
0.468795
0.45618
0.457325
0.470004
0.437918
0.421197
0.423407
0.44098
0.408896
0.38793
0.391524
0.414245
0.384234
0.35877
0.364028
0.392094
0.362188
0.331839
0.33789
0.371219
0.344306
0.308969
0.314855
0.35328
0.327863
0.287728
0.293165
0.336582
0.31432
0.27015
0.275134
0.322944
0.298958
0.252364
0.254962
0.305302
0.56669
0.564474
0.563944
0.565077
0.548929
0.545232
0.544538
0.546839
0.528942
0.523046
0.522238
0.526574
0.506703
0.498435
0.497635
0.50447
0.485704
0.474982
0.474355
0.484089
0.464627
0.45132
0.450912
0.463656
0.445688
0.429715
0.429483
0.445174
0.427053
0.408533
0.408445
0.426902
0.410791
0.390591
0.390548
0.410929
0.391875
0.372162
0.371397
0.391306
0.579155
0.578071
0.577722
0.578073
0.569524
0.568112
0.567622
0.567986
0.557663
0.555179
0.554461
0.555362
0.54289
0.539099
0.538194
0.539919
0.528453
0.523213
0.522195
0.52505
0.512888
0.506074
0.504999
0.509245
0.498286
0.489824
0.488732
0.494572
0.482972
0.47294
0.471888
0.479397
0.468747
0.45777
0.456766
0.465576
0.450906
0.440975
0.439712
0.448062
0.586022
0.585432
0.585232
0.58542
0.580194
0.579713
0.579484
0.579493
0.572714
0.571774
0.571351
0.571423
0.56261
0.560974
0.560322
0.560589
0.552652
0.550147
0.549275
0.549907
0.541356
0.537842
0.536774
0.537953
0.530625
0.526012
0.524793
0.526705
0.518841
0.513152
0.511853
0.514642
0.50767
0.501328
0.500025
0.503599
0.492917
0.487717
0.486287
0.489308
0.588601
0.588125
0.587979
0.588164
0.585155
0.584943
0.584834
0.584826
0.580069
0.579648
0.579432
0.579414
0.572846
0.572084
0.571707
0.571699
0.565791
0.564559
0.563991
0.564046
0.557473
0.555646
0.554872
0.55507
0.549644
0.547128
0.546162
0.54661
0.540746
0.537523
0.536417
0.537235
0.532322
0.528652
0.527507
0.528733
0.52041
0.517859
0.516637
0.517196
0.589725
0.589294
0.589171
0.589358
0.587844
0.587751
0.587699
0.58769
0.584306
0.584111
0.584004
0.583984
0.578937
0.578566
0.578364
0.578328
0.573733
0.573112
0.572783
0.572735
0.567381
0.566425
0.565939
0.565899
0.561539
0.560172
0.55952
0.55953
0.554741
0.552933
0.552139
0.552271
0.54858
0.546462
0.545609
0.54593
0.538905
0.537903
0.537003
0.536562
0.590056
0.58964
0.589526
0.589715
0.589185
0.589138
0.589111
0.589106
0.586724
0.586626
0.586571
0.58656
0.582707
0.582516
0.582407
0.58238
0.578808
0.578479
0.578293
0.578248
0.573847
0.573327
0.573038
0.572973
0.569409
0.568649
0.568242
0.568168
0.564131
0.563108
0.562589
0.56254
0.559721
0.558495
0.557911
0.55793
0.551678
0.551585
0.550987
0.550206
0.59001
0.5896
0.589489
0.589679
0.589801
0.589775
0.58976
0.589756
0.588082
0.588031
0.588001
0.587995
0.585084
0.58498
0.58492
0.584903
0.582163
0.581983
0.581877
0.581846
0.578271
0.57798
0.57781
0.57776
0.574905
0.574473
0.574226
0.574157
0.57076
0.570172
0.569848
0.569775
0.567615
0.5669
0.566521
0.566464
0.560795
0.561223
0.560858
0.560002
0.589784
0.589375
0.589265
0.589456
0.589997
0.589982
0.589972
0.589969
0.588781
0.588753
0.588737
0.588733
0.586565
0.586506
0.58647
0.58646
0.584381
0.584278
0.584217
0.584197
0.581335
0.581168
0.581067
0.581033
0.578831
0.578579
0.578429
0.578379
0.575549
0.575206
0.575007
0.574948
0.573343
0.572921
0.572682
0.572623
0.567465
0.568178
0.56797
0.567135
0.589485
0.589075
0.588966
0.589158
0.589967
0.589957
0.58995
0.589948
0.589074
0.589058
0.589049
0.589047
0.587466
0.587431
0.587409
0.587402
0.585835
0.585775
0.585738
0.585726
0.583463
0.583363
0.583302
0.58328
0.581658
0.581506
0.581414
0.581381
0.579031
0.578827
0.578704
0.578663
0.577563
0.577308
0.57716
0.577116
0.572416
0.57327
0.573161
0.572374
0.589169
0.588756
0.588647
0.588841
0.589825
0.589817
0.589812
0.589809
0.589115
0.589107
0.589102
0.589101
0.587992
0.58797
0.587956
0.587951
0.586764
0.586728
0.586706
0.586699
0.584927
0.584866
0.584828
0.584814
0.583692
0.583598
0.583541
0.583519
0.581549
0.581425
0.58135
0.581322
0.580688
0.580532
0.58044
0.580411
0.576108
0.577016
0.576966
0.576234
0.588864
0.588449
0.58834
0.588535
0.589642
0.589636
0.589631
0.589628
0.589006
0.589002
0.589
0.588999
0.588282
0.588267
0.588258
0.588254
0.587334
0.587313
0.5873
0.587295
0.585918
0.585881
0.585857
0.585848
0.585147
0.585088
0.585052
0.585038
0.583339
0.583264
0.583217
0.583199
0.583001
0.582903
0.582846
0.582829
0.578855
0.57976
0.579743
0.579069
0.588581
0.588162
0.588054
0.588252
0.589465
0.589459
0.589454
0.589451
0.588806
0.588805
0.588805
0.588805
0.58843
0.588421
0.588414
0.588411
0.587663
0.587651
0.587644
0.587641
0.586577
0.586553
0.586538
0.586532
0.586177
0.58614
0.586117
0.586108
0.584572
0.584526
0.584497
0.584486
0.58471
0.584646
0.584611
0.584603
0.580879
0.581744
0.581745
0.581131
0.588315
0.587893
0.587788
0.587989
0.589326
0.589319
0.589313
0.58931
0.588553
0.588554
0.588555
0.588556
0.588504
0.588497
0.588492
0.58849
0.587837
0.587831
0.587827
0.587825
0.587009
0.586994
0.586984
0.58698
0.5869
0.586876
0.586862
0.586857
0.585378
0.585351
0.585333
0.585325
0.585974
0.585931
0.58591
0.585909
0.582343
0.58314
0.583149
0.582601
0.588033
0.587611
0.58751
0.587716
0.589253
0.589245
0.589238
0.589234
0.588268
0.588271
0.588272
0.588273
0.588548
0.588543
0.588539
0.588537
0.587923
0.58792
0.587918
0.587917
0.5873
0.58729
0.587283
0.587281
0.587405
0.587391
0.587383
0.58738
0.585863
0.585847
0.585835
0.58583
0.586928
0.586898
0.586885
0.586889
0.583347
0.584052
0.584062
0.583587
0.58764
0.587222
0.587129
0.58734
0.589283
0.589273
0.589266
0.589261
0.587975
0.587978
0.58798
0.587981
0.588592
0.588589
0.588587
0.588586
0.587978
0.587976
0.587975
0.587974
0.587522
0.587515
0.58751
0.587508
0.587768
0.587761
0.587758
0.587757
0.586137
0.586125
0.586117
0.586113
0.587701
0.587678
0.58767
0.587679
0.583903
0.584494
0.584503
0.584109
0.586909
0.586508
0.586429
0.58664
0.589497
0.589484
0.589475
0.589471
0.587727
0.587729
0.58773
0.58773
0.588653
0.588651
0.588651
0.588652
0.588043
0.588042
0.588041
0.58804
0.58773
0.587724
0.58772
0.587719
0.58805
0.58805
0.58805
0.58805
0.586352
0.586339
0.586332
0.586329
0.588455
0.588436
0.588432
0.588445
0.583888
0.584344
0.584348
0.584045
0.585496
0.585143
0.585087
0.585283
0.590057
0.590042
0.590034
0.590035
0.587628
0.587625
0.587622
0.587619
0.588721
0.588723
0.588725
0.588727
0.588134
0.588132
0.588131
0.58813
0.587939
0.587933
0.58793
0.58793
0.588281
0.588286
0.588288
0.588288
0.586709
0.586687
0.586678
0.58668
0.58943
0.589417
0.589417
0.589432
0.583076
0.583365
0.583363
0.583168
0.583426
0.583206
0.58318
0.583304
0.591074
0.591068
0.591073
0.591086
0.587745
0.587732
0.587722
0.587716
0.58876
0.588765
0.58877
0.588773
0.588221
0.588219
0.588217
0.588216
0.588103
0.588097
0.588095
0.588096
0.588424
0.588432
0.588435
0.588434
0.587256
0.587218
0.587207
0.58722
0.59075
0.590762
0.590768
0.590772
0.581595
0.581668
0.581664
0.58162
0.595281
0.603739
0.60774
0.610844
0.613969
0.616726
0.618964
0.620712
0.622078
0.623224
0.596211
0.599548
0.606971
0.61202
0.616486
0.619873
0.622338
0.624103
0.625347
0.62629
0.60007
0.596428
0.607413
0.613128
0.618412
0.622009
0.624577
0.6264
0.627653
0.628545
0.603484
0.592552
0.607167
0.61274
0.6186
0.622149
0.624705
0.626483
0.6277
0.628564
0.607974
0.59054
0.607912
0.613212
0.619517
0.622917
0.625444
0.627138
0.628266
0.62905
0.611058
0.587881
0.607651
0.612477
0.619234
0.622449
0.62499
0.626636
0.627769
0.628594
0.615057
0.586616
0.608473
0.612583
0.619744
0.622696
0.625253
0.626842
0.627948
0.628749
0.616624
0.583563
0.607477
0.610818
0.618488
0.621241
0.62396
0.625633
0.62694
0.627977
0.618286
0.582078
0.607924
0.609932
0.617745
0.620031
0.622979
0.6248
0.626309
0.627538
0.60274
0.566212
0.594704
0.597057
0.606743
0.610611
0.615259
0.618372
0.620934
0.622955
0.537861
0.55993
0.576276
0.587904
0.595868
0.601412
0.605419
0.60841
0.610719
0.612638
0.52415
0.554695
0.576782
0.590731
0.599584
0.605575
0.609818
0.612894
0.615136
0.616799
0.513885
0.551564
0.577887
0.592904
0.602358
0.608621
0.61301
0.616153
0.618389
0.619984
0.505496
0.548532
0.578059
0.593398
0.603256
0.609597
0.613996
0.617101
0.619292
0.620845
0.501038
0.547712
0.579322
0.594712
0.60486
0.611152
0.615493
0.618501
0.620589
0.622052
0.49784
0.546639
0.579733
0.594889
0.605277
0.611448
0.615732
0.618654
0.620703
0.622168
0.49744
0.547068
0.581236
0.595867
0.606419
0.612367
0.616575
0.619399
0.621388
0.622813
0.496644
0.546119
0.581189
0.595121
0.605865
0.611599
0.615833
0.618675
0.620787
0.622386
0.497133
0.546439
0.582366
0.595041
0.605582
0.610844
0.615174
0.618135
0.620415
0.622199
0.488049
0.536402
0.573081
0.58527
0.596831
0.603112
0.608634
0.612525
0.615566
0.617835
0.568979
0.575254
0.581331
0.586707
0.591291
0.595124
0.598298
0.60092
0.603112
0.605003
0.555742
0.567136
0.577322
0.585649
0.592317
0.597566
0.60166
0.604843
0.607305
0.60918
0.542656
0.559831
0.574201
0.58509
0.593401
0.599652
0.604359
0.607909
0.610563
0.612509
0.529499
0.552406
0.57076
0.583756
0.59334
0.600252
0.605312
0.609044
0.611794
0.613784
0.519574
0.54755
0.569335
0.583913
0.594415
0.601713
0.606942
0.61072
0.613468
0.615431
0.510728
0.543018
0.567743
0.583446
0.594622
0.602123
0.607433
0.611215
0.613966
0.61595
0.5047
0.540492
0.567671
0.584059
0.59569
0.603225
0.608538
0.612276
0.614999
0.616963
0.499007
0.537457
0.5667
0.583402
0.59535
0.602835
0.608177
0.611943
0.614758
0.616856
0.495298
0.536116
0.567095
0.583463
0.595299
0.6025
0.607901
0.611765
0.614711
0.616959
0.485207
0.527223
0.559409
0.575721
0.588255
0.596181
0.602398
0.606926
0.610405
0.61293
0.578792
0.581201
0.584107
0.587054
0.589832
0.592345
0.594566
0.596509
0.598223
0.599782
0.570019
0.574785
0.580199
0.585342
0.589878
0.593738
0.59696
0.599614
0.60177
0.603474
0.559498
0.567576
0.575986
0.58341
0.589631
0.5947
0.598775
0.602014
0.60455
0.606479
0.547181
0.559284
0.571029
0.580712
0.588467
0.594532
0.599254
0.602912
0.605722
0.607824
0.536488
0.552883
0.567911
0.5796
0.588635
0.595447
0.600609
0.604518
0.607474
0.609652
0.52587
0.546574
0.564723
0.578118
0.588199
0.595555
0.601021
0.605091
0.608152
0.610412
0.517337
0.542165
0.563164
0.577908
0.58879
0.596492
0.602136
0.606284
0.609391
0.611675
0.50896
0.537547
0.561087
0.576816
0.588294
0.596195
0.601977
0.606216
0.60943
0.611834
0.502445
0.534661
0.560402
0.576535
0.588213
0.596096
0.60199
0.606337
0.609658
0.612181
0.491545
0.526358
0.553549
0.57007
0.582388
0.590835
0.597304
0.602122
0.605814
0.608462
0.585286
0.586048
0.587212
0.588578
0.590012
0.591429
0.592775
0.594029
0.595209
0.596362
0.579953
0.581808
0.584326
0.58705
0.589721
0.592203
0.59443
0.596376
0.598032
0.599389
0.572415
0.575817
0.580126
0.584514
0.588606
0.592232
0.595347
0.59796
0.6001
0.601795
0.562598
0.56821
0.574778
0.581036
0.586588
0.591303
0.595214
0.598402
0.600956
0.60294
0.553476
0.561765
0.570824
0.578959
0.585874
0.591526
0.596072
0.599686
0.60253
0.604699
0.543679
0.554972
0.566629
0.576548
0.584687
0.591118
0.596168
0.600106
0.603176
0.605509
0.535228
0.549707
0.563937
0.57545
0.584627
0.591658
0.597074
0.601232
0.604448
0.606868
0.526534
0.544223
0.5609
0.573747
0.583759
0.591228
0.596925
0.60127
0.604637
0.607193
0.519397
0.540405
0.559289
0.573018
0.583522