/*--------------------------------*- C++ -*----------------------------------*\
| =========                 |                                                 |
| \\      /  F ield         | foam-extend: Open Source CFD                    |
|  \\    /   O peration     | Version:     4.0                                |
|   \\  /    A nd           | Web:         http://www.foam-extend.org         |
|    \\/     M anipulation  |                                                 |
\*---------------------------------------------------------------------------*/
FoamFile
{
    version     2.0;
    format      ascii;
    class       volScalarField;
    location    "2150";
    object      mut;
}
// * * * * * * * * * * * * * * * * * * * * * * * * * * * * * * * * * * * * * //

dimensions      [1 -1 -1 0 0 0 0];

internalField   nonuniform List<scalar> 
34480
(
0.00188847
0.00188722
0.00188705
0.00188789
0.00189
0.00189391
0.00190144
0.0019197
0.00195897
0.00203022
0.0159273
0.0151193
0.0148197
0.0145497
0.0129273
0.00824428
0.00340702
0.00134834
0.000984848
0.00145491
0.0442701
0.042612
0.0409246
0.0374799
0.0286712
0.0146822
0.00511864
0.00182855
0.00124086
0.00181177
0.0484193
0.0462616
0.0443205
0.0402815
0.0297092
0.0141614
0.0047935
0.00177555
0.00128735
0.00197759
0.047742
0.0453221
0.0435571
0.0397162
0.0288501
0.0131897
0.00440867
0.00168456
0.00129889
0.00209657
0.0459927
0.0435082
0.0418475
0.0380611
0.0268362
0.0116159
0.00385805
0.00155333
0.00130533
0.00222415
0.0438628
0.0415396
0.0400795
0.0364659
0.0252706
0.0105523
0.00349413
0.00146115
0.00131285
0.00233374
0.0364097
0.0347174
0.0336878
0.0309403
0.0214254
0.00863874
0.00281208
0.00123975
0.00123609
0.00234073
0.0124291
0.0121093
0.0120061
0.0117294
0.00993101
0.00512542
0.00167723
0.000736734
0.000834328
0.00178642
0.00180096
0.00180087
0.00180253
0.0018058
0.00181058
0.0018167
0.00182473
0.00183598
0.00185254
0.00181384
0.00188851
0.00188665
0.00188605
0.00188656
0.00188842
0.00189187
0.00189737
0.00190683
0.00192453
0.00196536
0.0149594
0.0143244
0.0141323
0.0143155
0.0147264
0.014775
0.0129476
0.0076445
0.00249484
0.0020451
0.0407447
0.0395164
0.0388499
0.038312
0.0366985
0.0319873
0.0230057
0.0112949
0.00328119
0.00280217
0.0448212
0.0431519
0.0423481
0.0417749
0.039932
0.0344335
0.0242073
0.011439
0.00330053
0.00316935
0.0446554
0.042698
0.041952
0.0415933
0.04011
0.0348392
0.0244545
0.011284
0.00323795
0.0034505
0.0434406
0.0413729
0.040645
0.0404205
0.039206
0.0342111
0.0239585
0.0108493
0.00316554
0.00378149
0.041836
0.039851
0.0392135
0.0390732
0.0380966
0.0334663
0.0235385
0.0105535
0.00312912
0.00409791
0.0351443
0.0336715
0.0332024
0.0331846
0.0326758
0.0293606
0.0210949
0.00938451
0.00285449
0.00417056
0.0123673
0.0120601
0.0119989
0.0120568
0.0121869
0.0120296
0.0106115
0.00545474
0.00170684
0.002801
0.00179638
0.00179392
0.00179342
0.00179461
0.00179741
0.00180152
0.00180769
0.00181753
0.0018418
0.00188911
0.00188401
0.0018824
0.00188187
0.00188233
0.00188392
0.00188669
0.00189067
0.00189667
0.0019056
0.00191913
0.0140627
0.0136464
0.0135122
0.0136627
0.0141013
0.0147414
0.0151434
0.0142157
0.0101115
0.00583676
0.0372125
0.0362447
0.0359061
0.0360521
0.0363687
0.0359488
0.0330153
0.0253637
0.0133438
0.00709924
0.0410828
0.0397784
0.039348
0.0395736
0.0400703
0.039718
0.0361979
0.0266183
0.0125401
0.00720387
0.0413114
0.0397954
0.0393792
0.0397187
0.0405229
0.0406534
0.037362
0.0266933
0.0114199
0.00717591
0.0405698
0.0389615
0.0385254
0.038929
0.0399578
0.0405768
0.037698
0.0261774
0.0103054
0.00724752
0.0394636
0.0378963
0.0375031
0.0379111
0.0390427
0.0400216
0.0376514
0.0255313
0.00938153
0.00733129
0.0336222
0.0324585
0.032149
0.0324662
0.0334074
0.0345687
0.0334147
0.0226409
0.00796969
0.00704266
0.0122604
0.012005
0.0119607
0.0120212
0.012217
0.0124491
0.0126046
0.0106467
0.00448902
0.00445655
0.00178907
0.00178616
0.00178529
0.00178618
0.00178887
0.00179323
0.00180026
0.00181208
0.00183882
0.00189233
0.00187582
0.00187469
0.00187431
0.00187466
0.00187582
0.00187769
0.00188001
0.00188309
0.00188704
0.00189172
0.0134719
0.0132241
0.0131333
0.0132291
0.0135201
0.0139758
0.0144499
0.0148654
0.0145951
0.0128622
0.0340396
0.033356
0.0331604
0.0333626
0.0339286
0.0346073
0.0346333
0.0324117
0.025687
0.0173827
0.0376449
0.0367033
0.0364348
0.036726
0.0375345
0.038541
0.0385999
0.0352943
0.0257931
0.0167224
0.0381914
0.0370986
0.03683
0.0371866
0.0381996
0.0395804
0.0399753
0.0361453
0.0246345
0.0158808
0.0378699
0.0366934
0.0363915
0.0367874
0.0379472
0.0396909
0.0405402
0.036352
0.0231435
0.0153343
0.0372095
0.0360338
0.0357526
0.0361412
0.0373444
0.0392842
0.0405177
0.0360614
0.0215253
0.0148457
0.0322062
0.0313243
0.0310941
0.0313813
0.0322891
0.0339202
0.035408
0.0320002
0.0185296
0.0137234
0.0121944
0.011984
0.0119515
0.0119978
0.0121468
0.0123369
0.0125439
0.0126728
0.00958882
0.00831945
0.00178016
0.00177711
0.00177611
0.00177692
0.00177963
0.00178429
0.00179189
0.00180459
0.00183074
0.00187809
0.00186474
0.00186405
0.00186381
0.00186405
0.00186481
0.00186592
0.00186711
0.00186853
0.00187011
0.00187158
0.0131893
0.0130523
0.0129924
0.0130519
0.0132314
0.0134917
0.0137226
0.0140115
0.0142928
0.0144153
0.031506
0.0311051
0.0309986
0.0311235
0.031507
0.0321212
0.0328085
0.0330909
0.0316398
0.0274614
0.0347726
0.0341701
0.0340009
0.0341965
0.0347922
0.0357772
0.0368784
0.03711
0.0340963
0.0274698
0.035515
0.0347912
0.0346148
0.0348555
0.0355993
0.0368655
0.0383266
0.0385834
0.0342337
0.0263049
0.0355131
0.0347022
0.034487
0.0347632
0.0356237
0.0371643
0.0390485
0.0394579
0.033829
0.0253955
0.0352035
0.0343594
0.0341514
0.034428
0.0353315
0.0370032
0.0391547
0.0396402
0.0328226
0.0244436
0.0309616
0.030314
0.0301385
0.0303464
0.0310166
0.032322
0.0341946
0.0350297
0.0289297
0.0222938
0.0121761
0.0120027
0.0119791
0.0120106
0.012112
0.0122297
0.0123005
0.012696
0.0125743
0.0122115
0.00176982
0.00176676
0.00176569
0.00176643
0.00176911
0.00177386
0.0017815
0.00179387
0.00181659
0.00185322
0.0018513
0.00185095
0.00185083
0.00185098
0.00185142
0.00185199
0.00185251
0.0018531
0.00185367
0.00185406
0.0131472
0.0130811
0.0130436
0.0130825
0.0131942
0.0133325
0.0134244
0.0135395
0.0136594
0.0137514
0.0297472
0.0295539
0.0295062
0.0295661
0.0297595
0.0300881
0.0305435
0.0310948
0.0314185
0.0310579
0.0326053
0.0322644
0.0321656
0.0322727
0.0326185
0.0332415
0.034152
0.0351929
0.0354801
0.0339459
0.0333875
0.0329498
0.0328421
0.0329811
0.0334357
0.0342682
0.0355105
0.0369059
0.0369212
0.0340656
0.0335735
0.03305
0.0329039
0.0330757
0.0336308
0.0346844
0.0363077
0.0381513
0.0378589
0.0338491
0.0334982
0.0329225
0.0327757
0.0329544
0.0335606
0.0347315
0.0365769
0.0386901
0.0379502
0.0331014
0.0299087
0.0294534
0.0293258
0.0294663
0.0299201
0.0308157
0.0322746
0.0342166
0.0337669
0.0299544
0.0122091
0.0120668
0.0120518
0.0120717
0.0121353
0.0121877
0.0121402
0.0123351
0.0127468
0.0136382
0.0017579
0.00175493
0.00175386
0.00175455
0.00175711
0.00176171
0.00176896
0.00178023
0.0017987
0.00182517
0.00183589
0.00183577
0.00183574
0.00183582
0.00183605
0.00183627
0.00183646
0.00183666
0.00183683
0.00183688
0.0132692
0.0132507
0.0132302
0.0132567
0.0133258
0.013389
0.0134287
0.0134712
0.0135021
0.0134923
0.0286858
0.0286089
0.0285937
0.0286188
0.028701
0.0288353
0.0290275
0.0292923
0.0295738
0.0297921
0.0311275
0.0309503
0.030896
0.0309487
0.0311269
0.0314517
0.0319523
0.0326491
0.0333491
0.0337451
0.0318256
0.0315796
0.0315188
0.0315915
0.031842
0.0323054
0.033041
0.0340995
0.0350949
0.03539
0.0320805
0.0317606
0.0316661
0.0317656
0.0320963
0.0327281
0.0337633
0.0353036
0.0366623
0.0367231
0.0321315
0.0317562
0.0316575
0.0317655
0.032146
0.0328818
0.0341056
0.035972
0.0374816
0.0371054
0.0290746
0.0287676
0.0286793
0.0287689
0.0290577
0.0296181
0.0305422
0.0321147
0.0335579
0.0335476
0.0123018
0.0121845
0.0121768
0.012188
0.0122224
0.0122208
0.0120996
0.0121029
0.0122898
0.0129849
0.00174425
0.00174148
0.00174045
0.00174108
0.00174346
0.0017477
0.00175425
0.00176398
0.00177839
0.00179695
0.00181875
0.00181877
0.00181879
0.00181883
0.00181893
0.00181897
0.00181901
0.00181904
0.00181905
0.00181898
0.0134977
0.0135136
0.0135068
0.0135252
0.0135653
0.0135904
0.0136097
0.0136262
0.013627
0.0135851
0.028128
0.0281062
0.0281063
0.0281164
0.0281472
0.0281923
0.0282572
0.0283456
0.028443
0.0285276
0.0302024
0.0301136
0.0300845
0.0301094
0.0301973
0.0303548
0.0305927
0.0309229
0.0312975
0.0316306
0.0307572
0.030626
0.0305939
0.0306297
0.03076
0.030997
0.0313681
0.0319154
0.0325576
0.0331295
0.0310012
0.0308139
0.0307554
0.0308104
0.0309982
0.0313513
0.0319235
0.0328127
0.0338833
0.0348218
0.0310982
0.0308625
0.0307991
0.030861
0.0310897
0.0315239
0.0322367
0.0333887
0.0347757
0.0359128
0.0284636
0.028265
0.0282069
0.0282612
0.0284344
0.0287594
0.0292742
0.0302068
0.0314653
0.0327013
0.0124605
0.0123623
0.0123609
0.0123657
0.0123784
0.0123351
0.0121781
0.012071
0.0120509
0.0123134
0.00172874
0.00172627
0.00172532
0.00172588
0.00172801
0.00173176
0.0017374
0.00174543
0.00175631
0.0017691
0.00179997
0.00180007
0.00180012
0.00180014
0.00180016
0.00180014
0.00180012
0.00180008
0.00180004
0.00179993
0.0137984
0.0138415
0.0138463
0.013859
0.0138772
0.0138881
0.013899
0.0139056
0.0138957
0.013843
0.027888
0.0278901
0.0278966
0.027901
0.0279103
0.0279226
0.0279409
0.0279646
0.0279877
0.0280026
0.0296645
0.0296193
0.0296034
0.0296154
0.0296594
0.0297366
0.0298484
0.0299945
0.0301544
0.0302896
0.030072
0.0300036
0.0299874
0.0300045
0.030071
0.030189
0.0303669
0.0306164
0.0309094
0.0311768
0.0302669
0.0301604
0.0301252
0.0301548
0.0302589
0.0304501
0.0307495
0.0311962
0.0317557
0.0323089
0.0303622
0.0302179
0.0301786
0.0302128
0.0303467
0.0305946
0.0309872
0.0316015
0.0323929
0.0331903
0.0280621
0.0279383
0.0279022
0.0279333
0.0280307
0.0282038
0.0284627
0.0289337
0.0296372
0.0304954
0.01269
0.0126057
0.0126095
0.01261
0.0126068
0.0125342
0.0123678
0.0122137
0.0120873
0.012146
0.00171131
0.00170917
0.00170834
0.00170883
0.00171065
0.00171383
0.0017185
0.00172486
0.00173283
0.00174149
0.00177961
0.00177974
0.0017798
0.00177981
0.00177979
0.00177976
0.00177972
0.00177967
0.00177962
0.0017795
0.0141698
0.014223
0.014238
0.0142466
0.0142529
0.01426
0.0142668
0.0142687
0.014254
0.0141959
0.0278361
0.0278455
0.0278544
0.0278567
0.0278585
0.0278609
0.0278647
0.0278688
0.0278701
0.0278659
0.0293734
0.029349
0.0293398
0.029346
0.0293692
0.0294094
0.0294652
0.0295334
0.0296032
0.0296559
0.029658
0.0296219
0.0296138
0.0296221
0.0296566
0.0297165
0.0298031
0.0299165
0.0300424
0.0301471
0.0297964
0.0297365
0.0297156
0.0297316
0.0297891
0.0298921
0.0300475
0.030265
0.0305288
0.0307765
0.0298695
0.029782
0.029758
0.0297767
0.0298545
0.0299946
0.0302082
0.0305225
0.0309166
0.0312927
0.0278427
0.0277679
0.027747
0.0277638
0.027814
0.0278949
0.0280109
0.028223
0.0285517
0.028969
0.0129946
0.01292
0.0129283
0.0129258
0.0129109
0.0128216
0.0126624
0.0125002
0.0123347
0.0123331
0.00169187
0.00169009
0.0016894
0.0016898
0.00169131
0.00169389
0.00169761
0.00170246
0.00170816
0.00171392
0.00175764
0.00175777
0.00175783
0.00175783
0.00175782
0.00175778
0.00175774
0.0017577
0.00175765
0.00175753
0.0146082
0.0146653
0.0146834
0.0146903
0.0146953
0.0147004
0.0147046
0.0147038
0.014686
0.0146238
0.0278887
0.0278995
0.0279078
0.02791
0.0279104
0.0279104
0.0279103
0.0279093
0.0279054
0.0278966
0.0292281
0.0292137
0.0292081
0.0292116
0.0292248
0.0292473
0.0292775
0.0293127
0.0293465
0.0293695
0.0294223
0.0294022
0.0293977
0.029402
0.0294209
0.0294532
0.029498
0.0295529
0.0296098
0.0296534
0.0295123
0.0294784
0.0294661
0.0294749
0.029507
0.0295633
0.0296452
0.0297529
0.0298774
0.0299889
0.0295607
0.0295071
0.0294925
0.029503
0.0295488
0.0296288
0.0297467
0.0299094
0.0301023
0.0302719
0.0277709
0.0277268
0.0277159
0.0277242
0.0277466
0.0277754
0.0278182
0.027901
0.028036
0.02823
0.0133791
0.0133111
0.0133233
0.0133186
0.0132945
0.0132009
0.0130589
0.0129098
0.0127422
0.0127411
0.00167039
0.00166898
0.00166842
0.00166874
0.00166994
0.00167196
0.00167481
0.00167838
0.00168235
0.00168612
0.00173401
0.00173412
0.00173418
0.00173418
0.00173417
0.00173414
0.00173411
0.00173407
0.00173403
0.00173392
0.0151184
0.0151791
0.0151985
0.0152052
0.0152094
0.0152131
0.0152156
0.0152129
0.015193
0.0151269
0.0279981
0.0280089
0.0280162
0.0280184
0.0280187
0.0280183
0.0280176
0.0280157
0.0280109
0.0280012
0.0291634
0.0291545
0.0291509
0.029153
0.0291609
0.0291741
0.0291916
0.0292112
0.0292294
0.0292408
0.0292959
0.0292837
0.0292808
0.0292833
0.0292945
0.0293134
0.0293388
0.0293682
0.0293968
0.0294177
0.0293509
0.0293314
0.029324
0.029329
0.0293474
0.029379
0.0294233
0.0294786
0.0295395
0.0295937
0.0293809
0.0293471
0.0293381
0.0293443
0.0293721
0.0294193
0.0294866
0.0295743
0.029672
0.0297539
0.0278107
0.0277854
0.0277808
0.0277843
0.027791
0.0277945
0.0278029
0.0278264
0.0278717
0.0279696
0.0138501
0.0137865
0.0138027
0.0137963
0.0137641
0.0136785
0.0135587
0.0134326
0.013281
0.0133028
0.00164685
0.00164577
0.00164534
0.00164559
0.0016465
0.00164802
0.00165013
0.00165268
0.00165537
0.0016578
0.00170862
0.00170873
0.00170878
0.00170878
0.00170877
0.00170875
0.00170873
0.0017087
0.00170867
0.00170856
0.0157116
0.0157761
0.0157966
0.0158033
0.0158069
0.0158095
0.0158108
0.0158067
0.0157851
0.0157151
0.0281381
0.0281484
0.0281548
0.0281569
0.0281574
0.0281572
0.0281566
0.0281548
0.0281502
0.0281404
0.0291403
0.0291347
0.0291325
0.0291337
0.0291385
0.0291463
0.0291566
0.029168
0.0291786
0.0291847
0.0292324
0.0292243
0.0292221
0.0292237
0.029231
0.029243
0.0292587
0.0292763
0.0292926
0.0293043
0.0292648
0.0292533
0.0292487
0.0292517
0.0292625
0.0292808
0.0293056
0.0293351
0.0293664
0.0293952
0.0292849
0.0292628
0.029257
0.0292612
0.0292787
0.0293079
0.0293481
0.0293982
0.0294509
0.0294953
0.0279304
0.0279156
0.0279147
0.0279157
0.0279139
0.0279084
0.0279031
0.0279025
0.0279101
0.0279681
0.0144184
0.0143575
0.014378
0.01437
0.0143326
0.0142651
0.0141693
0.014069
0.0139402
0.0139909
0.00162124
0.00162045
0.00162014
0.00162032
0.00162098
0.00162209
0.0016236
0.00162535
0.00162713
0.00162868
0.00168141
0.00168151
0.00168155
0.00168155
0.00168155
0.00168153
0.00168151
0.00168149
0.00168147
0.00168136
0.016406
0.0164745
0.0164959
0.0165025
0.0165058
0.0165076
0.016508
0.0165031
0.0164801
0.0164058
0.0282945
0.0283042
0.0283097
0.0283117
0.0283123
0.0283123
0.028312
0.0283107
0.0283067
0.0282971
0.0291371
0.0291338
0.0291325
0.0291332
0.0291359
0.0291403
0.0291462
0.0291528
0.0291591
0.0291625
0.0292029
0.0291973
0.0291954
0.0291965
0.0292014
0.0292095
0.02922
0.0292313
0.0292416
0.029249
0.0292217
0.0292146
0.0292117
0.0292136
0.0292201
0.0292309
0.0292452
0.0292616
0.0292785
0.0292951
0.0292392
0.0292241
0.0292203
0.0292233
0.0292348
0.0292538
0.0292791
0.0293095
0.0293401
0.0293678
0.0281047
0.0280931
0.0280944
0.028094
0.0280898
0.0280831
0.0280742
0.0280661
0.0280599
0.0281013
0.0151139
0.0150441
0.0150667
0.0150569
0.0150279
0.0149777
0.0149053
0.0148299
0.0147248
0.0148031
0.00159356
0.001593
0.00159278
0.00159291
0.00159338
0.00159416
0.00159519
0.00159636
0.00159751
0.00159848
0.0016523
0.00165238
0.00165242
0.00165242
0.00165242
0.00165241
0.00165239
0.00165238
0.00165235
0.00165225
0.0172273
0.0173003
0.0173224
0.0173288
0.0173319
0.0173332
0.0173329
0.0173275
0.0173037
0.0172247
0.0284592
0.0284682
0.0284729
0.0284746
0.0284753
0.0284756
0.0284755
0.0284746
0.0284713
0.0284622
0.0291423
0.0291405
0.0291398
0.0291402
0.0291416
0.0291439
0.0291469
0.0291505
0.0291542
0.0291564
0.0291903
0.0291863
0.0291847
0.0291854
0.0291888
0.0291944
0.0292016
0.0292093
0.0292161
0.0292211
0.0292012
0.0291966
0.0291947
0.0291958
0.0291999
0.0292064
0.0292149
0.0292243
0.0292339
0.0292439
0.0292205
0.0292099
0.0292073
0.0292095
0.0292175
0.0292302
0.0292468
0.0292661
0.0292851
0.0293046
0.0283108
0.0283
0.028301
0.0283008
0.0282976
0.0282922
0.0282844
0.0282758
0.0282664
0.0283002
0.0159626
0.0158854
0.0159022
0.015896
0.0158765
0.0158422
0.0157915
0.015738
0.0156548
0.015756
0.00156381
0.00156343
0.00156328
0.00156337
0.00156369
0.00156421
0.0015649
0.00156565
0.00156637
0.00156696
0.00162124
0.00162131
0.00162134
0.00162134
0.00162134
0.00162133
0.00162132
0.00162131
0.00162129
0.0016212
0.0182125
0.0182907
0.0183129
0.018319
0.0183222
0.018323
0.0183224
0.0183169
0.0182926
0.0182085
0.0286263
0.0286345
0.0286382
0.0286397
0.0286403
0.0286407
0.028641
0.0286405
0.0286381
0.0286299
0.0291501
0.0291492
0.029149
0.0291491
0.0291497
0.0291507
0.029152
0.0291537
0.0291558
0.0291574
0.0291851
0.0291821
0.0291808
0.0291812
0.0291835
0.0291873
0.0291922
0.0291975
0.0292022
0.0292057
0.029191
0.029188
0.0291867
0.0291874
0.0291898
0.0291939
0.029199
0.0292045
0.0292101
0.0292164
0.0292137
0.0292061
0.0292043
0.029206
0.0292116
0.0292202
0.0292312
0.0292438
0.029256
0.0292708
0.0285299
0.0285195
0.0285202
0.0285202
0.0285185
0.0285152
0.0285099
0.0285036
0.028495
0.0285242
0.0170031
0.0169203
0.0169311
0.0169282
0.0169173
0.0168973
0.0168664
0.0168312
0.0167677
0.0168853
0.00153201
0.00153176
0.00153166
0.00153172
0.00153192
0.00153226
0.0015327
0.00153316
0.0015336
0.00153396
0.00158829
0.00158836
0.00158838
0.00158838
0.00158838
0.00158838
0.00158836
0.00158835
0.00158833
0.00158825
0.0194158
0.0194997
0.0195221
0.0195278
0.0195304
0.0195308
0.0195301
0.0195248
0.0195008
0.0194111
0.0287896
0.0287966
0.0287994
0.0288004
0.028801
0.0288015
0.028802
0.028802
0.0288006
0.0287939
0.0291573
0.029157
0.029157
0.0291571
0.0291572
0.0291574
0.0291578
0.0291584
0.0291595
0.0291608
0.0291818
0.0291796
0.0291785
0.0291787
0.0291802
0.0291827
0.029186
0.0291895
0.0291927
0.0291953
0.0291846
0.0291825
0.0291816
0.0291819
0.0291834
0.0291858
0.0291889
0.0291921
0.0291954
0.0291995
0.0292089
0.0292036
0.0292024
0.0292036
0.0292074
0.0292131
0.0292202
0.0292283
0.0292361
0.0292474
0.0287442
0.0287347
0.028735
0.0287352
0.0287346
0.0287333
0.0287306
0.028727
0.0287204
0.0287456
0.0182922
0.0182064
0.018211
0.0182109
0.0182077
0.0182007
0.0181881
0.018168
0.0181229
0.0182486
0.00149824
0.00149808
0.00149802
0.00149805
0.00149818
0.00149839
0.00149867
0.00149894
0.00149921
0.00149941
0.00155368
0.00155374
0.00155375
0.00155376
0.00155376
0.00155375
0.00155374
0.00155373
0.00155371
0.00155363
0.0209197
0.0210091
0.0210316
0.0210366
0.0210377
0.0210378
0.021037
0.0210323
0.0210097
0.0209145
0.0289406
0.0289458
0.0289475
0.028948
0.0289484
0.028949
0.0289497
0.0289502
0.0289499
0.0289455
0.0291623
0.0291622
0.0291623
0.0291624
0.0291623
0.0291622
0.0291621
0.0291622
0.0291626
0.0291639
0.029178
0.0291764
0.0291756
0.0291756
0.0291765
0.029178
0.02918
0.0291822
0.0291844
0.0291864
0.0291786
0.0291772
0.0291766
0.0291767
0.0291775
0.0291789
0.0291806
0.0291825
0.0291843
0.0291868
0.0292
0.0291965
0.0291957
0.0291965
0.0291988
0.0292024
0.0292066
0.0292114
0.0292162
0.0292243
0.0289342
0.0289262
0.0289263
0.0289266
0.0289267
0.0289265
0.0289256
0.0289241
0.0289198
0.0289405
0.0199133
0.019828
0.0198254
0.0198274
0.0198315
0.0198369
0.0198424
0.0198356
0.0198102
0.0199327
0.00146271
0.00146261
0.00146256
0.00146258
0.00146266
0.00146279
0.00146296
0.00146312
0.00146328
0.00146339
0.00151761
0.00151765
0.00151765
0.00151765
0.00151765
0.00151765
0.00151765
0.00151764
0.00151763
0.00151758
0.0228572
0.0229491
0.0229689
0.022973
0.0229738
0.0229737
0.0229728
0.0229688
0.0229489
0.0228508
0.0290671
0.0290697
0.0290701
0.0290701
0.0290703
0.0290708
0.0290717
0.0290727
0.0290734
0.0290722
0.0291642
0.0291642
0.0291643
0.0291643
0.0291643
0.0291641
0.029164
0.0291639
0.029164
0.0291649
0.0291733
0.0291722
0.0291717
0.0291716
0.0291721
0.029173
0.0291742
0.0291755
0.0291769
0.0291783
0.0291728
0.0291719
0.0291715
0.0291716
0.029172
0.0291727
0.0291736
0.0291746
0.0291756
0.0291769
0.0291852
0.0291832
0.0291827
0.0291832
0.0291845
0.0291864
0.0291887
0.0291912
0.0291938
0.0291989
0.0290789
0.0290728
0.0290728
0.029073
0.0290732
0.0290734
0.0290731
0.0290727
0.0290707
0.0290862
0.0220128
0.0219344
0.0219324
0.0219341
0.0219372
0.0219414
0.0219457
0.0219486
0.0219495
0.0220527
0.00142552
0.00142546
0.00142543
0.00142544
0.00142549
0.00142557
0.00142567
0.00142577
0.00142589
0.00142595
0.00147921
0.00147921
0.00147919
0.00147919
0.00147918
0.00147919
0.0014792
0.00147921
0.00147924
0.00147926
0.0254656
0.0255461
0.0255599
0.0255627
0.0255633
0.025563
0.0255619
0.0255587
0.0255439
0.0254557
0.0291555
0.0291552
0.0291545
0.0291541
0.0291541
0.0291545
0.0291554
0.0291567
0.0291583
0.0291601
0.029164
0.029164
0.0291641
0.0291641
0.0291641
0.0291641
0.0291641
0.029164
0.029164
0.0291644
0.0291696
0.029169
0.0291686
0.0291686
0.0291689
0.0291694
0.0291701
0.0291709
0.0291717
0.0291726
0.0291691
0.0291686
0.0291683
0.0291683
0.0291686
0.0291691
0.0291696
0.0291702
0.0291708
0.0291714
0.0291712
0.0291703
0.02917
0.0291702
0.0291709
0.029172
0.0291732
0.0291745
0.0291758
0.0291781
0.0291664
0.0291626
0.0291622
0.0291621
0.0291621
0.0291621
0.029162
0.0291621
0.0291623
0.0291721
0.0249072
0.0248485
0.0248474
0.0248485
0.0248506
0.0248533
0.0248561
0.0248579
0.0248582
0.0249352
0.00138593
0.00138588
0.00138586
0.00138587
0.00138591
0.00138597
0.00138605
0.00138613
0.00138621
0.00138625
0.0023442
0.00236508
0.00235486
0.00232093
0.00141082
0.00143384
0.0014312
0.00142636
0.00188738
0.00192947
0.00192033
0.00189565
0.00227435
0.00233252
0.00231299
0.00226675
0.00262182
0.00269298
0.00266097
0.00259649
0.0029633
0.00304562
0.00300537
0.00293187
0.00324544
0.00333592
0.00329359
0.00322028
0.00341321
0.00351005
0.00346999
0.00340136
0.00304502
0.00313457
0.00309571
0.00304001
0.00237485
0.0023915
0.00235661
0.00227535
0.00202755
0.00203326
0.00203438
0.00203136
0.00235361
0.00243394
0.00233392
0.00214207
0.00330814
0.00342266
0.0032922
0.00305434
0.00407171
0.00424017
0.00408153
0.00378359
0.00485357
0.00508956
0.00489502
0.00451935
0.00582851
0.00615462
0.00591314
0.00542857
0.00679494
0.00720879
0.00690723
0.00630941
0.00749303
0.00799128
0.00763318
0.00693836
0.00591747
0.00635435
0.00600149
0.00540485
0.00218168
0.00221403
0.00220716
0.00217138
0.0019332
0.00193525
0.0019354
0.00193415
0.00406632
0.00404184
0.00405221
0.00414323
0.00499135
0.00497272
0.00499283
0.0050971
0.00549606
0.00551575
0.0055356
0.00558538
0.00601096
0.00606508
0.0060684
0.00602683
0.006754
0.00685083
0.00681125
0.00663345
0.00751219
0.00763577
0.00752225
0.00718447
0.00805074
0.00821142
0.0080242
0.00752547
0.00612472
0.00626464
0.00608869
0.0056077
0.00204803
0.00206514
0.00206322
0.00204546
0.00189445
0.00189468
0.0018948
0.00189484
0.0102406
0.00996199
0.0100979
0.0106125
0.0119476
0.0116135
0.0119164
0.0128098
0.0114406
0.0112595
0.0116317
0.0125265
0.0110901
0.011029
0.011426
0.0122563
0.011208
0.0112507
0.0116412
0.0123681
0.0114043
0.0115062
0.011845
0.0124236
0.0113546
0.0115321
0.0118024
0.0121733
0.00801831
0.00820308
0.00832627
0.00836741
0.0019568
0.00196725
0.00196822
0.00196022
0.00187252
0.00187257
0.0018726
0.00187261
0.0144911
0.0144311
0.0144592
0.0145686
0.0238417
0.0235182
0.023706
0.024333
0.0222458
0.0219538
0.0223064
0.0232332
0.0203811
0.0202017
0.0206816
0.0217891
0.019331
0.0193008
0.0198718
0.0210702
0.0185182
0.0185934
0.0191864
0.0203779
0.0173311
0.0175435
0.0180987
0.0191109
0.0108802
0.0111156
0.0113571
0.0116705
0.00189356
0.00190005
0.00190151
0.0018981
0.00185448
0.00185446
0.00185445
0.00185444
0.0140868
0.0140132
0.0140037
0.0140586
0.0304039
0.0302972
0.0303232
0.0304703
0.0317978
0.0315591
0.0316497
0.0320267
0.0304324
0.0301453
0.0303659
0.0310245
0.0290254
0.0288077
0.0291969
0.0301265
0.0274494
0.027322
0.0278368
0.028965
0.0247753
0.0248407
0.025398
0.0264748
0.0131738
0.0134062
0.0135818
0.0137424
0.00184563
0.00184956
0.00185083
0.00184948
0.00183718
0.00183714
0.00183712
0.00183711
0.0137853
0.0136946
0.0136769
0.0137313
0.0299159
0.029919
0.0299334
0.0299592
0.0336754
0.033679
0.0337116
0.0337706
0.0348251
0.034779
0.0348402
0.0349965
0.0353466
0.035262
0.0353984
0.0357258
0.0347085
0.0345954
0.0348277
0.0353619
0.0310994
0.0311314
0.0314434
0.0320082
0.0133162
0.0135936
0.0136548
0.013547
0.00180729
0.00180968
0.00181063
0.00181012
0.00181925
0.0018192
0.00181917
0.00181916
0.0138649
0.0137678
0.0137476
0.0138032
0.028625
0.0286183
0.0286213
0.0286342
0.031759
0.0317854
0.0318028
0.0318118
0.0333168
0.0333624
0.0333953
0.033417
0.0350527
0.0351261
0.0351875
0.0352388
0.0359195
0.0359842
0.0360702
0.0361783
0.0326219
0.0327804
0.0329069
0.0330051
0.0123926
0.0126492
0.0126896
0.0125506
0.00177446
0.00177598
0.00177661
0.00177638
0.0018002
0.00180014
0.00180011
0.0018001
0.0141242
0.0140238
0.0140027
0.0140595
0.0280676
0.0280549
0.0280535
0.0280637
0.0303409
0.030349
0.0303542
0.0303565
0.0312801
0.0313016
0.0313145
0.0313192
0.0325577
0.0326148
0.0326462
0.0326535
0.0334937
0.0335725
0.033616
0.0336292
0.030774
0.0309419
0.0310103
0.0309868
0.0119574
0.0121822
0.0122238
0.0121019
0.00174438
0.00174541
0.00174581
0.00174563
0.00177977
0.0017797
0.00177967
0.00177967
0.0144824
0.0143791
0.0143573
0.0144154
0.0279206
0.0279071
0.0279049
0.0279142
0.0296736
0.0296747
0.0296757
0.0296766
0.0301786
0.0301839
0.0301873
0.0301887
0.0308811
0.030904
0.0309164
0.0309183
0.0314142
0.0314474
0.0314654
0.0314696
0.0290414
0.0291517
0.0291916
0.0291625
0.0120324
0.0122518
0.0122934
0.0121709
0.00171552
0.00171627
0.00171652
0.00171634
0.00175781
0.00175774
0.0017577
0.0017577
0.0149176
0.0148111
0.0147885
0.0148482
0.0279468
0.0279338
0.0279316
0.0279402
0.0293772
0.0293767
0.0293768
0.0293774
0.0296627
0.0296636
0.0296643
0.0296647
0.0300319
0.0300409
0.0300456
0.030046
0.0303
0.0303107
0.030317
0.030319
0.0281843
0.0282592
0.0282837
0.0282571
0.0123976
0.0126283
0.012671
0.0125391
0.00168701
0.00168759
0.00168775
0.00168756
0.0017342
0.00173412
0.00173409
0.0017341
0.0154296
0.0153193
0.0152958
0.0153572
0.0280476
0.0280353
0.0280331
0.0280411
0.0292452
0.0292445
0.0292444
0.029245
0.0294211
0.0294212
0.0294212
0.0294213
0.0296151
0.0296195
0.0296216
0.0296215
0.0297543
0.029758
0.0297602
0.029761
0.0278877
0.0279467
0.0279642
0.0279394
0.012939
0.0131887
0.0132342
0.0130902
0.00165829
0.00165877
0.00165887
0.00165867
0.00170885
0.00170877
0.00170873
0.00170874
0.0160284
0.0159137
0.015889
0.0159526
0.0281829
0.0281714
0.0281692
0.0281765
0.0291876
0.0291869
0.0291868
0.0291874
0.029306
0.029306
0.0293059
0.029306
0.029408
0.0294107
0.0294119
0.0294116
0.0294904
0.0294923
0.0294934
0.0294935
0.0278811
0.027932
0.0279463
0.0279234
0.0136127
0.0138853
0.0139346
0.013777
0.00162893
0.00162934
0.00162941
0.00162921
0.00168167
0.00168157
0.00168154
0.00168155
0.0167317
0.0166117
0.0165857
0.0166518
0.0283353
0.0283245
0.0283223
0.028329
0.0291646
0.029164
0.0291639
0.0291645
0.0292501
0.0292501
0.02925
0.02925
0.0293037
0.0293055
0.0293063
0.0293061
0.0293639
0.0293655
0.0293663
0.0293661
0.0280201
0.0280655
0.0280779
0.0280569
0.0144106
0.0147091
0.0147627
0.0145901
0.00159859
0.00159895
0.00159899
0.0015988
0.00165257
0.00165247
0.00165243
0.00165246
0.0175656
0.017439
0.0174111
0.0174803
0.0284957
0.0284858
0.0284837
0.0284896
0.0291579
0.0291574
0.0291574
0.0291578
0.029222
0.0292219
0.0292219
0.0292219
0.0292502
0.0292514
0.0292519
0.0292517
0.0293032
0.0293049
0.0293055
0.0293051
0.0282292
0.02827
0.0282808
0.0282617
0.0153473
0.0156746
0.0157329
0.0155435
0.00156699
0.00156731
0.00156734
0.00156715
0.00162153
0.00162142
0.00162138
0.00162141
0.0185672
0.0184322
0.0184021
0.0184749
0.0286582
0.0286493
0.0286473
0.0286525
0.0291585
0.0291582
0.0291582
0.0291585
0.0292064
0.0292064
0.0292064
0.0292064
0.029221
0.0292219
0.0292222
0.0292219
0.0292718
0.0292736
0.0292741
0.0292735
0.0284662
0.0285026
0.028512
0.0284945
0.0164564
0.0168157
0.0168787
0.0166706
0.00153394
0.00153423
0.00153425
0.00153407
0.0015886
0.00158848
0.00158844
0.00158848
0.0197911
0.019645
0.0196117
0.0196893
0.0288165
0.0288087
0.0288069
0.0288114
0.0291617
0.0291615
0.0291616
0.0291618
0.029196
0.029196
0.029196
0.029196
0.0292028
0.0292034
0.0292036
0.0292034
0.0292502
0.0292519
0.0292524
0.0292516
0.0287032
0.0287352
0.028743
0.0287268
0.0177922
0.0181857
0.0182531
0.0180248
0.00149937
0.00149961
0.00149963
0.00149948
0.00155401
0.00155389
0.00155385
0.00155389
0.0213176
0.021156
0.0211183
0.0212023
0.0289638
0.0289578
0.0289563
0.0289597
0.0291646
0.0291645
0.0291645
0.0291646
0.0291871
0.0291872
0.0291873
0.0291873
0.0291891
0.0291895
0.0291896
0.0291894
0.0292279
0.0292294
0.0292298
0.029229
0.0289153
0.0289427
0.0289487
0.028934
0.0194344
0.0198576
0.0199277
0.0196814
0.00146337
0.00146356
0.00146358
0.00146346
0.001518
0.00151788
0.00151784
0.00151789
0.0232721
0.0230878
0.0230444
0.0231382
0.0290873
0.0290835
0.0290825
0.0290847
0.0291653
0.0291653
0.0291653
0.0291652
0.0291791
0.0291792
0.0291793
0.0291794
0.0291782
0.0291785
0.0291785
0.0291784
0.0292021
0.0292031
0.0292034
0.0292028
0.0290777
0.0290993
0.0291034
0.0290908
0.021523
0.0219756
0.0220426
0.0217748
0.00142604
0.0014262
0.00142621
0.00142612
0.00147971
0.00147962
0.0014796
0.00147966
0.0258483
0.0256395
0.0255939
0.0257011
0.0291702
0.0291686
0.0291682
0.0291691
0.029164
0.029164
0.0291639
0.0291638
0.0291732
0.0291733
0.0291734
0.0291735
0.0291718
0.0291719
0.0291719
0.0291719
0.0291796
0.02918
0.0291801
0.0291799
0.0291742
0.0291865
0.0291884
0.0291807
0.0244724
0.0248974
0.024947
0.0246873
0.00138662
0.00138676
0.00138676
0.00138666
0.00215549
0.00203893
0.00197451
0.00194196
0.00192284
0.00191045
0.00190228
0.00189709
0.00189375
0.00189147
0.00174743
0.00158312
0.00476537
0.00942399
0.0139349
0.0171229
0.0186338
0.0187851
0.0181539
0.0172138
0.00236372
0.00257401
0.00732477
0.0155532
0.0249586
0.0330806
0.039066
0.0428693
0.0447459
0.0451327
0.0027685
0.00359663
0.00828848
0.017841
0.0291688
0.0385215
0.0449966
0.0487271
0.0501647
0.0499561
0.00307707
0.00394178
0.00871611
0.0193459
0.0320856
0.0419672
0.0481518
0.0510052
0.0513209
0.0501093
0.00338881
0.00407083
0.00893783
0.0204182
0.0342687
0.0443138
0.0498922
0.051683
0.0509082
0.0488689
0.00363092
0.00408401
0.0089679
0.0211701
0.0358999
0.0457605
0.0504402
0.0510706
0.0493455
0.0468133