/*--------------------------------*- C++ -*----------------------------------*\
| =========                 |                                                 |
| \\      /  F ield         | foam-extend: Open Source CFD                    |
|  \\    /   O peration     | Version:     4.0                                |
|   \\  /    A nd           | Web:         http://www.foam-extend.org         |
|    \\/     M anipulation  |                                                 |
\*---------------------------------------------------------------------------*/
FoamFile
{
    version     2.0;
    format      ascii;
    class       volScalarField;
    location    "2150";
    object      p;
}
// * * * * * * * * * * * * * * * * * * * * * * * * * * * * * * * * * * * * * //

dimensions      [1 -1 -2 0 0 0 0];

internalField   nonuniform List<scalar> 
34480
(
107969
107869
107829
107844
107929
108111
108454
109137
110102
110449
107827
107728
107688
107700
107779
107956
108294
108964
109999
109973
107686
107583
107543
107545
107611
107758
108056
108658
109688
109113
107612
107508
107462
107452
107495
107598
107838
108341
109304
108152
107530
107415
107361
107334
107351
107409
107591
107989
108849
107157
107547
107432
107372
107336
107334
107355
107481
107771
108491
106274
107453
107325
107258
107210
107192
107183
107260
107452
108012
105338
107541
107419
107356
107323
107320
107322
107384
107503
107881
104742
107441
107313
107244
107207
107205
107218
107271
107332
107505
103994
107534
107419
107406
107471
107610
107801
108046
108282
108453
104457
108728
108604
108559
108583
108689
108892
109227
109756
110570
111637
108521
108389
108342
108369
108482
108708
109095
109748
110889
112492
108320
108184
108137
108158
108266
108484
108879
109585
110966
112953
108193
108051
107998
108007
108099
108293
108665
109361
110882
113122
108068
107915
107853
107845
107915
108074
108408
109060
110649
113035
108047
107892
107822
107803
107856
107981
108270
108854
110447
112864
107923
107757
107679
107646
107680
107775
108020
108529
110079
112469
107988
107825
107749
107725
107766
107860
108086
108529
109982
112253
107874
107707
107624
107592
107623
107711
107919
108313
109620
111811
107955
107800
107758
107804
107937
108149
108481
108978
110232
112219
109295
109182
109143
109171
109274
109460
109745
110146
110676
111287
109082
108949
108905
108941
109065
109296
109661
110204
111019
112026
108862
108719
108674
108710
108841
109090
109499
110149
111245
112673
108704
108551
108499
108527
108655
108903
109331
110040
111360
113170
108550
108384
108325
108339
108453
108685
109109
109838
111325
113462
108498
108329
108262
108267
108368
108579
108987
109703
111302
113690
108349
108169
108096
108088
108174
108361
108745
109432
111095
113679
108392
108215
108141
108139
108228
108413
108785
109440
111103
113797
108266
108085
108005
107994
108070
108241
108593
109223
110825
113635
108333
108161
108109
108153
108299
108552
108980
109675
111241
114050
109693
109605
109574
109598
109678
109817
110015
110268
110561
110842
109514
109397
109358
109391
109501
109695
109984
110375
110881
111401
109316
109179
109135
109171
109298
109528
109885
110398
111153
111991
109154
109000
108948
108981
109114
109363
109770
110385
111382
112568
108993
108821
108761
108785
108914
109165
109598
110280
111490
113017
108924
108746
108678
108695
108817
109062
109506
110224
111611
113449
108761
108570
108496
108502
108613
108846
109287
110021
111545
113668
108787
108598
108523
108532
108646
108879
109321
110059
111663
114011
108650
108458
108377
108380
108484
108707
109137
109877
111492
114068
108704
108518
108457
108498
108651
108930
109409
110197
111804
114522
109967
109905
109884
109901
109957
110051
110178
110330
110491
110629
109833
109741
109710
109736
109823
109971
110181
110445
110748
111024
109677
109557
109518
109550
109661
109853
110138
110515
110997
111470
109529
109386
109338
109371
109496
109722
110072
110561
111247
111969
109376
109211
109154
109182
109312
109556
109952
110531
111419
112413
109304
109128
109062
109086
109216
109468
109896
110543
111619
112885
109136
108945
108873
108888
109014
109265
109710
110404
111645
113185
109153
108961
108886
108905
109034
109292
109752
110479
111844
113628
109009
108812
108734
108747
108871
109124
109585
110340
111769
113811
109051
108860
108794
108835
108991
109282
109778
110574
112027
114266
110156
110116
110102
110113
110150
110208
110285
110372
110458
110525
110064
109997
109973
109993
110056
110161
110303
110472
110650
110798
109955
109857
109825
109852
109940
110090
110302
110567
110870
111138
109831
109707
109665
109694
109803
109993
110275
110643
111101
111535
109698
109549
109497
109525
109645
109864
110202
110665
111289
111918
109632
109467
109407
109433
109560
109799
110182
110726
111518
112359
109469
109286
109218
109239
109368
109616
110032
110642
111592
112660
109483
109297
109225
109249
109384
109645
110087
110750
111835
113120
109336
109143
109069
109089
109222
109484
109938
110644
111823
113353
109371
109182
109115
109154
109309
109598
110079
110824
112047
113765
110290
110265
110257
110263
110286
110321
110366
110414
110460
110494
110229
110183
110166
110180
110223
110293
110385
110490
110593
110675
110165
110091
110066
110086
110152
110262
110413
110592
110781
110937
110067
109966
109931
109955
110043
110195
110409
110676
110978
111243
109961
109832
109788
109813
109917
110102
110375
110729
111159
111559
109908
109761
109707
109733
109849
110061
110385
110821
111389
111943
109755
109588
109526
109550
109672
109902
110267
110776
111480
112209
109773
109600
109534
109560
109691
109938
110338
110908
111738
112642
109626
109444
109375
109400
109532
109786
110205
110825
111753
112862
109658
109479
109414
109451
109599
109872
110314
110973
111953
113212
110388
110374
110369
110373
110386
110406
110432
110459
110483
110501
110348
110318
110307
110316
110344
110389
110446
110509
110569
110614
110322
110268
110250
110264
110311
110389
110491
110608
110725
110816
110247
110169
110141
110160
110228
110342
110498
110685
110882
111046
110169
110064
110028
110049
110134
110282
110492
110753
111046
111302
110133
110008
109962
109986
110086
110264
110525
110861
111261
111627
109994
109847
109794
109817
109927
110128
110433
110840
111351
111846
110022
109867
109808
109834
109955
110176
110519
110987
111605
112234
109877
109712
109650
109675
109800
110032
110399
110918
111623
112405
109910
109746
109685
109719
109855
110103
110491
111045
111802
112696
110465
110456
110454
110456
110463
110475
110489
110504
110517
110526
110435
110416
110409
110415
110432
110460
110495
110533
110567
110593
110439
110402
110389
110399
110431
110483
110550
110625
110696
110750
110383
110325
110304
110318
110368
110450
110560
110687
110814
110915
110331
110249
110220
110238
110304
110417
110573
110759
110955
111118
110311
110211
110172
110193
110275
110418
110620
110869
111147
111387
110188
110065
110020
110040
110134
110302
110547
110859
111223
111557
110228
110096
110045
110070
110175
110364
110647
111016
111465
111896
110087
109943
109889
109913
110024
110227
110535
110951
111472
112011
110125
109981
109926
109957
110077
110293
110620
111067
111633
112252
110527
110522
110520
110521
110526
110532
110540
110548
110555
110560
110501
110489
110485
110488
110499
110516
110536
110559
110579
110593
110528
110503
110494
110501
110522
110556
110599
110646
110689
110720
110483
110442
110426
110436
110471
110529
110604
110688
110769
110832
110455
110394
110372
110385
110435
110518
110630
110759
110888
110992
110450
110372
110342
110358
110422
110532
110684
110863
111053
111209
110341
110242
110205
110223
110299
110433
110622
110855
111109
111332
110397
110288
110245
110267
110355
110510
110734
111015
111335
111625
110258
110136
110091
110113
110208
110378
110626
110948
111324
111689
110304
110182
110135
110161
110263
110444
110709
111058
111470
111889
110579
110576
110575
110576
110578
110582
110586
110590
110594
110597
110551
110544
110541
110543
110550
110560
110572
110585
110597
110605
110597
110581
110575
110579
110593
110614
110641
110670
110695
110713
110557
110528
110517
110524
110548
110587
110637
110692
110743
110782
110549
110504
110488
110498
110534
110593
110671
110758
110843
110908
110556
110497
110474
110487
110535
110617
110727
110853
110980
111081
110460
110382
110353
110367
110427
110530
110671
110840
111014
111161
110531
110445
110411
110429
110500
110622
110793
110999
111223
111415
110394
110295
110258
110276
110354
110490
110683
110924
111190
111433
110450
110350
110311
110333
110417
110562
110770
111032
111326
111605
110623
110622
110622
110622
110623
110625
110627
110630
110632
110633
110590
110586
110584
110585
110589
110595
110602
110610
110617
110622
110652
110641
110638
110640
110649
110662
110679
110696
110711
110721
110611
110591
110584
110588
110604
110630
110662
110697
110730
110754
110620
110588
110577
110584
110609
110650
110702
110760
110814
110855
110635
110592
110576
110585
110620
110679
110756
110842
110927
110991
110548
110490
110468
110479
110524
110600
110703
110821
110938
111034
110636
110570
110544
110559
110613
110706
110832
110980
111133
111258
110498
110419
110391
110405
110466
110571
110716
110891
111075
111235
110567
110488
110457
110474
110540
110653
110810
111001
111206
111388
110663
110662
110662
110662
110663
110664
110665
110666
110667
110668
110620
110618
110617
110617
110619
110623
110627
110632
110636
110640
110697
110690
110688
110690
110695
110703
110713
110723
110732
110737
110649
110637
110631
110634
110644
110661
110682
110704
110724
110740
110672
110651
110643
110648
110665
110692
110727
110764
110799
110824
110693
110663
110651
110658
110683
110724
110776
110834
110889
110930
110614
110571
110555
110563
110596
110650
110722
110803
110881
110943
110718
110670
110650
110661
110702
110770
110860
110963
111066
111145
110574
110514
110492
110503
110550
110628
110733
110856
110981
111085
110658
110598
110575
110588
110638
110722
110837
110973
111111
111229
110699
110698
110698
110698
110699
110699
110700
110700
110701
110701
110642
110641
110640
110640
110642
110644
110647
110650
110652
110655
110735
110731
110730
110731
110735
110739
110745
110750
110755
110757
110677
110669
110665
110667
110673
110684
110697
110711
110723
110733
110712
110698
110693
110696
110707
110725
110747
110771
110792
110807
110735
110714
110706
110710
110727
110755
110790
110828
110864
110889
110660
110630
110619
110625
110648
110686
110734
110788
110839
110879
110781
110747
110733
110741
110770
110818
110881
110951
111019
111068
110627
110582
110567
110575
110608
110664
110738
110823
110906
110973
110730
110687
110669
110679
110715
110776
110858
110951
111043
111118
110733
110732
110733
110733
110733
110733
110733
110733
110734
110733
110656
110656
110655
110655
110656
110657
110659
110661
110663
110666
110769
110767
110767
110768
110769
110772
110775
110778
110781
110781
110696
110690
110688
110689
110693
110699
110707
110716
110724
110730
110740
110732
110728
110730
110737
110749
110763
110777
110791
110799
110763
110749
110744
110747
110758
110776
110799
110823
110846
110861
110693
110673
110666
110670
110685
110710
110742
110778
110809
110835
110830
110808
110798
110804
110824
110857
110899
110945
110989
111018
110660
110628
110617
110623
110647
110685
110736
110792
110846
110889
110789
110758
110746
110753
110778
110821
110877
110938
110999
111045
110770
110769
110770
110770
110770
110770
110770
110770
110770
110769
110662
110661
110661
110661
110661
110662
110664
110665
110667
110670
110800
110799
110799
110800
110801
110802
110804
110805
110806
110805
110708
110704
110703
110704
110706
110710
110715
110720
110724
110729
110760
110754
110752
110753
110758
110765
110773
110782
110790
110795
110779
110770
110767
110769
110776
110787
110802
110817
110832
110841
110716
110703
110698
110701
110711
110727
110748
110770
110789
110805
110869
110854
110847
110851
110864
110886
110914
110943
110972
110989
110677
110655
110647
110651
110667
110693
110726
110762
110796
110825
110843
110823
110814
110819
110836
110865
110902
110942
110980
111008
110823
110822
110823
110823
110823
110823
110822
110822
110821
110821
110656
110655
110654
110654
110654
110655
110656
110658
110660
110663
110825
110825
110825
110826
110826
110827
110828
110829
110829
110827
110715
110713
110712
110712
110714
110716
110719
110722
110724
110727
110769
110766
110765
110765
110768
110772
110778
110783
110788
110791
110785
110779
110776
110777
110782
110789
110798
110808
110817
110823
110730
110722
110719
110721
110727
110738
110750
110764
110775
110784
110893
110883
110878
110880
110889
110903
110922
110940
110960
110969
110675
110660
110655
110658
110668
110685
110706
110729
110750
110769
110908
110894
110888
110891
110903
110921
110946
110971
110996
111012
110916
110916
110916
110916
110916
110916
110916
110915
110915
110914
110629
110628
110628
110628
110628
110629
110630
110631
110632
110636
110838
110838
110838
110837
110838
110838
110839
110840
110841
110839
110718
110717
110717
110717
110718
110720
110721
110722
110723
110724
110770
110768
110767
110767
110769
110771
110774
110778
110781
110783
110779
110776
110774
110775
110777
110782
110788
110794
110800
110804
110735
110731
110730
110731
110735
110742
110749
110757
110763
110768
110891
110884
110880
110881
110887
110896
110908
110921
110934
110940
110648
110638
110635
110637
110644
110655
110668
110682
110694
110707
111007
110999
110994
110996
111004
111016
111031
111047
111065
111073
111078
111078
111078
111077
111077
111077
111077
111077
111077
111077
110568
110568
110569
110570
110571
110571
110571
110570
110570
110572
110826
110824
110822
110822
110821
110822
110823
110825
110827
110829
110720
110720
110721
110721
110722
110723
110724
110724
110723
110723
110764
110763
110762
110762
110763
110765
110767
110769
110772
110773
110769
110766
110765
110765
110767
110770
110774
110778
110782
110785
110736
110733
110733
110734
110737
110741
110746
110751
110754
110756
110848
110842
110839
110839
110843
110850
110858
110867
110877
110884
110581
110577
110575
110577
110582
110589
110598
110606
110612
110618
111163
111157
111154
111155
111161
111169
111180
111191
111203
111208
111261
111258
111257
111256
111256
111256
111257
111258
111261
111264
110485
110490
110494
110496
110497
110497
110496
110493
110488
110481
110792
110788
110785
110784
110784
110785
110786
110788
110792
110797
110725
110726
110727
110727
110728
110729
110729
110729
110728
110727
110759
110758
110757
110757
110758
110759
110761
110763
110765
110767
110761
110759
110758
110759
110760
110763
110766
110769
110772
110775
110738
110736
110736
110736
110739
110742
110747
110751
110754
110754
110784
110778
110776
110776
110779
110785
110792
110799
110808
110817
110497
110495
110495
110496
110500
110506
110514
110520
110523
110520
111330
111325
111322
111324
111328
111335
111344
111353
111363
111367
122713
123927
123751
122477
125945
127351
126951
125329
128889
130475
129888
127897
131055
132758
131984
129714
132719
134500
133552
131079
134069
135910
134952
132357
134995
136868
136043
133381
135818
137698
137035
134335
135733
137585
137067
134375
135321
137159
136900
134362
113010
113200
113238
113118
115297
115668
115726
115436
117554
118107
118165
117656
119695
120415
120460
119705
121648
122504
122518
121505
123501
124466
124445
123216
125036
126086
126035
124647
126541
127649
127580
126084
127321
128460
128389
126841
127969
129142
129119
127620
111808
111898
111925
111899
113132
113300
113340
113272
114586
114852
114905
114775
116064
116436
116496
116283
117488
117963
118021
117704
118965
119541
119591
119157
120257
120925
120965
120412
121638
122382
122412
121745
122459
123250
123274
122511
123278
124105
124146
123329
110957
110980
110991
110991
111710
111763
111783
111776
112630
112734
112767
112742
113662
113830
113879
113824
114690
114931
114993
114894
115819
116138
116210
116054
116824
117220
117299
117075
117982
118450
118532
118233
118695
119214
119300
118937
119472
120032
120136
119733
110674
110684
110689
110689
111146
111170
111181
111180
111730
111779
111799
111795
112437
112521
112553
112542
113163
113290
113334
113310
114001
114178
114235
114191
114738
114969
115038
114964
115658
115941
116021
115909
116237
116561
116653
116509
116914
117275
117385
117218
110543
110547
110549
110550
110847
110856
110861
110862
111242
111262
111272
111274
111735
111774
111793
111795
112257
112321
112350
112350
112887
112983
113023
113018
113425
113556
113608
113593
114154
114322
114385
114354
114614
114811
114888
114844
115166
115391
115483
115426
110503
110505
110506
110506
110699
110703
110706
110707
110987
110996
111002
111003
111339
111358
111369
111372
111723
111756
111773
111778
112205
112257
112283
112288
112595
112669
112705
112708
113177
113275
113320
113319
113526
113646
113702
113696
113960
114097
114163
114151
110505
110506
110507
110507
110627
110629
110630
110631
110842
110847
110850
110851
111096
111106
111112
111115
111387
111405
111415
111419
111765
111793
111810
111815
112049
112091
112114
112121
112518
112575
112606
112612
112765
112837
112876
112880
113103
113186
113230
113232
110528
110529
110529
110529
110599
110601
110601
110602
110764
110767
110768
110769
110944
110949
110953
110954
111166
111176
111183
111185
111465
111482
111492
111496
111671
111696
111710
111716
112055
112089
112108
112114
112214
112257
112282
112288
112480
112531
112559
112564
110561
110561
110562
110562
110597
110598
110598
110598
110728
110730
110731
110731
110849
110852
110854
110855
111020
111026
111029
111031
111256
111265
111272
111274
111399
111413
111423
111426
111718
111738
111750
111755
111807
111833
111849
111853
112022
112053
112071
112075
110597
110597
110597
110597
110608
110608
110608
110608
110718
110719
110719
110719
110793
110795
110796
110797
110925
110928
110930
110931
111110
111116
111120
111121
111201
111210
111216
111219
111471
111483
111491
111494
111504
111521
111531
111534
111684
111703
111714
111717
110633
110633
110633
110633
110624
110624
110624
110624
110724
110724
110724
110724
110761
110762
110763
110763
110865
110867
110869
110869
111009
111013
111016
111017
111060
111065
111069
111070
111293
111300
111305
111307
111280
111290
111296
111299
111437
111448
111455
111458
110668
110668
110668
110668
110641
110641
110641
110641
110738
110739
110739
110739
110744
110745
110745
110746
110830
110831
110832
110832
110942
110944
110946
110946
110959
110962
110964
110966
111167
111172
111175
111176
111114
111121
111125
111126
111259
111266
111271
111272
110701
110701
110701
110701
110656
110656
110656
110656
110758
110758
110758
110758
110736
110736
110737
110737
110811
110812
110812
110812
110897
110899
110899
110900
110888
110890
110892
110893
111082
111085
111087
111088
110992
110996
110999
111000
111136
111140
111143
111144
110733
110733
110733
110733
110666
110666
110667
110667
110781
110781
110781
110781
110732
110732
110733
110733
110802
110802
110802
110802
110867
110868
110869
110869
110840
110841
110842
110842
111028
111030
111031
111031
110902
110905
110906
110907
111056
111058
111060
111061
110769
110769
110769
110769
110670
110670
110670
110671
110806
110806
110805
110805
110729
110730
110730
110730
110797
110797
110797
110797
110845
110846
110847
110847
110807
110807
110808
110808
110995
110997
110997
110997
110833
110835
110836
110836
111014
111015
111016
111017
110820
110820
110820
110820
110663
110663
110664
110664
110828
110828
110828
110828
110726
110726
110726
110727
110792
110792
110792
110792
110826
110827
110827
110827
110783
110783
110783
110784
110975
110976
110976
110976
110774
110776
110776
110776
111014
111014
111015
111015
110913
110913
110913
110912
110636
110636
110636
110637
110842
110842
110842
110842
110722
110722
110722
110722
110785
110785
110785
110785
110807
110807
110808
110808
110765
110764
110764
110765
110948
110950
110950
110950
110709
110710
110710
110710
111073
111073
111073
111075
111076
111076
111076
111076
110569
110569
110569
110569
110835
110836
110836
110836
110720
110719
110719
110719
110775
110775
110775
110775
110788
110788
110788
110788
110752
110751
110750
110751
110898
110900
110901
110900
110614
110613
110613
110613
111214
111214
111215
111215
111265
111266
111267
111267
110465
110462
110460
110460
110807
110809
110810
110810
110722
110722
110721
110721
110768
110768
110768
110768
110776
110777
110777
110777
110749
110748
110748
110749
110834
110838
110839
110838
110496
110489
110489
110492
111389
111392
111392
111390
116089
113574
111649
110361
109555
109034
108680
108429
108250
108113
117145
113964
111594
110193
109367
108841
108491
108250
108081
107956
117507
114002
111325
110003
109178
108658
108308
108065
107902
107795
117491
113899
110997
109841
109035
108549
108215
107986
107828
107721
117206
113679
110689
109663
108864
108414
108094
107879
107729
107634
116837
113553
110521
109628
108831
108419
108111
107907
107760
107657
116195
113295
110229
109477
108672
108301
107998
107805
107660
107563
115774
113319
110221
109612
108792
108456
108146
107948
107790
107668
115049
112986
109910
109480
108684
108395
108076
107874
107708
107577
115487
113683
110581
110176
109258
108865
108433
108142
107906
107705
112562
111817
111156
110603
110148
109778
109478
109237
109045
108894
114184
112819
111685
110830
110186
109702
109339
109062
108849
108690
115483
113531
111989
110913
110126
109561
109150
108848
108626
108476
116471
114020
112139
110933
110063
109466
109040
108733
108507
108352
117098
114286
112135
110852
109932
109325
108897
108594
108370
108223
117573
114535
112167
110855
109904
109305
108881
108584
108362
108208
117722
114567
112022
110715
109745
109163
108743
108453
108232
108083
117933
114770
112089
110823
109842
109279
108857
108563
108334
108164
117713
114573
111846
110689
109737
109206
108777
108476
108239
108060
118119
115086
112322
111187
110159
109555
109048
108683
108398
108167
111742
111426
111073
110733
110426
110158
109929
109735
109574
109443
112913
112272
111602
111023
110549
110166
109857
109608
109407
109252
114112
113061
112037
111214
110575
110086
109709
109417
109193
109034
115225
113740
112381
111366
110605
110042
109621
109303
109060
108887
116154
114237
112572
111402
110547
109937
109490
109158
108906
108733
117027
114711
112773
111489
110564
109928
109466
109128
108872
108690
117626
114953
112775
111412
110436
109787
109317
108979
108719
108540
118276
115317
112947
111548
110539
109887
109408
109062
108795
108598
118447
115270
112813
111453
110453
109811
109321
108966
108689
108483
118951
115689
113185
111820
110765
110069
109525
109124
108815
108572
110968
110872
110737
110584
110428
110276
110135
110008
109897
109803
111701
111473
111185
110891
110613
110362
110141
109951
109791
109661
112570
112135
111626
111148
110727
110370
110072
109827
109629
109481
113507
112818
112065
111404
110848
110397
110035
109746
109515
109343
114371
113392
112387
111555
110882
110356
109945
109625
109372
109190
115265
113980
112723
111741
110970
110388
109942
109600
109333
109136
115960
114362
112864
111754
110902
110279
109808
109453
109174
108975
116752
114863
113152
111949
111036
110385
109893
109523
109234
109016
117128
114992
113149
111911
110972
110306
109795
109413
109114
108889
117733
115420
113481
112194
111203
110495
109946
109531
109209
108959
110681
110641
110579
110503
110420
110335
110252
110174
110103
110041
111154
111058
110920
110762
110600
110442
110294
110161
110045
109947
111736
111543
111286
111012
110748
110505
110288
110100
109941
109819
112434
112108
111699
111289
110912
110581
110296
110057
109858
109703
113127
112633
112048
111496
111009
110596
110253
109971
109740
109568
113900
113211
112436
111744
111154
110672
110280
109965
109710
109516
114530
113622
112651
111827
111145
110604
110173
109833
109558
109357
115301
114171
113012
112075
111316
110728
110264
109901
109612
109390
115740
114404
113104
112091
111277
110655
110165
109786
109485
109256
116339
114824
113411
112329
111463
110803
110282
109877
109560
109312
110547
110529
110500
110463
110420
110374
110328
110282
110240
110202
110853
110810
110743
110659
110566
110471
110379
110292
110213
110145
111255
111168
111037
110883
110722
110564
110415
110279
110161
110067
111759
111604
111385
111140
110895
110664
110454
110268
110108
109980
112287
112041
111710
111361
111025
110719
110450
110218
110022
109871
112914
112553
112093
111632
111205
110830
110507
110236
110009
109831
113429
112931
112329
111753
111238
110798
110429
110124
109872
109681
114112
113464
112717
112034
111438
110942
110532
110199
109928
109715
114526
113728
112854
112081
111420
110880
110439
110086
109800
109578
115047
114111
113135
112292
111580
111004
110536
110161
109862
109626
110505
110496
110482
110463
110440
110415
110389
110364
110339
110317
110702
110680
110645
110599
110546
110490
110434
110379
110329
110284
110994
110950
110878
110790
110692
110590
110491
110398
110315
110247
111357
111278
111155
111008
110851
110694
110545
110408
110287
110186
111753
111625
111435
111216
110989
110771
110569
110389
110231
110106
112248
112055
111783
111482
111182
110901
110648
110427
110237
110084
112646
112372
112003
111613
111237
110896
110595
110338
110118
109948
113223
112855
112382
111902
111453
111056
110713
110423
110182
109989
113564
113094
112520
111958
111445
111002
110626
110315
110057
109853
113988
113426
112773
112150
111592
111115
110714
110384
110113
109897
110506
110502
110494
110484
110472
110459
110444
110430
110416
110404
110628
110617
110598
110573
110543
110510
110477
110443
110412
110384
110846
110822
110781
110730
110670
110607
110543
110481
110425
110379
111107
111064
110993
110904
110804
110700
110597
110501
110413
110338
111408
111337
111224
111086
110936
110784
110638
110504
110383
110286
111797
111691
111526
111330
111124
110921
110730
110558
110406
110280
112096
111941
111713
111452
111185
110929
110695
110487
110305
110161
112572
112361
112062
111732
111404
111099
110824
110585
110380
110213
112823
112546
112175
111780
111398
111051
110744
110482
110259
110080
113161
112828
112400
111957
111535
111158
110829
110549
110315
110125
110529
110527
110523
110517
110511
110504
110496
110488
110480
110473
110601
110594
110584
110570
110553
110534
110514
110494
110475
110458
110766
110752
110729
110699
110663
110624
110583
110544
110507
110478
110950
110925
110884
110829
110766
110698
110630
110564
110502
110449
111179
111138
111069
110982
110884
110781
110678
110582
110493
110420
111486
111424
111323
111196
111056
110913
110774
110645
110529
110430
111704
111613
111470
111297
111111
110925
110748
110587
110443
110326
112095
111971
111781
111558
111325
111098
110886
110696
110530
110390
112261
112097
111859
111588
111312
111049
110809
110597
110412
110262
112531
112333
112057
111750
111443
111155
110895
110667
110473
110311
110561
110560
110558
110555
110552
110548
110543
110539
110535
110531
110598
110594
110589
110581
110571
110560
110549
110537
110526
110515
110729
110721
110707
110689
110668
110644
110619
110594
110570
110552
110853
110839
110814
110780
110741
110697
110653
110608
110567
110530
111027
111003
110961
110906
110842
110773
110703
110635
110572
110520
111269
111232
111168
111086
110993
110894
110796
110703
110617
110542
111420
111365
111275
111161
111033
110901
110773
110652
110541
110451
111745
111670
111549
111400
111237
111073
110916
110771
110641
110529
111840
111741
111589
111406
111212
111019
110837
110672
110524
110403
112059
111940
111763
111555
111337
111124
110926
110747
110591
110459
110597
110597
110595
110594
110592
110590
110587
110585
110583
110581
110608
110606
110603
110599
110593
110587
110580
110573
110567
110560
110718
110714
110705
110695
110682
110667
110652
110636
110622
110612
110795
110787
110772
110751
110726
110699
110670
110641
110614
110589
110929
110914
110888
110853
110812
110767
110720
110674
110631
110595
111118
111095
111055
111002
110941
110874
110807
110741
110679
110624
111215
111181
111124
111049
110963
110872
110780
110693
110611
110543
111488
111442
111365
111267
111156
111040
110927
110819
110721
110634
111526
111466
111369
111247
111113
110975
110841
110717
110603
110508
111709
111637
111524
111385
111234
111081
110934
110799
110678
110575
110633
110633
110632
110631
110630
110629
110628
110627
110625
110624
110624
110623
110622
110619
110616
110612
110608
110604
110600
110596
110723
110720
110716
110709
110701
110692
110683
110674
110665
110660
110763
110757
110748
110736
110721
110703
110685
110667
110649
110632
110868
110859
110842
110821
110794
110765
110734
110703
110674
110650
111014
111000
110975
110941
110901
110857
110811
110766
110723
110684
111069
111047
111011
110962
110905
110843
110779
110717
110658
110610
111303
111275
111226
111162
111087
111008
110928
110850
110779
110714
111294
111257
111195
111114
111023
110927
110831
110741
110656
110584
111453
111409
111337
111246
111143
111036
110931
110832
110742
110663
110668
110668
110667
110667
110666
110666
110665
110664
110663
110663
110641
110641
110640
110639
110637
110635
110632
110630
110628
110624
110738
110736
110733
110729
110724
110719
110713
110708
110703
110701
110745
110742
110737
110729
110720
110709
110698
110686
110675
110664
110832
110826
110816
110802
110785
110767
110747
110727
110708
110692
110945
110936
110920
110899
110873
110844
110814
110783
110754
110727
110965
110951
110928
110896
110859
110817
110774
110732
110691
110657
111173
111156
111125
111083
111034
110981
110926
110872
110822
110775
111123
111100
111060
111008
110947
110881
110815
110750
110689
110637
111270
111243
111197
111138
111069
110997
110923
110853
110788
110730
110701
110701
110700
110700
110700
110700
110699
110699
110698
110699
110657
110656
110656
110655
110654
110653
110652
110650
110648
110645
110757
110756
110754
110752
110749
110746
110743
110739
110737
110737
110737
110735
110732
110728
110722
110715
110708
110701
110694
110686
110812
110808
110802
110793
110783
110771
110759
110746
110734
110724
110899
110893
110884
110870
110854
110835
110815
110795
110776
110758
110892
110884
110869