/*--------------------------------*- C++ -*----------------------------------*\
| =========                 |                                                 |
| \\      /  F ield         | foam-extend: Open Source CFD                    |
|  \\    /   O peration     | Version:     4.0                                |
|   \\  /    A nd           | Web:         http://www.foam-extend.org         |
|    \\/     M anipulation  |                                                 |
\*---------------------------------------------------------------------------*/
FoamFile
{
    version     2.0;
    format      ascii;
    class       surfaceScalarField;
    location    "2150";
    object      phi;
}
// * * * * * * * * * * * * * * * * * * * * * * * * * * * * * * * * * * * * * //

dimensions      [1 0 -1 0 0 0 0];

internalField   nonuniform List<scalar> 
97302
(
-0.000109786
9.51294e-07
-0.000869498
0.000878774
-0.0001196
1.14061e-06
-0.000870501
0.000879175
-0.000129523
1.19973e-06
-0.000871026
0.000879749
-0.000140125
1.13777e-06
-0.000871065
0.000880529
-0.000152232
9.45679e-07
-0.000870612
0.000881774
-0.000167326
6.13323e-07
-0.000869446
0.000883925
-0.000188496
1.14224e-07
-0.000866958
0.000888014
-0.000222747
-5.95923e-07
-0.000861332
0.000896179
-0.000271325
-1.63948e-06
-0.000851543
0.00090176
-4.39631e-06
-0.000824043
-0.000352996
0.00091011
-0.000150901
1.60228e-06
-0.00116596
0.00117606
-0.000161173
1.96453e-06
-0.00116691
0.00117636
-0.000171518
2.08309e-06
-0.0011675
0.00117697
-0.000182473
1.99115e-06
-0.00116753
0.00117763
-0.000194834
1.67373e-06
-0.00116673
0.00117836
-0.000210314
1.11954e-06
-0.00116472
0.0011797
-0.000232766
2.7099e-07
-0.00116113
0.00118342
-0.000271568
-9.67079e-07
-0.00115433
0.00119351
-0.000328349
-2.89761e-06
-0.00114203
0.00120007
-7.46036e-06
-0.00110414
-0.000432768
0.00121162
-0.000191208
1.89532e-06
-0.00146133
0.00147218
-0.000201778
2.3915e-06
-0.00146234
0.00147248
-0.000212297
2.57308e-06
-0.00146296
0.00147299
-0.000223274
2.49671e-06
-0.00146275
0.00147323
-0.000235634
2.14428e-06
-0.00146141
0.0014733
-0.000251511
1.50518e-06
-0.00145874
0.00147423
-0.000275388
5.00181e-07
-0.00145486
0.00147851
-0.000318358
-9.69155e-07
-0.00144829
0.00149126
-0.000381692
-3.35457e-06
-0.00143513
0.00149892
-9.13609e-06
-0.00138641
-0.000500692
0.00150709
-0.000231436
2.0845e-06
-0.00175271
0.00176397
-0.0002423
2.72045e-06
-0.00175394
0.00176447
-0.000253114
2.98081e-06
-0.00175481
0.00176522
-0.000264405
2.94532e-06
-0.00175481
0.00176566
-0.000277164
2.58523e-06
-0.00175363
0.00176595
-0.000293712
1.89177e-06
-0.0017512
0.00176737
-0.000318864
7.626e-07
-0.00174764
0.00177253
-0.000364969
-8.93855e-07
-0.00174142
0.00178745
-0.000432991
-3.68123e-06
-0.00172781
0.00179615
-1.06304e-05
-0.00166796
-0.000560754
0.00179721
-0.000271568
2.31704e-06
-0.00204523
0.00205668
-0.000282601
3.02234e-06
-0.00204684
0.00205757
-0.000293585
3.32049e-06
-0.00204822
0.00205886
-0.00030507
3.30128e-06
-0.00204869
0.00205982
-0.000318117
2.9337e-06
-0.00204804
0.00206074
-0.000335168
2.20865e-06
-0.00204624
0.00206297
-0.000361326
1.00954e-06
-0.00204332
0.00206923
-0.000409968
-7.47528e-07
-0.00203778
0.00208628
-0.000481932
-3.81621e-06
-0.00202453
0.00209663
-1.1865e-05
-0.00195287
-0.000615169
0.00208734
-0.00031227
2.4028e-06
-0.00233636
0.00234811
-0.000323407
3.1337e-06
-0.00233842
0.00234944
-0.000334458
3.41969e-06
-0.00234019
0.00235115
-0.000346002
3.37279e-06
-0.00234108
0.00235255
-0.000359149
2.97094e-06
-0.00234095
0.00235406
-0.000376427
2.21391e-06
-0.0023399
0.00235717
-0.000403211
9.83791e-07
-0.00233791
0.00236472
-0.000453747
-7.85619e-07
-0.00233347
0.00238405
-0.000529016
-3.91372e-06
-0.00232173
0.00239709
-1.28344e-05
-0.00223797
-0.000665774
0.00237569
-0.000352795
2.38242e-06
-0.00262731
0.00263918
-0.000363874
3.02106e-06
-0.00262997
0.00264116
-0.000374849
3.23617e-06
-0.0026323
0.00264346
-0.000386303
3.1033e-06
-0.00263366
0.00264538
-0.000399398
2.62733e-06
-0.00263411
0.00264755
-0.000416696
1.80087e-06
-0.00263387
0.00265158
-0.000443818
5.60087e-07
-0.00263301
0.00266055
-0.000495694
-1.11059e-06
-0.00263018
0.00268238
-0.000573749
-3.86218e-06
-0.00262109
0.00269909
-1.29904e-05
-0.00252499
-0.000712511
0.00266391
-0.000394591
2.02396e-06
-0.00291884
0.00293114
-0.000405722
2.47334e-06
-0.00292209
0.00293377
-0.000416696
2.50201e-06
-0.00292454
0.00293625
-0.0004281
2.16323e-06
-0.00292584
0.00293818
-0.000441061
1.49315e-06
-0.00292618
0.00294028
-0.000458083
4.89878e-07
-0.00292611
0.00294444
-0.000484931
-8.18334e-07
-0.00292594
0.00295417
-0.000536998
-2.36068e-06
-0.00292456
0.00297787
-0.00061652
-4.15003e-06
-0.00291881
0.00299862
-1.21416e-05
-0.00281222
-0.000755682
0.00295054
-0.000435787
1.06802e-06
-0.00320671
0.00321915
-0.000446492
1.13552e-06
-0.00321082
0.00322287
-0.000457072
8.44594e-07
-0.00321389
0.00322613
-0.000468173
1.10994e-07
-0.0032158
0.00322895
-0.000480963
-9.48485e-07
-0.00321693
0.00323217
-0.000497828
-2.30856e-06
-0.00321786
0.00323753
-0.00052453
-3.78357e-06
-0.00321912
0.00324878
-0.000576323
-5.09842e-06
-0.00322002
0.00327455
-0.000655776
-5.50583e-06
-0.00321666
0.00329747
-1.01952e-05
-0.0030993
-0.000792427
0.00323401
-0.000477199
-0.00347529
0.0034883
-0.000488544
-0.00347889
0.00349138
-0.000499733
-0.0034796
0.00349164
-0.000511446
-0.00347705
0.00348887
-0.000524721
-0.00347189
0.00348422
-0.000541688
-0.00346519
0.00347985
-0.00056758
-0.00345813
0.00348023
-0.000616585
-0.00345219
0.0034961
-0.000689675
-0.00344858
0.00351616
-0.0033396
-0.000818675
0.0034584
1.43957e-05
8.88594e-07
-0.000861041
5.31241e-06
1.11322e-06
-0.000862531
-3.79162e-06
1.19394e-06
-0.000863116
-1.31001e-05
1.13628e-06
-0.000862893
-2.28123e-05
9.30286e-07
-0.00086183
-3.31465e-05
5.57623e-07
-0.000859669
-4.42496e-05
-1.58586e-08
-0.000855839
-5.55406e-05
-8.68952e-07
-0.000849172
-6.62353e-05
-2.19755e-06
-0.000838651
-3.9685e-06
-0.000822397
-6.39125e-05
1.54087e-05
1.51296e-06
-0.00115611
5.39043e-06
1.92916e-06
-0.00115771
-4.61744e-06
2.08288e-06
-0.00115839
-1.49323e-05
2.00369e-06
-0.00115808
-2.58191e-05
1.66969e-06
-0.00115658
-3.76407e-05
1.05859e-06
-0.0011534
-5.12335e-05
1.08641e-07
-0.00114766
-6.76409e-05
-1.29634e-06
-0.0011375
-8.82612e-05
-3.54343e-06
-0.00112007
-6.60941e-06
-0.00109112
-9.86418e-05
1.67381e-05
1.82344e-06
-0.00145028
6.00735e-06
2.38743e-06
-0.00145207
-4.6307e-06
2.61099e-06
-0.00145285
-1.55081e-05
2.54879e-06
-0.00145242
-2.69625e-05
2.1677e-06
-0.00145045
-3.97277e-05
1.44406e-06
-0.00144636
-5.55494e-05
2.85914e-07
-0.00143922
-7.71564e-05
-1.42871e-06
-0.00142655
-0.000108635
-4.28462e-06
-0.00140291
-8.39688e-06
-0.00135938
-0.000133882
1.7955e-05
2.03137e-06
-0.00174096
6.74069e-06
2.75271e-06
-0.00174309
-4.38273e-06
3.06379e-06
-0.00174414
-1.58107e-05
3.04776e-06
-0.00174389
-2.79989e-05
2.65723e-06
-0.00174194
-4.19392e-05
1.87062e-06
-0.00173769
-5.99419e-05
5.55252e-07
-0.00172991
-8.61298e-05
-1.40248e-06
-0.00171526
-0.000128053
-4.7958e-06
-0.00168537
-9.90705e-06
-0.0016255
-0.000168998
1.90705e-05
2.27749e-06
-0.00203309
7.56966e-06
3.07755e-06
-0.00203566
-3.83431e-06
3.4325e-06
-0.00203718
-1.55979e-05
3.43876e-06
-0.00203732
-2.83147e-05
3.04488e-06
-0.00203571
-4.31624e-05
2.22872e-06
-0.00203175
-6.29169e-05
8.18557e-07
-0.00202383
-9.29967e-05
-1.28954e-06
-0.00200781
-0.000144892
-5.07751e-06
-0.00197235
-1.10653e-05
-0.00189521
-0.000201393
1.97751e-05
2.39592e-06
-0.0023238
8.09701e-06
3.23067e-06
-0.00232689
-3.43774e-06
3.58116e-06
-0.00232881
-1.53442e-05
3.57006e-06
-0.0023293
-2.83358e-05
3.15298e-06
-0.00232807
-4.37538e-05
2.31771e-06
-0.00232457
-6.48027e-05
8.72628e-07
-0.00231691
-9.80694e-05
-1.27617e-06
-0.00230022
-0.000159357
-5.20992e-06
-0.00226031
-1.18841e-05
-0.0021657
-0.0002308
2.01878e-05
2.36732e-06
-0.00261449
8.5324e-06
3.10825e-06
-0.00261819
-2.95218e-06
3.39317e-06
-0.00262063
-1.47976e-05
3.30886e-06
-0.00262155
-2.78474e-05
2.85039e-06
-0.00262076
-4.35531e-05
1.9884e-06
-0.00261783
-6.54978e-05
5.47438e-07
-0.00261074
-0.000101308
-1.56625e-06
-0.00259408
-0.000171276
-5.24691e-06
-0.00255108
-1.22493e-05
-0.0024391
-0.000256803
1.99297e-05
2.03295e-06
-0.00290559
8.27253e-06
2.58836e-06
-0.00290991
-3.1056e-06
2.71719e-06
-0.00291248
-1.47841e-05
2.47971e-06
-0.00291333
-2.76616e-05
1.90681e-06
-0.00291236
-4.32637e-05
9.65533e-07
-0.00290948
-6.54733e-05
-4.36435e-07
-0.00290275
-0.00010275
-2.40811e-06
-0.00288644
-0.00018012
-5.22124e-06
-0.00284147
-1.18995e-05
-0.00271327
-0.000279421
1.93996e-05
1.07353e-06
-0.00319319
8.21226e-06
1.21846e-06
-0.00319827
-2.66136e-06
1.05845e-06
-0.00320136
-1.38318e-05
4.73868e-07
-0.00320262
-2.6352e-05
-4.04313e-07
-0.0032021
-4.18582e-05
-1.58541e-06
-0.00319981
-6.44375e-05
-3.01098e-06
-0.00319396
-0.00010304
-4.6755e-06
-0.00317915
-0.000186369
-6.14915e-06
-0.00313241
-1.00753e-05
-0.00298563
-0.000301863
1.82442e-05
-0.00346149
6.80535e-06
-0.00346624
-4.11747e-06
-0.00346762
-1.52125e-05
-0.00346548
-2.742e-05
-0.00346009
-4.23442e-05
-0.00345185
-6.39057e-05
-0.00343958
-0.000101288
-0.00341949
-0.000186016
-0.00337
-0.00321568
-0.000320009
1.20259e-05
7.77204e-07
-0.000854369
4.42316e-06
1.01723e-06
-0.000855945
-3.29475e-06
1.10525e-06
-0.000856503
-1.10378e-05
1.04079e-06
-0.00085619
-1.86828e-05
8.1731e-07
-0.000855003
-2.59846e-05
4.18992e-07
-0.000852786
-3.23915e-05
-1.76177e-07
-0.000849256
-3.65993e-05
-1.00611e-06
-0.000843958
-3.67274e-05
-2.15455e-06
-0.000836368
-3.43269e-06
-0.000826722
-2.89701e-05
1.38779e-05
1.36114e-06
-0.0011476
4.85238e-06
1.80124e-06
-0.00114947
-4.23415e-06
1.96433e-06
-0.00115016
-1.34726e-05
1.8737e-06
-0.00114967
-2.28691e-05
1.50784e-06
-0.00114788
-3.22728e-05
8.42191e-07
-0.00114442
-4.12828e-05
-1.76688e-07
-0.00113865
-4.87471e-05
-1.62131e-06
-0.00112942
-5.22011e-05
-3.70672e-06
-0.00111506
-6.12872e-06
-0.00109587
-4.47543e-05
1.59826e-05
1.70694e-06
-0.00144011
5.78052e-06
2.30201e-06
-0.00144236
-4.4161e-06
2.53562e-06
-0.00144322
-1.48026e-05
2.45544e-06
-0.00144262
-2.54743e-05
2.02348e-06
-0.00144029
-3.64943e-05
1.20449e-06
-0.0014357
-4.79766e-05
-9.63817e-08
-0.00142781
-5.94526e-05
-1.97696e-06
-0.00141472
-6.85118e-05
-4.84711e-06
-0.00139271
-8.36689e-06
-0.00136071
-6.4945e-05
1.76328e-05
1.96548e-06
-0.00172976
6.64153e-06
2.72899e-06
-0.00173252
-4.34121e-06
3.05221e-06
-0.00173368
-1.56263e-05
3.01361e-06
-0.00173316
-2.74594e-05
2.5591e-06
-0.00173064
-4.01703e-05
1.65098e-06
-0.00172543
-5.43199e-05
1.41265e-07
-0.001716
-7.01e-05
-2.09072e-06
-0.00169936
-8.58012e-05
-5.70743e-06
-0.00166881
-1.0336e-05
-0.0016211
-8.82327e-05
1.90384e-05
2.25683e-06
-0.00202121
7.53818e-06
3.10585e-06
-0.00202454
-3.93292e-06
3.47696e-06
-0.00202614
-1.57937e-05
3.46184e-06
-0.00202591
-2.84693e-05
3.00159e-06
-0.00202348
-4.25418e-05
2.05428e-06
-0.00201808
-5.90243e-05
4.1676e-07
-0.00200762
-7.8906e-05
-2.05982e-06
-0.00198796
-0.000101937
-6.30325e-06
-0.00194872
-1.19715e-05
-0.0018834
-0.000112118
1.99767e-05
2.42425e-06
-0.00231131
8.13967e-06
3.31235e-06
-0.00231526
-3.61454e-06
3.68361e-06
-0.00231726
-1.57987e-05
3.65858e-06
-0.00231732
-2.89957e-05
3.18086e-06
-0.00231505
-4.40377e-05
2.21709e-06
-0.00230969
-6.24241e-05
5.33984e-07
-0.00229864
-8.60492e-05
-2.0407e-06
-0.00227661
-0.000116872
-6.63957e-06
-0.00222915
-1.31814e-05
-0.00214514
-0.000136229
2.0529e-05
2.41902e-06
-0.00260157
8.61138e-06
3.21322e-06
-0.00260617
-3.18529e-06
3.52483e-06
-0.00260868
-1.54195e-05
3.43997e-06
-0.0026091
-2.88404e-05
2.94542e-06
-0.0026071
-4.44902e-05
1.99502e-06
-0.00260196
-6.43528e-05
3.53224e-07
-0.0025907
-9.12585e-05
-2.20271e-06
-0.00256701
-0.000129978
-6.76716e-06
-0.00251223
-1.395e-05
-0.00240903
-0.000159276
2.0353e-05
2.09592e-06
-0.00289219
8.40494e-06
2.7008e-06
-0.00289745
-3.30821e-06
2.87306e-06
-0.00290012
-1.54079e-05
2.67597e-06
-0.00290047
-2.87381e-05
2.12542e-06
-0.00289821
-4.45302e-05
1.17474e-06
-0.00289287
-6.52368e-05
-3.27997e-07
-0.00288136
-9.45838e-05
-2.64819e-06
-0.00285664
-0.000140686
-6.40283e-06
-0.00279573
-1.37386e-05
-0.00267359
-0.000180581
1.97401e-05
1.15031e-06
-0.00317948
8.24471e-06
1.32771e-06
-0.0031854
-2.96831e-06
1.24757e-06
-0.00318852
-1.45252e-05
7.72302e-07
-0.00318916
-2.74277e-05
2.54862e-08
-0.0031871
-4.315e-05
-1.01385e-06
-0.00318189
-6.46501e-05
-2.33717e-06
-0.00317045
-9.64407e-05
-4.09083e-06
-0.00314592
-0.000148898
-6.37135e-06
-0.00307998
-1.1513e-05
-0.00293618
-0.000200581
1.85779e-05
-0.00344762
7.00053e-06
-0.00345333
-4.10432e-06
-0.00345527
-1.54464e-05
-0.00345336
-2.79177e-05
-0.00344759
-4.30028e-05
-0.00343778
-6.37003e-05
-0.00342122
-9.54115e-05
-0.00339186
-0.000150681
-0.0033211
-0.00316252
-0.000215352
9.33367e-06
6.08272e-07
-0.000849538
3.46346e-06
8.51788e-07
-0.000850927
-2.58789e-06
9.4391e-07
-0.000851396
-8.54701e-06
8.77846e-07
-0.000851109
-1.41072e-05
6.52195e-07
-0.000850095
-1.88456e-05
2.58069e-07
-0.000848306
-2.21201e-05
-3.11472e-07
-0.00084567
-2.28922e-05
-1.05861e-06
-0.000842127
-1.95793e-05
-1.97981e-06
-0.000837701
-2.86341e-06
-0.000832855
-1.05822e-05
1.17248e-05
1.11503e-06
-0.00114077
4.10694e-06
1.56538e-06
-0.00114257
-3.63956e-06
1.73366e-06
-0.0011432
-1.13771e-05
1.63557e-06
-0.0011427
-1.88895e-05
1.25392e-06
-0.00114097
-2.57877e-05
5.70687e-07
-0.00113784
-3.13123e-05
-4.45618e-07
-0.00113299
-3.39458e-05
-1.81716e-06
-0.00112603
-3.08492e-05
-3.60394e-06
-0.00111653
-5.41885e-06
-0.00110601
-1.81516e-05
1.44343e-05
1.4858e-06
-0.00143135
5.25773e-06
2.0973e-06
-0.00143372
-3.98556e-06
2.33377e-06
-0.00143458
-1.3296e-05
2.23304e-06
-0.0014339
-2.25673e-05
1.7588e-06
-0.00143153
-3.15045e-05
8.76353e-07
-0.00142707
-3.943e-05
-4.9174e-07
-0.00141984
-4.47342e-05
-2.39826e-06
-0.00140883
-4.3491e-05
-5.03728e-06
-0.00139252
-7.8943e-06
-0.00137301
-2.8708e-05
1.65218e-05
1.79692e-06
-0.00171966
6.22646e-06
2.58949e-06
-0.00172272
-4.13215e-06
2.91649e-06
-0.0017239
-1.46914e-05
2.84739e-06
-0.00172321
-2.54963e-05
2.32853e-06
-0.0017204
-3.6458e-05
1.31797e-06
-0.00171491
-4.71091e-05
-3.20363e-07
-0.00170552
-5.58656e-05
-2.67886e-06
-0.00169033
-5.78756e-05
-6.17969e-06
-0.00166566
-1.01748e-05
-0.00163381
-4.28849e-05
1.82729e-05
2.13929e-06
-0.00201013
7.19183e-06
3.02669e-06
-0.0020139
-3.92152e-06
3.40542e-06
-0.00201551
-1.53434e-05
3.35696e-06
-0.00201499
-2.73109e-05
2.82081e-06
-0.002012
-3.99854e-05
1.7457e-06
-0.00200583
-5.32039e-05
-6.90881e-08
-0.00199465
-6.56e-05
-2.76943e-06
-0.00197548
-7.19273e-05
-7.05632e-06
-0.00194152
-1.21938e-05
-0.00189467
-5.86294e-05
1.95058e-05
2.36692e-06
-0.00229939
7.87452e-06
3.29948e-06
-0.0023039
-3.73154e-06
3.68317e-06
-0.00230593
-1.57146e-05
3.63083e-06
-0.00230561
-2.84884e-05
3.07958e-06
-0.00230254
-4.24899e-05
1.98175e-06
-0.00229592
-5.79589e-05
9.30273e-08
-0.00228333
-7.39578e-05
-2.78466e-06
-0.0022606
-8.5527e-05
-7.60851e-06
-0.00221703
-1.3768e-05
-0.00215329
-7.58022e-05
2.02626e-05
2.40572e-06
-0.00258901
8.39571e-06
3.24591e-06
-0.00259425
-3.40002e-06
3.57534e-06
-0.00259677
-1.56051e-05
3.47432e-06
-0.00259674
-2.88209e-05
2.92044e-06
-0.00259372
-4.37443e-05
1.85589e-06
-0.00258691
-6.10759e-05
2.09315e-08
-0.00257329
-8.04489e-05
-2.86784e-06
-0.00254755
-9.78708e-05
-7.85631e-06
-0.00249456
-1.48976e-05
-0.00241264
-9.3133e-05
2.02429e-05
2.11089e-06
-0.00287904
8.27315e-06
2.75847e-06
-0.00288499
-3.51379e-06
2.96088e-06
-0.00288772
-1.56835e-05
2.78299e-06
-0.0028876
-2.89502e-05
2.22276e-06
-0.00288425
-4.42598e-05
1.22553e-06
-0.00287693
-6.28398e-05
-4.02141e-07
-0.00286236
-8.50386e-05
-3.02137e-06
-0.00283429
-0.000108509
-7.3313e-06
-0.00277279
-1.48313e-05
-0.00267207
-0.000110093
1.96953e-05
1.19924e-06
-0.00316591
8.12026e-06
1.40444e-06
-0.00317247
-3.22791e-06
1.38921e-06
-0.0031756
-1.49153e-05
9.98941e-07
-0.00317569
-2.77949e-05
3.45516e-07
-0.00317234
-4.30461e-05
-6.07947e-07
-0.00316481
-6.25182e-05
-1.89547e-06
-0.00314949
-8.76703e-05
-3.75228e-06
-0.00312004
-0.000117053
-6.49598e-06
-0.00305143
-1.2216e-05
-0.0029292
-0.000126649
1.8608e-05
-0.00343396
7.07234e-06
-0.00344039
-4.05674e-06
-0.00344275
-1.54493e-05
-0.00344097
-2.78748e-05
-0.00343482
-4.25526e-05
-0.00342371
-6.1433e-05
-0.00340423
-8.70677e-05
-0.00336998
-0.000119683
-0.00329498
-0.00315502
-0.000139407
6.84918e-06
4.2324e-07
-0.000846191
2.57472e-06
6.53812e-07
-0.000847306
-1.89885e-06
7.44509e-07
-0.000847667
-6.24114e-06
6.82182e-07
-0.000847449
-1.01075e-05
4.70361e-07
-0.000846699
-1.30929e-05
1.08143e-07
-0.000845429
-1.47038e-05
-3.96054e-07
-0.000843663
-1.43362e-05
-1.02093e-06
-0.000841474
-1.13196e-05
-1.72078e-06
-0.000838997
-2.32907e-06
-0.000836482
-5.36402e-06
9.38715e-06
8.20678e-07
-0.00113556
3.29727e-06
1.2603e-06
-0.00113708
-2.96869e-06
1.42701e-06
-0.00113762
-9.13075e-06
1.32791e-06
-0.00113718
-1.48464e-05
9.51587e-07
-0.00113573
-1.96461e-05
2.9136e-07
-0.00113322
-2.28142e-05
-6.57844e-07
-0.00112956
-2.32473e-05
-1.87416e-06
-0.00112474
-1.92824e-05
-3.31447e-06
-0.0011189
-4.63315e-06
-0.00111323
-9.76437e-06
1.24562e-05
1.18612e-06
-0.00142417
4.59151e-06
1.79422e-06
-0.00142639
-3.4062e-06
2.02723e-06
-0.00142718
-1.1354e-05
1.91094e-06
-0.00142654
-1.89768e-05
1.41435e-06
-0.00142437
-2.58024e-05
5.12905e-07
-0.00142047
-3.09545e-05
-8.39705e-07
-0.00141451
-3.28544e-05
-2.64575e-06
-0.00140616
-2.86146e-05
-4.92529e-06
-0.00139515
-7.14147e-06
-0.00138373
-1.53862e-05
1.48912e-05
1.53161e-06
-0.00171097
5.63962e-06
2.33712e-06
-0.00171401
-3.75109e-06
2.66243e-06
-0.00171515
-1.32146e-05
2.56496e-06
-0.0017144
-2.25869e-05
1.99605e-06
-0.00171161
-3.15022e-05
9.20179e-07
-0.0017064
-3.90681e-05
-7.65233e-07
-0.00169803
-4.33524e-05
-3.10235e-06
-0.00168559
-4.00338e-05
-6.27114e-06
-0.00166763
-9.53837e-06
-0.0016476
-2.38434e-05
1.69737e-05
1.917e-06
-0.0020002
6.66745e-06
2.83066e-06
-0.00200408
-3.744e-06
3.21217e-06
-0.00200565
-1.43379e-05
3.12909e-06
-0.00200496
-2.51204e-05
2.52359e-06
-0.00200175
-3.59142e-05
1.34495e-06
-0.00199546
-4.59411e-05
-5.7766e-07
-0.00198481
-5.30695e-05
-3.34713e-06
-0.0019681
-5.16616e-05
-7.37763e-06
-0.00194182
-1.17717e-05
-0.00191046
-3.36398e-05
1.85172e-05
2.20511e-06
-0.00228842
7.43127e-06
3.17412e-06
-0.00229316
-3.70226e-06
3.56615e-06
-0.00229515
-1.51045e-05
3.48265e-06
-0.00229456
-2.69527e-05
2.85832e-06
-0.00229102
-3.9313e-05
1.63913e-06
-0.00228386
-5.16591e-05
-4.00387e-07
-0.00227117
-6.18724e-05
-3.433e-06
-0.0022503
-6.33691e-05
-8.12309e-06
-0.00221478
-1.35891e-05
-0.00216983
-4.50084e-05
1.9511e-05
2.30107e-06
-0.00257719
8.00792e-06
3.18349e-06
-0.00258276
-3.4919e-06
3.52793e-06
-0.00258524
-1.53147e-05
3.40636e-06
-0.00258484
-2.7831e-05
2.78859e-06
-0.00258114
-4.13651e-05
1.60809e-06
-0.00257335
-5.57438e-05
-3.90112e-07
-0.00255892
-6.90379e-05
-3.48048e-06
-0.00253421
-7.42178e-05
-8.4876e-06
-0.00248902
-1.49523e-05
-0.00242864
-5.6857e-05
1.9694e-05
2.04554e-06
-0.00286649
7.98285e-06
2.7366e-06
-0.00287284
-3.61743e-06
2.9649e-06
-0.00287555
-1.55453e-05
2.79783e-06
-0.00287507
-2.82972e-05
2.21665e-06
-0.00287092
-4.24516e-05
1.15813e-06
-0.00286232
-5.83086e-05
-5.89714e-07
-0.0028463
-7.43926e-05
-3.40904e-06
-0.00281828
-8.38727e-05
-7.91132e-06
-0.00276388
-1.50082e-05
-0.00268684
-6.90477e-05
1.92715e-05
1.19925e-06
-0.00315282
7.8681e-06
1.43302e-06
-0.00315976
-3.38561e-06
1.47467e-06
-0.00316286
-1.49368e-05
1.15346e-06
-0.0031625
-2.74295e-05
5.70283e-07
-0.0031582
-4.16489e-05
-3.27568e-07
-0.00314911
-5.8393e-05
-1.60696e-06
-0.00313173
-7.72899e-05
-3.53852e-06
-0.00310101
-9.15621e-05
-6.47557e-06
-0.0030386
-1.20782e-05
-0.0029422
-8.14854e-05
1.82932e-05
-0.00342078
7.00314e-06
-0.00342767
-3.96514e-06
-0.00343031
-1.51884e-05
-0.00342859
-2.72606e-05
-0.00342218
-4.10519e-05
-0.00341025
-5.75075e-05
-0.00338938
-7.70931e-05
-0.00335394
-9.41538e-05
-0.0032844
-0.00317039
-9.08557e-05
4.81646e-06
2.50263e-07
-0.000843932
1.8426e-06
4.5493e-07
-0.000844787
-1.31463e-06
5.3929e-07
-0.000845049
-4.34626e-06
4.84763e-07
-0.000844902
-6.94562e-06
2.98754e-07
-0.000844398
-8.79005e-06
-1.37385e-08
-0.00084357
-9.55038e-06
-4.34424e-07
-0.000842469
-8.9121e-06
-9.31324e-07
-0.000841181
-6.64596e-06
-1.44803e-06
-0.000839815
-1.86646e-06
-0.000838415
-2.84601e-06
7.16933e-06
5.19522e-07
-0.00113173
2.51928e-06
9.27719e-07
-0.00113291
-2.32259e-06
1.08574e-06
-0.00113332
-7.02487e-06
9.92521e-07
-0.00113298
-1.12149e-05
6.42203e-07
-0.00113189
-1.44512e-05
3.92906e-08
-0.00113004
-1.61745e-05
-7.99678e-07
-0.00112747
-1.57043e-05
-1.82636e-06
-0.00112432
-1.22593e-05
-2.95233e-06
-0.00112085
-3.9084e-06
-0.00111779
-5.65214e-06
1.03347e-05
8.46909e-07
-0.00141853
3.86924e-06
1.42801e-06
-0.00142042
-2.77444e-06
1.65022e-06
-0.0014211
-9.29114e-06
1.52674e-06
-0.00142056
-1.53071e-05
1.03345e-06
-0.00141874
-2.03021e-05
1.60243e-07
-0.00141559
-2.34788e-05
-1.105e-06
-0.00141103
-2.36624e-05
-2.72273e-06
-0.00140508
-1.91474e-05
-4.61363e-06
-0.001398
-6.31392e-06
-0.00139138
-9.09099e-06
1.29539e-05
1.19806e-06
-0.0017038
4.94905e-06
1.99425e-06
-0.00170657
-3.26044e-06
2.3112e-06
-0.0017076
-1.14347e-05
2.19286e-06
-0.0017069
-1.92466e-05
1.59878e-06
-0.00170437
-2.61812e-05
5.07358e-07
-0.00169981
-3.12795e-05
-1.13986e-06
-0.00169289
-3.2888e-05
-3.33194e-06
-0.00168337
-2.8025e-05
-6.07513e-06
-0.00167103
-8.6865e-06
-0.00165871
-1.45461e-05
1.52838e-05
1.60778e-06
-0.00199165
6.01643e-06
2.52842e-06
-0.00199535
-3.42849e-06
2.90658e-06
-0.0019968
-1.29313e-05
2.7938e-06
-0.00199606
-2.22877e-05
2.13906e-06
-0.00199293
-3.10797e-05
9.01248e-07
-0.00198706
-3.82936e-05
-1.04285e-06
-0.0019777
-4.18774e-05
-3.73631e-06
-0.00196411
-3.73989e-05
-7.34661e-06
-0.00194503
-1.09864e-05
-0.00192469
-2.08745e-05
1.71014e-05
1.94632e-06
-0.00227866
6.84897e-06
2.93696e-06
-0.00228332
-3.52953e-06
3.33204e-06
-0.0022852
-1.40546e-05
3.21912e-06
-0.00228446
-2.46639e-05
2.53529e-06
-0.00228081
-3.51115e-05
1.2297e-06
-0.00227374
-4.44664e-05
-8.80809e-07
-0.00226197
-5.04423e-05
-3.91359e-06
-0.00224415
-4.72143e-05
-8.2394e-06
-0.00221712
-1.29093e-05
-0.0021866
-2.85189e-05
1.83262e-05
2.10459e-06
-0.00256642
7.47741e-06
3.01991e-06
-0.00257199
-3.44684e-06
3.37569e-06
-0.00257435
-1.45834e-05
3.23383e-06
-0.00257372
-2.60508e-05
2.56043e-06
-0.0025697
-3.78167e-05
1.28786e-06
-0.00256164
-4.91492e-05
-8.09326e-07
-0.00254766
-5.76878e-05
-3.95245e-06
-0.00252564
-5.64462e-05
-8.69028e-06
-0.00248981
-1.43518e-05
-0.00244716
-3.64873e-05
1.87314e-05
1.89434e-06
-0.00285484
7.55325e-06
2.6257e-06
-0.00286126
-3.59853e-06
2.87532e-06
-0.0028639
-1.49944e-05
2.71385e-06
-0.00286315
-2.68828e-05
2.10947e-06
-0.00285858
-3.94577e-05
9.97333e-07
-0.00284946
-5.23277e-05
-8.27584e-07
-0.00283341
-6.3341e-05
-3.71076e-06
-0.00280751
-6.48635e-05
-8.09876e-06
-0.00276295
-1.44359e-05
-0.00270664
-4.49784e-05
1.84665e-05
1.14354e-06
-0.00314052
7.49072e-06
1.40431e-06
-0.00314756
-3.42589e-06
1.49432e-06
-0.00315056
-1.45699e-05
1.22758e-06
-0.00314987
-2.63517e-05
6.9584e-07
-0.00314501
-3.91567e-05
-1.64798e-07
-0.00313514
-5.29374e-05
-1.43862e-06
-0.00311733
-6.63037e-05
-3.37907e-06
-0.00308798
-7.12627e-05
-6.2892e-06
-0.00303545
-1.12881e-05
-0.002963
-5.36152e-05
1.76256e-05
-0.00340839
6.79262e-06
-0.00341543
-3.81415e-06
-0.00341821
-1.46381e-05
-0.00341654
-2.60682e-05
-0.00341005
-3.86062e-05
-0.00339788
-5.23919e-05
-0.00337704
-6.65675e-05
-0.00334314
-7.36984e-05
-0.00328356
-0.0031958
-5.95809e-05
3.29104e-06
1.0637e-07
-0.000842407
1.2881e-06
2.78114e-07
-0.000843062
-8.66439e-07
3.5297e-07
-0.000843247
-2.92016e-06
3.08296e-07
-0.000843157
-4.63258e-06
1.5412e-07
-0.00084284
-5.77057e-06
-1.01527e-07
-0.000842331
-6.12989e-06
-4.36053e-07
-0.000841673
-5.55926e-06
-8.16167e-07
-0.000840935
-4.01138e-06
-1.18984e-06
-0.000840173
-1.47609e-06
-0.000839305
-1.64574e-06
5.24918e-06
2.43466e-07
-0.00112897
1.83132e-06
6.0464e-07
-0.00112981
-1.76716e-06
7.48159e-07
-0.00113012
-5.22949e-06
6.66155e-07
-0.00112988
-8.21489e-06
3.57264e-07
-0.0011291
-1.036e-05
-1.65713e-07
-0.00112783
-1.12715e-05
-8.72698e-07
-0.00112612
-1.05668e-05
-1.70402e-06
-0.00112413
-7.94665e-06
-2.56294e-06
-0.00112209
-3.25348e-06
-0.00112042
-3.53717e-06
8.28548e-06
5.05741e-07
-0.00141423
3.15627e-06
1.03728e-06
-0.00141573
-2.16794e-06
1.2413e-06
-0.00141627
-7.33211e-06
1.1194e-06
-0.00141585
-1.19356e-05
6.54111e-07
-0.00141444
-1.5492e-05
-1.50664e-07
-0.00141205
-1.73731e-05
-1.279e-06
-0.00140874
-1.68208e-05
-2.66289e-06
-0.00140467
-1.29829e-05
-4.17908e-06
-0.00140022
-5.47061e-06
-0.00139637
-5.77742e-06
1.09008e-05
8.31455e-07
-0.00169809
4.21013e-06
1.59294e-06
-0.00170044
-2.72809e-06
1.89368e-06
-0.00170131
-9.56119e-06
1.76431e-06
-0.00170071
-1.58694e-05
1.17403e-06
-0.00169858
-2.10947e-05
1.18026e-07
-0.00169485
-2.43883e-05
-1.4188e-06
-0.00168946
-2.45465e-05
-3.38056e-06
-0.00168249
-1.98151e-05
-5.66925e-06
-0.00167427
-7.72439e-06
-0.00166673
-9.54117e-06
1.33494e-05
1.24032e-06
-0.00198453
5.28084e-06
2.14267e-06
-0.00198783
-3.02345e-06
2.50951e-06
-0.00198911
-1.12878e-05
2.3757e-06
-0.00198841
-1.91564e-05
1.69993e-06
-0.00198559
-2.60806e-05
4.56986e-07
-0.00198048
-3.10473e-05
-1.42288e-06
-0.00197273
-3.24063e-05
-3.92238e-06
-0.00196221
-2.72141e-05
-7.03138e-06
-0.00194886
-9.98322e-06
-0.00193582
-1.38212e-05
1.5361e-05
1.6108e-06
-0.00227026
6.15783e-06
2.60097e-06
-0.00227457
-3.2428e-06
2.99165e-06
-0.00227628
-1.26802e-05
2.85511e-06
-0.0022755
-2.1896e-05
2.1351e-06
-0.00227203
-3.04298e-05
7.92554e-07
-0.00226554
-3.72142e-05
-1.2999e-06
-0.00225531
-4.02445e-05
-4.19235e-06
-0.00224085
-3.52511e-05
-8.01402e-06
-0.00222113
-1.18958e-05
-0.00220079
-1.91565e-05
1.67738e-05
1.828e-06
-0.0025569
6.82422e-06
2.75958e-06
-0.0025622
-3.27912e-06
3.12069e-06
-0.00256438
-1.34841e-05
2.962e-06
-0.00256362
-2.36832e-05
2.25031e-06
-0.00255961
-3.35637e-05
9.25823e-07
-0.00255189
-4.21062e-05
-1.18941e-06
-0.00253923
-4.70704e-05
-4.2384e-06
-0.00252062
-4.28713e-05
-8.50975e-06
-0.00249351
-1.32811e-05
-0.00246407
-2.4568e-05
1.73943e-05
1.66245e-06
-0.00284434
6.99632e-06
2.4246e-06
-0.00285053
-3.4625e-06
2.68928e-06
-0.00285301
-1.40719e-05
2.53074e-06
-0.00285211
-2.48452e-05
1.9084e-06
-0.00284747
-3.5649e-05
7.63555e-07
-0.00283849
-4.56552e-05
-1.08083e-06
-0.00282352
-5.2617e-05
-3.89039e-06
-0.00280089
-4.99905e-05
-7.91827e-06
-0.00276617
-1.32851e-05
-0.00272613
-3.0494e-05
1.7299e-05
1.0321e-06
-0.0031293
6.99201e-06
1.31456e-06
-0.00313615
-3.35087e-06
1.44374e-06
-0.00313897
-1.38364e-05
1.21905e-06
-0.00313807
-2.46459e-05
7.25786e-07
-0.00313302
-3.58163e-05
-1.04543e-07
-0.0031231
-4.67389e-05
-1.35938e-06
-0.00310613
-5.55513e-05
-3.23959e-06
-0.00307981
-5.5118e-05
-5.95557e-06
-0.00303784
-1.01075e-05
-0.00298515
-3.61401e-05
1.66164e-05
-0.00339706
6.44471e-06
-0.00340395
-3.59923e-06
-0.00340672
-1.38033e-05
-0.00340512
-2.43475e-05
-0.00339878
-3.53957e-05
-0.00338693
-4.6529e-05
-0.00336726
-5.61815e-05
-0.00333673
-5.73775e-05
-0.00328832
-0.00322359
-3.96899e-05
2.21194e-06
-2.10945e-09
-0.000841364
8.93621e-07
1.35715e-07
-0.00084188
-5.42924e-07
1.99955e-07
-0.000842011
-1.9062e-06
1.65363e-07
-0.000841959
-3.02093e-06
4.35665e-08
-0.000841769
-3.72705e-06
-1.56751e-07
-0.000841468
-3.90069e-06
-4.12922e-07
-0.000841087
-3.47119e-06
-6.95418e-07
-0.000840669
-2.44944e-06
-9.61758e-07
-0.000840233
-1.15697e-06
-0.000839628
-9.69495e-07
3.69435e-06
1.1809e-08
-0.00112698
1.2611e-06
3.17923e-07
-0.00112756
-1.32589e-06
4.43431e-07
-0.00112778
-3.7992e-06
3.75647e-07
-0.00112762
-5.87768e-06
1.1629e-07
-0.0011271
-7.28497e-06
-3.17405e-07
-0.00112626
-7.75935e-06
-8.89741e-07
-0.00112517
-7.09742e-06
-1.54057e-06
-0.00112395
-5.2131e-06
-2.18223e-06
-0.00112276
-2.67537e-06
-0.00112183
-2.29057e-06
6.45012e-06
1.92222e-07
-0.00141101
2.50272e-06
6.56941e-07
-0.00141212
-1.63093e-06
8.36745e-07
-0.00141253
-5.60385e-06
7.2357e-07
-0.00141222
-9.04145e-06
3.05265e-07
-0.00141119
-1.15315e-05
-4.04026e-07
-0.00140947
-1.26148e-05
-1.36985e-06
-0.00140718
-1.18353e-05
-2.51128e-06
-0.00140448
-8.82574e-06
-3.69563e-06
-0.00140172
-4.66108e-06
-0.00139947
-3.74726e-06
8.89343e-06
4.65885e-07
-0.00169365
3.47549e-06
1.16864e-06
-0.00169553
-2.20577e-06
1.4454e-06
-0.00169624
-7.74932e-06
1.31478e-06
-0.00169576
-1.27101e-05
7.55421e-07
-0.00169407
-1.6561e-05
-2.21881e-07
-0.00169119
-1.86215e-05
-1.59823e-06
-0.00168717
-1.80882e-05
-3.28741e-06
-0.00168225
-1.40474e-05
-5.14125e-06
-0.00167687
-6.7271e-06
-0.00167226
-6.4525e-06
1.13201e-05
8.47151e-07
-0.00197876
4.50786e-06
1.70375e-06
-0.00198155
-2.57487e-06
2.05033e-06
-0.00198264
-9.55457e-06
1.90579e-06
-0.00198202
-1.59935e-05
1.23957e-06
-0.00197964
-2.13086e-05
4.46047e-08
-0.00197543
-2.46101e-05
-1.70015e-06
-0.00196932
-2.46926e-05
-3.92803e-06
-0.00196149
-1.98194e-05
-6.51887e-06
-0.00195235
-8.85972e-06
-0.00194405
-9.45703e-06
1.342e-05
1.22611e-06
-0.00226325
5.39675e-06
2.18884e-06
-0.00226703
-2.87709e-06
2.56604e-06
-0.00226852
-1.11037e-05
2.41429e-06
-0.00226778
-1.88929e-05
1.68688e-06
-0.00226469
-2.56756e-05
3.6183e-07
-0.00225907
-3.04251e-05
-1.63051e-06
-0.00225063
-3.15592e-05
-4.2762e-06
-0.00223936
-2.63108e-05
-7.5312e-06
-0.00222537
-1.06724e-05
-0.00221194
-1.3339e-05
1.49486e-05
1.49116e-06
-0.00254876
6.078e-06
2.41622e-06
-0.00255356
-3.01265e-06
2.77456e-06
-0.0025555
-1.211e-05
2.60497e-06
-0.00255471
-2.09337e-05
1.87868e-06
-0.00255098
-2.89927e-05
5.50837e-07
-0.00254402
-3.51955e-05
-1.50131e-06
-0.00253316
-3.76513e-05
-4.33681e-06
-0.00251811
-3.24423e-05
-8.03463e-06
-0.00249822
-1.19129e-05
-0.0024782
-1.70779e-05
1.57535e-05
1.36276e-06
-0.00283512
6.33438e-06
2.14002e-06
-0.00284084
-3.22454e-06
2.41196e-06
-0.00284309
-1.28455e-05
2.25626e-06
-0.00284214
-2.23467e-05
1.62796e-06
-0.00283772
-3.13616e-05
4.8125e-07
-0.00282941
-3.88673e-05
-1.32047e-06
-0.00281619
-4.28125e-05
-3.94783e-06
-0.00279734
-3.83405e-05
-7.47203e-06
-0.0027712
-1.18007e-05
-0.00274327
-2.13114e-05
1.58189e-05
8.70525e-07
-0.00311934
6.38648e-06