/*--------------------------------*- C++ -*----------------------------------*\
| =========                 |                                                 |
| \\      /  F ield         | foam-extend: Open Source CFD                    |
|  \\    /   O peration     | Version:     4.0                                |
|   \\  /    A nd           | Web:         http://www.foam-extend.org         |
|    \\/     M anipulation  |                                                 |
\*---------------------------------------------------------------------------*/
FoamFile
{
    version     2.0;
    format      ascii;
    class       volScalarField;
    location    "2150";
    object      T;
}
// * * * * * * * * * * * * * * * * * * * * * * * * * * * * * * * * * * * * * //

dimensions      [0 0 0 1 0 0 0];

internalField   nonuniform List<scalar> 
34480
(
278.809
278.698
278.617
278.563
278.53
278.521
278.536
278.621
278.893
278.859
278.257
278.139
278.045
277.979
277.946
277.949
277.974
278.019
278.235
277.792
278.145
278.014
277.908
277.834
277.796
277.784
277.765
277.712
277.84
277.064
278.186
278.034
277.905
277.803
277.731
277.667
277.583
277.425
277.432
276.308
278.2
278.023
277.865
277.73
277.617
277.497
277.344
277.075
276.926
275.447
278.268
278.068
277.888
277.726
277.578
277.408
277.188
276.805
276.469
274.607
278.295
278.069
277.865
277.679
277.499
277.285
277.002
276.506
275.96
273.71
278.367
278.119
277.902
277.707
277.52
277.29
276.974
276.393
275.637
272.968
278.424
278.155
277.92
277.707
277.495
277.238
276.879
276.214
275.249
272.226
279.24
278.96
278.756
278.614
278.51
278.389
278.18
277.654
276.649
273.195
279.342
279.25
279.213
279.229
279.302
279.449
279.709
280.166
280.835
281.705
278.692
278.608
278.575
278.592
278.673
278.84
279.131
279.629
280.422
281.443
278.486
278.408
278.378
278.399
278.485
278.657
278.946
279.437
280.287
281.403
278.433
278.354
278.32
278.332
278.405
278.556
278.821
279.286
280.167
281.331
278.359
278.275
278.233
278.232
278.286
278.408
278.641
279.068
279.949
281.127
278.35
278.263
278.216
278.206
278.244
278.34
278.538
278.916
279.768
280.924
278.307
278.213
278.16
278.14
278.165
278.236
278.4
278.726
279.525
280.64
278.325
278.229
278.178
278.164
278.192
278.258
278.403
278.682
279.409
280.432
278.341
278.238
278.181
278.158
278.174
278.225
278.345
278.576
279.222
280.166
279.106
279.016
278.994
279.038
279.141
279.295
279.515
279.82
280.416
281.086
279.816
279.717
279.682
279.702
279.78
279.926
280.157
280.503
281.002
281.625
279.159
279.061
279.026
279.05
279.141
279.316
279.605
280.061
280.768
281.697
278.938
278.84
278.805
278.829
278.925
279.113
279.43
279.945
280.817
282.031
278.855
278.752
278.712
278.729
278.817
278.997
279.316
279.86
280.867
282.332
278.751
278.642
278.595
278.601
278.675
278.835
279.14
279.688
280.792
282.463
278.715
278.603
278.55
278.547
278.608
278.748
279.032
279.564
280.727
282.552
278.65
278.531
278.473
278.461
278.509
278.628
278.887
279.39
280.578
282.517
278.648
278.528
278.47
278.462
278.511
278.625
278.866
279.337
280.513
282.513
278.647
278.523
278.461
278.446
278.487
278.588
278.807
279.236
280.375
282.454
279.379
279.267
279.232
279.266
279.372
279.547
279.832
280.3
281.384
283.382
280.155
280.069
280.039
280.058
280.127
280.247
280.425
280.667
280.972
281.311
279.526
279.434
279.402
279.427
279.516
279.675
279.922
280.275
280.76
281.307
279.316
279.216
279.181
279.209
279.308
279.491
279.784
280.226
280.882
281.673
279.221
279.111
279.071
279.095
279.193
279.383
279.703
280.208
281.029
282.078
279.101
278.983
278.936
278.951
279.042
279.227
279.555
280.099
281.06
282.35
279.047
278.923
278.871
278.88
278.962
279.137
279.462
280.023
281.097
282.598
278.965
278.835
278.777
278.778
278.851
279.011
279.325
279.889
281.045
282.727
278.947
278.816
278.758
278.761
278.835
278.992
279.298
279.851
281.051
282.87
278.931
278.798
278.737
278.734
278.802
278.95
279.245
279.778
280.982
282.951
279.631
279.508
279.466
279.498
279.61
279.809
280.147
280.709
281.883
283.884
280.384
280.317
280.294
280.309
280.36
280.446
280.565
280.714
280.884
281.05
279.803
279.725
279.698
279.72
279.794
279.922
280.109
280.354
280.654
280.949
279.623
279.53
279.498
279.524
279.614
279.773
280.016
280.354
280.802
281.27
279.532
279.425
279.386
279.412
279.509
279.688
279.973
280.392
280.996
281.67
279.411
279.291
279.246
279.266
279.363
279.549
279.861
280.34
281.092
281.983
279.349
279.222
279.17
279.186
279.279
279.466
279.793
280.315
281.199
282.298
279.258
279.123
279.066
279.075
279.163
279.345
279.677
280.225
281.221
282.515
279.229
279.091
279.034
279.044
279.134
279.317
279.651
280.212
281.285
282.749
279.202
279.063
279.003
279.01
279.095
279.272
279.604
280.167
281.281
282.926
279.869
279.74
279.692
279.723
279.839
280.05
280.411
281
282.114
283.855
280.536
280.486
280.47
280.48
280.515
280.571
280.646
280.734
280.827
280.916
280.005
279.945
279.924
279.941
279.997
280.092
280.223
280.385
280.564
280.723
279.861
279.782
279.755
279.778
279.852
279.981
280.167
280.409
280.699
280.971
279.786
279.69
279.655
279.679
279.766
279.922
280.158
280.48
280.898
281.317
279.674
279.562
279.52
279.541
279.634
279.807
280.081
280.473
281.024
281.608
279.613
279.49
279.441
279.461
279.556
279.739
280.042
280.491
281.168
281.926
279.52
279.387
279.333
279.348
279.442
279.629
279.949
280.442
281.235
282.167
279.486
279.349
279.293
279.309
279.407
279.599
279.932
280.454
281.339
282.434
279.452
279.312
279.255
279.268
279.363
279.553
279.891
280.433
281.38
282.651
280.087
279.957
279.907
279.937
280.053
280.267
280.626
281.192
282.159
283.545
280.635
280.599
280.588
280.594
280.616
280.65
280.695
280.746
280.796
280.847
280.15
280.107
280.091
280.104
280.143
280.209
280.296
280.398
280.503
280.59
280.042
279.98
279.958
279.976
280.033
280.131
280.266
280.432
280.614
280.772
279.987
279.905
279.876
279.896
279.969
280.097
280.28
280.517
280.797
281.054
279.89
279.791
279.754
279.775
279.858
280.008
280.234
280.539
280.926
281.303
279.838
279.725
279.681
279.701
279.791
279.958
280.22
280.586
281.084
281.594
279.749
279.624
279.575
279.592
279.685
279.863
280.151
280.569
281.173
281.824
279.715
279.584
279.532
279.551
279.649
279.836
280.145
280.603
281.298
282.087
279.675
279.541
279.488
279.505
279.603
279.792
280.113
280.6
281.362
282.303
280.282
280.155
280.106
280.134
280.246
280.453
280.79
281.302
282.097
283.142
280.7
280.673
280.666
280.669
280.682
280.703
280.729
280.757
280.785
280.818
280.253
280.224
280.213
280.222
280.248
280.291
280.347
280.41
280.471
280.519
280.177
280.131
280.115
280.128
280.17
280.24
280.334
280.444
280.557
280.649
280.141
280.076
280.053
280.069
280.127
280.225
280.362
280.53
280.713
280.871
280.064
279.981
279.95
279.968
280.038
280.161
280.339
280.567
280.832
281.073
280.023
279.924
279.886
279.905
279.985
280.13
280.345
280.631
280.986
281.324
279.942
279.83
279.786
279.804
279.89
280.05
280.297
280.635
281.08
281.527
279.912
279.793
279.746
279.766
279.858
280.031
280.302
280.685
281.211
281.767
279.871
279.747
279.698
279.717
279.811
279.99
280.277
280.692
281.283
281.957
280.449
280.331
280.285
280.311
280.415
280.606
280.909
281.349
281.975
282.733
280.742
280.721
280.716
280.718
280.726
280.737
280.752
280.768
280.784
280.807
280.328
280.309
280.302
280.307
280.324
280.351
280.386
280.424
280.459
280.487
280.278
280.245
280.233
280.242
280.272
280.32
280.383
280.454
280.524
280.578
280.258
280.209
280.19
280.203
280.246
280.319
280.417
280.532
280.652
280.748
280.2
280.134
280.109
280.123
280.179
280.276
280.41
280.575
280.754
280.908
280.172
280.09
280.058
280.075
280.142
280.261
280.431
280.646
280.894
281.117
280.101
280.005
279.967
279.984
280.059
280.195
280.397
280.662
280.982
281.284
280.079
279.974
279.933
279.952
280.035
280.186
280.414
280.721
281.108
281.493
280.037
279.927
279.884
279.902
279.989
280.148
280.394
280.733
281.177
281.649
280.588
280.482
280.44
280.464
280.558
280.727
280.987
281.35
281.826
282.359
280.769
280.752
280.749
280.75
280.754
280.761
280.769
280.778
280.787
280.805
280.383
280.371
280.366
280.369
280.38
280.397
280.418
280.44
280.461
280.477
280.353
280.331
280.323
280.329
280.349
280.381
280.422
280.467
280.509
280.541
280.345
280.309
280.296
280.305
280.336
280.388
280.456
280.533
280.61
280.669
280.305
280.254
280.235
280.246
280.289
280.361
280.46
280.575
280.694
280.792
280.289
280.224
280.198
280.212
280.266
280.359
280.489
280.646
280.817
280.962
280.228
280.149
280.118
280.132
280.195
280.306
280.465
280.665
280.891
281.093
280.216
280.128
280.094
280.111
280.182
280.308
280.492
280.729
281.008
281.27
280.174
280.079
280.043
280.06
280.135
280.271
280.473
280.741
281.065
281.389
280.698
280.608
280.571
280.592
280.673
280.817
281.032
281.32
281.673
282.037
280.786
280.771
280.769
280.769
280.772
280.775
280.78
280.785
280.791
280.806
280.425
280.417
280.414
280.416
280.422
280.432
280.445
280.458
280.47
280.48
280.411
280.396
280.391
280.395
280.408
280.428
280.454
280.482
280.508
280.527
280.41
280.384
280.374
280.38
280.402
280.438
280.484
280.535
280.583
280.62
280.385
280.347
280.333
280.341
280.373
280.425
280.495
280.574
280.652
280.714
280.38
280.33
280.31
280.321
280.362
280.433
280.528
280.64
280.755
280.85
280.327
280.264
280.239
280.251
280.302
280.389
280.51
280.656
280.813
280.947
280.327
280.256
280.228
280.242
280.3
280.402
280.545
280.723
280.919
281.095
280.284
280.205
280.175
280.19
280.253
280.364
280.524
280.728
280.96
281.178
280.781
280.707
280.676
280.693
280.761
280.879
281.051
281.271
281.526
281.769
280.795
280.782
280.78
280.78
280.781
280.783
280.786
280.789
280.793
280.806
280.456
280.451
280.449
280.45
280.454
280.46
280.467
280.475
280.483
280.489
280.456
280.446
280.443
280.445
280.454
280.466
280.483
280.5
280.515
280.526
280.456
280.439
280.432
280.436
280.451
280.475
280.505
280.538
280.569
280.592
280.445
280.418
280.408
280.414
280.436
280.473
280.521
280.574
280.625
280.663
280.448
280.411
280.396
280.404
280.435
280.487
280.555
280.633
280.71
280.77
280.403
280.354
280.335
280.345
280.383
280.449
280.538
280.643
280.75
280.837
280.415
280.359
280.337
280.349
280.395
280.473
280.581
280.71
280.846
280.962
280.369
280.306
280.282
280.294
280.345
280.432
280.555
280.705
280.868
281.012
280.839
280.78
280.755
280.769
280.823
280.917
281.049
281.213
281.393
281.552
280.797
280.786
280.784
280.784
280.785
280.786
280.787
280.789
280.792
280.804
280.48
280.477
280.475
280.476
280.478
280.482
280.486
280.491
280.496
280.5
280.492
280.486
280.484
280.486
280.491
280.499
280.508
280.519
280.528
280.534
280.49
280.479
280.474
280.477
280.486
280.502
280.521
280.542
280.562
280.576
280.49
280.471
280.464
280.468
280.484
280.509
280.541
280.576
280.608
280.632
280.499
280.472
280.462
280.468
280.49
280.526
280.573
280.626
280.677
280.715
280.458
280.422
280.408
280.415
280.444
280.492
280.555
280.628
280.7
280.757
280.484
280.442
280.425
280.434
280.469
280.528
280.606
280.697
280.79
280.865
280.432
280.384
280.365
280.375
280.414
280.48
280.571
280.678
280.79
280.884
280.876
280.831
280.811
280.822
280.864
280.936
281.034
281.152
281.276
281.377
280.795
280.784
280.783
280.783
280.783
280.784
280.785
280.786
280.788
280.799
280.498
280.496
280.495
280.495
280.496
280.498
280.501
280.504
280.507
280.51
280.523
280.519
280.518
280.519
280.522
280.527
280.533
280.538
280.544
280.547
280.515
280.507
280.504
280.505
280.511
280.521
280.534
280.547
280.559
280.568
280.523
280.511
280.506
280.509
280.519
280.536
280.557
280.579
280.6
280.614
280.536
280.518
280.51
280.514
280.53
280.555
280.587
280.622
280.654
280.679
280.499
280.473
280.462
280.468
280.488
280.522
280.566
280.615
280.662
280.699
280.537
280.507
280.495
280.502
280.527
280.569
280.625
280.688
280.749
280.797
280.477
280.44
280.427
280.434
280.463
280.511
280.576
280.651
280.726
280.787
280.893
280.861
280.846
280.854
280.885
280.938
281.009
281.091
281.175
281.238
280.788
280.779
280.778
280.778
280.778
280.778
280.779
280.779
280.781
280.791
280.51
280.508
280.507
280.507
280.508
280.509
280.511
280.513
280.515
280.518
280.549
280.548
280.547
280.548
280.55
280.552
280.556
280.559
280.562
280.563
280.531
280.526
280.524
280.525
280.529
280.535
280.543
280.551
280.559
280.564
280.548
280.54
280.537
280.539
280.546
280.556
280.57
280.584
280.596
280.605
280.562
280.55
280.545
280.548
280.558
280.575
280.596
280.618
280.639
280.654
280.527
280.509
280.502
280.505
280.519
280.542
280.572
280.604
280.635
280.658
280.58
280.559
280.55
280.555
280.573
280.602
280.64
280.682
280.722
280.752
280.506
280.479
280.47
280.475
280.495
280.53
280.574
280.625
280.675
280.714
280.897
280.874
280.863
280.869
280.892
280.929
280.979
281.034
281.089
281.127
280.78
280.772
280.771
280.771
280.771
280.771
280.771
280.772
280.773
280.782
280.515
280.514
280.513
280.513
280.513
280.514
280.515
280.517
280.519
280.521
280.574
280.573
280.573
280.573
280.574
280.576
280.578
280.579
280.581
280.581
280.542
280.539
280.537
280.538
280.54
280.544
280.549
280.554
280.559
280.562
280.566
280.561
280.559
280.56
280.565
280.571
280.579
280.588
280.596
280.601
280.58
280.572
280.568
280.57
280.577
280.587
280.601
280.615
280.629
280.638
280.545
280.534
280.529
280.531
280.541
280.556
280.575
280.596
280.615
280.63
280.613
280.599
280.594
280.597
280.609
280.629
280.654
280.681
280.707
280.725
280.521
280.503
280.496
280.499
280.514
280.537
280.567
280.601
280.632
280.657
280.891
280.876
280.868
280.873
280.888
280.914
280.947
280.984
281.019
281.041
280.777
280.769
280.769
280.769
280.769
280.769
280.769
280.769
280.77
280.777
280.513
280.511
280.511
280.511
280.511
280.511
280.512
280.513
280.515
280.518
280.596
280.596
280.596
280.596
280.597
280.598
280.598
280.599
280.6
280.6
280.548
280.546
280.545
280.545
280.547
280.549
280.552
280.555
280.558
280.56
280.577
280.574
280.573
280.573
280.576
280.58
280.585
280.59
280.595
280.598
280.589
280.584
280.581
280.582
280.587
280.593
280.602
280.611
280.619
280.625
280.557
280.549
280.546
280.548
280.554
280.564
280.576
280.589
280.6
280.609
280.639
280.63
280.626
280.628
280.636
280.649
280.665
280.683
280.699
280.71
280.524
280.511
280.507
280.509
280.518
280.534
280.553
280.575
280.594
280.611
280.885
280.875
280.87
280.873
280.883
280.9
280.922
280.946
280.968
280.98
280.791
280.785
280.785
280.785
280.785
280.785
280.785
280.785
280.785
280.791
280.498
280.497
280.496
280.496
280.496
280.497
280.498
280.499
280.5
280.503
280.613
280.613
280.613
280.613
280.613
280.613
280.614
280.615
280.615
280.615
280.55
280.549
280.549
280.549
280.55
280.551
280.553
280.554
280.556
280.557
280.581
280.58
280.579
280.579
280.581
280.583
280.586
280.589
280.592
280.594
280.59
280.587
280.585
280.586
280.588
280.593
280.598
280.604
280.609
280.613
280.562
280.557
280.556
280.557
280.561
280.567
280.574
280.582
280.588
280.594
280.651
280.645
280.642
280.643
280.649
280.657
280.668
280.679
280.69
280.696
280.51
280.502
280.499
280.501
280.507
280.517
280.529
280.542
280.554
280.564
280.892
280.886
280.882
280.884
280.891
280.902
280.916
280.931
280.946
280.951
280.842
280.838
280.838
280.838
280.838
280.838
280.838
280.838
280.838
280.842
280.463
280.462
280.463
280.463
280.463
280.463
280.464
280.464
280.464
280.468
280.618
280.617
280.616
280.616
280.616
280.616
280.617
280.618
280.619
280.62
280.55
280.55
280.55
280.55
280.551
280.552
280.552
280.553
280.553
280.553
280.58
280.579
280.578
280.579
280.579
280.581
280.583
280.585
280.587
280.588
280.585
280.583
280.582
280.582
280.584
280.587
280.59
280.594
280.597
280.6
280.562
280.559
280.559
280.559
280.562
280.566
280.57
280.575
280.578
280.581
280.641
280.636
280.634
280.635
280.638
280.643
280.651
280.658
280.666
280.672
280.472
280.468
280.466
280.467
280.472
280.478
280.486
280.494
280.5
280.506
280.929
280.925
280.922
280.923
280.928
280.935
280.944
280.954
280.965
280.967
280.924
280.922
280.921
280.92
280.92
280.921
280.921
280.922
280.923
280.926
280.406
280.407
280.409
280.41
280.411
280.411
280.41
280.409
280.407
280.406
280.606
280.604
280.602
280.602
280.602
280.602
280.603
280.604
280.607
280.609
280.55
280.551
280.551
280.552
280.552
280.553
280.553
280.553
280.553
280.552
280.577
280.576
280.575
280.575
280.576
280.577
280.579
280.58
280.582
280.583
280.579
280.578
280.577
280.577
280.578
280.58
280.583
280.585
280.588
280.59
280.56
280.559
280.558
280.559
280.561
280.564
280.567
280.57
280.572
280.573
280.609
280.604
280.602
280.603
280.605
280.609
280.615
280.621
280.627
280.633
280.412
280.41
280.41
280.411
280.414
280.419
280.424
280.429
280.432
280.432
280.988
280.984
280.982
280.983
280.987
280.992
280.999
281.006
281.014
281.016
289.473
291.231
291.495
289.906
290.638
292.768
293.177
291.517
292.3
294.927
295.461
293.488
293.582
296.649
297.317
295.135
294.527
298.004
298.814
296.49
295.276
299.132
300.1
297.906
295.822
300.039
301.199
299.33
296.293
300.834
302.201
300.71
296.508
301.349
302.929
301.863
297.067
302.098
303.944
303.463
286.16
286.707
286.688
286.164
287.457
288.1
288.038
287.385
289.062
289.866
289.754
288.895
290.502
291.452
291.281
290.23
291.679
292.77
292.533
291.298
292.701
293.93
293.668
292.274
293.508
294.866
294.617
293.088
294.204
295.668
295.441
293.802
294.642
296.17
295.971
294.267
295.428
296.93
296.84
295.19
282.25
282.384
282.416
282.347
282.979
283.197
283.237
283.1
284.146
284.484
284.528
284.278
285.414
285.872
285.912
285.532
286.578
287.152
287.179
286.656
287.713
288.4
288.412
287.752
288.705
289.5
289.5
288.714
289.644
290.531
290.522
289.632
290.403
291.331
291.321
290.379
291.648
292.504
292.533
291.669
281.482
281.548
281.57
281.548
281.74
281.826
281.855
281.833
282.449
282.597
282.639
282.586
283.326
283.547
283.599
283.498
284.168
284.467
284.524
284.36
285.058
285.438
285.496
285.258
285.877
286.338
286.394
286.074
286.714
287.246
287.298
286.897
287.469
288.035
288.083
287.627
288.814
289.305
289.366
288.953
281.05
281.087
281.099
281.087
281.088
281.118
281.132
281.131
281.539
281.596
281.621
281.617
282.15
282.249
282.287
282.271
282.746
282.895
282.946
282.908
283.414
283.619
283.68
283.611
284.039
284.304
284.372
284.262
284.715
285.035
285.106
284.948
285.352
285.701
285.771
285.574
286.605
286.883
286.958
286.797
280.88
280.909
280.918
280.907
280.782
280.795
280.802
280.802
281.087
281.113
281.126
281.128
281.529
281.575
281.598
281.598
281.956
282.03
282.064
282.061
282.456
282.565
282.611
282.599
282.922
283.07
283.126
283.1
283.445
283.633
283.696
283.648
283.948
284.157
284.222
284.152
285.069
285.212
285.28
285.249
280.798
280.825
280.832
280.82
280.616
280.621
280.625
280.625
280.826
280.838
280.845
280.846
281.156
281.178
281.191
281.193
281.473
281.511
281.531
281.534
281.858
281.916
281.945
281.948
282.21
282.292
282.331
282.33
282.617
282.724
282.771
282.763
282.996
283.12
283.17
283.151
283.993
284.051
284.102
284.128
280.763
280.789
280.796
280.785
280.532
280.535
280.537
280.537
280.677
280.683
280.686
280.687
280.924
280.936
280.942
280.944
281.163
281.183
281.194
281.197
281.465
281.497
281.514
281.518
281.735
281.78
281.805
281.809
282.054
282.115
282.146
282.149
282.333
282.406
282.44
282.439
283.226
283.231
283.266
283.312
280.751
280.777
280.784
280.772
280.493
280.495
280.496
280.496
280.593
280.596
280.598
280.598
280.777
280.784
280.788
280.789
280.957
280.968
280.974
280.976
281.195
281.213
281.223
281.226
281.4
281.427
281.442
281.446
281.653
281.688
281.708
281.712
281.858
281.9
281.923
281.926
282.663
282.637
282.659
282.71
280.749
280.775
280.781
280.769
280.481
280.482
280.482
280.482
280.55
280.551
280.552
280.553
280.686
280.69
280.692
280.693
280.821
280.827
280.831
280.832
281.007
281.018
281.024
281.026
281.161
281.176
281.185
281.188
281.362
281.383
281.395
281.398
281.509
281.534
281.549
281.553
282.239
282.196
282.208
282.259
280.75
280.776
280.782
280.771
280.482
280.483
280.483
280.483
280.531
280.532
280.533
280.533
280.63
280.633
280.634
280.634
280.731
280.735
280.737
280.738
280.877
280.883
280.887
280.888
280.988
280.997
281.003
281.005
281.149
281.162
281.169
281.172
281.251
281.266
281.275
281.278
281.914
281.862
281.868
281.916
280.751
280.777
280.784
280.772
280.49
280.491
280.491
280.491
280.529
280.529
280.53
280.53
280.598
280.599
280.6
280.601
280.674
280.676
280.677
280.678
280.787
280.791
280.793
280.794
280.863
280.869
280.872
280.873
280.995
281.002
281.007
281.009
281.058
281.067
281.073
281.075
281.662
281.606
281.609
281.654
280.75
280.776
280.783
280.771
280.501
280.501
280.501
280.502
280.536
280.536
280.536
280.536
280.58
280.581
280.582
280.582
280.639
280.64
280.641
280.641
280.726
280.728
280.73
280.73
280.773
280.777
280.779
280.78
280.885
280.89
280.892
280.894
280.915
280.92
280.924
280.925
281.465
281.409
281.41
281.451
280.747
280.773
280.779
280.767
280.511
280.511
280.512
280.512
280.548
280.548
280.548
280.548
280.571
280.571
280.572
280.572
280.618
280.619
280.619
280.62
280.685
280.687
280.688
280.688
280.71
280.712
280.714
280.714
280.809
280.812
280.814
280.814
280.808
280.812
280.814
280.815
281.309
281.256
281.256
281.294
280.741
280.767
280.774
280.761
280.519
280.519
280.52
280.52
280.563
280.563
280.563
280.563
280.566
280.567
280.567
280.567
280.608
280.608
280.608
280.608
280.659
280.66
280.66
280.66
280.665
280.667
280.668
280.668
280.759
280.761
280.762
280.763
280.729
280.731
280.733
280.733
281.186
281.137
281.136
281.17
280.735
280.761
280.767
280.754
280.523
280.523
280.524
280.524
280.581
280.581
280.581
280.581
280.564
280.564
280.564
280.564
280.602
280.602
280.602
280.603
280.641
280.641
280.642
280.642
280.634
280.635
280.636
280.636
280.729
280.73
280.731
280.732
280.669
280.67
280.671
280.671
281.089
281.046
281.045
281.074
280.734
280.759
280.765
280.752
280.52
280.521
280.521
280.521
280.599
280.599
280.599
280.599
280.561
280.561
280.561
280.561
280.599
280.599
280.599
280.599
280.627
280.627
280.628
280.628
280.612
280.612
280.612
280.612
280.713
280.713
280.714
280.714
280.62
280.621
280.621
280.621
281.017
280.981
280.98
281.005
280.752
280.777
280.782
280.769
280.506
280.507
280.508
280.508
280.614
280.614
280.614
280.614
280.557
280.557
280.557
280.557
280.595
280.595
280.595
280.595
280.614
280.614
280.615
280.615
280.594
280.594
280.594
280.594
280.699
280.7
280.7
280.701
280.572
280.573
280.573
280.573
280.979
280.951
280.95
280.969
280.811
280.833
280.836
280.824
280.471
280.472
280.472
280.472
280.62
280.621
280.621
280.621
280.553
280.553
280.553
280.553
280.589
280.589
280.589
280.589
280.601
280.602
280.602
280.602
280.58
280.58
280.58
280.58
280.677
280.678
280.679
280.679
280.511
280.511
280.511
280.51
280.987
280.969
280.969
280.981
280.908
280.922
280.923
280.915
280.408
280.408
280.408
280.407
280.613
280.614
280.615
280.615
280.551
280.55
280.55
280.55
280.584
280.584
280.584
280.584
280.591
280.591
280.592
280.592
280.571
280.571
280.571
280.571
280.643
280.646
280.646
280.646
280.428
280.427
280.427
280.427
281.033
281.029
281.029
281.032
282.18
280.88
280.337
279.99
279.695
279.454
279.262
279.11
278.989
278.884
282.325
281.086
280.252
279.727
279.311
279.003
278.776
278.605
278.477
278.372
282.899
281.593
280.462
279.823
279.323
278.976
278.721
278.531
278.387
278.273
283.495
282.129
280.73
280.026
279.461
279.09
278.816
278.611
278.456
278.33
283.973
282.584
280.939
280.185
279.56
279.17
278.877
278.66
278.494
278.36
284.523
283.077
281.21
280.42
279.734
279.326
279.012
278.78
278.599
278.448
285.006
283.477
281.41
280.597
279.855
279.433
279.098
278.852
278.657
278.496
285.572
283.967
281.714
280.884
280.083
279.644
279.28
279.009
278.787
278.594
286.021
284.359
281.927
281.122
280.286
279.843
279.443
279.142
278.891
278.673
287.754
286.09
283.503
282.645
281.683
281.114
280.59
280.186
279.851
279.557
283.978
282.668
281.681
280.968
280.474
280.128
279.877
279.689
279.544
279.423
284.424
282.637
281.307
280.447
279.893
279.515
279.246
279.051
278.908
278.801
285.02
282.826
281.238
280.308
279.713
279.316
279.036
278.835
278.692
278.59
285.509
283.013
281.232
280.279
279.657
279.254
278.973
278.774
278.633
278.534
285.776
283.069
281.159
280.199
279.557
279.155
278.877
278.684
278.55
278.456
285.976
283.14
281.137
280.189
279.53
279.136
278.862
278.674
278.542
278.448
286.021
283.121
281.047
280.129
279.458
279.078
278.807
278.626
278.498
278.406
286.078
283.18
281.051
280.176
279.493
279.126
278.855
278.672
278.537
278.434
286.036
283.169
280.993
280.198
279.53
279.194
278.916
278.725
278.578
278.462
286.945
284.231
282.058
281.314
280.598
280.206
279.858
279.612
279.419
279.274
282.111
281.731
281.361
281.031
280.749
280.512
280.315
280.151
280.014
279.896
282.572
281.889
281.271
280.76
280.346
280.018
279.761
279.56
279.404
279.286
283.344
282.327
281.461
280.792
280.276
279.884
279.586
279.361
279.192
279.067
284.114
282.775
281.674
280.878
280.282
279.847
279.527
279.289
279.113
278.986
284.69
283.067
281.765
280.871
280.217
279.756
279.424
279.183
279.007
278.881
285.199
283.339
281.865
280.902
280.205
279.731
279.393
279.151
278.975
278.847
285.547
283.491
281.872
280.866
280.139
279.662
279.323
279.084
278.909
278.782
285.869
283.669
281.932
280.906
280.16
279.686
279.346
279.105
278.924
278.789
286.074
283.756
281.918
280.915
280.177
279.722
279.379
279.131
278.942
278.798
287.062
284.74
282.865
281.884
281.116
280.625
280.236
279.952
279.732
279.572
281.504
281.358
281.18
280.999
280.829
280.674
280.536
280.416
280.31
280.213
281.71
281.421
281.091
280.775
280.494
280.254
280.053
279.887
279.751
279.644
282.339
281.855
281.344
280.889
280.504
280.189
279.933
279.73
279.57
279.447
283.073
282.356
281.649
281.057
280.578
280.2
279.904
279.674
279.496
279.362
283.701
282.74
281.841
281.128
280.57
280.145
279.82
279.573
279.385
279.247
284.317
283.116
282.036
281.221
280.598
280.139
279.795
279.537
279.342
279.198
284.807
283.378
282.132
281.235
280.563
280.081
279.725
279.462
279.264
279.118
285.28
283.648
282.258
281.302
280.593
280.099
279.735
279.466
279.262
279.109
285.649
283.826
282.311
281.333
280.613
280.12
279.749
279.474
279.262
279.102
286.696
284.77
283.195
282.209
281.461
280.94
280.539
280.237
280.005
279.838
281.096
281.049
280.978
280.894
280.806
280.719
280.636
280.559
280.486
280.414
281.103
280.989
280.835
280.667
280.502
280.348
280.209
280.088
279.985
279.9
281.557
281.35
281.086
280.817
280.564
280.339
280.145
279.982
279.848
279.741
282.151
281.813
281.415
281.032
280.69
280.398
280.154
279.954
279.794
279.669
282.697
282.203
281.657
281.161
280.735
280.385
280.101
279.874
279.695
279.558
283.276
282.61
281.912
281.31
280.809
280.411
280.095
279.848
279.655
279.507
283.771
282.924
282.076
281.378
280.814
280.378
280.039
279.778
279.575
279.422
284.272
283.248
282.259
281.482
280.868
280.405
280.049
279.776
279.564
279.402
284.69
283.484
282.37
281.541
280.898
280.421
280.053
279.771
279.552
279.383
285.728
284.399
283.214
282.354
281.679
281.178
280.787
280.486
280.252
280.083
280.923
280.905
280.873
280.831
280.785
280.736
280.688
280.641
280.593
280.543
280.791
280.74
280.664
280.574
280.478
280.384
280.294
280.211
280.138
280.077
281.106
281.009
280.871
280.714
280.555
280.405
280.268
280.147
280.043
279.959
281.558
281.394
281.171
280.933
280.703
280.492
280.306
280.147
280.014
279.907
281.99
281.736
281.414
281.086
280.782
280.514
280.285
280.093
279.936
279.811
282.48
282.12
281.686
281.267
280.891
280.57
280.303
280.083
279.906
279.767
282.914
282.432
281.88
281.372
280.93
280.564
280.266
280.025
279.832
279.683
283.376
282.763
282.094
281.506
281.008
280.606
280.283
280.025
279.819
279.66
283.77
283.014
282.237
281.587
281.049
280.624
280.283
280.014
279.8
279.633
284.754
283.894
283.046
282.353
281.783
281.333
280.973
280.688
280.463
280.299
280.839
280.833
280.818
280.797
280.773
280.747
280.719
280.691
280.661
280.625
280.621
280.597
280.558
280.51
280.455
280.399
280.343
280.29
280.241
280.2
280.837
280.789
280.715
280.625
280.529
280.432
280.34
280.255
280.18
280.117
281.177
281.093
280.969
280.824
280.675
280.53
280.396
280.276
280.173
280.087
281.507
281.374
281.186
280.976
280.768
280.573
280.398
280.245
280.116
280.01
281.903
281.708
281.444
281.164
280.895
280.65
280.436
280.253
280.1
279.977
282.259
281.988
281.64
281.286
280.957
280.667
280.418
280.21
280.038
279.901
282.653
282.296
281.859
281.435
281.051
280.722
280.445
280.216
280.028
279.88
282.987
282.532
282.011
281.528
281.102
280.744
280.447
280.204
280.006
279.849
283.893
283.363
282.782
282.256
281.797
281.416
281.1
280.843
280.636
280.484
280.804
280.802
280.795
280.784
280.771
280.757
280.742
280.725
280.706
280.679
280.535
280.523
280.502
280.475
280.444
280.411
280.377
280.344
280.313
280.286
280.683
280.657
280.616
280.564
280.506
280.445
280.385
280.328
280.276
280.231
280.936
280.891
280.82
280.733
280.637
280.541
280.448
280.361
280.285
280.219
281.185
281.112
281.001
280.869
280.73
280.593
280.465
280.349
280.247
280.163
281.499
281.391
281.23
281.047
280.86
280.681
280.517
280.372
280.246
280.143
281.78
281.626
281.408
281.168
280.931
280.711
280.513
280.342
280.196
280.077
282.103
281.894
281.615
281.319
281.034
280.776
280.55
280.356
280.194
280.062
282.368
282.098
281.758
281.412
281.089
280.802
280.554
280.345
280.171
280.03
283.191
282.872
282.486
282.102
281.749
281.44
281.175
280.954
280.771
280.635
280.791
280.792
280.788
280.783
280.776
280.768
280.759
280.75
280.736
280.715
280.495
280.489
280.478
280.463
280.445
280.425
280.405
280.385
280.366
280.349
280.596
280.582
280.559
280.528
280.493
280.455
280.417
280.38
280.345
280.315
280.785
280.759
280.718
280.665
280.605
280.541
280.478
280.418
280.364
280.316
280.97
280.929
280.863
280.78
280.688
280.594
280.503
280.419
280.342
280.278
281.217
281.155
281.057
280.938
280.811
280.683
280.562
280.451
280.353
280.27
281.432
281.343
281.207
281.047
280.881
280.718
280.567
280.432
280.313
280.215
281.691
281.569
281.391
281.189
280.985
280.79
280.612
280.456
280.32
280.208
281.894
281.734
281.515
281.274
281.037
280.816
280.617
280.445
280.298
280.177
282.637
282.448
282.195