/*--------------------------------*- C++ -*----------------------------------*\
| =========                 |                                                 |
| \\      /  F ield         | foam-extend: Open Source CFD                    |
|  \\    /   O peration     | Version:     4.0                                |
|   \\  /    A nd           | Web:         http://www.foam-extend.org         |
|    \\/     M anipulation  |                                                 |
\*---------------------------------------------------------------------------*/
FoamFile
{
    version     2.0;
    format      ascii;
    class       volVectorField;
    location    "2150";
    object      Urel;
}
// * * * * * * * * * * * * * * * * * * * * * * * * * * * * * * * * * * * * * //

dimensions      [0 1 -1 0 0 0 0];

internalField   nonuniform List<vector> 
34480
(
(209.006 -9.79406 -19.0912)
(209.326 -9.29376 -21.5538)
(209.483 -8.56844 -23.9804)
(209.49 -7.64395 -26.414)
(209.34 -6.55911 -28.9928)
(208.999 -5.31671 -31.8923)
(208.383 -3.89706 -35.513)
(207.216 -2.18393 -40.1992)
(204.545 0.0513023 -48.1214)
(197.607 4.25567 -75.2919)
(209.939 -12.8031 -26.8099)
(210.198 -11.6759 -29.5939)
(210.325 -10.3942 -32.2537)
(210.298 -8.97216 -34.8569)
(210.063 -7.44641 -37.5206)
(209.56 -5.83674 -40.4522)
(208.753 -4.16213 -44.1114)
(207.46 -2.36858 -49.2402)
(204.324 -0.294605 -58.0612)
(196.164 3.65871 -88.6313)
(210.628 -17.1006 -33.7467)
(210.862 -15.5494 -36.832)
(210.956 -13.821 -39.7792)
(210.885 -11.9095 -42.602)
(210.59 -9.87071 -45.4278)
(210.062 -7.73875 -48.5134)
(209.31 -5.54115 -52.3872)
(208.167 -3.20821 -58.0779)
(204.866 -0.573014 -67.7764)
(195.655 4.13163 -101.291)
(210.634 -20.4959 -41.1589)
(210.87 -18.4139 -44.5386)
(210.979 -16.1562 -47.7253)
(210.942 -13.7046 -50.7503)
(210.708 -11.1158 -53.7481)
(210.293 -8.42701 -57.0047)
(209.676 -5.67074 -61.0513)
(208.697 -2.76815 -67.1364)
(205.37 0.453765 -77.4583)
(195.357 5.84527 -112.88)
(210.793 -24.9727 -48.0206)
(211.057 -22.481 -51.6778)
(211.205 -19.776 -55.1511)
(211.23 -16.8389 -58.4258)
(211.087 -13.7459 -61.6617)
(210.808 -10.534 -65.1565)
(210.34 -7.2302 -69.4381)
(209.544 -3.74496 -75.9424)
(206.316 0.101794 -86.932)
(195.659 6.19637 -123.872)
(210.678 -28.2272 -55.6169)
(210.953 -25.2356 -59.5109)
(211.121 -22.0161 -63.1527)
(211.18 -18.5478 -66.5711)
(211.104 -14.8981 -69.9181)
(210.942 -11.1097 -73.516)
(210.627 -7.21151 -77.8769)
(210.046 -3.11642 -84.6083)
(207.066 1.37575 -96.0829)
(196.009 8.1077 -134.171)
(210.759 -33.0091 -62.4751)
(211.075 -29.6284 -66.6093)
(211.271 -25.9844 -70.5007)
(211.368 -22.0663 -74.1257)
(211.352 -17.9491 -77.6656)
(211.287 -13.6694 -81.4436)
(211.112 -9.23167 -85.9756)
(210.748 -4.53279 -92.9911)
(208.098 0.698537 -105.044)
(196.747 8.26136 -144.125)
(210.586 -36.1793 -70.3222)
(210.907 -32.3267 -74.6635)
(211.082 -28.1649 -78.683)
(211.138 -23.7087 -82.4171)
(211.081 -19.0118 -86.0101)
(210.998 -14.1316 -89.7902)
(210.869 -9.06537 -94.2568)
(210.661 -3.70554 -101.229)
(208.42 2.37052 -113.47)
(197.103 10.8375 -153.055)
(210.531 -41.4427 -77.1515)
(210.895 -37.2229 -81.6789)
(211.102 -32.6856 -85.8814)
(211.196 -27.8698 -89.7666)
(211.19 -22.8306 -93.5199)
(211.151 -17.5979 -97.4456)
(211.091 -12.1155 -102.078)
(211.023 -6.23084 -109.204)
(209.11 0.77479 -121.818)
(197.679 10.7322 -161.342)
(209.566 -44.6438 -85.1135)
(209.841 -40.0417 -89.922)
(209.788 -35.0028 -94.327)
(209.429 -29.6475 -98.3964)
(208.811 -23.9893 -102.257)
(208.025 -18.0692 -106.188)
(207.156 -11.8217 -110.661)
(206.369 -5.05624 -117.278)
(204.432 2.95958 -129.04)
(194.246 14.3052 -166.631)
(205.891 1.91201 3.00065)
(206.369 1.10947 1.54399)
(206.556 0.426365 -0.00990269)
(206.473 -0.117592 -1.61002)
(206.095 -0.546706 -3.31978)
(205.333 -0.861511 -5.15156)
(203.986 -1.06611 -7.15909)
(201.62 -1.17197 -9.31732)
(198.154 -1.25705 -11.245)
(193.579 -1.15919 -14.3934)
(207.19 2.86807 2.79814)
(207.621 2.16372 1.16201)
(207.793 1.51886 -0.49207)
(207.704 0.943361 -2.18895)
(207.292 0.415998 -3.9962)
(206.437 -0.0692786 -5.97172)
(204.943 -0.52759 -8.20864)
(202.358 -0.993861 -10.9581)
(198.189 -1.58428 -14.0067)
(192.505 -1.82449 -20.5815)
(208.138 2.57697 3.30747)
(208.547 1.77088 1.54509)
(208.705 1.04422 -0.256458)
(208.605 0.42208 -2.08995)
(208.169 -0.134109 -4.0296)
(207.295 -0.636883 -6.15916)
(205.81 -1.11556 -8.66756)
(203.233 -1.58682 -12.0867)
(198.688 -2.1577 -16.3331)
(192.069 -2.07169 -26.7166)
(208.381 3.17733 3.30402)
(208.796 2.40279 1.45661)
(208.975 1.69378 -0.403004)
(208.917 1.08762 -2.29668)
(208.544 0.545809 -4.30977)
(207.772 0.0566356 -6.56869)
(206.4 -0.413025 -9.29927)
(203.916 -0.85603 -13.2586)
(199.142 -1.3642 -18.4765)
(191.709 -0.934157 -32.4542)
(208.734 2.66781 3.83894)
(209.177 1.8084 1.93631)
(209.395 1.04155 -0.0198959)
(209.401 0.407994 -2.00826)
(209.12 -0.147504 -4.14584)
(208.484 -0.636243 -6.58644)
(207.263 -1.0931 -9.57226)
(204.941 -1.48924 -14.0629)
(200.089 -1.9029 -20.2309)
(191.948 -1.07356 -37.6933)
(208.769 3.39257 3.6349)
(209.227 2.5407 1.7205)
(209.47 1.78309 -0.2063)
(209.52 1.16321 -2.17518)
(209.312 0.634393 -4.29737)
(208.804 0.182199 -6.77281)
(207.748 -0.224625 -9.84329)
(205.647 -0.54853 -14.6622)
(200.883 -0.830656 -21.5476)
(192.217 0.364169 -42.2102)
(208.974 2.5665 4.16065)
(209.467 1.61571 2.23811)
(209.742 0.786041 0.259594)
(209.837 0.11383 -1.74915)
(209.697 -0.451095 -3.9355)
(209.304 -0.920327 -6.51549)
(208.411 -1.31039 -9.74425)
(206.554 -1.56863 -14.9177)
(201.997 -1.65661 -22.5677)
(192.907 0.000746146 -46.2453)
(208.889 3.37366 3.69629)
(209.39 2.40938 1.80401)
(209.654 1.59791 -0.0877712)
(209.723 0.950547 -2.02399)
(209.567 0.440928 -4.12007)
(209.196 0.0369739 -6.62256)
(208.396 -0.264241 -9.7811)
(206.76 -0.41867 -15.0052)
(202.531 -0.208369 -23.0526)
(193.315 1.83426 -49.2177)
(208.901 2.05544 4.24562)
(209.434 0.97735 2.40242)
(209.726 0.0660871 0.526373)
(209.832 -0.689026 -1.37738)
(209.733 -1.31854 -3.48042)
(209.435 -1.83489 -6.03024)
(208.757 -2.1902 -9.3352)
(207.349 -2.32175 -14.7935)
(203.459 -1.74197 -23.4885)
(193.991 1.00288 -51.4983)
(207.979 2.86394 3.63734)
(208.456 1.69321 1.78995)
(208.573 0.796385 -0.0343653)
(208.36 0.0678281 -1.9052)
(207.832 -0.474186 -3.92966)
(207.024 -0.855639 -6.35367)
(205.824 -1.01331 -9.46958)
(204.022 -0.832131 -14.5639)
(200.281 0.222238 -23.0379)
(191.634 4.03743 -51.3449)
(203.517 1.42771 2.33447)
(204.02 0.83336 1.21638)
(204.201 0.302324 -0.0131945)
(204.097 -0.13196 -1.26335)
(203.697 -0.482565 -2.55457)
(202.95 -0.746916 -3.83241)
(201.764 -0.934791 -5.04904)
(199.989 -1.07171 -6.05478)
(197.434 -1.24308 -6.4985)
(194.217 -1.43242 -6.51689)
(204.912 2.41379 2.31348)
(205.407 1.87144 0.946358)
(205.587 1.34515 -0.448606)
(205.464 0.854509 -1.86561)
(205 0.389427 -3.33122)
(204.111 -0.055447 -4.84804)
(202.638 -0.493427 -6.37966)
(200.31 -0.956144 -7.86293)
(196.687 -1.55497 -8.80241)
(191.847 -2.13698 -9.81069)
(205.946 2.21144 2.94843)
(206.446 1.52822 1.39578)
(206.627 0.890022 -0.208459)
(206.502 0.326577 -1.83782)
(206.014 -0.194166 -3.53862)
(205.061 -0.682131 -5.32758)
(203.445 -1.16207 -7.21451)
(200.8 -1.66417 -9.29194)
(196.298 -2.33275 -11.0027)
(189.856 -2.9117 -13.584)
(206.343 2.89633 2.99466)
(206.865 2.21968 1.31853)
(207.071 1.57893 -0.380491)
(206.981 1.01384 -2.11204)
(206.53 0.490933 -3.94007)
(205.615 0.0004413 -5.92286)
(203.982 -0.489529 -8.10636)
(201.169 -0.996411 -10.7405)
(195.93 -1.68155 -13.2006)
(187.994 -2.16681 -17.5588)
(206.844 2.42583 3.56934)
(207.399 1.64938 1.80596)
(207.641 0.940159 -0.0191309)
(207.608 0.339964 -1.87706)
(207.227 -0.201666 -3.86922)
(206.4 -0.693231 -6.0861)
(204.827 -1.17022 -8.60247)
(201.969 -1.63865 -11.8316)
(196.183 -2.2867 -15.1302)
(186.925 -2.57824 -21.5719)
(207.01 3.1997 3.3903)
(207.584 2.4169 1.59439)
(207.853 1.70733 -0.222034)
(207.861 1.11443 -2.08405)
(207.543 0.593631 -4.09197)
(206.814 0.132602 -6.38731)
(205.34 -0.304105 -9.06289)
(202.54 -0.716052 -12.7146)
(196.408 -1.27711 -16.7151)
(186.06 -1.34047 -25.3332)
(207.327 2.39014 3.93935)
(207.933 1.50254 2.11717)
(208.232 0.719834 0.231731)
(208.286 0.0782045 -1.6891)
(208.03 -0.470758 -3.78505)
(207.4 -0.935359 -6.22084)
(206.045 -1.33804 -9.12154)
(203.365 -1.66961 -13.232)
(197.058 -2.06903 -18.0275)
(185.781 -1.79954 -28.9565)
(207.335 3.23536 3.47934)
(207.948 2.33226 1.68399)
(208.241 1.5656 -0.117218)
(208.278 0.948399 -1.96978)
(208.015 0.454101 -3.98444)
(207.413 0.0564195 -6.36711)
(206.143 -0.257475 -9.26041)
(203.616 -0.488115 -13.5543)
(197.324 -0.620795 -18.8723)
(185.385 -0.0698412 -31.8729)
(207.427 1.90358 4.03321)
(208.059 0.887425 2.27541)
(208.374 0.0348625 0.473041)
(208.439 -0.66076 -1.36131)
(208.218 -1.23133 -3.3876)
(207.678 -1.6871 -5.81501)
(206.519 -1.99275 -8.87637)
(204.186 -2.12681 -13.5149)
(198.028 -1.86082 -19.6421)
(185.305 -0.799329 -34.2641)
(206.57 2.76972 3.39261)
(207.15 1.67678 1.66407)
(207.336 0.850711 -0.0523648)
(207.164 0.187384 -1.82434)
(206.627 -0.293649 -3.74834)
(205.715 -0.615383 -6.03807)
(204.199 -0.726526 -8.92227)
(201.629 -0.547175 -13.3057)
(195.608 0.217592 -19.5469)
(182.826 2.30026 -34.6947)
(201.781 0.948909 1.70189)
(202.218 0.547502 0.911506)
(202.369 0.165431 0.00798305)
(202.27 -0.158077 -0.896347)
(201.922 -0.428799 -1.80002)
(201.306 -0.641375 -2.62144)
(200.395 -0.808029 -3.29564)
(199.161 -0.952273 -3.68717)
(197.602 -1.1295 -3.58049)
(195.871 -1.36507 -2.75288)
(203.102 1.90702 1.79163)
(203.57 1.53153 0.718351)
(203.733 1.13436 -0.387526)
(203.602 0.741337 -1.49695)
(203.154 0.353659 -2.60156)
(202.344 -0.0314629 -3.67084)
(201.095 -0.424687 -4.62875)
(199.302 -0.848478 -5.34696)
(196.838 -1.37102 -5.40301)
(194.04 -1.93828 -4.6197)
(204.091 1.75934 2.50388)
(204.601 1.21943 1.20639)
(204.777 0.689618 -0.150545)
(204.635 0.204063 -1.51776)
(204.136 -0.260705 -2.91197)
(203.207 -0.713014 -4.31326)
(201.716 -1.17228 -5.6552)
(199.467 -1.66479 -6.84629)
(196.113 -2.29623 -7.29997)
(192.033 -2.99199 -6.92407)
(204.55 2.526 2.58753)
(205.107 1.97159 1.13218)
(205.312 1.42022 -0.354227)
(205.189 0.915537 -1.8609)
(204.689 0.432312 -3.42349)
(203.722 -0.0387558 -5.05621)
(202.094 -0.526744 -6.71325)
(199.508 -1.0541 -8.37931)
(195.291 -1.75993 -9.29353)
(189.826 -2.5262 -9.54041)
(205.136 2.10046 3.20323)
(205.737 1.43144 1.6258)
(205.977 0.799694 -0.0195814)
(205.896 0.249395 -1.68709)
(205.43 -0.261972 -3.45141)
(204.488 -0.742349 -5.35608)
(202.81 -1.22469 -7.38175)
(200.007 -1.72827 -9.61121)
(195.038 -2.44259 -11.1402)
(188.234 -3.18172 -12.3681)
(205.392 2.92891 3.05319)
(206.021 2.23884 1.41885)
(206.288 1.59579 -0.243424)
(206.242 1.04521 -1.94349)
(205.816 0.548312 -3.75838)
(204.921 0.0926245 -5.77989)
(203.252 -0.35955 -8.01103)
(200.342 -0.826812 -10.6685)
(194.768 -1.50727 -12.7414)
(186.757 -2.16694 -15.1352)
(205.794 2.14574 3.63136)
(206.456 1.34287 1.94802)
(206.751 0.62303 0.194809)
(206.744 0.0238935 -1.58866)
(206.366 -0.498545 -3.52079)
(205.536 -0.952077 -5.71747)
(203.914 -1.36324 -8.22158)
(200.975 -1.74503 -11.3674)
(194.943 -2.3008 -14.1236)
(185.841 -2.77432 -17.9496)
(205.881 3.04165 3.18229)
(206.551 2.21917 1.51835)
(206.844 1.5107 -0.158989)
(206.826 0.933636 -1.88635)
(206.442 0.463074 -3.75566)
(205.629 0.0767648 -5.92597)
(204.046 -0.24724 -8.46747)
(201.145 -0.536213 -11.8565)
(194.855 -0.880945 -15.1101)
(184.867 -1.19409 -20.3185)
(206.041 1.70839 3.76488)
(206.722 0.770848 2.12391)
(207.031 -0.0164985 0.424181)
(207.037 -0.652951 -1.30773)
(206.687 -1.16983 -3.21009)
(205.917 -1.57429 -5.43794)
(204.391 -1.84587 -8.14325)
(201.58 -1.99552 -11.8891)
(195.219 -1.94763 -15.9863)
(184.256 -1.89927 -22.3808)
(205.253 2.64813 3.10288)
(205.886 1.64529 1.51498)
(206.105 0.893111 -0.0756678)
(205.941 0.293658 -1.72653)
(205.37 -0.131733 -3.51628)
(204.346 -0.403144 -5.61266)
(202.581 -0.48177 -8.16697)
(199.58 -0.316652 -11.7256)
(193.238 0.228207 -16.0578)
(181.784 1.20168 -22.8633)
(200.571 0.550922 1.19405)
(200.913 0.294715 0.666204)
(201.028 0.0338507 0.0358422)
(200.952 -0.195488 -0.58302)
(200.694 -0.396864 -1.18737)
(200.255 -0.562604 -1.69747)
(199.643 -0.702273 -2.06659)
(198.88 -0.831006 -2.20478)
(198.015 -0.975283 -2.02033)
(197.164 -1.14178 -1.42913)
(201.727 1.43409 1.31158)
(202.12 1.19958 0.510464)
(202.257 0.920293 -0.321056)
(202.144 0.621725 -1.14546)
(201.771 0.313077 -1.93579)
(201.122 -0.00440169 -2.64887)
(200.178 -0.335225 -3.21059)
(198.933 -0.689197 -3.51257)
(197.411 -1.09457 -3.32757)
(195.913 -1.51165 -2.51767)
(202.576 1.2922 2.05074)
(203.047 0.890083 1.01594)
(203.209 0.470276 -0.0830346)
(203.075 0.0684653 -1.18016)
(202.622 -0.330128 -2.2674)
(201.813 -0.730143 -3.30329)
(200.582 -1.1448 -4.20327)
(198.864 -1.59159 -4.83737)
(196.581 -2.12579 -4.81328)
(194.192 -2.69463 -3.92703)
(203.015 2.11682 2.14874)
(203.558 1.69056 0.935842)
(203.754 1.23702 -0.315169)
(203.625 0.802725 -1.57394)
(203.134 0.372376 -2.84688)
(202.224 -0.0605525 -4.11432)
(200.773 -0.520195 -5.29405)
(198.641 -1.02575 -6.27059)
(195.551 -1.66516 -6.46645)
(192.082 -2.36951 -5.60765)
(203.614 1.72826 2.79466)
(204.22 1.17845 1.43134)
(204.451 0.635286 -0.00622283)
(204.347 0.145443 -1.45359)
(203.857 -0.323364 -2.95334)
(202.907 -0.777102 -4.50637)
(201.315 -1.24428 -6.04455)
(198.859 -1.74723 -7.49224)
(194.994 -2.42682 -8.08619)
(190.377 -3.19427 -7.53453)
(203.911 2.60672 2.67001)
(204.559 2.02413 1.22727)
(204.82 1.45972 -0.251506)
(204.74 0.961836 -1.75744)
(204.262 0.500376 -3.33645)
(203.307 0.0641809 -5.02959)
(201.635 -0.384137 -6.784)
(198.951 -0.870859 -8.60571)
(194.391 -1.55967 -9.55986)
(188.65 -2.35344 -9.45969)
(204.36 1.85309 3.27602)
(205.047 1.15079 1.76148)
(205.336 0.505506 0.16941)
(205.288 -0.0422503 -1.44456)
(204.838 -0.529354 -3.1681)
(203.905 -0.962761 -5.06289)
(202.203 -1.37127 -7.11174)
(199.368 -1.77989 -9.39675)
(194.212 -2.38 -10.8782)
(187.388 -3.09983 -11.5024)
(204.501 2.80579 2.83966)
(205.202 2.0796 1.33425)
(205.493 1.44049 -0.193242)
(205.437 0.91198 -1.76619)
(204.978 0.473321 -3.44881)
(204.042 0.105917 -5.34425)
(202.325 -0.218814 -7.45831)
(199.418 -0.543363 -9.99069)
(193.837 -0.991422 -11.8664)
(186.053 -1.6567 -13.2457)
(204.714 1.47462 3.4576)
(205.423 0.630464 1.95891)
(205.727 -0.0843716 0.38667)
(205.689 -0.659668 -1.21489)
(205.254 -1.12426 -2.95733)
(204.346 -1.48274 -4.93704)
(202.643 -1.72727 -7.22506)
(199.713 -1.89039 -10.0745)
(193.887 -1.9819 -12.6838)
(185.055 -2.39476 -14.8188)
(203.988 2.50155 2.77496)
(204.653 1.5994 1.34492)
(204.895 0.92518 -0.103541)
(204.739 0.389884 -1.61308)
(204.151 0.0174567 -3.24015)
(203.066 -0.209346 -5.10191)
(201.198 -0.264045 -7.27261)
(198.1 -0.119011 -10.0005)
(192.172 0.260005 -12.8111)
(182.632 0.640352 -15.1311)
(199.739 0.251497 0.824982)
(199.993 0.0929393 0.488502)
(200.074 -0.0797432 0.0636817)
(200.023 -0.236686 -0.342645)
(199.848 -0.382274 -0.735342)
(199.56 -0.507521 -1.04646)
(199.175 -0.618673 -1.25085)
(198.723 -0.723205 -1.29411)
(198.246 -0.831845 -1.14384)
(197.791 -0.943385 -0.777519)
(200.716 1.04006 0.911078)
(201.019 0.910675 0.336933)
(201.125 0.727817 -0.259977)
(201.037 0.51207 -0.845023)
(200.754 0.276842 -1.38637)
(200.276 0.0263568 -1.84323)
(199.612 -0.238137 -2.15823)
(198.793 -0.517205 -2.25866)
(197.884 -0.815765 -2.03778)
(197.077 -1.104 -1.43098)
(201.389 0.861129 1.63632)
(201.787 0.574571 0.842512)
(201.925 0.254345 -0.0150357)
(201.812 -0.0665237 -0.863581)
(201.435 -0.396217 -1.68073)
(200.783 -0.735226 -2.41784)
(199.838 -1.09014 -2.99857)
(198.609 -1.46962 -3.31458)
(197.135 -1.89572 -3.14391)
(195.748 -2.32564 -2.34656)
(201.756 1.7116 1.72074)
(202.245 1.40341 0.746548)
(202.421 1.04579 -0.268971)
(202.3 0.685008 -1.28294)
(201.858 0.314711 -2.28016)
(201.067 -0.0674677 -3.22096)
(199.869 -0.478194 -4.01843)
(198.229 -0.929954 -4.5453)
(196.094 -1.46899 -4.43731)
(193.953 -2.04112 -3.43919)
(202.314 1.34271 2.37787)
(202.882 0.91047 1.23699)
(203.096 0.459027 0.018284)
(202.985 0.0355727 -1.19994)
(202.513 -0.381948 -2.43247)
(201.633 -0.796161 -3.64932)
(200.237 -1.22881 -4.76365)
(198.233 -1.69939 -5.64699)
(195.414 -2.29759 -5.77449)
(192.407 -2.96243 -4.76584)
(202.608 2.25791 2.26822)
(203.234 1.78692 1.03222)
(203.48 1.30727 -0.246264)
(203.382 0.869085 -1.54166)
(202.896 0.451709 -2.87062)
(201.962 0.046943 -4.23232)
(200.421 -0.378017 -5.54359)
(198.121 -0.849612 -6.71203)
(194.639 -1.48351 -7.0465)
(190.722 -2.22672 -6.09556)
(203.067 1.53045 2.89491)
(203.744 0.936493 1.56808)
(204.018 0.3731 0.157102)
(203.943 -0.116596 -1.26691)
(203.462 -0.561086 -2.76039)
(202.509 -0.965411 -4.33673)
(200.873 -1.35724 -5.93759)
(198.339 -1.76624 -7.50455)
(194.244 -2.34346 -8.22489)
(189.394 -3.07494 -7.55881)
(203.237 2.54044 2.4686)
(203.934 1.92007 1.1405)
(204.215 1.35827 -0.217657)
(204.133 0.884999 -1.61508)
(203.637 0.485011 -3.08687)
(202.657 0.143807 -4.68418)
(200.955 -0.169091 -6.3613)
(198.265 -0.501432 -8.14048)
(193.683 -0.973522 -9.13457)
(187.952 -1.7171 -8.79363)
(203.486 1.21046 3.12339)
(204.193 0.469719 1.7858)
(204.485 -0.167073 0.361031)
(204.416 -0.679514 -1.08786)
(203.932 -1.09262 -2.64462)
(202.96 -1.40845 -4.35241)
(201.234 -1.62851 -6.21892)
(198.44 -1.79486 -8.27895)
(193.521 -1.95819 -9.83234)
(186.813 -2.51408 -9.91473)
(202.81 2.33624 2.41869)
(203.479 1.54224 1.15897)
(203.73 0.949101 -0.133831)
(203.58 0.478235 -1.48532)
(202.992 0.156475 -2.92824)
(201.896 -0.0308471 -4.53204)
(200.045 -0.0680922 -6.30671)
(197.091 0.0555821 -8.29697)
(191.993 0.313707 -9.9838)
(184.565 0.412614 -10.0827)
(199.165 0.041953 0.576456)
(199.35 -0.0567517 0.369848)
(199.405 -0.170595 0.0877065)
(199.373 -0.275986 -0.172383)
(199.262 -0.379444 -0.425488)
(199.085 -0.471581 -0.61643)
(198.854 -0.556247 -0.736389)
(198.596 -0.635713 -0.75273)
(198.334 -0.712987 -0.658284)
(198.073 -0.784206 -0.45165)
(199.986 0.740363 0.599224)
(200.204 0.682026 0.200419)
(200.282 0.571712 -0.211054)
(200.219 0.42322 -0.609689)
(200.018 0.251356 -0.966713)
(199.688 0.0618078 -1.25022)
(199.246 -0.140084 -1.42129)
(198.729 -0.349956 -1.43691)
(198.195 -0.562672 -1.25229)
(197.757 -0.754593 -0.850862)
(200.483 0.495137 1.28449)
(200.797 0.296017 0.694579)
(200.908 0.0586656 0.0459582)
(200.819 -0.18975 -0.590903)
(200.527 -0.453483 -1.18878)
(200.033 -0.729804 -1.70211)
(199.347 -1.01998 -2.07143)
(198.505 -1.32521 -2.22261)
(197.578 -1.64897 -2.04291)
(196.773 -1.95795 -1.47332)
(200.755 1.34169 1.33096)
(201.168 1.13215 0.574235)
(201.318 0.861142 -0.222492)
(201.213 0.571444 -1.01214)
(200.843 0.263286 -1.7677)
(200.198 -0.0617416 -2.44276)
(199.264 -0.412219 -2.96159)
(198.061 -0.793109 -3.22041)
(196.635 -1.2226 -3.0138)
(195.322 -1.65834 -2.19314)
(201.236 0.972323 1.97851)
(201.739 0.646065 1.05208)
(201.927 0.282681 0.0483503)
(201.822 -0.0729381 -0.947835)
(201.4 -0.434097 -1.93176)
(200.637 -0.799708 -2.85711)
(199.484 -1.18387 -3.63813)
(197.929 -1.59988 -4.14868)
(195.951 -2.0973 -4.06613)
(194.017 -2.62816 -3.11866)
(201.495 1.90596 1.87027)
(202.068 1.54143 0.842297)
(202.29 1.14682 -0.231457)
(202.187 0.771847 -1.3137)
(201.73 0.404529 -2.39845)
(200.878 0.0403698 -3.4574)
(199.544 -0.345839 -4.3985)
(197.674 -0.775423 -5.09981)
(195.125 -1.32028 -5.10536)
(192.502 -1.94601 -4.03123)
(201.936 1.19674 2.50673)
(202.571 0.710863 1.37509)
(202.822 0.231994 0.155384)
(202.733 -0.195587 -1.06944)
(202.26 -0.591984 -2.32895)
(201.354 -0.95956 -3.60154)
(199.88 -1.32192 -4.80834)
(197.738 -1.70706 -5.82722)
(194.629 -2.22199 -6.09934)
(191.264 -2.86481 -5.07363)
(202.107 2.25983 2.08482)
(202.772 1.74802 0.943647)
(203.035 1.26761 -0.233417)
(202.937 0.853972 -1.44303)
(202.44 0.497698 -2.69416)
(201.486 0.188431 -3.99741)
(199.908 -0.102197 -5.27595)
(197.559 -0.417815 -6.45336)
(193.976 -0.858012 -6.88328)
(189.878 -1.53928 -5.92355)
(202.376 0.926429 2.77539)
(203.056 0.293455 1.6098)
(203.329 -0.262353 0.346082)
(203.241 -0.711237 -0.935314)
(202.744 -1.07374 -2.29235)
(201.778 -1.3495 -3.72563)
(200.144 -1.54605 -5.20099)
(197.644 -1.70597 -6.62905)
(193.702 -1.88961 -7.46388)
(188.788 -2.41864 -6.70035)
(201.738 2.16033 2.04544)
(202.385 1.47799 0.96247)
(202.634 0.967454 -0.165541)
(202.49 0.560767 -1.34752)
(201.921 0.287418 -2.59375)
(200.865 0.134958 -3.93387)
(199.129 0.110277 -5.33122)
(196.473 0.213088 -6.71455)
(192.317 0.384832 -7.61564)
(186.785 0.372421 -6.78133)
(198.758 -0.0986647 0.417869)
(198.895 -0.162891 0.29564)
(198.933 -0.239854 0.1071)
(198.914 -0.310489 -0.0577869)
(198.847 -0.383646 -0.222942)
(198.742 -0.450171 -0.343316)
(198.608 -0.512622 -0.420346)
(198.462 -0.570582 -0.432976)
(198.316 -0.623861 -0.383279)
(198.149 -0.668412 -0.273354)
(199.462 0.5304 0.367438)
(199.609 0.516624 0.0968823)
(199.664 0.457542 -0.176437)
(199.622 0.360484 -0.437871)
(199.488 0.24006 -0.664819)
(199.27 0.102267 -0.835051)
(198.988 -0.0456941 -0.924291)
(198.669 -0.197497 -0.908704)
(198.358 -0.345134 -0.771835)
(198.115 -0.470916 -0.513426)
(199.803 0.20457 1.00228)
(200.037 0.0663707 0.574773)
(200.121 -0.106379 0.0962811)
(200.056 -0.293809 -0.370632)
(199.841 -0.498472 -0.800055)
(199.486 -0.716008 -1.15455)
(199.01 -0.944305 -1.39154)
(198.45 -1.17983 -1.46533)
(197.874 -1.41748 -1.32183)
(197.405 -1.63243 -0.946404)
(199.98 1.02611 0.994831)
(200.309 0.892571 0.424684)
(200.431 0.694759 -0.180467)
(200.347 0.469648 -0.776122)
(200.054 0.221459 -1.33164)
(199.555 -0.0454192 -1.80313)
(198.86 -0.332816 -2.13146)
(198.008 -0.639839 -2.24271)
(197.073 -0.968173 -2.02965)
(196.269 -1.28596 -1.42363)
(200.367 0.638856 1.6153)
(200.789 0.401205 0.88353)
(200.947 0.117221 0.0792056)
(200.856 -0.173125 -0.713688)
(200.5 -0.476563 -1.47936)
(199.874 -0.788838 -2.16734)
(198.967 -1.11736 -2.70372)
(197.807 -1.46837 -2.98663)
(196.451 -1.86435 -2.83152)
(195.216 -2.2671 -2.0847)
(200.57 1.57141 1.49543)
(201.07 1.30132 0.664967)
(201.263 0.986959 -0.210827)
(201.166 0.675189 -1.08898)
(200.761 0.360985 -1.94888)
(200.028 0.0433792 -2.74873)
(198.928 -0.29435 -3.40235)
(197.47 -0.666345 -3.79561)
(195.655 -1.11032 -3.64708)
(193.919 -1.60365 -2.71239)
(200.974 0.870466 2.1293)
(201.544 0.485522 1.1894)
(201.767 0.0892504 0.161228)
(201.675 -0.275069 -0.865803)
(201.238 -0.620103 -1.90104)
(200.426 -0.945345 -2.90236)
(199.166 -1.26894 -3.78744)
(197.432 -1.61309 -4.42109)
(195.147 -2.04682 -4.44757)
(192.847 -2.56777 -3.45708)
(201.125 1.97903 1.7046)
(201.731 1.57204 0.750462)
(201.969 1.17304 -0.242206)
(201.868 0.820828 -1.26097)
(201.398 0.511373 -2.2942)
(200.522 0.238135 -3.32545)
(199.135 -0.0226978 -4.26585)
(197.178 -0.305991 -5.00183)
(194.475 -0.683774 -5.08985)
(191.602 -1.24179 -4.02955)
(201.4 0.634396 2.42807)
(202.029 0.107732 1.43685)
(202.277 -0.36716 0.340446)
(202.181 -0.753208 -0.766947)
(201.703 -1.06642 -1.92168)
(200.797 -1.30425 -3.09458)
(199.333 -1.47742 -4.22895)
(197.205 -1.62402 -5.18403)
(194.165 -1.79838 -5.56521)
(190.664 -2.23204 -4.57278)
(200.787 1.98333 1.66795)
(201.388 1.41185 0.761511)
(201.624 0.983347 -0.198005)
(201.49 0.639604 -1.20534)
(200.96 0.41211 -2.25171)
(199.984 0.290267 -3.33734)
(198.431 0.274561 -4.39691)
(196.155 0.358286 -5.31044)
(192.899 0.468951 -5.69512)
(188.924 0.424352 -4.59138)
(198.459 -0.191906 0.321362)
(198.566 -0.237133 0.25229)
(198.591 -0.292113 0.122553)
(198.581 -0.34028 0.0170762)
(198.542 -0.392521 -0.0945231)
(198.481 -0.440228 -0.174388)
(198.405 -0.485445 -0.229675)
(198.324 -0.526692 -0.245344)
(198.24 -0.562743 -0.226332)
(198.121 -0.590163 -0.173627)
(199.08 0.396046 0.19959)
(199.177 0.408704 0.0191951)
(199.214 0.384116 -0.155672)
(199.187 0.324595 -0.320288)
(199.101 0.243873 -0.458516)
(198.963 0.14762 -0.556138)
(198.788 0.0430986 -0.598953)
(198.596 -0.0631696 -0.574079)
(198.415 -0.163445 -0.477348)
(198.278 -0.244724 -0.311674)
(199.296 -0.0132114 0.785637)
(199.461 -0.111809 0.481558)
(199.522 -0.236762 0.134907)
(199.476 -0.375424 -0.201954)
(199.326 -0.530052 -0.507262)
(199.082 -0.696165 -0.752788)
(198.762 -0.869907 -0.909776)
(198.401 -1.04569 -0.952087)
(198.046 -1.21575 -0.854363)
(197.77 -1.36205 -0.621891)
(199.392 0.772454 0.71731)
(199.642 0.693535 0.299795)
(199.736 0.554244 -0.145743)
(199.673 0.384799 -0.581481)
(199.453 0.191242 -0.978515)
(199.084 -0.0205 -1.30014)
(198.585 -0.247906 -1.50353)
(197.999 -0.48656 -1.54017)
(197.393 -0.73027 -1.3578)
(196.9 -0.955347 -0.931664)
(199.683 0.355855 1.29911)
(200.021 0.187693 0.735418)
(200.149 -0.0284131 0.107143)
(200.074 -0.259147 -0.508408)
(199.789 -0.506851 -1.09101)
(199.299 -0.765193 -1.59398)
(198.613 -1.03672 -1.95891)
(197.775 -1.32177 -2.11248)
(196.86 -1.62705 -1.95429)
(196.075 -1.92131 -1.4114)
(199.823 1.26957 1.15792)
(200.239 1.07799 0.505901)
(200.4 0.835386 -0.187667)
(200.316 0.583648 -0.879685)
(199.974 0.322668 -1.54222)
(199.373 0.0542345 -2.13052)
(198.505 -0.230545 -2.57195)
(197.406 -0.539428 -2.77562)
(196.14 -0.886977 -2.5748)
(195.001 -1.25748 -1.84144)
(200.18 0.567573 1.77747)
(200.67 0.271536 1.01675)
(200.86 -0.047888 0.171495)
(200.775 -0.350653 -0.66835)
(200.392 -0.643466 -1.49875)
(199.7 -0.923265 -2.26925)
(198.668 -1.20286 -2.90499)
(197.316 -1.4972 -3.28532)
(195.674 -1.84722 -3.19671)
(194.123 -2.24558 -2.37621)
(200.292 1.71209 1.3428)
(200.824 1.40086 0.567235)
(201.031 1.07952 -0.245951)
(200.935 0.787903 -1.07958)
(200.513 0.526298 -1.9079)
(199.747 0.291397 -2.69974)
(198.583 0.0650963 -3.36783)
(197.016 -0.178229 -3.80035)
(195.03 -0.485491 -3.70309)
(193.05 -0.910495 -2.75664)
(200.566 0.346082 2.09548)
(201.127 -0.080907 1.27292)
(201.346 -0.478007 0.342554)
(201.251 -0.803611 -0.592642)
(200.813 -1.06959 -1.55265)
(200.005 -1.27158 -2.49082)
(198.752 -1.42134 -3.34289)
(197.015 -1.55017 -3.96251)
(194.739 -1.70155 -4.08215)
(192.301 -2.03021 -3.14737)
(199.966 1.81521 1.29884)
(200.503 1.34966 0.562177)
(200.718 1.00026 -0.231016)
(200.597 0.71697 -1.0653)
(200.121 0.532276 -1.91744)
(199.255 0.437111 -2.76894)
(197.921 0.427771 -3.54129)
(196.051 0.494857 -4.10955)
(193.581 0.562936 -4.17935)
(190.806 0.519251 -3.11561)
(198.231 -0.255933 0.265918)
(198.318 -0.290873 0.229608)
(198.336 -0.333328 0.135525)
(198.331 -0.367461 0.0658448)
(198.309 -0.405788 -0.0139737)
(198.274 -0.440276 -0.0711174)
(198.231 -0.472892 -0.11547)
(198.186 -0.501926 -0.135261)
(198.135 -0.52602 -0.136003)
(198.042 -0.54246 -0.116939)
(198.798 0.320711 0.0783645)
(198.86 0.348536 -0.0401656)
(198.884 0.346438 -0.146991)
(198.868 0.313384 -0.245159)
(198.815 0.262139 -0.324092)
(198.73 0.197682 -0.37529)
(198.624 0.126383 -0.390969)
(198.51 0.0540834 -0.363996)
(198.403 -0.0128583 -0.295296)
(198.325 -0.0648624 -0.185986)
(198.914 -0.168201 0.625098)
(199.027 -0.242473 0.411232)
(199.069 -0.333499 0.162622)
(199.038 -0.434823 -0.078642)
(198.938 -0.549088 -0.295536)
(198.775 -0.672665 -0.467984)
(198.567 -0.801103 -0.577336)
(198.338 -0.928632 -0.609526)
(198.122 -1.04773 -0.552249)
(197.958 -1.14575 -0.417752)
(198.953 0.579622 0.496007)
(199.135 0.537589 0.198587)
(199.205 0.44294 -0.1195)
(199.16 0.319333 -0.428687)
(199 0.173103 -0.704565)
(198.738 0.0107241 -0.918837)
(198.392 -0.163299 -1.04216)
(197.998 -0.343026 -1.04432)
(197.61 -0.519778 -0.902126)
(197.306 -0.676473 -0.609813)
(199.154 0.129228 1.03372)
(199.414 0.0126369 0.609083)
(199.513 -0.148032 0.129638)
(199.455 -0.326782 -0.33762)
(199.237 -0.523373 -0.772413)
(198.868 -0.730717 -1.1357)
(198.368 -0.948115 -1.38416)
(197.779 -1.17216 -1.46916)
(197.17 -1.40191 -1.33831)
(196.672 -1.61161 -0.963792)
(199.233 1.00956 0.866334)
(199.566 0.879498 0.368651)
(199.695 0.69799 -0.164501)
(199.625 0.500637 -0.694046)
(199.351 0.290327 -1.19035)
(198.878 0.0706593 -1.6123)
(198.217 -0.161146 -1.90293)
(197.415 -0.408244 -1.99712)
(196.545 -0.671816 -1.79867)
(195.803 -0.940905 -1.25439)
(199.541 0.300025 1.46182)
(199.946 0.0783355 0.861261)
(200.103 -0.172704 0.183254)
(200.029 -0.418081 -0.48697)
(199.709 -0.660171 -1.13794)
(199.144 -0.894009 -1.71952)
(198.332 -1.12815 -2.16948)
(197.311 -1.37055 -2.39236)
(196.154 -1.64433 -2.26751)
(195.118 -1.93669 -1.63874)
(199.602 1.47052 1.01149)
(200.051 1.24237 0.399201)
(200.226 0.991931 -0.24655)
(200.139 0.757637 -0.908139)
(199.778 0.542862 -1.55191)
(199.137 0.346735 -2.14155)
(198.198 0.157113 -2.59942)
(196.987 -0.0439567 -2.83422)
(195.56 -0.284806 -2.65433)
(194.217 -0.594913 -1.88869)
(199.874 0.0716875 1.78982)
(200.356 -0.266231 1.12335)
(200.543 -0.591379 0.350847)
(200.455 -0.860609 -0.421407)
(200.073 -1.08231 -1.20229)
(199.383 -1.25084 -1.93799)
(198.353 -1.37762 -2.5667)
(196.987 -1.48639 -2.96006)
(195.325 -1.61002 -2.9482)
(193.661 -1.84769 -2.1779)
(199.276 1.66541 0.949272)
(199.738 1.29741 0.36996)
(199.926 1.02195 -0.264757)
(199.821 0.795285 -0.933869)
(199.408 0.649775 -1.6048)
(198.67 0.577622 -2.24965)
(197.568 0.572787 -2.78838)
(196.085 0.625843 -3.11466)
(194.263 0.664524 -3.01099)
(192.375 0.633191 -2.10706)
(198.05 -0.304489 0.237616)
(198.125 -0.333866 0.221052)
(198.138 -0.369563 0.147773)
(198.136 -0.395263 0.098787)
(198.123 -0.424658 0.0372992)
(198.104 -0.450229 -0.00767969)
(198.08 -0.474033 -0.0468877)
(198.054 -0.494482 -0.0705284)
(198.022 -0.510414 -0.0840081)
(197.944 -0.519749 -0.0851294)
(198.585 0.289245 -0.0111438)
(198.624 0.325921 -0.0877189)
(198.64 0.338198 -0.14826)
(198.631 0.323431 -0.201394)
(198.598 0.293452 -0.2409)
(198.547 0.252388 -0.261968)
(198.484 0.20547 -0.260754)
(198.416 0.157545 -0.232991)
(198.354 0.113433 -0.181766)
(198.307 0.0803673 -0.105196)
(198.623 -0.273288 0.509598)
(198.697 -0.333256 0.359476)
(198.725 -0.400922 0.181254)
(198.705 -0.474727 0.00788215)
(198.639 -0.557913 -0.147746)
(198.535 -0.647833 -0.272079)
(198.403 -0.7404 -0.353212)
(198.261 -0.830574 -0.384078)
(198.13 -0.912203 -0.357746)
(198.033 -0.976657 -0.28834)
(198.628 0.440969 0.324163)
(198.756 0.422375 0.118333)
(198.807 0.360452 -0.101643)
(198.775 0.273123 -0.314113)
(198.665 0.166188 -0.500115)
(198.484 0.045798 -0.638947)
(198.25 -0.0831419 -0.711386)
(197.991 -0.214562 -0.699125)
(197.744 -0.340046 -0.593789)
(197.557 -0.447794 -0.395188)