/*--------------------------------*- C++ -*----------------------------------*\
| =========                 |                                                 |
| \\      /  F ield         | foam-extend: Open Source CFD                    |
|  \\    /   O peration     | Version:     4.0                                |
|   \\  /    A nd           | Web:         http://www.foam-extend.org         |
|    \\/     M anipulation  |                                                 |
\*---------------------------------------------------------------------------*/
FoamFile
{
    version     2.0;
    format      ascii;
    class       volScalarField;
    location    "5000";
    object      divFlux;
}
// * * * * * * * * * * * * * * * * * * * * * * * * * * * * * * * * * * * * * //

dimensions      [1 -3 -1 0 0 0 0];

internalField   nonuniform List<scalar> 
34480
(
0.0599904
0.0191486
0.0195745
0.0180778
0.016423
0.0148441
0.0133687
0.0120316
0.0108774
0.0099041
0.0153216
0.00774322
0.00780787
0.00755658
0.00731983
0.00703129
0.00663426
0.0061508
0.00564245
0.00516068
0.00351376
0.002315
0.00236542
0.00240486
0.00247871
0.00253963
0.00252711
0.00242372
0.00225734
0.00206408
0.000949927
0.000713064
0.00073324
0.000758866
0.000799725
0.000841819
0.000860181
0.000840533
0.000787244
0.000712957
0.000245613
0.000202948
0.000212042
0.000223502
0.000239308
0.000256003
0.000265215
0.000260745
0.000242197
0.000213623
4.25733e-05
4.09503e-05
4.62369e-05
5.18798e-05
5.78928e-05
6.34291e-05
6.60705e-05
6.39883e-05
5.68205e-05
4.68227e-05
1.42917e-05
8.19381e-06
4.55015e-06
1.27003e-06
1.1623e-06
2.60119e-06
2.63161e-06
1.12191e-06
1.82057e-06
5.35313e-06
2.95052e-05
2.24454e-05
1.93424e-05
1.68957e-05
1.55856e-05
1.53772e-05
1.60501e-05
1.7236e-05
1.8556e-05
1.99156e-05
3.93255e-05
3.10561e-05
2.72312e-05
2.41773e-05
2.22281e-05
2.13395e-05
2.12853e-05
2.17842e-05
2.23829e-05
2.30991e-05
4.12979e-05
3.33231e-05
2.95062e-05
2.62914e-05
2.3887e-05
2.23102e-05
2.15811e-05
2.16295e-05
2.21128e-05
2.29889e-05
0.0775974
0.0221912
0.0226389
0.0211764
0.0195416
0.0180944
0.0168682
0.0159128
0.015321
0.0161638
0.0215952
0.00993295
0.0100305
0.00973304
0.00943182
0.00919006
0.00897506
0.00875936
0.00857189
0.00916088
0.00532735
0.00327083
0.00334827
0.00340544
0.00351053
0.00361843
0.00370001
0.00372887
0.00369782
0.00395283
0.00157434
0.00111952
0.00114936
0.00118438
0.00124649
0.00131374
0.00136847
0.00139542
0.00138236
0.00145815
0.000437713
0.00034787
0.000361039
0.000377578
0.00040128
0.000427927
0.000448548
0.000456515
0.000444793
0.000454641
7.37738e-05
7.15739e-05
8.02356e-05
8.92342e-05
9.78381e-05
0.000105587
0.00010959
0.000107632
9.76521e-05
8.92738e-05
4.10702e-05
2.41406e-05
1.71245e-05
1.10151e-05
7.80821e-06
7.35318e-06
9.69032e-06
1.50924e-05
2.26914e-05
3.337e-05
7.96873e-05
5.8778e-05
5.17645e-05
4.6327e-05
4.44898e-05
4.61338e-05
5.02837e-05
5.64534e-05
6.21456e-05
7.16005e-05
0.000115044
8.93118e-05
7.90397e-05
7.07687e-05
6.59943e-05
6.48844e-05
6.68538e-05
7.14998e-05
7.56233e-05
8.40614e-05
0.000130103
0.000102224
9.15603e-05
8.22164e-05
7.57416e-05
7.25092e-05
7.24058e-05
7.52023e-05
7.87666e-05
8.76383e-05
0.0781242
0.0191416
0.0198884
0.0188448
0.0177007
0.0167451
0.0160303
0.015621
0.0156931
0.0232459
0.0210271
0.00819865
0.00836933
0.00806516
0.00779743
0.00766641
0.00765543
0.0077509
0.00803011
0.00694923
0.00489258
0.00257449
0.00262874
0.00262824
0.0026605
0.00274295
0.00287475
0.00303569
0.00323912
0.00036747
0.00137657
0.000848662
0.000864634
0.000873261
0.00089852
0.0009396
0.00100108
0.00107495
0.00115926
0.00134523
0.000369933
0.000257999
0.000264704
0.000270235
0.000280851
0.000295874
0.000316775
0.00034124
0.000365938
0.00041717
6.73914e-05
5.64223e-05
6.14401e-05
6.60654e-05
7.0734e-05
7.5572e-05
8.05966e-05
8.4886e-05
8.61725e-05
8.80025e-05
2.09063e-05
9.31476e-06
4.8854e-06
7.20693e-07
1.95901e-06
3.22701e-06
2.80743e-06
3.08925e-08
6.35982e-06
1.96515e-05
4.58206e-05
3.01946e-05
2.5871e-05
2.18978e-05
1.96766e-05
1.93677e-05
2.13024e-05
2.61479e-05
3.45863e-05
5.16753e-05
6.02978e-05
4.19994e-05
3.71049e-05
3.26772e-05
2.9814e-05
2.87761e-05
3.00232e-05
3.43998e-05
4.2852e-05
6.17961e-05
5.81635e-05
4.05605e-05
3.64924e-05
3.27461e-05
3.03359e-05
2.93997e-05
3.01276e-05
3.34098e-05
4.13299e-05
6.33321e-05
0.0789298
0.0173854
0.0182427
0.0175055
0.0166505
0.0159505
0.0154615
0.0139489
0.00515241
0.0120846
0.0216575
0.00775344
0.00793689
0.00762974
0.00733907
0.00716241
0.00711569
0.00720775
0.00639714
0.00561337
0.00507736
0.00249219
0.00254058
0.00251081
0.00250313
0.00254243
0.00263631
0.00278285
0.00298316
0.00167316
0.00144902
0.000843874
0.000858184
0.000858154
0.000868057
0.000893107
0.000939026
0.00100522
0.00108988
0.000223243
0.000395914
0.000263506
0.000269931
0.000273198
0.000279935
0.000289999
0.000306189
0.000328323
0.00035452
0.000456709
7.50534e-05
5.98933e-05
6.49475e-05
6.91368e-05
7.31159e-05
7.6973e-05
8.11457e-05
8.53074e-05
8.80193e-05
0.00020749
1.98844e-05
8.19417e-06
3.69477e-06
4.79722e-07
3.27833e-06
4.74377e-06
4.60323e-06
2.27297e-06
3.23696e-06
1.37251e-05
4.66657e-05
3.02291e-05
2.59029e-05
2.18725e-05
1.94253e-05
1.86766e-05
2.01237e-05
2.45219e-05
3.26145e-05
4.69466e-05
6.06248e-05
4.18111e-05
3.72135e-05
3.29671e-05
3.01541e-05
2.89414e-05
2.9942e-05
3.41115e-05
4.26108e-05
5.93346e-05
5.77796e-05
4.01447e-05
3.63301e-05
3.28423e-05
3.06322e-05
2.97742e-05
3.06402e-05
3.41415e-05
4.22732e-05
6.21877e-05
0.0780015
0.0154609
0.0163942
0.0158953
0.0152423
0.0146941
0.0124025
0.00876203
0.00412923
0.0042253
0.0218158
0.00717293
0.00738705
0.00711857
0.00683675
0.00662747
0.00651057
0.0065003
0.00402779
0.00249372
0.00520898
0.00237701
0.0024245
0.00237666
0.00234044
0.00233865
0.00237833
0.00246393
0.00248517
0.000529847
0.00151153
0.000827633
0.000841865
0.000834855
0.000833322
0.000842979
0.00086816
0.000910854
0.000969268
0.00047637
0.000419422
0.000265208
0.000271752
0.00027361
0.000276726
0.000282239
0.000292128
0.000307127
0.000326325
0.000577888
8.19072e-05
6.23063e-05
6.75043e-05
7.13393e-05
7.4679e-05
7.75595e-05
8.04764e-05
8.34441e-05
8.5776e-05
0.00043675
1.91084e-05
7.13087e-06
2.60773e-06
1.49442e-06
4.32479e-06
5.91077e-06
6.05676e-06
4.38074e-06
2.83729e-07
0.000238543
4.7465e-05
2.99058e-05
2.56875e-05
2.17527e-05
1.9212e-05
1.81353e-05
1.89568e-05
2.22973e-05
2.87703e-05
0.000115061
6.06956e-05
4.0994e-05
3.67432e-05
3.27784e-05
3.01187e-05
2.88452e-05
2.95029e-05
3.29154e-05
4.01213e-05
9.28927e-06
5.73001e-05
3.91168e-05
3.55758e-05
3.23579e-05
3.03149e-05
2.95208e-05
3.0391e-05
3.37206e-05
4.10216e-05
5.78498e-05
0.0754529
0.0134429
0.0143951
0.0140729
0.0134227
0.0118221
0.00994752
0.00805409
0.00582787
0.00217388
0.0213904
0.00646763
0.00670679
0.00649234
0.00624696
0.00604463
0.00589935
0.005407
0.00362301
0.000185662
0.00527112
0.00222882
0.00227779
0.00222115
0.00216789
0.00213761
0.00213488
0.00216301
0.00210658
0.000451886
0.00155887
0.000799783
0.000814406
0.000802334
0.000792388
0.000789975
0.000797865
0.000817621
0.00087747
0.000696252
0.000439291
0.000263035
0.000269953
0.000270306
0.000270694
0.000272475
0.000276964
0.000284833
0.000295201
0.000599254
8.81318e-05
6.37988e-05
6.91207e-05
7.26567e-05
7.53419e-05
7.73901e-05
7.91899e-05
8.08679e-05
8.20684e-05
0.000456828
1.81629e-05
5.99489e-06
1.49531e-06
2.48454e-06
5.29172e-06
6.94457e-06
7.33203e-06
6.26709e-06
3.48232e-06
0.000298654
4.78843e-05
2.91864e-05
2.51284e-05
2.1349e-05
1.87771e-05
1.74621e-05
1.77353e-05
1.99956e-05
2.45972e-05
0.000217021
6.0379e-05
3.97106e-05
3.58003e-05
3.21199e-05
2.96146e-05
2.83366e-05
2.87111e-05
3.13239e-05
3.68853e-05
0.00013566
5.6617e-05
3.76951e-05
3.44239e-05
3.14548e-05
2.95455e-05
2.8784e-05
2.95615e-05
3.24953e-05
3.85928e-05
0.000100953
0.0711552
0.0110108
0.0118487
0.0114062
0.0105224
0.00966535
0.00859863
0.00766562
0.00649032
0.00485307
0.0204123
0.00568349
0.00593255
0.00576968
0.00556819
0.00539383
0.00523852
0.00474075
0.00363513
0.00178063
0.00523915
0.00204929
0.00210209
0.00204617
0.00198782
0.00194385
0.00191721
0.00190952
0.00186395
0.000904902
0.00158335
0.000759358
0.000775222
0.000760903
0.000746337
0.000736399
0.000732775
0.000736274
0.000866686
0.00074244
0.000453316
0.000256445
0.00026379
0.0002632
0.000261834
0.000261046
0.000261696
0.000264206
0.0002675
0.000543769
9.34468e-05
6.42491e-05
6.96462e-05
7.28835e-05
7.50711e-05
7.65038e-05
7.74726e-05
7.81212e-05
7.81868e-05
0.000402773
1.68153e-05
4.71689e-06
3.09607e-07
3.50594e-06
6.24509e-06
7.91908e-06
8.48535e-06
7.8902e-06
6.06028e-06
0.000268455
4.76342e-05
2.79788e-05
2.41222e-05
2.05376e-05
1.79937e-05
1.65353e-05
1.63939e-05
1.77818e-05
2.08248e-05
0.000210152
5.94678e-05
3.79339e-05
3.43484e-05
3.09424e-05
2.85818e-05
2.73235e-05
2.74846e-05
2.94316e-05
3.35505e-05
0.000150901
5.55461e-05
3.58769e-05
3.28682e-05
3.01275e-05
2.83257e-05
2.75678e-05
2.81868e-05
3.062e-05
3.54885e-05
0.000124882
0.0653851
0.0083575
0.00926251
0.00916542
0.00865865
0.00820081
0.00756046
0.0071136
0.00640467
0.00570389
0.019006
0.00487799
0.00512145
0.00499992
0.00483684
0.00469183
0.00453662
0.00420035
0.00356469
0.00258039
0.00508263
0.00184063
0.00189719
0.00184862
0.00179424
0.00174907
0.00171524
0.00173023
0.00166517
0.00109373
0.00157469
0.000705237
0.000722823
0.00070895
0.00069347
0.000680762
0.000671836
0.000667049
0.000797558
0.000701673
0.00045881
0.000244842
0.000252636
0.000251738
0.000249655
0.000247628
0.000246201
0.0002456
0.000286546
0.000459695
9.73537e-05
6.34648e-05
6.88367e-05
7.18247e-05
7.37056e-05
7.478e-05
7.52594e-05
7.5267e-05
7.89884e-05
0.000329109
1.49698e-05
3.2969e-06
9.31986e-07
4.53511e-06
7.16024e-06
8.81465e-06
9.50232e-06
9.23741e-06
8.02808e-06
0.000214067
4.65133e-05
2.62345e-05
2.26227e-05
1.92748e-05
1.68156e-05
1.53098e-05
1.48922e-05
1.56564e-05
1.7588e-05
0.000172122
5.77906e-05
3.56327e-05
3.23641e-05
2.92216e-05
2.70021e-05
2.5775e-05
2.57668e-05
2.71883e-05
3.02163e-05
0.000120675
5.39254e-05
3.36314e-05
3.08835e-05
2.83576e-05
2.66518e-05
2.58836e-05
2.63064e-05
2.82173e-05
3.19797e-05
9.9989e-05
0.0599476
0.00665586
0.00748613
0.00754164
0.00722797
0.00697371
0.00655195
0.00634101
0.00584772
0.00557642
0.0173191
0.00409956
0.00432615
0.0042361
0.00410417
0.00399668
0.00385846
0.00363339
0.00326675
0.00272992
0.00479924
0.00161096
0.00166854
0.00162899
0.00158207
0.0015416
0.00150948
0.00153697
0.00146905
0.0011344
0.00152664
0.000638139
0.000656908
0.00064482
0.000630526
0.000618065
0.000608125
0.000600877
0.000698107
0.000630814
0.000453707
0.000228074
0.000236106
0.000235259
0.000233124
0.000230838
0.000228744
0.000226959
0.00027547
0.000374812
9.93459e-05
6.12975e-05
6.64985e-05
6.92391e-05
7.0923e-05
7.18367e-05
7.21314e-05
7.18953e-05
0.000108513
0.000258316
1.26453e-05
1.80032e-06
2.15913e-06
5.49345e-06
7.9487e-06
9.54484e-06
1.03023e-05
1.02638e-05
9.45389e-06
0.000160425
4.44242e-05
2.3976e-05
2.0651e-05
1.75677e-05
1.52568e-05
1.37814e-05
1.32112e-05
1.3567e-05
1.16216e-05
0.000131421
5.52449e-05
3.28167e-05
2.9862e-05
2.69891e-05
2.49111e-05
2.37227e-05
2.35693e-05
2.45684e-05
2.67869e-05
8.11998e-05
5.16392e-05
3.09574e-05
2.84724e-05
2.61583e-05
2.45493e-05
2.37671e-05
2.39932e-05
2.54115e-05
2.82384e-05
6.78085e-05
0.0544729
0.00540626
0.00610598
0.00621873
0.00600572
0.00585609
0.00555112
0.00545753
0.00507797
0.00500526
0.01548
0.00337938
0.00358218
0.00351601
0.0034253
0.00333595
0.00321697
0.00306396
0.00284538
0.00253461
0.00441618
0.00137427
0.00142941
0.00139774
0.0013581
0.00132317
0.00129482
0.00131858
0.00126178
0.00106602
0.00144127
0.000561713
0.00058051
0.000570348
0.000557736
0.000546462
0.000537107
0.00052978
0.000589463
0.000547339
0.000437513
0.000206816
0.000214694
0.000213933
0.000211928
0.000209736
0.000207601
0.000205591
0.000239767
0.000298201
9.90791e-05
5.77353e-05
6.25931e-05
6.50298e-05
6.65133e-05
6.73196e-05
6.75612e-05
6.73016e-05
0.000107504
0.000195757
9.95288e-06
3.3425e-07
3.2707e-06
6.27418e-06
8.5049e-06
9.98984e-06
1.07621e-05
1.08677e-05
1.03203e-05
0.000112362
4.13771e-05
2.12913e-05
1.82928e-05
1.54993e-05
1.33874e-05
1.19983e-05
1.1362e-05
1.14688e-05
3.90503e-06
9.44388e-05
5.17992e-05
2.95485e-05
2.69137e-05
2.43087e-05
2.23933e-05
2.12559e-05
2.09803e-05
2.16309e-05
2.32223e-05
4.7077e-05
4.8624e-05
2.7895e-05
2.56743e-05
2.35744e-05
2.2078e-05
2.1298e-05
2.13456e-05
2.23372e-05
2.39082e-05
4.02804e-05
0.0489695
0.00439967
0.00495926
0.00508603
0.00492984
0.00483612
0.00459767
0.00456463
0.00424962
0.00426434
0.0135856
0.00278105
0.0029184
0.00288407
0.00280924
0.00272215
0.00262717
0.00252182
0.00238721
0.00219406
0.00396699
0.00114375
0.00119384
0.0011686
0.00113529
0.00110537
0.0011085
0.0010986
0.00105271
0.000932201
0.00132567
0.000480949
0.000498663
0.000490166
0.000479118
0.000469059
0.000460535
0.000453637
0.000485069
0.000458765
0.000411067
0.000182351
0.00018968
0.000188922
0.000187004
0.00018491
0.000182838
0.000180834
0.000199708
0.000233558
9.63984e-05
5.29139e-05
5.7278e-05
5.93403e-05
6.05709e-05
6.12299e-05
6.14075e-05
6.11527e-05
9.48913e-05
0.000145099
7.0744e-06
9.76825e-07
4.16039e-06
6.78295e-06
8.738e-06
1.00613e-05
1.07886e-05
1.09652e-05
1.05862e-05
7.3217e-05
3.74786e-05
1.83252e-05
1.56818e-05
1.32087e-05
1.13253e-05
1.00589e-05
9.4148e-06
9.37e-06
9.25036e-06
6.4457e-05
4.74951e-05
2.59332e-05
2.36264e-05
2.13044e-05
1.95745e-05
1.85037e-05
1.81377e-05
1.85065e-05
1.96002e-05
2.25221e-05
4.4873e-05
2.45208e-05
2.25719e-05
2.06962e-05
1.93344e-05
1.85751e-05
1.84839e-05
1.91283e-05
1.7142e-05
2.04706e-05
0.0431978
0.00350218
0.00392964
0.00405548
0.00394216
0.00388933
0.0037041
0.00371943
0.00345853
0.0035272
0.0116964
0.00223902
0.00234292
0.00230639
0.00224037
0.00216832
0.00209681
0.00202447
0.00193968
0.00181048
0.00347903
0.000928178
0.000971706
0.000951725
0.000925928
0.000923591
0.000913612
0.000891372
0.000854147
0.000774106
0.00118756
0.0004003
0.000416117
0.000409042
0.000399441
0.00039055
0.000382897
0.000376563
0.000389146
0.000371983
0.000375807
0.000156099
0.000162581
0.000161777
0.000159909
0.000157886
0.000155875
0.000153916
0.000162524
0.000180601
9.12806e-05
4.70684e-05
5.08312e-05
5.24852e-05
5.34258e-05
5.3895e-05
5.39701e-05
5.369e-05
8.00196e-05
0.000106644
4.23689e-06
2.01928e-06
4.7387e-06
6.94932e-06
8.59683e-06
9.72128e-06
1.03584e-05
1.05476e-05
1.02721e-05
4.45153e-05
3.29128e-05
1.52428e-05
1.29797e-05
1.08436e-05
9.21363e-06
8.0955e-06
7.48241e-06
7.3488e-06
1.07998e-05
4.28446e-05
4.24419e-05
2.21106e-05
2.014e-05
1.81175e-05
1.65921e-05
1.56121e-05
1.51967e-05
1.5354e-05
1.60603e-05
6.50388e-06
4.04383e-05
2.09516e-05
1.92781e-05
1.76417e-05
1.64345e-05
1.57197e-05
1.55351e-05
1.59152e-05
1.33415e-05
7.85617e-06
0.0382042
0.0028035
0.00310435
0.00319589
0.00308153
0.0030178
0.00283088
0.00283956
0.00257212
0.00262855
0.00985476
0.00170697
0.00179846
0.00177399
0.00172795
0.00167727
0.00162964
0.00158467
0.00153521
0.00144907
0.00300397
0.000768392
0.000804929
0.000790328
0.000770502
0.000750504
0.000729172
0.000704266
0.000673622
0.00061596
0.00103363
0.000323032
0.000336448
0.000330633
0.000322451
0.000314765
0.00030807
0.000302438
0.000302953
0.00029149
0.00033332
0.000129351
0.000134804
0.000133956
0.000132166
0.000130243
0.000128336
0.000126475
0.000129787
0.000137547
8.37935e-05
4.04796e-05
4.35887e-05
4.48376e-05
4.54926e-05
4.57699e-05
4.57345e-05
4.7876e-05
6.57932e-05
7.80061e-05
1.68346e-06
2.70941e-06
4.94822e-06
6.74048e-06
8.07001e-06
8.97906e-06
9.5003e-06
9.66672e-06
9.45379e-06
2.48855e-05
2.79188e-05
1.22156e-05
1.03394e-05
8.5538e-06
7.18764e-06
6.23694e-06
5.686e-06
8.22568e-07
1.12464e-05
2.85543e-05
3.68159e-05
1.82388e-05
1.66083e-05
1.48976e-05
1.35922e-05
1.2727e-05
1.23034e-05
1.23185e-05
1.27397e-05
3.00865e-06
3.54286e-05
1.73267e-05
1.59255e-05
1.45396e-05
1.35025e-05
1.28597e-05
1.26261e-05
1.28186e-05
1.06432e-05
8.35003e-07
0.031251
0.00213877
0.00241037
0.00258465
0.00259602
0.00264392
0.00256912
0.00267297
0.00247811
0.00259209
0.00807832
0.00126431
0.00135186
0.00132962
0.0012839
0.00123713
0.00119546
0.00115984
0.00112539
0.00105689
0.00247411
0.000604765
0.00064287
0.000631337
0.000609599
0.000586431
0.000563201
0.000539548
0.000514159
0.000470221
0.000869751
0.000251409
0.000262181
0.000257509
0.000250745
0.000244317
0.000238668
0.000233865
0.000228264
0.000219527
0.000285276
0.000103213
0.000107553
0.000106704
0.000105054
0.000103298
0.000101564
9.98774e-05
0.000101572
0.000102664
7.4118e-05
3.346e-05
3.59081e-05
3.67927e-05
3.7198e-05
3.73115e-05
3.71864e-05
4.63616e-05
5.29478e-05
5.66052e-05
3.64339e-07
3.0067e-06
4.77602e-06
6.16679e-06
7.19033e-06
7.8863e-06
8.28394e-06
8.41063e-06
8.2362e-06
1.20931e-05
2.27694e-05
9.39084e-06
7.89797e-06
6.45921e-06
5.35885e-06
4.58498e-06
3.67822e-08
6.42075e-06
1.1523e-05
1.96439e-05
3.08442e-05
1.44805e-05
1.31821e-05
1.17882e-05
1.07124e-05
9.98003e-06
9.58524e-06
9.51729e-06
9.74138e-06
7.90649e-06
3.00072e-05
1.37924e-05
1.26546e-05
1.15232e-05
1.06686e-05
1.0117e-05
9.87387e-06
9.94539e-06
8.36162e-06
2.38717e-06
0.0255834
0.000924895
0.000796035
0.000676594
0.000484728
0.00038309
0.000236681
0.0003223
0.000135349
0.000297979
0.00638876
0.000935901
0.00102021
0.00102764
0.00101643
0.00100144
0.000986742
0.000973312
0.000959153
0.000932131
0.00193176
0.000431761
0.000481937
0.000480403
0.000463734
0.000442669
0.000420503
0.000398267
0.000375364
0.000338175
0.00070206
0.00018728
0.000195407
0.000191772
0.000186388
0.000181214
0.000176637
0.000172719
0.000168141
0.000157274
0.00023361
7.86619e-05
8.19062e-05
8.11101e-05
7.96706e-05
7.81512e-05
7.6659e-05
7.52102e-05
7.7479e-05
7.45514e-05
6.25983e-05
2.63507e-05
2.81746e-05
2.87552e-05
2.89664e-05
3.09107e-05
3.77827e-05
4.07432e-05
4.14738e-05
4.0431e-05
1.74509e-06
2.92379e-06
4.25671e-06
5.28419e-06
6.02991e-06
6.53249e-06
6.81391e-06
6.89708e-06
6.74903e-06
5.99982e-06
0.000188439
6.39363e-05
1.90443e-05
1.01352e-05
9.0679e-06
9.74583e-06
1.08174e-05
1.09761e-05
1.19348e-05
1.44375e-05
2.4795e-05
1.09846e-05
9.99926e-06
8.91547e-06
8.06949e-06
7.48129e-06
7.14154e-06
7.03769e-06
7.1376e-06
7.41453e-06
2.43804e-05
1.049e-05
9.59994e-06
8.7165e-06
8.04526e-06
7.59953e-06
7.37802e-06
7.37908e-06
6.39091e-06
3.45195e-06
0.0417332
0.00466838
0.00529808
0.00547443
0.00533869
0.00508838
0.00468209
0.00437713
0.0038133
0.00356704
0.00449906
0.000447561
0.000441202
0.000390714
0.000341556
0.000306191
0.000286264
0.00027949
0.000281296
0.000280352
0.00137647
0.00026004
0.000335261
0.000350133
0.000344199
0.000329627
0.000311772
0.000293305
0.000274595
0.000244561
0.000534762
0.000131227
0.000137016
0.000134494
0.000130596
0.000126757
0.000123282
0.000120229
0.000116602
0.000106559
0.000180538
5.64862e-05
5.87205e-05
5.80407e-05
5.68806e-05
5.63293e-05
5.77357e-05
5.77987e-05
5.6803e-05
5.19764e-05
0.000117786
5.7474e-05
4.21737e-05
3.71557e-05
3.57344e-05
3.51852e-05
3.44571e-05
3.284e-05
3.1013e-05
2.79381e-05
2.39996e-06
2.52546e-06
3.47348e-06
4.19009e-06
4.70001e-06
5.03681e-06
5.22028e-06
5.26451e-06
5.1395e-06
4.50782e-06
0.000622028
0.000271878
0.000118622
6.00315e-05
3.52767e-05
2.37159e-05
1.78929e-05
1.40521e-05
1.25343e-05
1.1679e-05
1.89463e-05
7.87755e-06
7.17025e-06
6.3786e-06
5.75193e-06
5.30934e-06
5.04045e-06
4.93405e-06
4.96426e-06
5.05991e-06
1.87885e-05
7.53356e-06
6.87541e-06
6.22272e-06
5.72754e-06
5.39154e-06
5.21138e-06
5.20758e-06
4.78504e-06
3.61886e-06
0.103555
0.00980685
0.0102425
0.00927365
0.00800535
0.00672784
0.00553732
0.00446291
0.00362141
0.0026572
0.00490326
0.001152
0.00124803
0.00126139
0.00122486
0.00115581
0.00106723
0.000968266
0.000862739
0.000763576
0.000948139
8.86559e-05
0.000193154
0.000217975
0.000218347
0.000207837
0.000193205
0.000177912
0.000162835
0.000140996
0.000380719
8.54865e-05
8.91031e-05
8.73069e-05
8.45852e-05
8.19317e-05
7.95601e-05
7.74775e-05
7.49148e-05
6.75495e-05
0.000143116
5.16539e-05
5.13735e-05
4.91939e-05
4.70354e-05
4.50302e-05
4.30582e-05
4.0955e-05
3.86858e-05
3.37848e-05
0.000130806
7.33868e-05
5.12053e-05
3.99226e-05
3.34998e-05
2.93031e-05
2.61824e-05
2.34288e-05
2.11441e-05
1.79603e-05
2.38705e-06
1.92187e-06
2.54494e-06
3.00972e-06
3.33305e-06
3.54045e-06
3.64625e-06
3.66245e-06
3.56098e-06
3.06359e-06
0.00106492
0.000467154
0.000203032
9.81077e-05
5.32503e-05
3.24151e-05
2.19252e-05
1.57573e-05
1.28237e-05
1.01686e-05
1.35463e-05
5.2532e-06
4.77516e-06
4.24078e-06
3.81413e-06
3.50855e-06
3.31597e-06
3.22867e-06
3.22546e-06
3.22528e-06
1.34929e-05
5.00708e-06
4.55868e-06
4.11445e-06
3.7776e-06
3.54736e-06
3.41755e-06
3.38505e-06
3.41316e-06
3.34091e-06
0.405016
0.0153835
0.0152846
0.0131316
0.0108032
0.00871965
0.00695161
0.00547244
0.00412285
0.00319684
0.00202086
0.00174143
0.00162759
0.00144383
0.00122588
0.000997279
0.000771936
0.000555991
0.000349469
0.000167955
0.000342325
4.05888e-05
0.000133224
0.000184221
0.00019521
0.000184974
0.000164538
0.000139769
0.000112325
7.67317e-05
0.000235405
4.85734e-05
5.03735e-05
4.95016e-05
4.8198e-05
4.6962e-05
4.59272e-05
4.51556e-05
4.42365e-05
4.03197e-05
9.70371e-05
3.70552e-05
3.63864e-05
3.3858e-05
3.12726e-05
2.89246e-05
2.68247e-05
2.48946e-05
2.29814e-05
1.93816e-05
8.71565e-05
5.07536e-05
3.51068e-05
2.65641e-05
2.13901e-05
1.79625e-05
1.55088e-05
1.35708e-05
1.20458e-05
9.93216e-06
1.8839e-06
1.24864e-06
1.60981e-06
1.87986e-06
2.0636e-06
2.17712e-06
2.22998e-06
2.22945e-06
2.15354e-06
1.80165e-06
0.0013096
0.000566998
0.000238417
0.00011018
5.6585e-05
3.2484e-05
2.07382e-05
1.43204e-05
1.11523e-05
8.22858e-06
8.77622e-06
3.1616e-06
2.85897e-06
2.53335e-06
2.27598e-06
2.09009e-06
1.97074e-06
1.91159e-06
1.89921e-06
1.86114e-06
8.75891e-06
2.95869e-06
2.69035e-06
2.42507e-06
2.22458e-06
2.08739e-06
2.00799e-06
2.05857e-06
1.94456e-06
1.98806e-06
0.576024
0.00686456
0.00630802
0.00533752
0.00435501
0.00346096
0.00266922
0.00194587
0.00150385
0.000854894
0.00519472
0.00273467
0.00235245
0.00192229
0.00152703
0.00118362
0.000888805
0.000632819
0.00040266
0.000201846
0.000279321
0.00019614
3.26183e-05
1.8386e-05
4.4073e-05
5.69205e-05
6.44852e-05
7.08361e-05
7.76148e-05
8.20125e-05
0.000125762
2.3953e-05
2.44711e-05
2.33948e-05
2.18822e-05
2.02404e-05
1.85246e-05
1.67085e-05
1.45142e-05
1.09004e-05
4.91672e-05
1.68337e-05
1.66232e-05
1.55534e-05
1.44204e-05
1.33853e-05
1.24747e-05
1.16711e-05
1.08494e-05
9.11409e-06
3.23817e-05
1.87431e-05
1.33327e-05
1.02962e-05
8.39463e-06
7.12293e-06
6.22038e-06
5.52987e-06
4.974e-06
4.0961e-06
1.1086e-06
6.314e-07
7.95616e-07
9.20918e-07
1.00504e-06
1.05548e-06
1.07522e-06
1.06897e-06
1.02181e-06
8.11626e-07
0.000859861
0.000387709
0.000157596
7.04035e-05
3.47093e-05
1.9109e-05
1.1746e-05
7.93324e-06
6.05577e-06
4.44093e-06
4.73801e-06
1.58327e-06
1.41866e-06
1.25379e-06
1.12691e-06
1.03616e-06
9.7801e-07
9.48109e-07
9.38808e-07
8.99061e-07
9.2131e-05
8.80122e-05
5.92829e-05
3.44641e-05
1.89588e-05
9.98582e-06
4.94617e-06
2.1073e-06
3.36981e-07
8.97695e-07
0.113576
0.00424057
0.00360904
0.00288155
0.00222599
0.00166969
0.00120476
0.000805071
0.00044481
0.000124728
5.27007e-05
0.000474025
0.00040214
0.000316237
0.000232361
0.000154474
8.24081e-05
1.4437e-05
5.16848e-05
0.000113743
0.000165266
3.65743e-05
1.43578e-05
2.22384e-05
2.21786e-05
1.77663e-05
1.13016e-05
3.75217e-06
4.66808e-06
1.31164e-05
3.55661e-05
7.35153e-06
7.7081e-06
7.84152e-06
7.94868e-06
8.08266e-06
8.26284e-06
8.49228e-06
8.63984e-06
7.90931e-06
1.36069e-05
4.07009e-06
4.01944e-06
3.82874e-06
3.61738e-06
3.41159e-06
3.21569e-06
3.03006e-06
2.80482e-06
2.26058e-06
4.84145e-06
2.51795e-06
2.08853e-06
1.8373e-06
1.66126e-06
1.53265e-06
1.43323e-06
1.34748e-06
1.25728e-06
1.03444e-06
3.09256e-07
1.87509e-07
2.40193e-07
2.79334e-07
3.05518e-07
3.20473e-07
3.25014e-07
3.21352e-07
3.02202e-07
2.21981e-07
7.4261e-05
5.73636e-05
2.34678e-05
1.06553e-05
5.22981e-06
2.84364e-06
1.72475e-06
1.15957e-06
8.86965e-07
7.15699e-07
1.52916e-06
5.47001e-07
4.85295e-07
4.30957e-07
3.89391e-07
3.60728e-07
3.4243e-07
3.33234e-07
3.29501e-07
3.04366e-07
0.000204364
0.000118576
6.99917e-05
3.88621e-05
2.04645e-05
1.0086e-05
4.36541e-06
1.18356e-06
7.32979e-07
2.15538e-06
1.24515
1.25999
1.45348
1.88202
0.944141
0.998113
1.19448
1.7634
0.521482
0.505185
0.704706
1.16241
0.218718
0.185754
0.329617
0.583968
0.0623569
0.0480427
0.106732
0.195799
0.00221002
0.00017377
0.00201464
0.00401937
0.0249933
0.0140738
0.0353305
0.0782694
0.0312308
0.0170852
0.0456827
0.107879
0.0318756
0.016653
0.0484075
0.121042
0.028936
0.0142726
0.0473354
0.124911
0.109159
0.0271514
0.018505
0.065889
0.121998
0.0346849
0.0178474
0.047257
0.0835193
0.0242617
0.00968627
0.0283994
0.0426284
0.0117188
0.000875791
0.0216902
0.0143041
0.00314464
0.00131985
0.0100495
0.00136227
0.000148672
0.000153576
0.000151235
0.00862918
0.000391492
0.000174162
6.35313e-05
0.0116918
0.000233334
0.000299269
0.000299645
0.0133945
0.000323822
0.000368472
0.000366947
0.013682
0.000402175
0.000476806
0.000471104
0.110464
0.10593
0.102697
0.132086
0.0929602
0.084279
0.0808779
0.114669
0.0570631
0.0494556
0.0498235
0.0716519
0.0268422
0.0224243
0.0251209
0.0368324
0.00830124
0.00710334
0.00919576
0.0142345
0.00137362
2.29166e-05
0.000657701
0.00158899
0.00621908
0.00339583
0.00360273
0.00506646
0.0085491
0.00485919
0.00525966
0.00765797
0.010255
0.00562257
0.00595577
0.00873612
0.0121246
0.00631712
0.00661703
0.0086606
0.0225925
0.0292377
0.031369
0.0346548
0.0215568
0.0233637
0.0256001
0.0329134
0.0149305
0.0149807
0.0172646
0.0234707
0.00743701
0.00733731
0.00885488
0.0130495
0.00220601
0.00244551
0.00314391
0.00522078
0.000886268
9.69513e-05
0.000241893
0.000734591
0.0025825
0.00129621
0.000975642
0.00140881
0.00349719
0.00179653
0.00129916
0.00221515
0.00410163
0.00187116
0.00109926
0.00234024
0.00421629
0.00141164
0.000428282
0.00183269
0.00557853
0.0107114
0.0119491
0.0135782
0.00676814
0.010232
0.012663
0.0166473
0.00481872
0.00687857
0.00879216
0.0119887
0.00226335
0.00351014
0.00461975
0.00664835
0.000464547
0.00118263
0.0016944
0.00269572
0.000657341
0.000109787
0.000169301
0.000488292
0.00135148
0.000817129
0.00057633
0.000679047
0.00179638
0.00118436
0.000857483
0.00119283
0.00215579
0.00134712
0.000836573
0.00134537
0.00229671
0.00128269
0.000621878
0.00126094
0.00366993
0.000355605
0.000473964
0.00146626
0.000231864
0.00323507
0.00488952
0.00701656
0.000888169
0.00268848
0.00393816
0.0057107
0.000322048
0.00145469
0.00221864
0.00331242
0.000147918
0.000476567
0.000845877
0.00138949
0.000483259
0.000109157
9.08249e-05
0.000289627
0.000722257
0.000458391
0.000301494
0.0003134
0.000904561
0.000658522
0.000459938
0.000588994
0.00106018
0.000756683
0.000437852
0.000666007
0.00101814
0.000682929
0.000300812
0.000659317
0.00672085
0.00446473
0.0039533
0.0033453
0.00263114
0.000163002
0.000756245
0.00184519
0.000566377
0.000852539
0.00159774
0.00254762
0.000348386
0.000537745
0.00102836
0.00159439
0.000328405
0.000157713
0.00041299
0.000698627
0.000373202
0.000101168
4.33636e-05
0.000163053
0.000438692
0.000281232
0.000178164
0.000158283
0.000512381
0.000400118
0.000284099
0.000319601
0.000574658
0.000464643
0.00027654
0.000366061
0.000483398
0.000405731
0.000207784
0.000393202
0.00742221
0.00578276
0.00548864
0.00513792
0.00385721
0.00189852
0.00142892
0.0009164
0.00122966
0.000104011
0.000307903
0.000795686
0.000618672
6.64774e-05
0.000356738
0.000632746
0.000376059
4.64376e-06
0.000158415
0.000303233
0.000294026
9.18277e-05
7.40279e-06
7.64925e-05
0.000280722
0.000174586
0.000106079
8.21837e-05
0.000301325
0.000240784
0.000170659
0.000171609
0.000309431
0.000273993
0.000162824
0.000195811
0.000211089
0.000223184
0.000127836
0.000229253
0.0070107
0.00576051
0.00559628
0.00539507
0.00400816
0.00244375
0.00220766
0.0019996
0.00147413
0.000561956
0.000344862
0.000109261
0.000717125
0.000171593
8.8507e-06
0.000111656
0.000376961
8.59396e-05
1.27644e-05
8.27774e-05
0.0002373
8.30183e-05
1.66602e-05
2.24205e-05
0.000187545
0.000112261
6.59253e-05
4.61213e-05
0.000182763
0.000147546
0.000103155
9.39035e-05
0.000158723
0.000155022
8.87518e-05
9.96958e-05
7.54567e-05
0.000115012
7.09188e-05
0.000129387
0.00615238
0.00517552
0.00508575
0.0049703
0.0036495
0.00239293
0.00227453
0.00222248
0.0014505
0.000711972
0.000601255
0.000496843
0.000709883
0.000272999
0.000186837
0.00014849
0.000351855
0.000121801
6.57113e-05
3.69679e-05
0.000192632
7.38696e-05
3.13906e-05
1.08206e-05
0.000126404
7.27357e-05
4.17778e-05
2.77644e-05
0.000109267
8.91934e-05
6.01041e-05
4.98696e-05
7.11288e-05
8.02188e-05
4.00081e-05
4.24895e-05
6.38547e-06
5.07701e-05
3.07575e-05
6.64029e-05
0.00515255
0.00437641
0.00432422
0.0042553
0.00310172
0.00209882
0.00204132
0.00206829
0.00128004
0.000687021
0.000630239
0.000587369
0.000635448
0.000287591
0.000243741
0.000244383
0.000307933
0.000126921
9.66794e-05
8.9247e-05
0.000154351
6.33326e-05
3.73053e-05
2.79294e-05
8.42891e-05
4.65556e-05
2.67764e-05
1.79263e-05
6.24268e-05
5.19042e-05
3.29977e-05
2.45468e-05
2.3152e-05
3.64227e-05
1.17329e-05
1.09505e-05
2.64401e-05
1.46577e-05
5.54391e-06
2.79924e-05
0.00423248
0.00362288
0.00359949
0.00356742
0.00251393
0.00172553
0.00169977
0.00176579
0.0010543
0.000586606
0.000556889
0.000540823
0.000530381
0.000257432
0.000236016
0.000252399
0.000254955
0.000114086
9.84294e-05
0.000100363
0.00012096
5.18801e-05
3.64624e-05
3.31904e-05
5.53777e-05
2.93439e-05
1.74625e-05
1.25242e-05
3.36738e-05
2.88633e-05
1.70087e-05
1.08918e-05
1.318e-06
1.22547e-05
2.87148e-06
4.70704e-06
3.88396e-05
3.83636e-06
8.09663e-06
6.15046e-06
0.00308433
0.00261549
0.0025966
0.00259023
0.0019878
0.0013817
0.00137461
0.00145966
0.000823332
0.000464259
0.000448114
0.000442486
0.000418693
0.000209876
0.000200293
0.000221227
0.000200932
9.34593e-05
8.56757e-05
9.06708e-05
9.22164e-05
4.06016e-05
3.16968e-05
3.12986e-05
3.57675e-05
1.82628e-05
1.1657e-05
9.36506e-06
1.7124e-05
1.54867e-05
8.40334e-06
4.45581e-06
1.22447e-05
1.03832e-07
9.21448e-06
1.11368e-05
3.97738e-05
1.15879e-05
1.36671e-05
4.74975e-06
0.00312357
0.00265513
0.00261856
0.00258988
0.00138078
0.00097985
0.000983986
0.00100885
0.000611653
0.000346497
0.000337076