/*--------------------------------*- C++ -*----------------------------------*\
| =========                 |                                                 |
| \\      /  F ield         | foam-extend: Open Source CFD                    |
|  \\    /   O peration     | Version:     4.0                                |
|   \\  /    A nd           | Web:         http://www.foam-extend.org         |
|    \\/     M anipulation  |                                                 |
\*---------------------------------------------------------------------------*/
FoamFile
{
    version     2.0;
    format      ascii;
    class       volScalarField;
    location    "5000";
    object      k;
}
// * * * * * * * * * * * * * * * * * * * * * * * * * * * * * * * * * * * * * //

dimensions      [0 2 -2 0 0 0 0];

internalField   nonuniform List<scalar> 
34480
(
8.71431
8.70798
8.70513
8.70323
8.70391
8.71972
8.78652
8.97518
9.3888
10.2597
28.7791
30.6201
33.1041
36.0589
39.6379
45.3839
58.5671
89.9194
147.112
214.91
56.0726
58.5197
61.5515
64.8751
68.3298
72.8989
83.7543
117.05
194.834
305.717
56.9785
60.2845
64.5307
69.3788
74.3726
80.0132
90.5107
123.444
212.45
356.333
53.1753
57.2742
62.7238
69.1723
76.0129
83.3491
94.6947
128.178
227.768
404.65
47.8233
52.1802
58.1793
65.6386
73.9622
83.1045
96.4266
132.968
247.141
462.688
41.8604
46.1509
52.2678
60.2057
69.568
80.2995
95.6909
135.218
262.468
513.709
32.3918
36.0052
41.313
48.5771
57.6721
68.7996
85.2646
126.065
259.624
533.474
13.8379
15.2528
17.5261
21.0612
26.2735
33.8089
46.0403
76.1722
177.832
402.669
9.15329
9.13736
9.14081
9.17043
9.23448
9.32785
9.42914
9.5356
9.726
9.97715
8.63081
8.63036
8.63965
8.65926
8.68856
8.72928
8.79588
8.91863
9.14769
9.59047
20.2319
21.56
23.7374
26.8074
30.726
35.1031
40.601
53.5663
89.421
170.813
41.2942
43.3663
46.2592
49.9249
54.4096
59.6801
65.288
77.7948
124.889
253.882
43.1184
45.8024
49.5731
54.3777
60.054
66.6944
73.4991
85.8894
139.344
302.618
41.1204
44.3708
49.0429
55.0784
62.237
70.4857
78.8707
91.785
151.897
350.471
37.7095
41.1368
46.2163
53.0505
61.4482
71.2451
81.485
96.1777
166.286
410.883
33.6318
36.999
42.1585
49.349
58.5792
69.6332
81.635
98.1556
177.632
467.449
26.5414
29.3272
33.7434
40.2556
49.0937
60.186
72.8839
90.4926
174.91
493.821
11.9895
12.963
14.6513
17.4995
22.1896
29.2472
38.3333
51.1747
113.063
365.326
9.01939
8.99602
8.98734
9.00125
9.05229
9.14483
9.25003
9.33339
9.58624
10.2155
8.53542
8.53485
8.5418
8.55814
8.58465
8.6219
8.67351
8.75064
8.87506
9.07729
13.8558
14.6031
15.8999
17.8654
20.5429
23.9051
28.1254
34.1964
44.7466
62.7451
28.786
30.2923
32.4602
35.278
38.7508
42.859
47.5838
54.3251
69.2678
102.149
31.1221
33.0894
35.9488
39.7073
44.2191
49.4857
55.199
62.6653
81.6036
130.668
30.5783
32.9665
36.5401
41.3008
47.0638
53.7586
60.7964
69.1395
92.4477
161.11
28.7697
31.3057
35.2311
40.6899
47.5652
55.7146
64.3912
74.2641
103.577
197.582
26.2947
28.8124
32.8497
38.6641
46.331
55.6884
65.9257
77.3002
112.63
234.18
21.3378
23.4118
26.8573
32.1306
39.5185
49.0064
59.9362
72.3598
112.106
256.089
10.4568
11.1432
12.3755
14.4822
18.0471
23.6625
31.3945
40.93
70.4864
185.36
8.90275
8.87685
8.862
8.86427
8.89414
8.96007
9.05236
9.13061
9.26742
9.7012
8.42706
8.42679
8.43165
8.44325
8.46246
8.49009
8.52748
8.57859
8.65514
8.78726
9.77865
10.1263
10.7429
11.7556
13.2187
15.1845
17.7228
20.9682
25.2333
30.8157
19.3994
20.3311
21.692
23.5106
25.8107
28.5855
31.8617
35.9184
41.9016
52.0549
21.7236
22.989
24.8496
27.3462
30.4212
34.0796
38.238
43.1718
51.0292
67.238
22.1085
23.6817
26.0814
29.3274
33.3204
38.0666
43.3245
49.2303
59.2374
83.6425
21.4561
23.1565
25.8562
29.6721
34.5442
40.468
47.1075
54.4536
67.6568
103.717
20.2036
21.9278
24.7723
28.927
34.4763
41.416
49.3585
58.0596
74.5448
124.111
17.0094
18.4399
20.8783
24.6684
30.0593
37.1684
45.7256
55.3983
74.6721
136.466
9.20171
9.66531
10.5115
11.9321
14.3086
18.1508
23.8751
31.3349
46.0585
95.8195
8.76837
8.74383
8.7282
8.72583
8.74327
8.78879
8.86555
8.95324
9.05553
9.346
8.30364
8.30327
8.30617
8.31328
8.32494
8.34159
8.36417
8.39543
8.44394
8.53684
7.46487
7.60514
7.84681
8.26579
8.88714
9.75284
10.9026
12.3427
13.9935
15.7929
13.0892
13.5937
14.3327
15.3384
16.6289
18.2039
20.0733
22.2416
24.708
27.8337
15.0266
15.7508
16.8179
18.2724
20.0931
22.2894
24.8484
27.7801
31.2438
36.4406
15.8316
16.7711
18.2124
20.1754
22.6188
25.5659
28.9516
32.7417
37.3896
45.7514
15.8732
16.9145
18.5888
20.9782
24.0509
27.8622
32.3203
37.3454
43.8451
57.2812
15.4295
16.5189
18.3438
21.0214
24.6148
29.1997
34.6765
40.8718
49.2787
68.9892
13.5564
14.4783
16.0627
18.5304
22.0517
26.7976
32.7697
39.8081
49.9826
75.9253
8.17866
8.479
9.03099
9.92686
11.373
13.7017
17.3337
22.4489
30.3107
51.149
8.62763
8.60516
8.59009
8.58556
8.59554
8.6261
8.68309
8.76213
8.85375
9.04411
8.1662
8.16577
8.16749
8.1719
8.17908
8.18911
8.20249
8.22139
8.25352
8.3238
6.24991
6.30339
6.38926
6.54505
6.77301
7.08569
7.49587
8.0032
8.56336
9.12548
9.23718
9.48349
9.8397
10.3308
10.9648
11.7377
12.6441
13.6517
14.6662
15.6879
10.6381
11.0141
11.5655
12.3309
13.3004
14.4747
15.8405
17.3559
18.8958
20.6389
11.4977
12.0151
12.8054
13.8864
15.2466
16.8975
18.811
20.9239
23.1055
26.0461
11.8575
12.4506
13.4036
14.7734
16.5504
18.7842
21.4511
24.4746
27.7442
32.8475
11.864
12.5106
13.5953
15.185
17.3257
20.1002
23.5001
27.4217
31.8243
39.7415
10.8949
11.4603
12.4232
13.9115
16.0272
18.9262
22.6867
27.2608
32.766
43.7002
7.35467
7.5432
7.8905
8.4313
9.26478
10.569
12.6091
15.6036
19.6838
28.2444
8.47886
8.459
8.44551
8.44078
8.44738
8.46937
8.51141
8.5747
8.65212
8.7731
8.01599
8.01551
8.0165
8.01935
8.02407
8.03065
8.03943
8.05216
8.07573
8.13292
5.63356
5.65337
5.68208
5.73835
5.81904
5.92524
6.05751
6.21255
6.37406
6.53251
7.08665
7.19498
7.34473
7.55094
7.81564
8.1352
8.50441
8.9031
9.27951
9.60877
7.98628
8.16178
8.41401
8.7705
9.22475
9.77417
10.4075
11.0928
11.7376
12.3294
8.70778
8.97039
9.36385
9.89996
10.5769
11.3977
12.3456
13.3768
14.3558
15.4028
9.14246
9.45763
9.95505
10.6695
11.6016
12.7798
14.1967
15.8058
17.4103
19.3758
9.34339
9.70628
10.3051
11.1723
12.3391
13.8626
15.7512
17.9562
20.2243
23.4144
8.93557
9.26829
9.81839
10.6517
11.8193
13.4278
15.548
18.187
21.1098
25.6939
6.71089
6.82517
7.03602
7.3492
7.8081
8.49353
9.53086
11.0556
12.9949
16.339
8.3208
8.30382
8.2924
8.28847
8.29384
8.3112
8.3436
8.39284
8.45412
8.52878
7.8545
7.85398
7.85455
7.8565
7.85986
7.86462
7.87107
7.88071
7.89973
7.94906
5.32415
5.33125
5.34028
5.36101
5.39077
5.42872
5.47382
5.52358
5.57171
5.61865
5.96921
6.01403
6.07032
6.14545
6.23913
6.34891
6.47196
6.60005
6.71377
6.80456
6.49266
6.56705
6.66894
6.81524
7.00031
7.22124
7.47105
7.73339
7.96619
8.14846
7.01509
7.13934
7.31784
7.55583
7.85256
8.2073
8.61055
9.03976
9.4269
9.78196
7.39889
7.55656
7.79582
8.13442
8.57268
9.1238
9.78492
10.5333
11.2556
12.0059
7.6411
7.83538
8.1447
8.57942
9.15797
9.90916
10.8409
11.9339
13.0218
14.303
7.54702
7.73664
8.03451
8.46979
9.06231
9.86897
10.9335
12.2759
13.7242
15.6319
6.22135
6.28785
6.4115
6.58603
6.82995
7.17504
7.67035
8.37523
9.21341
10.4435
8.15227
8.13819
8.12896
8.12619
8.1312
8.14581
8.17183
8.21042
8.25664
8.30373
7.6827
7.68217
7.6825
7.68394
7.68652
7.69027
7.69542
7.70329
7.71942
7.76312
5.16726
5.16953
5.17202
5.18005
5.19211
5.20748
5.22567
5.24548
5.26432
5.28302
5.41118
5.42987
5.44994
5.47455
5.50341
5.53538
5.56955
5.60345
5.63105
5.6516
5.69236
5.72199
5.75933
5.81391
5.88137
5.95943
6.04441
6.12908
6.19734
6.23964
6.03304
6.08937
6.16492
6.26113
6.37655
6.5093
6.65427
6.80163
6.9248
7.02336
6.32433
6.39997
6.50782
6.65555
6.84115
7.06885
7.33671
7.63491
7.91473
8.17348
6.53521
6.63551
6.78703
6.98961
7.25153
7.58346
7.98853
8.45963
8.91808
9.39756
6.59603
6.70169
6.85613
7.07036
7.34889
7.71535
8.19034
8.78753
9.42588
10.1766
5.85977
5.89638
5.96632
6.05989
6.18584
6.35486
6.58443
6.89674
7.24414
7.68336
7.97227
7.96094
7.95377
7.95211
7.95691
7.96936
7.99046
8.02068
8.05479
8.08585
7.50111
7.50058
7.50078
7.50192
7.50405
7.50717
7.51152
7.51822
7.53221
7.5713
5.08494
5.08538
5.08582
5.08927
5.095
5.10267
5.11235
5.12364
5.13539
5.14752
5.13618
5.14444
5.1516
5.15893
5.1665
5.17408
5.18183
5.18953
5.19566
5.20091
5.27566
5.28714
5.29995
5.31938
5.34258
5.36828
5.3948
5.41927
5.43578
5.44031
5.48
5.50513
5.53593
5.5725
5.61351
5.65745
5.70194
5.74328
5.77258
5.7908
5.68232
5.71783
5.76438
5.82519
5.89763
5.98239
6.07809
6.18074
6.2725
6.34715
5.83978
5.89019
5.96164
6.051
6.16139
6.29537
6.45297
6.63114
6.79726
6.9536
5.96474
6.02278
6.10017
6.20062
6.32308
6.47558
6.66593
6.8999
7.14647
7.41434
5.60086
5.61933
5.6573
5.70551
5.76892
5.85035
5.95598
6.0941
6.24076
6.40528
7.78003
7.77117
7.76579
7.76499
7.76943
7.77985
7.79669
7.81997
7.84473
7.86591
7.30986
7.30934
7.30947
7.31042
7.31224
7.31495
7.31872
7.32454
7.33677
7.37172
5.03906
5.03885
5.03877
5.04054
5.0439
5.04882
5.0557
5.06472
5.07538
5.08687
5.001
5.0049
5.00755
5.00939
5.0107
5.01167
5.01278
5.01458
5.01695
5.02042
5.06313
5.06753
5.07171
5.07852
5.08639
5.09468
5.10275
5.1095
5.1127
5.11024
5.17571
5.18684
5.19915
5.21252
5.22608
5.23902
5.25044
5.25919
5.26273
5.26249
5.30867
5.32518
5.34469
5.3687
5.39519
5.42404
5.45466
5.48572
5.51158
5.52863
5.4153
5.43999
5.47264
5.51045
5.55465
5.60546
5.66233
5.72407
5.77773
5.82182
5.55814
5.5898
5.62748
5.67249
5.72279
5.78082
5.84951
5.93106
6.01579
6.10369
5.42157
5.42946
5.44905
5.47286
5.5042
5.54338
5.59258
5.65528
5.72045
5.7883
7.575
7.56824
7.56432
7.56411
7.56801
7.57645
7.58953
7.60703
7.62474
7.63941
7.10885
7.10835
7.10844
7.10926
7.11084
7.11322
7.11654
7.12161
7.13226
7.1633
5.01139
5.011
5.01089
5.01205
5.01443
5.01824
5.02411
5.03261
5.04375
5.05632
4.93446
4.93639
4.93743
4.9377
4.9375
4.93713
4.93713
4.93821
4.9407
4.94482
4.95727
4.95898
4.9603
4.96269
4.96538
4.96808
4.9706
4.97251
4.97288
4.97037
5.01256
5.01739
5.02221
5.02695
5.03116
5.03445
5.03656
5.0372
5.03581
5.0336
5.09704
5.1047
5.11268
5.12178
5.13075
5.13947
5.14783
5.15557
5.16129
5.16329
5.16423
5.17588
5.19023
5.20564
5.22266
5.2412
5.26095
5.28164
5.29801
5.30898
5.30416
5.32143
5.3393
5.35842
5.37719
5.39636
5.41728
5.44107
5.46586
5.49343
5.30178
5.3038
5.31318
5.32447
5.34001
5.35945
5.38347
5.41372
5.44493
5.47634
7.35684
7.35182
7.34904
7.34915
7.3524
7.359
7.36885
7.38167
7.39421
7.40447
6.89788
6.89741
6.89747
6.89818
6.89958
6.90166
6.90457
6.90896
6.91814
6.94538
4.99323
4.99287
4.99286
4.99378
4.99567
4.9989
5.00424
5.01262
5.0245
5.03861
4.90156
4.90252
4.90297
4.9029
4.90257
4.90226
4.90246
4.90386
4.90697
4.91185
4.90609
4.90685
4.90729
4.90813
4.90905
4.90992
4.91074
4.91135
4.91135
4.90979
4.92797
4.92994
4.93176
4.93343
4.93472
4.93547
4.93561
4.93511
4.93386
4.93277
4.98083
4.98438
4.9876
4.99087
4.99356
4.99559
4.99705
4.998
4.99829
4.99722
5.02102
5.02614
5.03208
5.03812
5.04455
5.05138
5.05845
5.06586
5.07117
5.07378
5.15027
5.15975
5.16802
5.17556
5.18138
5.18574
5.18935
5.19301
5.19693
5.20542
5.22458
5.22361
5.22755
5.23275
5.24084
5.25141
5.26445
5.28079
5.2973
5.31381
7.12546
7.12181
7.11988
7.12013
7.12271
7.12767
7.13489
7.14406
7.15289
7.16012
6.67675
6.67631
6.67636
6.67697
6.67817
6.67999
6.68251
6.68626
6.69402
6.71753
4.98033
4.98007
4.98019
4.98098
4.98255
4.98534
4.99022
4.99842
5.0109
5.02661
4.88519
4.88565
4.88588
4.88584
4.88569
4.88569
4.88624
4.88798
4.89152
4.89692
4.88223
4.88268
4.8829
4.8832
4.88346
4.88368
4.88391
4.88412
4.88419
4.88345
4.88605
4.88673
4.88738
4.888
4.8885
4.88881
4.8889
4.88877
4.88841
4.8884
4.91915
4.92081
4.9221
4.92322
4.92385
4.92397
4.92367
4.92306
4.92227
4.92108
4.94271
4.94463
4.94682
4.94912
4.9517
4.95458
4.9577
4.96119
4.96368
4.96482
5.05934
5.0646
5.06836
5.07097
5.07197
5.07141
5.06965
5.06727
5.06454
5.0675
5.17648
5.17418
5.17534
5.17776
5.18251
5.18922
5.19754
5.20785
5.21762
5.22755
6.88094
6.87835
6.87703
6.87731
6.87925
6.88287
6.88801
6.89443
6.90065
6.90578
6.44526
6.44487
6.44491
6.44542
6.44644
6.44799
6.45012
6.45325
6.45967
6.47951
4.97051
4.97039
4.97061
4.97131
4.97261
4.97497
4.97933
4.98715
4.99992
5.01712
4.87704
4.87724
4.8774
4.87745
4.8775
4.87775
4.87854
4.88043
4.88412
4.8898
4.87157
4.87195
4.87212
4.87221
4.87222
4.87217
4.87213
4.87217
4.87231
4.87216
4.86662
4.86675
4.86694
4.86723
4.86756
4.86789
4.86821
4.8685
4.86873
4.8693
4.88754
4.88832
4.88886
4.88923
4.8893
4.88906
4.88856
4.88788
4.88715
4.88639
4.90189
4.90231
4.90291
4.90382
4.90508
4.90674
4.90874
4.91113
4.91306
4.91434
5.00594
5.00888
5.01055
5.01123
5.01076
5.00911
5.00637
5.003
4.99867
5.00051
5.14717
5.14446
5.14427
5.14552
5.1488
5.15382
5.16004
5.16756
5.17394
5.18072
6.62357
6.62176
6.62087
6.62111
6.62252
6.62507
6.62863
6.63304
6.63742
6.64109
6.20335
6.20302
6.20305
6.20347
6.20431
6.20558
6.20734
6.20987
6.21499
6.23125
4.96259
4.96262
4.9629
4.96352
4.96455
4.96646
4.97019
4.97738
4.99001
5.00846
4.87303
4.87312
4.87325
4.87338
4.87357
4.87397
4.87484
4.87671
4.8803
4.88604
4.86698
4.86735
4.86752
4.86753
4.86743
4.86726
4.86709
4.86703
4.86719
4.86744
4.85862
4.85854
4.85857
4.85874
4.85902
4.85938
4.85981
4.86027
4.86074
4.86148
4.87192
4.87229
4.87254
4.87266
4.87264
4.87245
4.87211
4.87167
4.87118
4.8708
4.88163
4.88143
4.88142
4.88183
4.88266
4.8839
4.8855
4.88747
4.88921
4.89073
4.9733
4.97491
4.97561
4.97563
4.97496
4.97353
4.97126
4.96849
4.96432
4.96638
5.12909
5.12645
5.12566
5.12644
5.12905
5.13323
5.13836
5.14436
5.14875
5.1539
6.35378
6.35255
6.35196
6.35214
6.35311
6.35485
6.35725
6.36023
6.36328
6.36589
5.95116
5.95091
5.95092
5.95125
5.95191
5.9529
5.95428
5.95622
5.96012
5.97291
4.95582
4.95599
4.95632
4.95683
4.95759
4.95904
4.96204
4.96828
4.98019
4.99945
4.87111
4.87117
4.87129
4.87145
4.87171
4.87216
4.87301
4.87469
4.87795
4.88351
4.86495
4.86529
4.86544
4.86543
4.8653
4.86509
4.86488
4.86476
4.86491
4.86542
4.85613
4.85601
4.856
4.85611
4.85633
4.85664
4.85702
4.85745
4.85791
4.85856
4.86454
4.86473
4.86485
4.8649
4.86489
4.86478
4.8646
4.86434
4.86405
4.86388
4.87185
4.87145
4.87127
4.87151
4.87213
4.8731
4.87437
4.87591
4.87737
4.87889
4.95081
4.95165
4.95189
4.95176
4.95127
4.95035
4.94885
4.947
4.94351
4.94602
5.11674
5.11439
5.11337
5.11396
5.11618
5.1198
5.12416
5.12911
5.13206
5.13629
6.07225
6.07144
6.07106
6.07119
6.07182
6.07295
6.07451
6.07646
6.07853
6.08036
5.68919
5.689
5.68901
5.68924
5.68972
5.69044
5.69144
5.69283
5.69556
5.70506
4.94945
4.94973
4.95005
4.95044
4.95094
4.95191
4.95408
4.95907
4.96952
4.98874
4.87016
4.8702
4.8703
4.87047
4.87073
4.87116
4.8719
4.87328
4.87599
4.88101
4.86369
4.86395
4.86407
4.86406
4.86395
4.86377
4.86358
4.86346
4.86358
4.86419
4.85609
4.856
4.85598
4.85605
4.85619
4.8564
4.85666
4.85696
4.85728
4.85774
4.86133
4.86144
4.86151
4.86153
4.86152
4.86145
4.86133
4.86116
4.86096
4.86086
4.86663
4.86627
4.86611
4.86625
4.86668
4.86736
4.86822
4.86924
4.87025
4.87151
4.93214
4.93258
4.93262
4.93251
4.93221
4.93169
4.9308
4.92965
4.92697
4.92961
5.10527
5.10328
5.10225
5.10272
5.1046
5.10764
5.11126
5.11521
5.11693
5.12051
5.77994
5.77943
5.77921
5.77928
5.77967
5.78036
5.78131
5.78251
5.78381
5.78503
5.41794
5.4179
5.41792
5.41808
5.41839
5.41887
5.41953
5.42042
5.42213
5.42859
4.94164
4.94191
4.9422
4.94243
4.94268
4.9432
4.94451
4.94791
4.95601
4.97372
4.86951
4.86952
4.8696
4.86974
4.86996
4.87032
4.87089
4.87189
4.87385
4.87781
4.86235
4.86252
4.8626
4.8626
4.86253
4.86241
4.86228
4.86219
4.86227
4.86279
4.85701
4.85696
4.85695
4.85698
4.85706
4.85716
4.85729
4.85744
4.85762
4.85786
4.86019
4.86027
4.86032
4.86033
4.8603
4.86023
4.86012
4.85998
4.85981
4.85971
4.86288
4.86265
4.86256
4.86264
4.86288
4.86324
4.86368
4.86417
4.86469
4.86552
4.91376
4.91405
4.91407
4.91399
4.91379
4.91343
4.91283
4.91206
4.91024
4.91235
5.08662
5.08498
5.08409
5.08442
5.08586
5.08818
5.09088
5.09369
5.09423
5.09708
5.47795
5.47766
5.47753
5.47757
5.47778
5.47814
5.47866
5.47932
5.48004
5.48076
5.13751
5.13743
5.13744
5.13752
5.13769
5.13794
5.13828
5.13873
5.13954
5.1436
4.92452
4.92469
4.92489
4.925
4.92507
4.92524
4.92577
4.92738
4.93214
4.94522
4.86826
4.86826
4.86832
4.86842
4.86858
4.86885
4.86923
4.86984
4.87096
4.8733
4.86104
4.86112
4.86116
4.86117
4.86114
4.86109
4.86103
4.86098
4.861
4.86125
4.85834
4.85833
4.85832
4.85833
4.85836
4.85839
4.85844
4.85849
4.85855
4.85864
4.8601
4.86016
4.86019
4.86019
4.86016
4.86009
4.86
4.85988
4.85975
4.85965
4.86029
4.86019
4.86016
4.86019
4.86028
4.86041
4.86055
4.86068
4.86082
4.86114
4.89342
4.89363
4.8937
4.89365
4.89346
4.89314
4.89269
4.89216
4.89137
4.89257
5.03658
5.03518
5.03454
5.03468
5.03556
5.03698
5.03864
5.04022
5.04002
5.04164
5.16638
5.16624
5.16618
5.16619
5.16627
5.16641
5.16662
5.16689
5.16719
5.16755
12.1686
12.6069
12.3845
11.3452
213.043
207.775
204.524
200.123
323.096
316.543
309.657
295.049
395.702
388.855
378.027
357.674
470.551
463.077
447.07
423.481
555.535
543.206
518.054
488.329
629.039
611.299
579.183
547.005
662.671
640.643
604.477
570.321
519.297
496.556
462.789
430.748
13.1922
13.3774
13.2884
13.1328
10.0875
10.4399
10.5858
10.4104
236.171
215.581
211.38
205.482
370.197
343.214
334.14
313.191
463.173
436.53
423.976
389.457
563.616
541.027
520.282
472.407
696.078
671.988
629.896
561.298
823.931
794.083
728.798
646.197
903.532
868.736
788.192
689.506
733.665
700.272
623.987
529.741
12.8199
12.8941
12.7173
12.3734
9.22851
9.38391
9.42773
9.32813
81.371
83.3458
80.2552
72.7587
137.805
139.911
132.851
117.642
182.963
184.16
173.472
152.144
234.628
235.151
220.112
191.553
302.163
303.458
283.602
244.628
376.282
378.264
352.664
302.831
433.079
434.33
402.403
342.631
346.712
345.153
315.338
260.544
10.7252
10.8135
10.7969
10.7004
8.93945
9.01176
9.02299
8.95671
33.8426
34.0744
33.5332
31.9986
59.2528
59.4837
57.7038
54.232
79.408
79.2242
76.1151
70.8496
102.808
102.122
97.2845
89.3027
133.084
131.778
124.625
113.331
166.346
164.243
154.432
139.561
192.148
189.275
177.328
159.591
147.07
143.438
133.125
117.244
9.77269
9.82845
9.85608
9.86166
8.70535
8.75902
8.76049
8.70518
16.5313
16.6912
16.5463
16.1945
29.8306
30.1151
29.6365
28.6253
40.0123
40.28
39.4534
37.8834
51.754
51.9849
50.6306
48.1676
67.262
67.5755
65.6777
62.2336
84.3129
84.7184
82.2008
77.6132
97.2296
97.7496
94.8028
89.2415
70.7964
70.8949
68.5051
63.2665
9.21657
9.25528
9.28746
9.31349
8.49946
8.5456
8.54608
8.49801
9.20861
9.23269
9.20719
9.16289
16.154
16.2338
16.1002
15.8047
21.5653
21.6623
21.4506
21.0169
27.7904
27.9247
27.5799
26.884
36.1032
36.3726
35.9455
34.9986
45.1661
45.6071
45.0904
43.8251
51.7245
52.3656
51.835
50.2785
35.4788
35.8571
35.4897
33.951
8.82858
8.85071
8.87578
8.9053
8.30795
8.3499
8.35002
8.30665
6.52802
6.52217
6.52022
6.53097
9.71007
9.72892
9.68577
9.58967
12.5658
12.5975
12.5422
12.4153
15.9183
15.9803
15.8934
15.68
20.4709
20.625
20.5528
20.2808
25.3945
25.6735
25.624
25.2655
28.8063
29.2323
29.2367
28.7954
19.0655
19.3533
19.4014
18.9558
8.52891
8.54101
8.55946
8.58725
8.11902
8.15785
8.15783
8.11796
5.62846
5.62019
5.6203
5.632
6.81691
6.81646
6.79875
6.76518
8.19496
8.20016
8.18414
8.14851
9.92456
9.94423
9.91838
9.84807
12.3662
12.4307
12.4237
12.3431
15.0133
15.1414
15.1599
15.0583
16.8224
17.0295
17.0885
16.9675
11.4311
11.5765
11.6536
11.5451
8.27792
8.28384
8.29691
8.3208
7.9256
7.9615
7.96143
7.92479
5.30897
5.30428
5.30439
5.31084
5.64945
5.64621
5.63734
5.62322
6.2391
6.23735
6.23284
6.22515
7.05496
7.05885
7.0496
7.02583
8.28258
8.30542
8.3073
8.28434
9.63987
9.6912
9.70802
9.68127
10.6199
10.7093
10.7483
10.7179
8.02561
8.09019
8.13798
8.12164
8.04834
8.05051
8.05946
8.07886
7.72481
7.75768
7.75761
7.72421
5.18135
5.18005
5.18021
5.18267
5.19995
5.19763
5.19247
5.18473
5.43263
5.43024
5.42918
5.42908
5.79384
5.79342
5.78939
5.78097
6.37384
6.38019
6.38158
6.37595
7.02514
7.04237
7.05072
7.04568
7.5682
7.60234
7.6207
7.61466
6.5201
6.54655
6.56986
6.57295
7.82384
7.82376
7.82971
7.84494
7.51513
7.54483
7.54475
7.51469
5.12341
5.12459
5.12483
5.12464
5.02198
5.02088
5.01762
5.01245
5.10426
5.10264
5.10263
5.10402
5.26097
5.26015
5.25816
5.25468
5.53262
5.53389
5.53441
5.53336
5.83789
5.84255
5.84594
5.84626
6.15403
6.16595
6.1731
6.17206
5.82355
5.83371
5.84416
5.84937
7.59642
7.59508
7.59895
7.61068
7.29564
7.32202
7.32193
7.29532
5.093
5.09601
5.0963
5.09417
4.94804
4.94782
4.94569
4.94187
4.9667
4.96576
4.96602
4.96735
5.03256
5.0321
5.03104
5.0293
5.16251
5.16255
5.1627
5.16265
5.30971
5.31044
5.3117
5.31291
5.50993
5.51393
5.5162
5.51554
5.48196
5.48507
5.48965
5.49425
7.36268
7.3607
7.36316
7.37205
7.06573
7.08867
7.08858
7.06548
5.07434
5.07892
5.07922
5.07539
4.91605
4.91643
4.91504
4.91207
4.90779
4.90729
4.90757
4.90851
4.93262
4.93247
4.9319
4.9309
4.99604
4.99591
4.99595
4.99604
5.07119
5.07087
5.07134
5.07246
5.21138
5.21276
5.2132
5.21227
5.30729
5.30721
5.30925
5.31328
7.12089
7.11869
7.12021
7.12687
6.82499
6.84471
6.84465
6.82478
5.06114
5.0671
5.06735
5.06202
4.90173
4.90254
4.90166
4.89922
4.88258
4.88237
4.88257
4.88312
4.88879
4.88882
4.88852
4.8879
4.9203
4.92022
4.92026
4.92032
4.96214
4.96167
4.96187
4.96276
5.07033
5.07092
5.07076
5.06967
5.21548
5.21385
5.2148
5.21858
6.87004
6.8679
6.8688
6.87371
6.57323
6.58995
6.58992
6.57312
5.05078
5.05811
5.0583
5.05142
4.89507
4.89623
4.8957
4.89357
4.87209
4.87208
4.8722
4.8724
4.86991
4.87003
4.86988
4.86948
4.88599
4.88599
4.88603
4.88605
4.91233
4.91196
4.91208
4.91275
5.00262
5.00308
5.00278
5.00163
5.16581
5.16338
5.16389
5.16762
6.60952
6.60759
6.60811
6.61166
6.31056
6.3243
6.32428
6.3105
5.04198
5.05089
5.05103
5.04241
4.89173
4.89318
4.89288
4.8909
4.86799
4.86813
4.86818
4.8681
4.86209
4.86223
4.86215
4.86189
4.87065
4.87068
4.87071
4.87068
4.88948
4.88928
4.88938
4.88984
4.96863
4.96921
4.96892
4.9677
5.13743
5.13461
5.13493
5.13869
6.33898
6.33739
6.33766
6.34016
6.03707
6.04792
6.04791
6.03704
5.03404
5.04479
5.04486
5.03429
4.88956
4.89127
4.89113
4.88918
4.86642
4.86669
4.8667
4.8664
4.85906
4.85918
4.85914
4.85896
4.86384
4.86388
4.86388
4.86381
4.87828
4.87825
4.87833
4.87858
4.94875
4.94956
4.94929
4.94791
5.11898
5.11607
5.11634
5.12003
6.05847
6.05725
6.05738
6.05906
5.75328
5.76138
5.76137
5.75327
5.02588
5.03848
5.03852
5.02599
4.8872
4.88908
4.88903
4.88707
4.86542
4.86578
4.86576
4.86535
4.85808
4.85815
4.85812
4.858
4.86085
4.86085
4.86082
4.86073
4.8714
4.87149
4.87155
4.8716
4.93271
4.93379
4.93349
4.9318
5.10303
5.10039
5.10064
5.10398
5.76842
5.76757
5.76763
5.76867
5.46013
5.46569
5.46569
5.46012
5.01359
5.02746
5.02746
5.01361
4.88346
4.88526
4.88526
4.88345
4.86392
4.86426
4.86424
4.86384
4.85803
4.85807
4.85804
4.85797
4.85965
4.85962
4.85956
4.85947
4.86574
4.8659
4.86594
4.86586
4.91486
4.916
4.91561
4.91373
5.08043
5.07871
5.07896
5.08132
5.4697
5.46923
5.46925
5.46977
5.15758
5.16106
5.16106
5.15758
4.98097
4.99349
4.99349
4.98095
4.87716
4.87834
4.87835
4.87719
4.86187
4.86206
4.86205
4.86183
4.85869
4.85869
4.85868
4.85865
4.85956
4.85951
4.85945
4.85939
4.86139
4.86152
4.86156
4.8615
4.89291
4.89329
4.89285
4.89168
5.0274
5.0275
5.02778
5.0283
5.16229
5.16216
5.16216
5.16229
10.13
9.43185
9.10865
8.98325
8.92753
8.87978
8.82988
8.78502
8.75066
8.72765
197.991
104.254
62.1286
50.0426
44.0347
38.6984
34.2622
30.8965
28.8495
28.1129
266.462
124.764
88.7234
75.1487
68.2914
63.0031
59.1536
56.5007
55.0094
54.7929
307.86
133.746
97.9651
81.1343
72.0761
65.2553
60.4766
57.2516
55.3798
55.2145
366.527
148.602
106.458
85.1042
72.7684
63.9971
57.9428
53.8884
51.3966
51.0869
439.63
176.872
117.642
89.5539
73.1942
62.1715
54.6403
49.631
46.46
45.7993
505.245
202.972
123.12
89.945
70.7151
58.3526
49.9777
44.4792
40.9204
40.0035
532.843
207.845
112.886
79.118
59.5644
47.669
39.839
34.9099
31.8075
30.9208
397.769
129.295
56.5228
35.9717
24.8904
19.2243
16.0951
14.4559
13.4769
13.2064
12.8222
10.576
9.94986
9.67331
9.49966
9.38403
9.30646
9.25074
9.20358
9.16918
9.72165
9.26153
9.03746
8.91425
8.83648
8.77724
8.72778
8.68757
8.65843
8.63998
131.933
71.5312
48.5203
38.82
33.1839
28.7252
25.1255
22.3974
20.6872
19.9359
183.037
96.6125
70.5977
58.9727
52.4481
47.68
44.2295
41.8718
40.5682
40.3172
213.222
108.334
79.2783
64.6975
56.4073
50.4529
46.3228
43.5844
42.0304
41.8016
250.627
121.602
87.0036
68.5969
57.8596
50.4471
45.3857
42.0589
40.0255
39.6174
316.329
144.279
97.4233
73.37
59.4052
50.1222
43.8316
39.7004
37.066
36.3072
391.439
166.053
103.582
74.9606
58.5414
48.051
40.9994
36.4229
33.4096
32.3846
432.306
172.235
96.8878
67.2755
50.3671
40.118
33.4262
29.2565
26.5805
25.6051
324.637
108.758
49.6937
31.3877
21.7855
16.8993
14.2038
12.7999
11.9364
11.6304
11.6745
10.2598
9.74685
9.50442
9.35389
9.25196
9.1813
9.12881
9.08299
9.04568
9.13109
8.93115
8.82492
8.75146
8.69298
8.64455
8.60539
8.57538
8.55453
8.54179
55.6857
41.9069
33.4062
27.5144
23.0865
19.6722
17.1202
15.2977
14.1974
13.7106
85.241
63.0896
51.1872
43.0155
37.5747
33.6974
30.9821
29.1803
28.2298
28.0746
106.023
74.5181
58.6916
48.0691
41.3454
36.6611
33.4704
31.4
30.287
30.1553
128.658
85.2565
65.0718
51.565
43.1956
37.5128
33.6734
31.1997
29.755
29.483
159.365
101.18
73.4351
56.0014
45.2902
38.1667
33.3587
30.2423
28.3179
27.758
194.304
116.016
78.8355
58.1487
45.5137
37.3756
31.9207
28.4257
26.181
25.3966
219.379
120.693
74.583
53.0965
39.9104
31.8617
26.6333
23.4203
21.4103
20.6711
159.938
74.1241
37.7752
24.9418
17.7314
14.1091
12.1038
11.0564
10.418
10.2041
10.5256
9.85864
9.51727
9.33053
9.20887
9.12417
9.06238
9.01377
8.9692
8.93164
8.79845
8.68299
8.61667
8.56718
8.5273
8.49504
8.46973
8.45077
8.43797
8.43063
29.2386
24.8231
20.8228
17.4871
14.875
12.9089
11.4965
10.521
9.95063
9.70424
47.565
39.9538
33.796
28.8505
25.2573
22.6635
20.8473
19.6507
19.0361
18.9498
60.4564
48.9716
40.0216
33.3268
28.7398
25.5172
23.3168
21.8971
21.1617
21.0934
73.6905
57.5572
45.2581
36.5417
30.782
26.8402
24.1782
22.4854
21.5395
21.384
92.3408
69.5044
52.0098
40.5638
33.0729
28.0308
24.6262
22.4439
21.1462
20.7841
112.699
80.323
56.7449
42.9499
33.9516
28.08
24.151
21.6673
20.1266
19.5996
127.611
83.6498
54.4978
39.9542
30.399
24.5227
20.7279
18.4318
17.0454
16.5554
90.2826
49.29
27.2783
19.0421
14.1604
11.7115
10.3319
9.60412
9.16211
9.02618
9.84446
9.47723
9.26072
9.12567
9.0335
8.96549
8.91341
8.87068
8.83008
8.7954
8.53387
8.45481
8.4131
8.38406
8.3612
8.34265
8.3279
8.31678
8.30943
8.30557
15.7028
14.0453
12.3314
10.8556
9.6946
8.82576
8.205
7.77404
7.52543
7.42361
26.7622
23.7366
20.7897
18.2937
16.359
14.9149
13.8864
13.2065
12.8666
12.8327
34.8924
30.1434
25.516
21.9093
19.2467
17.319
15.9832
15.1176
14.6811
14.6539
43.44
36.3598
29.5693
24.6555
21.1695
18.7286
17.0707
16.0261
15.4646
15.3896
55.4256
44.8276
34.8011
28.0618
23.3301
20.0774
17.8724
16.4721
15.6679
15.4572
68.1874
52.4947
38.7567
30.3504
24.484
20.5845
17.9745
16.3457
15.3684
15.0456
77.2194
54.9476
37.9546
28.8272
22.4629
18.5045
15.9587
14.4402
13.5542
13.2588
52.0849
31.0587
19.1684
14.3521
11.3563
9.81593
8.9181
8.43628
8.14228
8.05972
9.33659
9.13756
9.01446
8.92248
8.85469
8.80061
8.75705
8.72
8.68366
8.65233
8.31908
8.25805
8.23003
8.21255
8.1992
8.18829
8.17954
8.17299
8.1689
8.16715
9.18553
8.64911
8.04407
7.51204
7.08804
6.7651
6.52787
6.35635
6.25809
6.22369
15.2523
14.0732
12.7979
11.6716
10.7593
10.067
9.57269
9.2483
9.09563
9.09773
20.1136
18.1394
15.9863
14.2261
12.849
11.8296
11.1175
10.6546
10.4294
10.4307
25.3532
22.159
18.8251
16.2975
14.3989
13.0464
12.1278
11.5565
11.2629
11.2419
32.7514
27.698
22.5809
18.9154
16.1883
14.2783
12.9822
12.1671
11.7148
11.6111
40.5644
32.7737
25.6044
20.8333
17.3216
14.9443
13.3546
12.3751
11.8044
11.6278
45.8466
34.5493
25.6075
20.2419
16.3494
13.8934
12.3174
11.3877
10.8622
10.703
29.5276
19.2872
13.6165
11.0109
9.30901
8.38566
7.82283
7.51373
7.32332
7.27528
8.94853
8.84888
8.78235
8.72076
8.67085
8.62792
8.59178
8.56018
8.52832
8.50068
8.12885
8.0775
8.05629
8.04436
8.03565
8.02864
8.02311
8.01914
8.01694
8.0164
6.58644
6.43383
6.24447
6.07272
5.93098
5.81768
5.72951
5.66196
5.62424
5.61611
9.40868
8.95565
8.4557
8.00839
7.64311
7.36746
7.1729
7.04755
6.99652
7.0136
12.1168
11.2989
10.3762
9.59597
8.96857
8.50093
8.17384
7.96004
7.86181
7.87687
15.118
13.6823
12.1751
10.9796
10.0587
9.40079
8.95808
8.68794
8.55794
8.56593
19.4445
17.0817
14.6629
12.8046
11.3802
10.3728
9.69107
9.2663
9.03931
9.0009
24.0037
20.254
16.7734
14.2381
12.3195
11.0032
10.1247
9.58934
9.28528
9.20134
26.9993
21.5096
17.1171
14.1671
11.9918
10.5966
9.69997
9.17441
8.88663
8.81284
17.1484
12.5956
10.1306
8.79748
7.88
7.34353
7.0004
6.80681
6.68614
6.6591
8.64001
8.59499
8.55869
8.51726
8.48028
8.44643
8.41685
8.39048
8.36325
8.33951
7.94603
7.90029
7.8826
7.87338
7.86695
7.86197
7.85818
7.85565
7.8545
7.85461
5.64798
5.60401
5.54126
5.48208
5.43142
5.38902
5.35418
5.32632
5.31181
5.3125
6.70551
6.54893
6.38114
6.2319
6.11131
6.0218
5.96012
5.92227
5.91314
5.93122
8.05823
7.75361
7.40405
7.10263
6.85704
6.67281
6.54277
6.456
6.41988
6.43673
9.63737
9.04023
8.42327
7.9217
7.53455
7.25901
7.07595
6.96711
6.92093
6.93866
12.0302
10.9973
9.93534
9.07879
8.41553
7.94337
7.62381
7.42563
7.32484
7.31909
14.5713
12.8742
11.2844
10.0478
9.10183
8.44446
8.00443
7.73801
7.59023
7.5573
16.2506
13.7459
11.7102
10.2196
9.1125
8.38585
7.91489
7.63962
7.49498
7.4688
10.876
9.06014
8.04958
7.3907
6.91021
6.60421
6.39883
6.27934
6.20381
6.18869
8.37654
8.35835
8.33741
8.30923
8.2818
8.25545
8.23168
8.21023
8.18761
8.16782
7.76103
7.71948
7.70408
7.69641
7.69125
7.68738
7.68457
7.68282
7.68224
7.68268
5.29931
5.28244
5.25571
5.23028
5.2086
5.19036
5.17497
5.16255
5.1568
5.15962
5.59944
5.54749
5.49691
5.45321
5.41926
5.39549
5.38068
5.37361
5.37719
5.3911
6.20513
6.10883
5.99371
5.8921
5.80724
5.74214
5.69493
5.66208
5.65064
5.66386
6.95084
6.73152
6.51082
6.32903
6.18853
6.08855
6.02333
5.9865
5.97545
5.99236
8.17601
7.77288
7.35458
7.0048
6.73036
6.53177
6.39621
6.31231
6.2731
6.2796
9.50504
8.80803
8.1453
7.60516
7.18558
6.88683
6.68408
6.56178
6.49582
6.48666
10.4448
9.39952
8.53
7.84676
7.33055
6.97958
6.74877
6.61475
6.54914
6.54612
7.90088
7.23703
6.8315
6.5122
6.26408
6.09152
5.9699
5.8965
5.84917
5.84023
8.13384
8.12723
8.1143
8.09498
8.07475
8.05459
8.03592