/*--------------------------------*- C++ -*----------------------------------*\
| =========                 |                                                 |
| \\      /  F ield         | foam-extend: Open Source CFD                    |
|  \\    /   O peration     | Version:     4.0                                |
|   \\  /    A nd           | Web:         http://www.foam-extend.org         |
|    \\/     M anipulation  |                                                 |
\*---------------------------------------------------------------------------*/
FoamFile
{
    version     2.0;
    format      ascii;
    class       volScalarField;
    location    "850";
    object      divFlux;
}
// * * * * * * * * * * * * * * * * * * * * * * * * * * * * * * * * * * * * * //

dimensions      [1 -3 -1 0 0 0 0];

internalField   nonuniform List<scalar> 
34480
(
0.000840756
0.000326732
0.000345773
0.000333521
0.000321166
0.000309534
0.000299977
0.00507606
0.348038
0.000270691
0.000325764
0.00018101
0.0001766
0.000167661
0.0001614
0.000157997
0.000158931
0.000160191
0.303823
0.000152002
0.000112799
7.29803e-05
7.00486e-05
6.78369e-05
6.68296e-05
6.80016e-05
7.25563e-05
7.56998e-05
0.215861
7.22291e-05
4.87097e-05
3.2916e-05
3.20226e-05
3.09721e-05
3.04428e-05
3.15203e-05
3.39306e-05
3.48648e-05
0.074347
3.42779e-05
2.25433e-05
1.55408e-05
1.56097e-05
1.51286e-05
1.44523e-05
1.49629e-05
1.64766e-05
1.66947e-05
1.66382e-05
1.6837e-05
1.05122e-05
8.0343e-06
8.05166e-06
7.63126e-06
7.2119e-06
7.82743e-06
8.51861e-06
8.13132e-06
8.55905e-06
9.09949e-06
4.85372e-06
4.37452e-06
4.41118e-06
4.26583e-06
3.9457e-06
4.28095e-06
4.59512e-06
4.52741e-06
4.96427e-06
5.20502e-06
3.17741e-06
2.93862e-06
2.87118e-06
2.59695e-06
2.43507e-06
2.79704e-06
2.86151e-06
2.7613e-06
3.13335e-06
3.37134e-06
2.81585e-06
2.44792e-06
2.22607e-06
2.01672e-06
1.98148e-06
1.98185e-06
1.88013e-06
2.04312e-06
2.35166e-06
2.51556e-06
2.6385e-06
2.17355e-06
1.9424e-06
1.74656e-06
1.62678e-06
1.57775e-06
1.62865e-06
1.68772e-06
1.84572e-06
2.1149e-06
0.001218
0.000445675
0.000468299
0.000454578
0.000440228
0.000427675
0.00041828
0.000413249
0.000411335
0.0522509
0.00049303
0.000262994
0.000262391
0.000251206
0.000244367
0.000242395
0.000243021
0.000248151
0.00025565
0.107693
0.000181278
0.000119367
0.000116314
0.000112441
0.000112873
0.000118403
0.000123298
0.000130273
0.000137991
0.104359
8.68194e-05
6.18802e-05
5.94849e-05
5.75617e-05
5.79977e-05
6.16072e-05
6.4696e-05
6.874e-05
7.30111e-05
0.0443723
4.62104e-05
3.39147e-05
3.22301e-05
3.04046e-05
3.06655e-05
3.32585e-05
3.44174e-05
3.66744e-05
3.95455e-05
4.11856e-05
2.55781e-05
1.89628e-05
1.79147e-05
1.65497e-05
1.71822e-05
1.84953e-05
1.85834e-05
2.07785e-05
2.28113e-05
2.3554e-05
1.45348e-05
1.11062e-05
1.07067e-05
9.1771e-06
9.67622e-06
1.08791e-05
1.10362e-05
1.2567e-05
1.38603e-05
1.48866e-05
1.00156e-05
7.64116e-06
6.77661e-06
5.87742e-06
6.74679e-06
7.07294e-06
6.8644e-06
8.50359e-06
9.81799e-06
1.09851e-05
9.20035e-06
6.70608e-06
6.02428e-06
5.1984e-06
5.01826e-06
5.12731e-06
5.80666e-06
7.15186e-06
7.91021e-06
9.25729e-06
8.93151e-06
6.18842e-06
5.22488e-06
4.55964e-06
4.66808e-06
4.98847e-06
4.84936e-06
5.94289e-06
7.56158e-06
8.99731e-06
0.00122852
0.000367483
0.000393333
0.000381261
0.000368078
0.000357878
0.000352302
0.00035219
0.0119748
0.0728454
0.00045096
0.000194908
0.000198432
0.000189654
0.000182628
0.000177636
0.00017659
0.000181382
0.00855498
0.0576252
0.000149986
8.0344e-05
7.97097e-05
7.65876e-05
7.47908e-05
7.36047e-05
7.54151e-05
8.15676e-05
0.0030475
0.0311539
6.25045e-05
3.66352e-05
3.56495e-05
3.46188e-05
3.39172e-05
3.324e-05
3.47371e-05
3.81748e-05
4.2751e-05
5.39607e-05
2.88382e-05
1.77511e-05
1.68352e-05
1.70414e-05
1.64951e-05
1.53065e-05
1.65191e-05
1.88135e-05
2.09879e-05
2.74443e-05
1.54306e-05
9.71588e-06
8.97792e-06
9.08617e-06
8.14472e-06
7.52304e-06
8.95713e-06
9.56931e-06
1.04488e-05
1.4861e-05
9.56772e-06
5.88497e-06
4.97761e-06
5.48424e-06
4.63702e-06
3.97182e-06
4.76127e-06
5.13648e-06
6.13299e-06
8.95937e-06
6.23082e-06
3.90294e-06
3.48875e-06
3.48043e-06
2.41021e-06
2.49852e-06
3.30089e-06
3.2331e-06
3.92199e-06
5.98095e-06
4.87025e-06
3.14995e-06
2.6102e-06
2.42851e-06
2.13865e-06
2.24013e-06
2.1158e-06
2.18628e-06
3.21428e-06
5.02349e-06
3.66579e-06
2.28299e-06
2.04946e-06
1.79798e-06
1.4379e-06
1.4251e-06
1.76159e-06
1.96482e-06
2.43409e-06
4.14274e-06
0.00130397
0.00035607
0.000381391
0.000368961
0.000355546
0.000345417
0.000340296
0.000340593
0.000346397
0.0511884
0.000488908
0.000200532
0.000201938
0.000190912
0.000182143
0.000175284
0.000171726
0.000172926
0.0129393
0.0838318
0.000172412
8.88445e-05
8.65363e-05
8.05996e-05
7.70256e-05
7.40812e-05
7.29883e-05
7.56986e-05
0.0116661
0.0931597
7.57817e-05
4.27309e-05
4.06758e-05
3.74901e-05
3.57446e-05
3.41972e-05
3.38154e-05
3.54205e-05
0.0144999
0.0966071
3.39294e-05
2.0622e-05
1.92229e-05
1.77481e-05
1.73458e-05
1.62391e-05
1.59872e-05
1.72301e-05
0.00474516
0.0802325
1.6387e-05
1.05267e-05
9.66479e-06
9.10493e-06
8.78319e-06
7.81932e-06
8.24335e-06
8.93601e-06
1.00335e-05
0.062545
8.86247e-06
6.0287e-06
5.07274e-06
4.97813e-06
4.89048e-06
4.1639e-06
4.39545e-06
4.81003e-06
5.81818e-06
0.0309787
5.33157e-06
3.61304e-06
3.10352e-06
3.22548e-06
2.76927e-06
2.32319e-06
2.86211e-06
3.0853e-06
3.84142e-06
0.0127814
4.18942e-06
2.77955e-06
2.34615e-06
2.22875e-06
2.05259e-06
2.03515e-06
2.11236e-06
2.16831e-06
3.06843e-06
4.65518e-06
3.27539e-06
1.97332e-06
1.8047e-06
1.69463e-06
1.5148e-06
1.33654e-06
1.66064e-06
1.92992e-06
2.40421e-06
3.98887e-06
0.00135661
0.000337366
0.000362965
0.000351421
0.000338451
0.000328475
0.000323045
0.0003226
0.000326652
0.0312042
0.000494505
0.000191331
0.000194355
0.000184555
0.000176353
0.000169752
0.00016575
0.00016481
0.0163857
0.0656385
0.000177047
8.71971e-05
8.59627e-05
8.05376e-05
7.66844e-05
7.33012e-05
7.13065e-05
7.14949e-05
0.0148545
0.0708549
7.9602e-05
4.33321e-05
4.17697e-05
3.86461e-05
3.64439e-05
3.45891e-05
3.35639e-05
3.35983e-05
0.0175996
0.0788758
3.76845e-05
2.18612e-05
2.06741e-05
1.88606e-05
1.78773e-05
1.67627e-05
1.61736e-05
1.64142e-05
0.0120345
0.072341
1.8054e-05
1.11036e-05
1.03738e-05
9.51871e-06
9.08127e-06
8.26274e-06
8.2695e-06
8.45703e-06
0.0112601
0.066217
8.99041e-06
5.8691e-06
5.28969e-06
4.94904e-06
4.90147e-06
4.40241e-06
4.40317e-06
4.55085e-06
0.000852843
0.0501633
5.14226e-06
3.42362e-06
3.04633e-06
3.0182e-06
2.86889e-06
2.47586e-06
2.75603e-06
2.91855e-06
0.00262287
0.0455052
4.14872e-06
2.62358e-06
2.26941e-06
2.1427e-06
2.08605e-06
2.02115e-06
2.13626e-06
2.13953e-06
2.87489e-06
0.0298958
3.4308e-06
1.93662e-06
1.75208e-06
1.63003e-06
1.5696e-06
1.3615e-06
1.62167e-06
1.8639e-06
2.30556e-06
0.0428313
0.0013809
0.000311799
0.000336606
0.000325932
0.000313644
0.000304175
0.000298809
0.000297929
0.000301137
0.00741507
0.00047966
0.000172857
0.000177127
0.000169104
0.000162374
0.000157079
0.000153929
0.000153024
0.00735467
0.0344281
0.000162546
7.58198e-05
7.6486e-05
7.29261e-05
7.04275e-05
6.80044e-05
6.65393e-05
6.62503e-05
0.0124581
0.0447673
6.90021e-05
3.61236e-05
3.61929e-05
3.45425e-05
3.33145e-05
3.21527e-05
3.14756e-05
3.12431e-05
0.0165124
0.0532014
3.37708e-05
1.87766e-05
1.83755e-05
1.72897e-05
1.66325e-05
1.58464e-05
1.54339e-05
1.54246e-05
0.0134715
0.0506013
1.74255e-05
1.0126e-05
9.60935e-06
8.95284e-06
8.57573e-06
8.02798e-06
7.99179e-06
7.96825e-06
0.0136637
0.0480588
9.24097e-06
5.54778e-06
5.07058e-06
4.72491e-06
4.63138e-06
4.33809e-06
4.30939e-06
4.30942e-06
0.00683866
0.0383142
5.81414e-06
3.51288e-06
3.06978e-06
2.87206e-06
2.76472e-06
2.53201e-06
2.68083e-06
2.75575e-06
0.0086615
0.0374618
4.77646e-06
2.77746e-06
2.31773e-06
2.09159e-06
2.06288e-06
1.99543e-06
2.10478e-06
2.05929e-06
0.00246829
0.0325677
3.85965e-06
2.08262e-06
1.78872e-06
1.58095e-06
1.53649e-06
1.35799e-06
1.56679e-06
1.73988e-06
0.00653462
0.0404315
0.00138719
0.00028451
0.000307809
0.000297786
0.00028599
0.00027677
0.000271221
0.000269732
0.000272343
0.000289749
0.000478241
0.000160976
0.00016445
0.000156372
0.00014956
0.000144328
0.000141138
0.000139987
0.000981793
0.0141528
0.000166683
7.28467e-05
7.25706e-05
6.85527e-05
6.57677e-05
6.32658e-05
6.17346e-05
6.11083e-05
0.00701594
0.02415
6.88774e-05
3.39412e-05
3.36716e-05
3.19755e-05
3.07927e-05
2.97756e-05
2.91712e-05
2.88154e-05
0.0114461
0.031106
3.1024e-05
1.65055e-05
1.63434e-05
1.55511e-05
1.51172e-05
1.45526e-05
1.42887e-05
1.4237e-05
0.0101125
0.0296093
1.59454e-05
8.87227e-06
8.51722e-06
8.04033e-06
7.74949e-06
7.41585e-06
7.43112e-06
7.37493e-06
0.0104023
0.0274209
9.31679e-06
5.2607e-06
4.76837e-06
4.40542e-06
4.25416e-06
4.07826e-06
4.06889e-06
4.03472e-06
0.00570541
0.0201032
6.25194e-06
3.58987e-06
3.0784e-06
2.76375e-06
2.5847e-06
2.45097e-06
2.54641e-06
2.59109e-06
0.00622497
0.0185256
4.95115e-06
2.7976e-06
2.30776e-06
2.01131e-06
1.94996e-06
1.8953e-06
2.00454e-06
1.96354e-06
0.00311562
0.0159382
3.70111e-06
1.9973e-06
1.70884e-06
1.47665e-06
1.41299e-06
1.28057e-06
1.46763e-06
1.60917e-06
0.00472366
0.0193198
0.00137013
0.000256041
0.000277674
0.000268476
0.00025729
0.000248411
0.000242783
0.000240611
0.000242038
0.000257485
0.000467564
0.000148252
0.000151624
0.000143956
0.000137211
0.000131953
0.000128554
0.000126938
0.000126805
0.00380311
0.000171064
7.10633e-05
7.02386e-05
6.57883e-05
6.24625e-05
5.9561e-05
5.76684e-05
5.6594e-05
0.00258935
0.0104586
7.68467e-05
3.60043e-05
3.46819e-05
3.2145e-05
3.02623e-05
2.87761e-05
2.77964e-05
2.70695e-05
0.00588836
0.0150908
3.507e-05
1.78398e-05
1.70287e-05
1.57273e-05
1.49025e-05
1.41047e-05
1.36629e-05
1.3409e-05
0.00535099
0.0139315
1.6885e-05
9.20662e-06
8.66544e-06
8.01266e-06
7.53423e-06
7.14805e-06
7.06807e-06
6.92486e-06
0.00521769
0.0114057
9.3903e-06
5.30783e-06
4.83591e-06
4.3921e-06
4.11929e-06
3.92342e-06
3.86791e-06
3.78845e-06
0.00204515
0.00548348
5.56375e-06
3.33765e-06
2.98623e-06
2.68685e-06
2.44776e-06
2.33388e-06
2.38254e-06
2.40294e-06
0.000940347
0.00199119
4.0873e-06
2.40494e-06
2.11071e-06
1.86699e-06
1.78588e-06
1.74474e-06
1.84562e-06
1.81323e-06
8.47378e-05
6.27422e-05
3.02539e-06
1.67145e-06
1.51081e-06
1.34436e-06
1.26814e-06
1.17342e-06
1.33582e-06
1.4575e-06
0.000188022
0.00032911
0.00131627
0.000224012
0.000243869
0.000235912
0.000225753
0.000217568
0.000212206
0.000209709
0.000209909
0.00022149
0.000433632
0.000129127
0.000132938
0.000126656
0.000120886
0.000116333
0.000113318
0.000111715
0.000110964
0.00010678
0.000151841
6.02473e-05
6.07694e-05
5.76911e-05
5.52059e-05
5.29238e-05
5.13876e-05
5.04096e-05
0.000591608
0.00373668
6.77433e-05
3.07268e-05
3.0416e-05
2.86771e-05
2.72246e-05
2.60307e-05
2.51735e-05
2.44228e-05
0.0023246
0.00587226
3.33328e-05
1.64054e-05
1.58397e-05
1.46963e-05
1.38919e-05
1.31115e-05
1.26342e-05
1.2274e-05
0.00189368
0.00451574
1.68219e-05
8.92618e-06
8.418e-06
7.76499e-06
7.20997e-06
6.79191e-06
6.62514e-06
0.000167404
0.000934215
0.00139179
8.80076e-06
4.94201e-06
4.63644e-06
4.24274e-06
3.93764e-06
3.73379e-06
3.62937e-06
3.50578e-06
0.00101609
0.00326058
4.77926e-06
2.9074e-06
2.735e-06
2.52838e-06
2.29395e-06
2.18062e-06
2.18939e-06
0.0005626
0.00380514
0.00851761
3.75125e-06
2.1474e-06
1.94995e-06
1.75932e-06
1.65095e-06
1.60857e-06
1.6809e-06
1.64042e-06
0.00320069
0.00942034
3.10156e-06
1.66068e-06
1.48691e-06
1.33937e-06
1.21944e-06
1.12589e-06
1.23194e-06
0.000622354
0.00478077
0.0113803
0.00124413
0.000191145
0.000209136
0.000202521
0.000193503
0.000186155
0.000181317
0.000178992
0.000178575
0.000185149
0.000397611
0.000110857
0.000114392
0.000109031
0.00010397
9.99941e-05
9.73139e-05
9.58679e-05
9.49837e-05
8.88377e-05
0.000138192
5.17959e-05
5.23296e-05
4.97889e-05
4.76654e-05
4.57604e-05
4.4469e-05
4.35998e-05
4.30361e-05
0.00104289
5.80738e-05
2.51378e-05
2.53199e-05
2.42175e-05
2.32138e-05
2.24104e-05
2.18038e-05
2.11784e-05
0.000595953
0.00153509
2.7072e-05
1.29176e-05
1.29358e-05
1.23291e-05
1.18521e-05
1.13413e-05
1.10071e-05
1.06865e-05
0.000110161
6.03909e-05
1.38943e-05
7.12951e-06
6.97381e-06
6.62854e-06
6.24831e-06
5.97449e-06
5.84749e-06
0.000414652
0.00169754
0.0035249
7.485e-06
3.97234e-06
3.8703e-06
3.6498e-06
3.44313e-06
3.32011e-06
3.238e-06
3.10697e-06
0.00243397
0.00666944
4.87077e-06
2.66383e-06
2.46431e-06
2.29558e-06
2.08799e-06
1.98339e-06
1.96937e-06
0.00222708
0.00688416
0.013255
4.24386e-06
2.20337e-06
1.93057e-06
1.72627e-06
1.56977e-06
1.51547e-06
1.54586e-06
1.47354e-06
0.0048585
0.0127097
3.27203e-06
1.69387e-06
1.47266e-06
1.33223e-06
1.18161e-06
1.08791e-06
1.14222e-06
0.00212725
0.00773423
0.016348
0.00115346
0.000158207
0.000175175
0.000170717
0.000163397
0.000157223
0.000153159
0.000151595
0.000152449
0.000158491
0.000360838
9.42179e-05
9.7483e-05
9.28846e-05
8.84196e-05
8.49227e-05
8.24753e-05
8.10751e-05
8.06005e-05
7.34563e-05
0.00012922
4.57203e-05
4.58916e-05
4.34143e-05
4.12656e-05
3.94224e-05
3.81377e-05
3.72241e-05
3.68407e-05
0.000192411
5.71616e-05
2.33412e-05
2.30257e-05
2.17103e-05
2.05348e-05
1.96927e-05
1.90537e-05
1.84094e-05
3.09267e-06
0.000113927
2.64197e-05
1.19105e-05
1.16747e-05
1.10115e-05
1.0476e-05
9.99228e-06
9.65732e-06
9.31771e-06
0.000559885
0.00153027
1.29376e-05
6.3131e-06
6.11855e-06
5.81411e-06
5.45964e-06
5.2443e-06
5.12345e-06
0.00118882
0.00304532
0.00532736
7.25811e-06
3.61883e-06
3.46094e-06
3.24113e-06
3.0413e-06
2.94907e-06
2.88403e-06
2.74872e-06
0.00243158
0.00673122
4.77344e-06
2.50144e-06
2.27143e-06
2.10406e-06
1.90928e-06
1.8114e-06
0.000637917
0.00392601
0.00849603
0.0143307
3.4875e-06
1.81987e-06
1.66217e-06
1.53946e-06
1.39799e-06
1.381e-06
1.4066e-06
1.33831e-06
0.00488028
0.0120096
2.37535e-06
1.20186e-06
1.08948e-06
1.05223e-06
9.5485e-07
9.25747e-07
9.9507e-07
0.00341721
0.00893771
0.0168211
0.00104556
0.000117026
0.00013222
0.000129207
0.000122903
0.000117144
0.000112654
0.000109676
0.000108391
0.000110847
0.000316409
7.68512e-05
7.98628e-05
7.60181e-05
7.21469e-05
6.91667e-05
6.70607e-05
6.5738e-05
6.5494e-05
6.17131e-05
0.000110886
3.71831e-05
3.76473e-05
3.57957e-05
3.40474e-05
3.2539e-05
3.14248e-05
3.05236e-05
1.10477e-05
3.85683e-05
4.94183e-05
1.93093e-05
1.92374e-05
1.82239e-05
1.72176e-05
1.65381e-05
1.59838e-05
1.53773e-05
1.81047e-06
0.000473684
2.3915e-05
1.03202e-05
1.00905e-05
9.50995e-06
8.99066e-06
8.57266e-06
8.24956e-06
7.88912e-06
0.000674446
0.00177552
1.22494e-05
5.70897e-06
5.44838e-06
5.12676e-06
4.75282e-06
4.55931e-06
0.000447552
0.00184469
0.00360923
0.00557971
6.92421e-06
3.35265e-06
3.1572e-06
2.91601e-06
2.69406e-06
2.60715e-06
2.5505e-06
2.41145e-06
0.00148421
0.00513521
3.70172e-06
1.97806e-06
1.8665e-06
1.77803e-06
1.6384e-06
1.58443e-06
0.00236448
0.00530654
0.00916583
0.0136486
2.5944e-06
1.29202e-06
1.23221e-06
1.19685e-06
1.09875e-06
1.14604e-06
1.20195e-06
1.19592e-06
0.00359681
0.00917561
2.28937e-06
1.04821e-06
8.91923e-07
8.60796e-07
7.73044e-07
7.77083e-07
0.000185594
0.00416461
0.00883022
0.0149612
0.00116814
0.000134073
0.000154049
0.000155224
0.000151673
0.000148265
0.000145632
0.000143586
0.000142491
0.000145591
0.00025701
5.85887e-05
6.31519e-05
6.12905e-05
5.87727e-05
5.67287e-05
5.51358e-05
5.37203e-05
5.2123e-05
4.79689e-05
9.21196e-05
2.91937e-05
2.98121e-05
2.85345e-05
2.72245e-05
2.60965e-05
2.08916e-05
6.43949e-05
0.000236942
0.000229493
4.03325e-05
1.50162e-05
1.51229e-05
1.44338e-05
1.36527e-05
1.31696e-05
1.27271e-05
1.21914e-05
1.17169e-05
0.000276477
1.91822e-05
7.98524e-06
7.92983e-06
7.57705e-06
7.1826e-06
6.89764e-06
6.61989e-06
6.24428e-06
0.000630023
0.00155345
9.822e-06
4.46531e-06
4.35358e-06
4.15715e-06
3.85496e-06
0.000164015
0.00118064
0.00234112
0.00377744
0.00520918
5.33036e-06
2.52691e-06
2.46519e-06
2.3305e-06
2.16329e-06
2.11317e-06
2.06793e-06
1.91207e-06
2.45873e-05
0.00291271
0.00131397
0.000203889
1.49188e-06
1.42728e-06
0.000734362
0.00207271
0.00408883
0.00639329
0.00940207
0.0124177
3.13025e-06
1.41028e-06
1.21067e-06
1.09808e-06
9.4076e-07
9.59989e-07
9.57889e-07
9.41072e-07
0.00146693
0.00548589
2.41227e-06
1.19435e-06
1.00754e-06
9.34013e-07
7.93513e-07
7.27956e-07
0.00123975
0.00440581
0.00797394
0.0122815
8.64343e-05
0.000138108
0.000126315
0.000117929
0.000115851
0.000110472
9.86462e-05
8.10545e-05
5.95131e-05
3.35809e-05
0.000257615
4.77515e-05
4.89515e-05
4.52646e-05
4.1622e-05
3.93601e-05
3.84285e-05
3.84964e-05
3.85646e-05
3.44472e-05
0.000250877
0.00021924
0.000277803
0.000313491
0.000362135
0.000434463
0.000532633
0.00059287
0.000795212
0.000595828
3.37918e-05
1.19568e-05
1.20263e-05
1.14299e-05
1.07218e-05
1.03368e-05
1.00025e-05
9.60791e-06
9.40677e-06
7.57724e-06
1.61983e-05
6.42796e-06
6.33788e-06
6.04892e-06
5.68747e-06
5.49176e-06
5.28716e-06
0.000184323
0.000667273
0.00132193
0.000835083
0.000281245
0.000101473
0.000181589
0.00051838
0.00107949
0.00186327
0.00271607
0.00379543
0.0047027
4.58624e-06
2.0515e-06
1.97379e-06
1.85993e-06
1.69189e-06
1.65242e-06
1.59032e-06
1.39649e-06
1.4506e-06
0.000653324
0.00374632
0.00282052
0.00236455
0.00254573
0.00315628
0.00418734
0.00574061
0.00735913
0.00961348
0.0113335
2.37557e-06
1.17614e-06
1.08428e-06
1.00274e-06
8.36005e-07
8.10176e-07
6.98906e-07
5.55562e-07
5.97702e-07
0.00168064
1.41099e-06
6.67816e-07
6.15508e-07
6.38859e-07
5.61144e-07
6.16302e-05
0.00198428
0.0042581
0.00679149
0.00959828
0.00527835
0.000637935
0.000572479
0.000739917
0.000681368
0.00059246
0.000493356
0.000394834
0.000299869
0.00020572
6.2503e-05
7.06272e-06
2.33992e-05
2.94644e-05
3.01744e-05
2.92232e-05
2.83909e-05
2.89333e-05
3.2104e-05
3.4774e-05
0.000980289
0.00106315
0.00116785
0.00123747
0.001283
0.00133991
0.00141448
0.00143093
0.0016448
0.00118457
2.63287e-05
8.7517e-06
8.92146e-06
8.55019e-06
8.0313e-06
7.77594e-06
7.52316e-06
7.1526e-06
6.95946e-06
5.79798e-06
1.26891e-05
4.8129e-06
4.75999e-06
4.58021e-06
4.29343e-06
4.20403e-06
0.000273482
0.000577034
0.000887734
0.00127293
0.00171799
0.00131384
0.00116821
0.00122487
0.0014631
0.00185941
0.0024113
0.00298782
0.00376546
0.00425725
3.79992e-06
1.65552e-06
1.58023e-06
1.5013e-06
1.33526e-06
1.34347e-06
1.30424e-06
1.14452e-06
1.1119e-06
1.07208e-06
0.00623262
0.00546377
0.00502211
0.00514822
0.00558208
0.00631225
0.00743046
0.00845872
0.0101414
0.010811
1.31751e-06
5.75607e-07
6.06323e-07
6.3152e-07
5.67104e-07
6.48528e-07
6.23346e-07
4.98563e-07
4.28942e-07
4.99031e-07
0.000156123
5.38707e-07
4.09227e-07
4.1129e-07
4.00937e-07
0.00086201
0.00223836
0.00370299
0.00540271
0.00711004
0.0144472
0.0022631
0.00220515
0.00174532
0.00133116
0.000976399
0.000684148
0.000441689
0.000229926
2.76258e-05
0.000497083
6.90501e-05
6.47502e-05
6.12016e-05
5.54209e-05
4.69456e-05
3.55937e-05
2.06273e-05
2.03598e-07
2.81371e-05
0.00192136
0.00218364
0.00232102
0.00242426
0.0024679
0.00250937
0.00255827
0.00253803
0.0027617
0.00201301
1.90651e-05
5.9717e-06
6.19495e-06
5.95981e-06
5.55089e-06
5.33823e-06
5.17699e-06
4.96908e-06
4.65459e-06
4.13854e-06
0.000614089
0.000444784
0.000441317
0.000472353
0.000556658
0.000689844
0.000861245
0.00103485
0.00122647
0.00138863
0.00230406
0.00203104
0.0019169
0.00194647
0.00209646
0.00235027
0.00270802
0.00307409
0.0036205
0.00383796
2.68785e-06
1.14216e-06
1.10756e-06
1.10658e-06
9.51741e-07
1.04122e-06
1.04952e-06
9.55422e-07
9.8054e-07
7.3299e-07
0.00896861
0.00826522
0.00782115
0.00787803
0.00815355
0.00863258
0.00939233
0.00999386
0.0112896
0.0111462
1.6824e-06
6.44541e-07
5.51125e-07
5.17523e-07
4.41857e-07
5.99994e-07
6.93647e-07
6.92782e-07
7.65772e-07
5.95071e-07
0.00034163
8.94083e-06
5.12419e-07
5.0585e-07
0.00023394
0.000815137
0.00173143
0.00254125
0.00364768
0.0045818
0.0573658
0.00326375
0.00293519
0.00217192
0.00152112
0.00102513
0.000649924
0.000353378
9.60598e-05
0.000154619
0.000476056
0.000235278
0.000178955
0.000131566
8.83748e-05
4.812e-05
8.63817e-06
3.34783e-05
8.3196e-05
0.000140281
0.00297659
0.00342715
0.00359648
0.00372055
0.00376586
0.00379826
0.00383114
0.00380523
0.00404102
0.00305779
1.3629e-05
3.78798e-06
3.9613e-06
3.82572e-06
3.6181e-06
3.5093e-06
3.40633e-06
3.32449e-06
3.2566e-06
2.64868e-06
0.00104747
0.000993305
0.000986983
0.0010064
0.00105015
0.00112071
0.00121367
0.00130239
0.00142251
0.00144639
0.0023624
0.00218977
0.00210879
0.00211749
0.00219852
0.00234003
0.00254434
0.00275598
0.00311744
0.00320227
1.91983e-06
7.71439e-07
7.14471e-07
7.43604e-07
5.10205e-07
5.57351e-07
5.47798e-07
4.80818e-07
4.78078e-07
5.37574e-07
0.0119373
0.0111757
0.0107137
0.0106938
0.0108384
0.0111219
0.0116002
0.0119404
0.0129789
0.0122839
1.01239e-06
4.82508e-07
4.49287e-07
4.03429e-07
1.45533e-07
1.78455e-07
2.24922e-07
2.3905e-07
2.3616e-07
4.44545e-07
4.97721e-07
1.85576e-07
1.73422e-07
1.38954e-07
1.20086e-07
4.58951e-05
0.000602747
0.000941651
0.00170718
0.00206354
0.0834866
0.00177865
0.00147047
0.00102908
0.000668684
0.000392984
0.000175374
1.22857e-05
0.000196622
0.000397545
0.000636032
0.000408428
0.000294318
0.00019667
0.000118948
5.53664e-05
9.71107e-07
5.70391e-05
0.000120082
0.000187565
0.00357452
0.00406014
0.00426625
0.00437722
0.00441682
0.00443771
0.00445739
0.00445272
0.00466527
0.00370765
8.07885e-06
2.2503e-06
2.35514e-06
2.17446e-06
1.91404e-06
1.71827e-06
1.50042e-06
1.24512e-06
1.08304e-06
2.59903e-07
0.00100792
0.00099706
0.0009855
0.000990313
0.00100514
0.00103221
0.00107018
0.00110456
0.00117127
0.00114705
0.00173943
0.00164313
0.00160199
0.00160273
0.00163629
0.00169537
0.00178173
0.00187283
0.00206271
0.00210628
1.18518e-06
4.68326e-07
4.08209e-07
5.02021e-07
3.66561e-07
3.83305e-07
3.73865e-07
3.68181e-07
2.58846e-07
3.90547e-07
0.0136128
0.0128028
0.012371
0.0122987
0.0123441
0.012469
0.012705
0.0128709
0.0136394
0.0127786
4.22601e-07
1.62331e-07
1.46101e-07
2.94202e-07
1.54969e-07
8.51421e-08
5.85367e-08
8.39251e-08
1.41462e-08
8.69012e-08
0.000548124
0.000539049
0.000362719
0.000419485
0.000500916
0.000648429
0.000938844
0.00101262
0.00167981
0.0015694
0.0333625
0.00044364
0.000953192
0.0012393
0.00146054
0.00163243
0.00177123
0.00195544
0.00191417
0.00175838
0.000111318
0.000153642
9.70979e-05
4.94632e-05
1.18405e-05
1.96555e-05
4.91405e-05
8.01456e-05
0.000115268
0.000143815
0.00253196
0.00268747
0.0029071
0.00298228
0.00300816
0.00300781
0.00299639
0.00298215
0.00306626
0.00259639
4.54827e-06
1.06373e-06
1.23905e-06
1.34494e-06
1.40086e-06
1.47177e-06
1.54548e-06
1.582e-06
1.51843e-06
1.70836e-06
0.000527483
0.000522945
0.000517519
0.000516881
0.000517877
0.000520762
0.00052519
0.000526776
0.00054338
0.000513114
0.000750516
0.000716068
0.000709507
0.000711577
0.00071923
0.000729736
0.000743941
0.000756148
0.000805176
0.000812139
6.02518e-07
2.38209e-07
2.37866e-07
2.48696e-07
2.1529e-07
2.14386e-07
2.03365e-07
2.22943e-07
1.83418e-07
6.24231e-08
0.0103173
0.00985297
0.00961884
0.0095697
0.00956402
0.00957019
0.00959605
0.00958272
0.00989905
0.00929472
3.87004e-07
1.64497e-07
1.50024e-07
1.66804e-07
1.85791e-07
1.85769e-07
1.75385e-07
1.85074e-07
2.25781e-07
2.84442e-08
0.00733627
0.00733761
0.00725013
0.00729768
0.00732129
0.00735238
0.0074335
0.00738493
0.00792314
0.00740374
0.00800323
0.000135442
0.000304304
0.000403983
0.000453089
0.000453903
0.000406321
0.000310815
0.000169909
3.20775e-05
9.73472e-06
5.02992e-05
3.79787e-05
2.99687e-05
2.63078e-05
2.6022e-05
2.82464e-05
3.22642e-05
3.70182e-05
3.58473e-05
0.000172996
9.15321e-05
0.000211316
0.000252263
0.000262551
0.000246856
0.000205325
0.000132357
1.31286e-05
0.000172906
1.23772e-06
2.28457e-07
2.3092e-07
2.15093e-07
1.97472e-07
1.78581e-07
1.70744e-07
1.87096e-07
8.85267e-08
3.09853e-08
7.80611e-05
7.6201e-05
7.77817e-05
7.81967e-05
7.76567e-05
7.61733e-05
7.37107e-05
6.93891e-05
6.40474e-05
5.33368e-05
0.000102048
9.82395e-05
0.000100186
0.000101538
0.000101631
0.000100348
9.79554e-05
9.38087e-05
9.26532e-05
8.70302e-05
2.0993e-07
2.7517e-08
5.39013e-08
3.84119e-08
3.8641e-08
3.53191e-08
3.01644e-08
3.38172e-08
6.82326e-08
4.37829e-09
0.00266229
0.00270364
0.00269324
0.00269532
0.00269035
0.00267317
0.00264251
0.00258429
0.00255762
0.00232404
1.09043e-07
3.76864e-08
8.69526e-09
6.86248e-09
8.85146e-09
7.60184e-09
5.20674e-09
9.85115e-09
1.62971e-08
7.5227e-08
0.0157204
0.0159937
0.0160851
0.0161436
0.0161417
0.0160941
0.016006
0.0158309
0.0157659
0.014722
0.76177
0.26476
0.210814
0.719895
4.49239
3.59632
3.82707
5.49832
7.36142
6.08984
6.54893
9.36187
9.04468
7.67057
8.32547
12.1938
10.3296
8.98485
9.83232
14.9638
11.092
9.49411
10.9983
17.7373
11.3641
9.43174
11.6101
19.8467
11.1784
9.06776
12.0014
21.5885
10.8509
8.86705
12.4943
23.1153
10.1773
8.52244
13.0853
24.4152
0.92998
0.0328929
0.000774723
0.303072
1.39609
0.0917273
0.000663459
0.484132
1.94828
0.179097
0.000422484
0.672361
2.45612
0.283461
0.000257182
0.809676
2.93471
0.387083
0.000159741
0.884553
3.35923
0.484573
0.000101283
1.05149
3.68376
0.550034
7.02688e-05
1.25028
3.92367
0.619957
5.61243e-05
1.45003
4.09902
0.734242
0.110902
1.63817
4.18599
1.04684
0.477234
1.74985
0.803708
0.52567
0.470711
0.577063
1.0617
0.613608
0.514192
0.707363
1.38695
0.76148
0.660529
0.939441
1.65209
0.855777
0.770476
1.14519
1.86199
0.907865
0.843472
1.31805
2.04624
0.950971
0.91318
1.49547
2.18555
0.966108
0.958078
1.65361
2.3138
0.982587
1.00721
1.8227
2.38633
0.944886
1.01871
1.94285
2.44451
0.939296
1.08048
2.03112
0.141834
0.080487
0.0639787
0.0833701
0.244374
0.13185
0.0974077
0.138383
0.372789
0.203822
0.157959
0.216007
0.510314
0.278124
0.229444
0.305268
0.622717
0.330222
0.287613
0.379893
0.726996
0.376226
0.343128
0.456406
0.809303
0.404919
0.38416
0.523163
0.899651
0.440657
0.435064
0.607658
0.942877
0.432628
0.457589
0.664568
0.990854
0.455042
0.530101
0.748323
0.0645978
0.0455706
0.0389767
0.0469263
0.123714
0.0870409
0.0761021
0.0921476
0.164711
0.120353
0.105129
0.12158
0.216942
0.156313
0.135973
0.156127
0.255165
0.176768
0.154493
0.177056
0.291941
0.194362
0.172858
0.198405
0.317604
0.201972
0.18365
0.21255
0.355402
0.218643
0.205583
0.241118
0.379187
0.219267
0.22156
0.264067
0.425065
0.250393
0.279355
0.319938
0.0155803
0.00802778
0.00538632
0.00881705
0.0508911
0.0341895
0.0302919
0.0374596
0.0704014
0.053067
0.0484926
0.0547532
0.0927499
0.0729017
0.0663503
0.0730668
0.103482
0.0811063
0.0732478
0.0796896
0.112433
0.0864064
0.0781093
0.0844639
0.114075
0.0849879
0.0771219
0.0828299
0.124248
0.0900041
0.0832351
0.089581
0.133439
0.0916188
0.0904421
0.0971756
0.15548
0.108079
0.116881
0.120565
0.00224635
0.000389602
0.000375158
0.00038393
0.0210173
0.0127087
0.0110936
0.014843
0.0322613
0.0237492
0.02206
0.0253352
0.0430572
0.0345232
0.032191
0.0351701
0.0445014
0.0366419
0.033906
0.036114
0.043329
0.03569
0.032829
0.0344814
0.0367701
0.0298696
0.0272303
0.0279823
0.034899
0.0277704
0.0254249
0.0259186
0.0354698
0.0273125
0.0263035
0.0264225
0.0435387
0.0343089
0.0356275
0.034605
0.000924679
0.000323453
0.000310739
0.000319093
0.00679328
0.00269851
0.00202318
0.00380007
0.012913
0.00882945
0.00817635
0.00977141
0.018495
0.0146254
0.0137036
0.0150294
0.0174164
0.0143829
0.0133714
0.0141257
0.0135747
0.0112302
0.0102547
0.0105108
0.00592056
0.00458203
0.00380779
0.0034311
9.11193e-05
0.000743632
0.00136132
0.00213376
0.00281594
0.0029532
0.00354301
0.00433218
0.00085715
0.00120664
0.00197724
0.00282748
0.000790407
0.000266385
0.00025501
0.000262643
0.00147583
9.89488e-05
9.31028e-05
9.96588e-05
0.00446375
0.0025996
0.00235883
0.00310526
0.00681425
0.0052306
0.00487364
0.00536779
0.00491919
0.00396941
0.00361877
0.00373911
0.000486232
0.000133263
0.00014344
0.000417738
0.00607918
0.00582476
0.00594734
0.00654708
0.0131727
0.0123031
0.0123175
0.0133454
0.0153797
0.0143491
0.0145709
0.0152888
0.0165288
0.0159969
0.017035
0.0174702
0.000642874
0.00020991
0.000200942
0.000208192
0.00022432
8.25084e-05
7.99078e-05
8.76128e-05
0.00116453
0.000432745
0.000366818
0.000673984
0.00169652
0.00122324
0.00111057
0.00121192
0.000286748
0.000344244
0.000426805
0.000563361
0.00464566
0.00421435
0.00421082
0.00467789
0.00946461
0.00883343
0.00872087
0.00925113
0.0165375
0.0153982
0.0151966
0.0162212
0.0173475
0.016526
0.0164944
0.017049
0.0201742
0.0201418
0.0209344
0.0211403
0.000549287
0.000178098
0.000169845
0.000176035
0.000172613
6.29225e-05
6.29514e-05
7.1685e-05
0.000178605
2.98525e-05
3.10786e-05
6.79187e-05
0.0002302
0.00020066
0.000211892
0.000267836
0.00196907
0.00168368
0.00166804
0.00187915
0.0060387
0.00531519
0.00520619
0.00571806
0.00903927
0.00844458
0.00826721
0.00861973
0.0158262
0.0146859
0.0144244
0.015384
0.0152364
0.0146819
0.0145194
0.0149045
0.0188575
0.0191594
0.0196886
0.0197558
0.000323142
0.000100476
9.96274e-05
0.000108005
0.000132731
4.23526e-05
4.09858e-05
4.5745e-05
5.5966e-05
1.82817e-05
1.61362e-05
1.68925e-05
0.000737657
0.000538877
0.000517897
0.000606561
0.00211634
0.00175338
0.00171711
0.00192304
0.00584046
0.00503731
0.00489899
0.00539418
0.00715802
0.00674772
0.0065799
0.00672144
0.0137439
0.0126205
0.0123647
0.0132632
0.011676
0.01129
0.0110833
0.0112929
0.0157137
0.0160721
0.0164401
0.0163943
0.000526081
0.000139376
0.000123756
0.000119536
0.000107261
3.43218e-05
3.32887e-05
3.70757e-05
4.34259e-05
1.446e-05
1.30639e-05
1.33348e-05
0.000688144
0.000497075
0.000470915
0.000511419
0.00172611
0.00140562
0.00137918
0.00154608
0.00509017
0.00430639
0.00417
0.00462463
0.00487371
0.00471753
0.00459231
0.00452078
0.0114534
0.0103232
0.0100989
0.0109702
0.00781687
0.00757611
0.00737572
0.00740983
0.0122039
0.0124789
0.0127817
0.012638
0.000100288
3.27502e-05
5.27824e-05
7.92238e-05
5.66639e-05
1.47854e-05
1.35395e-05
1.36586e-05
2.95555e-05
1.2401e-05
1.36412e-05
1.687e-05
0.00045833
0.000371205
0.000351545
0.00029656
0.00128899
0.00104656
0.00103681
0.00115834
0.00429033
0.00356508
0.00343998
0.00384787
0.00268094
0.0028109
0.00274181
0.00247092
0.00949447
0.00831722
0.00812862
0.00901807
0.0041821
0.00412883
0.00395774
0.00381224
0.00894795
0.00909418
0.00939834
0.0091738
0.000336889
3.46237e-05
7.06928e-05
0.000117432
0.000109019
4.9808e-05
5.43273e-05
6.75542e-05
1.43011e-05
4.01919e-06
3.27639e-06
6.99921e-05
0.000177571
0.000250291
0.000247312
8.26791e-05
0.00102599
0.000846908
0.000849297
0.000939457
0.00365596
0.00299589
0.00288166
0.00324586
0.000825596
0.00124224
0.00123339