/*--------------------------------*- C++ -*----------------------------------*\
| =========                 |                                                 |
| \\      /  F ield         | foam-extend: Open Source CFD                    |
|  \\    /   O peration     | Version:     4.0                                |
|   \\  /    A nd           | Web:         http://www.foam-extend.org         |
|    \\/     M anipulation  |                                                 |
\*---------------------------------------------------------------------------*/
FoamFile
{
    version     2.0;
    format      ascii;
    class       volScalarField;
    location    "850";
    object      epsilon;
}
// * * * * * * * * * * * * * * * * * * * * * * * * * * * * * * * * * * * * * //

dimensions      [0 2 -3 0 0 0 0];

internalField   nonuniform List<scalar> 
34480
(
4916.9
4914.38
4914
4915.62
4919.36
4925.44
4938.44
4991.34
5179.86
5708.51
657.809
604.871
604.138
656.395
842.366
1581.61
5112.54
22885.7
103797
382409
607.761
515.307
502.934
563.745
806.066
1829.03
7053.59
35155.6
172498
697967
513.327
430.8
419.844
478.481
728.115
1880.09
8223.74
44413.6
231902
1.00762e+06
446.168
376.528
369.816
426.095
677.96
1921.68
9176.55
52567.8
288656
1.32829e+06
383.918
325.839
320.09
372.141
621.789
1949.99
10116.9
60993.5
349812
1.69062e+06
345.755
296.396
292.247
340.168
584.558
1954.82
10710.8
67067.7
398925
2.01032e+06
315.91
277.328
273.069
312.69
528.8
1813.62
10327.6
66761.5
410512
2.15035e+06
456.313
432.542
429.979
455.077
592.453
1402.61
6815.2
43474.1
274037
1.48382e+06
5702.46
5701.9
5706.73
5718.19
5734.69
5754.9
5778.33
5813.15
5878.11
5943.13
4843.77
4840.72
4839.89
4841.43
4845.87
4853.75
4865.35
4891.18
4953.55
5174.18
515.153
482.135
476.502
490.651
534.736
650.704
1005.06
2358.54
11846.6
104101
441.468
379.798
366.471
386.277
455.35
642.944
1226.96
3563.23
21378
197709
392.906
333.392
320.291
340.361
411.891
615.328
1288.16
4278.59
30237.8
294422
359.146
305.588
295.286
314.69
385.322
592.336
1312.02
4795.93
38741.6
396109
320.659
274.109
264.454
281.741
346.914
547.059
1282.4
5161.7
47417.1
508155
297.369
256.249
248.101
263.188
323.298
513.487
1241.95
5335.84
54287.2
607063
279.346
246.499
238.821
250.21
297.075
450.132
1062.73
4804.55
55037.5
650625
429.89
408.167
403.089
410.297
439.595
525.469
839.587
2965.78
36394.2
466080
5584.87
5579.91
5579.93
5586.14
5597.45
5612.3
5630.94
5662.82
5729.13
5900.37
4759.86
4756.96
4755.88
4756.76
4759.81
4764.76
4769.96
4780.69
4804.75
4860.32
402.69
389.009
386.355
391.083
405.82
440.551
528.379
760.42
1527.3
5838.95
305.996
275.02
268.118
277.38
307.799
377.449
548.666
1028.66
2866.6
15067.6
286.87
253.435
245.736
256.416
291.504
375.228
593.659
1275.99
4415
28979.3
276.94
244.354
237.88
248.894
285.758
375.985
623.688
1475.64
6154.67
47925.8
257.804
227.818
221.303
231.659
266.943
356.984
618.875
1619.1
8186.69
73457.9
247.112
219.272
213.606
222.944
256.441
343.827
609.395
1715.75
10219.1
102096
240.524
217.62
212.143
219.579
246.364
317.709
543.212
1586.89
11110.5
123516
400.325
384.069
380.335
385.771
405.572
456.449
600.676
1228.99
7727.03
92601.3
5475.41
5467.79
5465.08
5468.3
5476.76
5489.03
5504.87
5534.61
5605.86
5790.3
4665.01
4663.04
4662.29
4662.98
4665.19
4668.21
4669.47
4672.28
4679.71
4696.06
330.648
326.361
325.587
326.632
330.333
340.127
366.011
422.871
544.654
957.319
218.791
205.332
202.276
206.302
219.663
247.952
308.229
444.773
773.627
2101.63
212.92
196.102
192.001
197.537
215.434
254.829
343.599
563.942
1169.94
4151.39
215.408
197.336
193.621
199.84
220.309
266.602
376.566
673.46
1613.19
7171.86
208.597
190.628
186.503
192.864
213.859
263.477
388.532
758.587
2124.62
11656.6
206.264
188.465
184.722
190.779
211.825
262.677
396.546
822.888
2644.71
17239.2
208.274
192.957
189.165
194.336
212.063
255.935
375.753
791.037
2877.17
22033.3
373.715
361.789
358.989
363.019
377.481
412.788
503.787
777.548
2190.68
16715.6
5353.62
5346.12
5343.2
5345.93
5353.9
5366.52
5383.05
5413
5478.82
5621.51
4560.71
4559.61
4559.16
4559.61
4560.97
4562.3
4561.15
4560.06
4560.02
4561.81
287.089
286.277
286.265
285.983
285.638
286.961
294.18
308.493
331.771
381.253
167.964
162.649
161.4
162.783
167.8
178.051
198.028
237.644
309.224
488.583
165.868
157.898
155.748
158.236
166.471
183.7
218.638
293.855
443.807
892.274
172.765
163.273
161.192
164.296
174.697
196.969
244.499
355.642
602.546
1500.9
172.396
162.066
159.472
163.009
174.641
200.69
259.585
409.777
786.37
2445.2
174.658
163.656
161.192
164.773
177.23
205.728
272.845
455.536
969.712
3663.53
182.244
172.285
169.656
172.969
184.106
210.324
274.368
461.543
1063.02
4787.63
349.733
341.184
339.054
341.819
351.961
375.845
434.337
577.609
1009.61
3853.99
5224.2
5216.93
5213.9
5216.2
5223.55
5235.86
5251.99
5279.62
5334.55
5436.55
4447.92
4447.52
4447.3
4447.58
4448.31
4448.45
4446.54
4444.48
4442.73
4441.59
260.914
260.98
261.176
260.613
259.331
258.707
260.592
264.26
269.582
278.029
139.632
137.724
137.286
137.638
139.252
142.544
148.639
159.577
176.11
204.908
137.332
133.703
132.614
133.645
137.199
144.306
157.424
182.487
223.345
304.29
144.441
139.7
138.616
140.052
145.02
155.093
174.551
215.061
287.432
459.305
146.68
140.995
139.448
141.312
147.438
160.429
186.923
247.045
365.728
704.72
150.881
144.357
142.828
144.836
151.888
167.142
199.449
277.545
445.908
1019.76
161.581
155.391
153.667
155.711
162.442
177.536
210.861
296.625
502.374
1330.92
328.138
322.295
320.754
322.609
329.617
345.774
384.048
464.638
638.561
1299.52
5086.55
5079.74
5076.78
5078.75
5085.45
5096.94
5111.97
5136.29
5178.81
5245.81
4327.35
4327.44
4327.4
4327.56
4327.86
4327.24
4325.44
4323.47
4321.66
4320.23
244.616
244.558
244.708
244.2
243.034
242.446
242.834
243.825
245.351
247.684
124.148
123.534
123.416
123.429
123.819
124.718
126.42
129.326
133.195
138.165
120.612
118.973
118.42
118.82
120.304
123.173
128.082
136.482
148.268
164.521
126.337
124.055
123.523
124.141
126.408
130.791
138.555
153.025
175.254
211.364
129.134
126.107
125.217
126.154
129.258
135.531
147.186
170.76
210.502
287.195
133.709
129.966
129.06
130.127
133.974
141.888
157.091
189.791
249.041
383.681
145.759
142.078
140.998
142.208
146.122
154.555
171.663
210.646
288.207
493.421
309.028
305.238
304.156
305.367
310.164
321.241
346.771
394.037
478.583
669.632
4940.43
4934.28
4931.52
4933.2
4939.16
4949.39
4962.76
4983.31
5015.38
5059.06
4199.48
4199.93
4200.02
4200.09
4200.12
4199.25
4197.81
4196.25
4194.83
4193.66
233.588
233.099
233.115
232.74
231.97
231.694
231.738
232.09
232.799
234.087
115.708
115.538
115.529
115.46
115.472
115.629
116.022
116.762
117.693
118.564
111.048
110.291
110.002
110.149
110.766
111.94
113.851
116.854
120.616
124.309
115.099
114.033
113.787
114.034
115.036
116.905
120.014
125.288
132.557
140.92
117.551
115.986
115.489
115.943
117.474
120.454
125.607
134.97
149.092
168.424
121.727
119.64
119.128
119.667
121.712
125.749
132.925
146.695
168.754
203.547
133.998
131.917
131.273
131.964
134.164
138.772
147.582
165.435
196.743
253.868
292.221
289.926
289.179
289.964
293.266
301.118
318.478
347.198
392.915
463.038
4785.7
4780.35
4777.89
4779.31
4784.45
4793.13
4804.51
4821.18
4844.79
4873.63
4064.69
4065.35
4065.54
4065.57
4065.4
4064.64
4063.59
4062.46
4061.45
4060.55
225.034
224.213
224.074
223.827
223.479
223.331
223.326
223.543
224.083
225.177
111.059
111.019
111.034
110.965
110.896
110.856
110.891
111.06
111.3
111.437
105.711
105.34
105.18
105.232
105.497
105.999
106.795
107.985
109.374
110.347
108.318
107.831
107.725
107.814
108.248
109.036
110.302
112.317
114.918
117.111
110.152
109.363
109.093
109.306
110.046
111.447
113.76
117.62
123.05
128.714
113.644
112.506
112.229
112.49
113.559
115.605
119.048
125.036
133.84
144.112
125.482
124.377
124.014
124.397
125.596
128.07
132.643
140.998
154.432
172.883
277.384
276.134
275.613
276.131
278.462
284.293
296.274
314.275
340.496
371.206
4622.31
4617.86
4615.76
4616.94
4621.22
4628.23
4637.52
4650.51
4667.44
4686.38
3923.37
3923.99
3924.26
3924.25
3924.03
3923.49
3922.76
3921.98
3921.3
3920.63
217.375
216.499
216.223
216.077
215.927
215.835
215.838
216.03
216.537
217.591
108.406
108.399
108.411
108.361
108.295
108.223
108.183
108.217
108.308
108.339
102.818
102.619
102.525
102.544
102.666
102.897
103.26
103.794
104.406
104.716
104.355
104.134
104.089
104.117
104.304
104.64
105.171
105.99
107.02
107.691
105.588
105.201
105.057
105.155
105.507
106.16
107.211
108.864
111.119
113.101
108.376
107.764
107.619
107.742
108.298
109.34
111.028
113.742
117.511
121.078
119.442
118.905
118.715
118.924
119.558
120.871
123.249
127.236
133.258
140.236
264.085
263.534
263.153
263.516
265.237
269.749
278.099
289.651
305.262
319.979
4450.41
4446.86
4445.16
4446.1
4449.52
4454.93
4462.21
4471.95
4483.74
4495.98
3775.64
3776.15
3776.41
3776.4
3776.24
3775.88
3775.4
3774.89
3774.44
3773.91
209.881
209.016
208.737
208.628
208.534
208.47
208.483
208.664
209.159
210.194
106.781
106.779
106.786
106.753
106.703
106.645
106.604
106.615
106.685
106.727
101.303
101.186
101.129
101.136
101.197
101.313
101.496
101.768
102.09
102.226
102.122
102.017
101.997
102.005
102.089
102.24
102.479
102.842
103.303
103.562
102.884
102.698
102.622
102.667
102.833
103.136
103.616
104.347
105.343
106.169
105.064
104.734
104.659
104.718
105.013
105.555
106.405
107.692
109.408
110.853
115.205
114.982
114.893
115.006
115.335
116.032
117.252
119.168
121.909
124.906
251.852
251.749
251.443
251.724
253.074
256.626
262.467
269.983
279.53
286.68
4270.25
4267.56
4266.26
4266.98
4269.58
4273.58
4279.06
4286.09
4294.06
4301.8
3621.66
3622.09
3622.29
3622.3
3622.2
3621.97
3621.67
3621.33
3621.05
3620.62
202.189
201.351
201.092
201.002
200.933
200.883
200.899
201.068
201.545
202.559
105.669
105.665
105.668
105.648
105.614
105.575
105.549
105.561
105.633
105.702
100.538
100.466
100.432
100.435
100.467
100.529
100.627
100.778
100.975
101.064
100.916
100.861
100.849
100.852
100.895
100.973
101.093
101.277
101.516
101.659
101.352
101.265
101.226
101.246
101.324
101.464
101.684
102.015
102.48
102.889
103.056
102.873
102.835
102.866
103.03
103.325
103.772
104.416
105.245
105.924
112.218
112.156
112.123
112.186
112.355
112.724
113.333
114.242
115.464
116.882
240.227
240.394
240.115
240.359
241.497
244.24
248.303
253.207
259.156
262.39
4082.24
4080.33
4079.38
4079.92
4081.78
4084.63
4088.6
4093.48
4098.7
4103.49
3461.64
3462
3462.17
3462.18
3462.12
3461.99
3461.79
3461.58
3461.4
3461.03
194.109
193.304
193.069
192.992
192.936
192.894
192.908
193.061
193.517
194.503
104.808
104.802
104.802
104.79
104.77
104.746
104.732
104.749
104.822
104.912
100.17
100.126
100.106
100.107
100.124
100.156
100.209
100.295
100.425
100.501
100.298
100.264
100.254
100.256
100.283
100.331
100.403
100.51
100.653
100.761
100.529
100.488
100.468
100.478
100.514
100.58
100.681
100.834
101.061
101.301
101.88
101.772
101.752
101.772
101.87
102.042
102.292
102.637
103.066
103.437
110.052
110.063
110.059
110.096
110.186
110.374
110.66
111.073
111.576
112.307
228.803
229.113
228.829
229.063
230.089
232.055
234.839
238.011
241.754
242.873
3886.94
3885.66
3885.03
3885.4
3886.65
3888.64
3891.39
3894.64
3897.94
3900.84
3295.88
3296.2
3296.33
3296.34
3296.32
3296.24
3296.11
3295.97
3295.86
3295.54
185.528
184.759
184.547
184.482
184.433
184.396
184.407
184.542
184.971
185.927
104.07
104.063
104.06
104.053
104.042
104.03
104.025
104.044
104.116
104.218
100.003
99.978
99.968
99.9682
99.9755
99.9896
100.015
100.063
100.151
100.223
100.003
99.9791
99.9694
99.971
99.9903
100.025
100.075
100.144
100.238
100.33
100.115
100.096
100.085
100.09
100.107
100.138
100.185
100.257
100.373
100.532
101.206
101.137
101.126
101.141
101.206
101.314
101.465
101.664
101.902
102.135
108.377
108.424
108.434
108.458
108.508
108.594
108.713
108.882
109.042
109.456
217.078
217.597
217.283
217.523
218.327
219.672
221.532
223.543
225.893
225.865
3685.06
3684.22
3683.85
3684.09
3684.89
3686.24
3688.06
3690.14
3692.13
3693.84
3124.8
3125.08
3125.17
3125.18
3125.18
3125.13
3125.05
3124.95
3124.88
3124.59
176.361
175.63
175.44
175.386
175.343
175.309
175.318
175.433
175.831
176.752
103.393
103.385
103.381
103.377
103.372
103.367
103.369
103.388
103.456
103.565
99.9369
99.9247
99.9211
99.9207
99.922
99.9252
99.9338
99.9571
100.016
100.085
99.8789
99.86
99.8506
99.852
99.8668
99.8933
99.9299
99.9777
100.042
100.12
99.9258
99.9153
99.9091
99.9111
99.92
99.9355
99.9577
99.9921
100.053
100.166
100.819
100.772
100.764
100.777
100.823
100.896
100.993
101.116
101.257
101.417
106.978
107.041
107.059
107.075
107.098
107.131
107.167
107.219
107.221
107.481
204.74
205.4
205.204
205.379
205.919
206.802
207.996
209.229
210.68
210.064
3477.39
3476.85
3476.63
3476.78
3477.31
3478.18
3479.32
3480.58
3481.71
3482.69
2948.92
2949.16
2949.23
2949.24
2949.24
2949.22
2949.16
2949.1
2949.04
2948.79
166.525
165.835
165.668
165.625
165.587
165.558
165.565
165.658
166.017
166.899
102.753
102.745
102.74
102.737
102.735
102.736
102.742
102.761
102.822
102.934
99.9205
99.9163
99.9163
99.9155
99.9134
99.9105
99.9097
99.9182
99.9554
100.019
99.8405
99.8253
99.8168
99.8177
99.8288
99.8487
99.8754
99.9086
99.9526
100.016
99.8543
99.8473
99.8431
99.8438
99.8486
99.8569
99.8681
99.885
99.9172
99.9977
100.583
100.549
100.543
100.554
100.586
100.637
100.702
100.781
100.867
100.982
105.717
105.779
105.801
105.812
105.821
105.829
105.828
105.829
105.764
105.946
191.614
192.325
192.231
192.349
192.69
193.236
193.953
194.668
195.525
194.662
3264.8
3264.49
3264.35
3264.45
3264.77
3265.29
3265.97
3266.68
3267.27
3267.82
2768.99
2769.19
2769.25
2769.26
2769.26
2769.24
2769.2
2769.15
2769.1
2768.88
155.923
155.281
155.122
155.089
155.068
155.051
155.056
155.125
155.434
156.268
102.145
102.136
102.129
102.127
102.128
102.132
102.14
102.158
102.21
102.32
99.9282
99.9276
99.929
99.928
99.9246
99.9194
99.9144
99.9149
99.9356
99.989
99.8434
99.8315
99.8245
99.8248
99.8325
99.8463
99.8647
99.8868
99.9157
99.9633
99.8428
99.8373
99.8341
99.834
99.8366
99.8412
99.847
99.8552
99.8716
99.9264
100.414
100.389
100.384
100.392
100.414
100.449
100.491
100.542
100.595
100.677
104.516
104.567
104.588
104.596
104.599
104.597
104.582
104.566
104.482
104.62
177.552
178.242
178.227
178.304
178.499
178.799
179.175
179.545
179.997
179.111
3048.37
3048.19
3048.12
3048.18
3048.36
3048.65
3049.02
3049.38
3049.65
3049.93
2585.99
2586.15
2586.21
2586.22
2586.22
2586.2
2586.17
2586.13
2586.08
2585.89
144.421
143.841
143.7
143.676
143.671
143.666
143.666
143.708
143.951
144.716
101.575
101.563
101.556
101.553
101.555
101.561
101.57
101.586
101.628
101.731
99.9441
99.9438
99.9451
99.944
99.9408
99.9359
99.9305
99.9279
99.9369
99.976
99.8658
99.8571
99.852
99.8519
99.8565
99.8651
99.8765
99.8901
99.9076
99.9397
99.8618
99.8577
99.8554
99.8549
99.856
99.8581
99.8605
99.8638
99.8711
99.904
100.263
100.245
100.241
100.246
100.26
100.28
100.306
100.335
100.366
100.422
103.344
103.379
103.397
103.402
103.401
103.395
103.378
103.357
103.281
103.387
162.393
163.006
163.054
163.101
163.188
163.308
163.435
163.569
163.728
162.968
2829.38
2829.29
2829.25
2829.29
2829.37
2829.51
2829.69
2829.85
2829.95
2830.08
2401.1
2401.2
2401.24
2401.25
2401.25
2401.24
2401.21
2401.18
2401.14
2401
131.789
131.298
131.209
131.2
131.198
131.192
131.183
131.196
131.348
131.998
101.059
101.044
101.037
101.034
101.036
101.041
101.049
101.063
101.094
101.182
99.9572
99.9555
99.9557
99.9547
99.9525
99.9494
99.9459
99.9436
99.9459
99.9678
99.8998
99.8941
99.8909
99.8907
99.8931
99.8978
99.9039
99.9112
99.9206
99.9384
99.8975
99.8951
99.8936
99.8931
99.8932
99.8936
99.8939
99.8944
99.8964
99.9115
100.114
100.102
100.099
100.102
100.109
100.119
100.131
100.145
100.16
100.194
102.211
102.23
102.24
102.242
102.238
102.229
102.213
102.194
102.142
102.218
145.609
146.089
146.124
146.16
146.219
146.298
146.378
146.433
146.358
145.814
2609.26
2609.22
2609.21
2609.23
2609.25
2609.3
2609.35
2609.38
2609.41
2609.46
2214.69
2214.77
2214.78
2214.78
2214.78
2214.78
2214.77
2214.77
2214.76
2214.69
117.471
117.139
117.112
117.118
117.12
117.113
117.099
117.086
117.123
117.548
100.605
100.588
100.58
100.577
100.577
100.581
100.588
100.599
100.62
100.682
99.9702
99.968
99.9674
99.9666
99.9656
99.9644
99.9632
99.9624
99.9628
99.9697
99.9457
99.9427
99.9411
99.941
99.9421
99.9443
99.9471
99.9505
99.9546
99.9616
99.9452
99.9442
99.9435
99.9431
99.9428
99.9425
99.942
99.9414
99.9412
99.9451
100.007
100.002
100.001
100.002
100.004
100.008
100.012
100.016
100.022
100.036
101.151
101.153
101.155
101.154
101.148
101.139
101.127
101.114
101.097
101.146
125.86
126.144
126.162
126.183
126.215
126.257
126.298
126.319
126.265
125.912
2388.76
2388.74
2388.75
2388.75
2388.75
2388.75
2388.75
2388.74
2388.72
2388.75
7153.78
7262.49
7219.44
7015.6
656551
680259
685609
694735
1.49099e+06
1.57496e+06
1.58157e+06
1.56256e+06
2.51076e+06
2.68429e+06
2.68014e+06
2.59811e+06
3.73578e+06
4.02336e+06
3.99486e+06
3.82977e+06
5.26618e+06
5.69761e+06
5.64546e+06
5.43178e+06
6.80201e+06
7.38398e+06
7.31987e+06
7.11794e+06
7.7889e+06
8.4947e+06
8.43981e+06
8.3011e+06
5.54155e+06
6.08391e+06
6.02342e+06
5.97991e+06
7865.17
8109.5
7951.1
7544.49
5732.79
5784.1
5786.51
5748.35
307304
321772
342097
374730
685281
773538
816647
853791
1.16978e+06
1.38891e+06
1.45025e+06
1.4753e+06
1.75067e+06
2.15525e+06
2.22626e+06
2.23696e+06
2.43826e+06
3.0752e+06
3.17536e+06
3.21115e+06
3.10203e+06
3.9872e+06
4.15003e+06
4.26491e+06
3.53403e+06
4.63492e+06
4.87931e+06
5.10522e+06
2.77234e+06
3.75592e+06
3.95213e+06
4.25465e+06
7102.98
7330.97
7262.98
7043.01
4927.48
4937.99
4936.91
4927.2
21560.1
25683.3
24293.8
19765.2
61142.8
72597.6
67807.3
55031.4
127803
151212
139149
112485
226861
267927
243472
196725
370246
438090
397898
322830
542123
642657
586400
479822
698045
830778
762122
628801
580322
688956
623248
517977
6328.98
6415.19
6393.05
6298.25
4707.24
4709.31
4709.72
4708.71
1600.41
1705.67
1668.9
1536.93
4680.57
5126.85
4954.92
4382.75
11163.3
12382.9
11781.7
10077.3
22433.3
25037.2
23441.6
19487.3
41547.4
46623.5
43171.1
35156.1
68108.3
76538.7
70263.9
56526.3
96898.4
109245
99677.1
79547.8
83213.2
93186.3
83590.5
66560.6
5891.74
5932.94
5930.05
5892.58
4560.27
4561.25
4561.39
4560.64
427.069
438.504
439.729
432.646
710.873
755.047
757.578
726.77
1588.96
1725.11
1713.83
1593.77
3189.65
3505.28
3427.81
3085.57
6124.8
6791.42
6539.57
5708.31
10483
11649.6
11044.9
9394.39
15682.1
17496.7
16375
13612.5
13878.6
15356.3
14050
11503.7
5568.47
5590.24
5591.77
5576.55
4437.95
4438.79
4438.82
4438.01
277.932
280.379
280.751
279.354
227.732
232.384
233.767
232.394
385.747
402.47
405.942
398.585
672.707
715.203
718.229
691.389
1213.41
1312.53
1306.67
1226.27
2021.89
2205.82
2166.59
1980.26
3047.79
3354.48
3250.55
2889.93
2936.6
3181.79
3016.88
2655.31
5309.38
5320.03
5322.23
5316.97
4316.27
4317.07
4317.08
4316.3
243.334
245.059
245.31
244.178
140.898
141.505
141.706
141.564
176.26
178.751
179.653
179.191
243.184
249.9
251.834
249.89
368.773
385.897
389.218
381.846
548.805
581.445
583.491
563.79
795.849
853.962
850.196
805.079
986.628
1029.94
1009.37
961.585
5088.17
5092.97
5094.88
5093.86
4189.77
4190.5
4190.52
4189.8
229.254
230.874
231.133
230.079
118.617
118.68
118.664
118.584
126.095
126.44
126.566
126.512
146.111
147.198
147.627
147.533
183.427
186.718
187.858
187.279
233.661
239.893
241.507
239.791
314.789
326.902
328.667
323.301
543.355
548.527
545.753
542.166
4887.06
4888.99
4890.33
4890.7
4056.77
4057.43
4057.44
4056.8
220.418
222.012
222.29
221.282
111.151
111.163
111.133
111.065
110.502
110.504
110.486
110.457
117.843
117.962
118.011
118.02
131.796
132.47
132.76
132.747
149.887
151.062
151.543
151.578
187.567
190.273
191.062
190.55
399.979
396.788
395.942
398.666
4692.73
4693.34
4694.14
4694.76
3916.97
3917.54
3917.55
3916.99
212.982
214.538
214.822
213.856
108.047
108.067
108.047
107.989
104.598
104.554
104.519
104.5
107.646
107.602
107.577
107.581
113.768
113.893
113.952
113.965
122.029
122.162
122.262
122.393
144.809
145.367
145.595
145.626
334.897
329.688
328.846
332.295
4498.85
4498.86
4499.3
4499.87
3770.4
3770.89
3770.9
3770.42
205.751
207.257
207.537
206.611
106.474
106.503
106.492
106.441
102.085
102.043
102.014
102.001
103.423
103.369
103.337
103.335
106.317
106.327
106.329
106.334
110.847
110.779
110.776
110.863
126.952
126.987
127.013
127.064
297.054
291.453
290.5
293.835
4302.83
4302.61
4302.83
4303.28
3617.28
3617.68
3617.68
3617.28
198.291
199.738
200.01
199.124
105.485
105.518
105.512
105.467
100.944
100.91
100.888
100.879
101.548
101.507
101.481
101.477
102.931
102.922
102.913
102.912
105.787
105.702
105.678
105.729
118.203
118.118
118.079
118.102
270.857
265.331
264.341
267.471
4103.47
4103.2
4103.3
4103.62
3457.9
3458.23
3458.22
3457.88
190.42
191.802
192.063
191.218
104.727
104.762
104.758
104.716
100.408
100.382
100.364
100.359
100.691
100.663
100.643
100.638
101.33
101.322
101.312
101.309
103.34
103.276
103.252
103.281
113.378
113.279
113.224
113.222
250.268
244.958
243.983
246.923
3900.19
3899.97
3900.01
3900.2
3292.66
3292.91
3292.9
3292.63
182.04
183.354
183.602
182.801
104.062
104.097
104.094
104.055
100.155
100.135
100.121
100.117
100.293
100.275
100.26
100.255
100.566
100.561
100.554
100.55
102.099
102.059
102.041
102.055
110.411
110.327
110.271
110.25
232.492
227.446
226.515
229.282
3692.8
3692.68
3692.7
3692.77
3122.03
3122.21
3122.19
3121.98
173.077
174.321
174.558
173.802
103.44
103.473
103.47
103.434
100.041
100.026
100.015
100.012
100.106
100.094
100.083
100.079
100.204
100.203
100.198
100.193
101.43
101.408
101.396
101.401
108.358
108.298
108.247
108.209
216.06
211.305
210.433
213.03
3481.41
3481.41
3481.42
3481.39
2946.59
2946.71
2946.68
2946.52
163.457
164.632
164.858
164.152
102.843
102.874
102.872
102.839
99.9963
99.9867
99.9789
99.9774
100.015
100.008
100.001
99.9967
100.037
100.038
100.034
100.029
101.024
101.016
101.01
101.009
106.753
106.72
106.675
106.621
200.11
195.678
194.878
197.297
3266.4
3266.52
3266.52
3266.41
2767.12
2767.17
2767.13
2767.02
153.09
154.201
154.42
153.765
102.269
102.298
102.296
102.265
99.9864
99.9817
99.9772
99.9772
99.9705
99.9663
99.9611
99.9585
99.9615
99.9637
99.9607
99.9557
100.731
100.732
100.73
100.726
105.346
105.341
105.305
105.237
184.074
180.023
179.312
181.526
3048.45
3048.67
3048.68
3048.51
2584.62
2584.62
2584.57
2584.5
141.859
142.918
143.138
142.535
101.717
101.744
101.741
101.711
99.9872
99.9869
99.986
99.9872
99.9493
99.947
99.9437
99.9424
99.9302
99.9323
99.9302
99.9261
100.475
100.481
100.481
100.476
103.999
104.021
103.994
103.918
167.515
163.965
163.366
165.31
2828.61
2828.9
2828.91
2828.71
2400.29
2400.22
2400.16
2400.13
129.567
130.595
130.822
130.267
101.196
101.217
101.21
101.18
99.9822
99.9848
99.9866
99.9885
99.9452
99.944
99.9422
99.9418
99.9256
99.9266
99.9252
99.9229
100.235
100.242
100.243
100.239
102.649
102.684
102.668
102.599
149.634
146.654
146.209
147.875
2608.21
2608.55
2608.57
2608.34
2214.57
2214.39
2214.33
2214.4
115.783
116.754
116.965
116.451
100.694
100.702
100.692
100.67
99.9753
99.9773
99.9796
99.9815
99.9626
99.9614
99.9605
99.9611
99.948
99.9477
99.9469
99.9466
100.057
100.06
100.061
100.06
101.343
101.357
101.349
101.318
128.354
126.31
126.071
127.248
2387.94
2388.32
2388.33
2388.08
6089.64
5427.76
5158.75
5063.33
5008.78
4970.5
4945.09
4930.61
4922.66
4917.69
797496
191211
33107.6
11611.8
5237.4
2800.58
1727.81
1199.93
922.297
764.184
1.41621e+06
242337
43607.1
14875.9
6637.64
3550.06
2141.3
1419.13
1019.48
783.785
1.97625e+06
232628
45898.8
14707.6
6325.02
3296.51
1940.05
1257.21
885.52
670.013
2.41946e+06
247392
47937
14219.8
5935.73
3009.64
1735.82
1108.6
771.929
580.726
2.87919e+06
270344
50035.4
13628
5482.79
2684.88
1513.35
951.869
658.832
495.805
3.24157e+06
287697
50780.2
12817.2
5012.47
2393.48
1334.77
837.31
580.639
440.201
3.30973e+06
279585
46505.8
10710.9
4046.08
1890.9
1063.62
683.474
492.72
387.789
2.27433e+06
176891
26653.3
5564.54
2220.43
1212.87
843.986
662.491
561.869
502.129
6018.2
5990.35
5845.33
5820.05
5776.41
5751.8
5732.18
5721.46
5713.93
5706.88
5429.17
5161.51
5032.09
4959.99
4914.82
4885.09
4865.84
4854.37
4848.23
4844.13
179344
44567.7
13481.4
5259.92
2603.68
1549.55
1054.99
796.974
654.322
573.474
371808
85284.1
23112.8
8143.38
3810.62
2138.59
1350.55
932.922
694.722
555.257
586729
124135
30158.8
9461.37
4133.63
2205.11
1336.25
891.475
645.022
504.285
816193
161811
35711.4
10205
4219.04
2163.44
1275.42
835.008
595.417
461.74
1.09176e+06
203296
40962.2
10650.6
4153.57
2040.21
1168.47
750.074
530.058
410.288
1.36329e+06
239333
44443.7
10634.2
3967.6
1893.4
1069.64
683.785
483.321
376.095
1.5319e+06
252720
43057.5
9360.62
3324.04
1550.8
882.022
576.798
423.179
341.138
1.15629e+06
174325
26237.6
5144.72
1932.05
1075.01
762.002
608.501
521.625
472.79
6242.63
5946.85
5788.39
5729.65
5678.83
5647.98
5625.5
5611.62
5601.73
5592.55
4892.88
4857.8
4830.38
4807.76
4790.11
4777.33
4768.84
4763.77
4760.99
4758.81
9158.57
4140.77
2273.04
1416.51
975.651
730.112
588.062
503.696
452.532
422.356
23719.3
9423.61
4570.23
2499.13
1511.67
989.672
698.219
528.046
424.053
360.362
44762
15700.4
6816.85
3345.84
1858.73
1133.34
754.232
543.746
420.298
347.166
72374.8
22517.3
8863.15
3983.94
2077.44
1205.6
774.28
544.831
413.464
337.591
110342
30573.9
10885.4
4478.27
2195.47
1212.56
751.671
516.135
386.765
314.201
153509
38267.4
12407.4
4725.63
2214.28
1183.8
721.074
491.745
367.634
299.281
188124
42162.7
12351.4
4324.98
1944.75
1020.04
626.375
436.816
337.695
283.205
139112
27268
7198.82
2513.76
1292.17
834.01
636.644
531.843
469.166
433.486
6008.13
5828.64
5705.32
5631.99
5579.26
5546.27
5523.23
5507.42
5495.66
5485.01
4703.26
4694.7
4685.56
4677.4
4671.22
4667.02
4664.41
4663.1
4662.84
4662.39
1206.31
901.59
703.81
566.817
476.955
419.478
382.693
358.705
342.751
333.319
2994.2
1891.2
1249.48
846.376
602.365
453.715
361.858
303.748
265.6
240.907
6129.57
3425.39
2023.36
1230.65
798.426
554.571
413.034
327.977
274.737
241.575
10581.5
5273.86
2838.27
1586.69
962.807
633.069
452.369
348.988
285.939
247.559
17109.7
7581.43
3723.85
1917.14
1090.24
678.691
465.385
348.706
280.898
240.983
24876.4
9850.17
4460.32
2145.16
1164.71
699.884
469.66
348.153
278.619
238.37
31650
11138.3
4626.64
2077.99
1089.5
645.364
436.632
329.554
270.377
236.223
23228.3
7301.04
2939.54
1432.09
899.033
658.505
538.569
469.145
424.836
399.123
5779.58
5653.14
5555.4
5492.09
5448.41
5419.72
5399.06
5384.15
5372.86
5362.86
4559
4557.63
4556.41
4555.46
4554.89
4554.66
4554.69
4555.09
4556.02
4556.88
413.844
382.939
356.299
334.618
318.364
306.507
297.889
291.56
286.908
284.036
632.859
507.12
407.077
330.927
276.97
239.755
214.367
196.933
184.502
175.947
1271.67
913.82
657.687
480.176
365.195
291.358
243.886
212.906
192.058
178.364
2247.84
1465.26
963.61
645.982
457.399
344.505
276.309
234.201
206.514
188.593
3775.37
2225.62
1339.38
824.859
543.801
386.097
296.228
243.298
210.364
189.863
5650.42
3030.97
1690.97
973.291
609.917
416.7
311.747
252.335
215.85
193.427
7395.92
3590.52
1858.6
1008.85
613.102
413.967
310.971
254.069
220.388
199.873
5626.05
2631.81
1432.09
900.184
662.378
536.249
463.987
418.488
387.465
369.153
5527.17
5452.4
5387.86
5342
5308.46
5284.42
5266.25
5252.57
5241.97
5232.77
4437.09
4437.13
4437.45
4437.94
4438.53
4439.17
4439.83
4440.64
4441.87
4443.34
279.132
275.658
271.994
268.495
265.435
262.876
260.787
259.076
257.68
256.598
225.533
210.013
194.099
179.902
168.474
159.782
153.373
148.645
144.929
142.19
370.405
319.276
271.309
231.782
202.244
181.054
166.096
155.492
147.787
142.477
608.025
484.816
380.104
301.197
247.098
211.008
187.12
171.165
159.723
151.82
1006.6
735.912
528.702
385.559
295.155
238.671
203.329
180.768
165.603
155.625
1514.27
1022.98
682.104
465.31
338.432
263.537
218.867
191.53
173.298
161.37
2038.22
1270.47
792.64
514.452
364.005
279.73
231.521
202.571
184.112
172.292
1812.8
1184.27
824.439
627.112
517.815
450.581
406.986
377.367
355.878
343.011
5295.68
5254.83
5215.53
5184.08
5158.97
5139.44
5123.97
5111.87
5102.29
5094.14
4315.62
4315.84
4316.33
4316.95
4317.63
4318.31
4318.97
4319.74
4320.9
4322.37
245.208
244.842
244.392
243.842
243.254
242.681
242.145
241.624
241.103
240.491
140.792
138.557
135.977
133.39
131.093
129.224
127.785
126.667
125.651
124.822
176.011
167.764
158.355
149.371
141.773
135.737
131.074
127.486
124.681
122.68
240.525
219.642
197.41
177.938
162.799
151.617
143.523
137.681
133.074
129.68
354.567
304.064
255.183
215.905
187.651
168.019
154.493
145.098
138.269
133.561
502.965
405.877
319.419
255.649
213.063
185.103
166.705
154.483
145.583
139.402
681.45
516.66
384.751
295.597
240.075
205.243
183.101
168.622
158.709
152.104
827.772
676.648
559.044
480.231
427.355
390.372
363.765
344.447
329.619
320.613
5084.95
5063.56
5040.14
5018.88
5000.44
4985.08
4972.38
4962.09
4953.75
4946.82
4189.25
4189.45
4189.82
4190.29
4190.8
4191.3
4191.77
4192.34
4193.3
4194.6
231.301
231.423
231.461
231.404
231.279
231.113
230.915
230.66
230.321
229.759
118.481
118.164
117.797
117.372
116.962
116.633
116.409
116.244
116.014
115.771
126.026
124.547
122.561
120.355
118.253
116.426
114.906
113.658
112.627
111.88
146.355
142.6
137.683
132.685
128.314
124.774
122.011
119.889
118.046
116.595
183.477
173.351
161.36
150.207
141.137
134.154
128.887
124.94
121.87
119.689
231.695
211.611
189.256
170.243
155.833
145.312
137.7
132.25
127.931
124.765
303.736
265.969
228.688
199.518
178.69
164.066
153.805
146.565
141.3
137.7
515.988
473.138
429.935
395.321
368.216
347.173
330.691
318.023
307.798
301.511
4886.48
4875.03
4860.9
4846.68
4833.45
4821.79
4811.75
4803.36
4796.38
4790.71
4056.37
4056.53
4056.78
4057.09
4057.43
4057.74
4058.02
4058.38
4059.11
4060.21
222.516
222.716
222.814
222.826
222.777
222.685
222.548
222.335
222.005
221.409
111.063
111.041
111.028
110.99
110.952
110.947
110.988
111.043
111.018
110.94
110.36
110.084
109.616
108.987
108.321
107.706
107.174
106.722
106.336
106.056
117.882
117.209
116.038
114.628
113.262
112.081
111.12
110.357
109.62
108.992
132.131
129.891
126.654
123.171
120.018
117.378
115.244
113.55
112.163
111.164
150.656
146.241
140.026
133.955
128.797
124.666
121.436
118.982