/*--------------------------------*- C++ -*----------------------------------*\
| =========                 |                                                 |
| \\      /  F ield         | foam-extend: Open Source CFD                    |
|  \\    /   O peration     | Version:     4.0                                |
|   \\  /    A nd           | Web:         http://www.foam-extend.org         |
|    \\/     M anipulation  |                                                 |
\*---------------------------------------------------------------------------*/
FoamFile
{
    version     2.0;
    format      ascii;
    class       volScalarField;
    location    "850";
    object      MaU;
}
// * * * * * * * * * * * * * * * * * * * * * * * * * * * * * * * * * * * * * //

dimensions      [0 0 0 0 0 0 0];

internalField   nonuniform List<scalar> 
34480
(
0.621676
0.622699
0.623245
0.623368
0.623077
0.622305
0.620915
0.618221
0.612143
0.606188
0.624447
0.625363
0.625869
0.62594
0.625431
0.624207
0.622289
0.619417
0.612454
0.606846
0.62594
0.626816
0.627276
0.627278
0.62666
0.625453
0.623827
0.621684
0.614788
0.609811
0.625581
0.626485
0.627036
0.627193
0.626823
0.626038
0.624925
0.62352
0.617065
0.612732
0.625697
0.626715
0.627422
0.62781
0.627773
0.627474
0.626918
0.626309
0.620687
0.616996
0.625009
0.626093
0.626892
0.627415
0.627616
0.627725
0.627715
0.627956
0.623568
0.620842
0.624964
0.626194
0.6271
0.627759
0.628168
0.628622
0.629125
0.630219
0.627337
0.625542
0.624213
0.625486
0.626343
0.626881
0.62717
0.627579
0.628251
0.62992
0.628616
0.628109
0.62382
0.625264
0.626236
0.626903
0.627358
0.627927
0.628868
0.631077
0.63112
0.630604
0.620017
0.621211
0.621385
0.620637
0.619161
0.617363
0.615722
0.615549
0.615278
0.617038
0.611585
0.613073
0.613658
0.613421
0.612294
0.610006
0.605935
0.598724
0.588074
0.574205
0.615579
0.616972
0.617543
0.617319
0.616122
0.613589
0.609129
0.601373
0.588798
0.572668
0.618033
0.619361
0.619912
0.619699
0.618482
0.615961
0.611626
0.604089
0.590744
0.573583
0.618525
0.619868
0.620504
0.620446
0.619459
0.617303
0.613385
0.606303
0.592612
0.575158
0.619363
0.620788
0.621554
0.621714
0.621039
0.619348
0.615966
0.609551
0.595994
0.578814
0.61925
0.620726
0.621578
0.621879
0.621444
0.620173
0.617348
0.611745
0.59878
0.582496
0.619687
0.621272
0.622219
0.622663
0.622446
0.621554
0.619283
0.614567
0.602581
0.587477
0.619276
0.620892
0.621804
0.62216
0.621885
0.621061
0.619097
0.61513
0.604388
0.591065
0.619139
0.620875
0.62188
0.622349
0.62225
0.621662
0.620108
0.616926
0.607513
0.595075
0.615523
0.61708
0.617536
0.616994
0.61553
0.613317
0.610105
0.605645
0.596742
0.587504
0.603758
0.605347
0.605921
0.605611
0.604384
0.602089
0.598426
0.592896
0.58485
0.574599
0.608076
0.609686
0.610286
0.609944
0.608553
0.605857
0.601346
0.594149
0.582791
0.56756
0.610886
0.612509
0.61313
0.612821
0.611409
0.60858
0.603708
0.595656
0.581738
0.561959
0.611912
0.613599
0.614313
0.614135
0.612873
0.610206
0.60535
0.596901
0.580874
0.557091
0.613267
0.615048
0.615883
0.615897
0.614879
0.612533
0.607932
0.599491
0.582
0.555016
0.613607
0.615449
0.616376
0.616528
0.615717
0.613702
0.60946
0.601322
0.582979
0.553704
0.614435
0.616374
0.617391
0.617689
0.617083
0.615402
0.611587
0.603956
0.585346
0.554486
0.614341
0.616307
0.617306
0.617547
0.616914
0.615326
0.6118
0.604729
0.58638
0.554753
0.614472
0.616514
0.617586
0.617919
0.617417
0.61603
0.612883
0.606514
0.588874
0.555917
0.611094
0.612969
0.613635
0.613215
0.611711
0.60914
0.604859
0.597739
0.580692
0.548228
0.597996
0.59939
0.599871
0.599572
0.598493
0.596579
0.593732
0.589853
0.584906
0.579305
0.60209
0.603626
0.604176
0.603798
0.602433
0.599938
0.596061
0.590442
0.582611
0.57355
0.604833
0.606498
0.607103
0.606723
0.605241
0.602431
0.597863
0.590895
0.580345
0.567359
0.606101
0.607904
0.608611
0.608311
0.606854
0.603966
0.599024
0.591082
0.577909
0.560722
0.607766
0.609698
0.610519
0.610364
0.609043
0.606272
0.601241
0.592734
0.577338
0.556213
0.60843
0.610449
0.611362
0.611321
0.610138
0.607544
0.602584
0.593842
0.576676
0.552123
0.609559
0.611676
0.612672
0.612763
0.61174
0.609378
0.60462
0.595908
0.577498
0.550056
0.609737
0.611883
0.612874
0.612928
0.611888
0.609586
0.604978
0.596465
0.577406
0.54776
0.610102
0.612293
0.61334
0.613473
0.612543
0.610387
0.605984
0.597841
0.578814
0.54669
0.606969
0.609008
0.609773
0.60937
0.607741
0.604775
0.599617
0.590886
0.572089
0.53884
0.593935
0.595035
0.595403
0.595173
0.594368
0.592997
0.591076
0.58867
0.585917
0.583119
0.597514
0.598822
0.599292
0.598963
0.597815
0.595801
0.592845
0.58891
0.584027
0.579073
0.599886
0.601432
0.60199
0.601621
0.60026
0.597783
0.593972
0.588595
0.581349
0.573616
0.60113
0.602895
0.60357
0.603229
0.601772
0.59901
0.594548
0.587916
0.578159
0.567059
0.602878
0.604828
0.605617
0.60537
0.603936
0.601087
0.596237
0.588666
0.576538
0.561893
0.603703
0.605783
0.60667
0.606506
0.605125
0.602282
0.597219
0.589002
0.574749
0.556651
0.605007
0.607208
0.608178
0.608122
0.606841
0.604097
0.598993
0.590399
0.574392
0.553068
0.605378
0.607622
0.608602
0.608522
0.607218
0.604475
0.599345
0.590593
0.573347
0.549215
0.605926
0.608204
0.609228
0.609213
0.607989
0.605345
0.600286
0.591531
0.573704
0.546544
0.60302
0.605158
0.60599
0.6056
0.603895
0.600692
0.595119
0.585855
0.567835
0.53866
0.591102
0.591923
0.592187
0.59203
0.591484
0.590581
0.589371
0.587943
0.58642
0.584888
0.594126
0.595151
0.595524
0.595271
0.594394
0.592901
0.590809
0.5882
0.585249
0.582498
0.596004
0.597324
0.597806
0.597489
0.596345
0.594332
0.591387
0.587511
0.582789
0.578224
0.597056
0.598655
0.599262
0.598931
0.597602
0.595174
0.591458
0.586312
0.579519
0.572587
0.598709
0.600547
0.601272
0.600987
0.599581
0.596906
0.592608
0.586368
0.57745
0.567803
0.599552
0.601568
0.602399
0.602161
0.600724
0.5979
0.593173
0.586043
0.575061
0.562546
0.600917
0.603087
0.604004
0.603844
0.602438
0.59958
0.594598
0.586806
0.573962
0.55856
0.601393
0.60363
0.604572
0.604393
0.602944
0.600013
0.594844
0.586605
0.572281
0.55416
0.602071
0.604345
0.605324
0.605195
0.603793
0.600901
0.595679
0.587167
0.571905
0.550824
0.599357
0.601505
0.602362
0.601976
0.600246
0.596965
0.591363
0.582368
0.566632
0.543393
0.589114
0.589716
0.589898
0.5898
0.589454
0.588896
0.588171
0.587353
0.586511
0.585601
0.591661
0.592416
0.592698
0.59252
0.591899
0.590863
0.589462
0.587796
0.586028
0.584459
0.593038
0.594094
0.594486
0.594239
0.593346
0.591814
0.589662
0.586985
0.583981
0.58127
0.593821
0.59518
0.595699
0.59541
0.594286
0.592292
0.589375
0.585575
0.581001
0.576694
0.595263
0.596896
0.597534
0.597253
0.595981
0.593641
0.590064
0.585189
0.578889
0.572628
0.596018
0.597868
0.598617
0.598351
0.596977
0.594374
0.590243
0.584396
0.576303
0.567853
0.597348
0.599387
0.600227
0.600009
0.598601
0.595849
0.591313
0.584657
0.574841
0.564059
0.597843
0.599978
0.600857
0.600618
0.599138
0.596244
0.591396
0.584117
0.572829
0.559733
0.598599
0.600786
0.601699
0.601496
0.600029
0.597112
0.592112
0.584395
0.572051
0.556434
0.596036
0.598113
0.598955
0.598579
0.596886
0.593686
0.588376
0.58019
0.567225
0.549728
0.587683
0.588133
0.588257
0.588201
0.587992
0.587661
0.58724
0.586777
0.586301
0.585694
0.589875
0.590409
0.590615
0.5905
0.590084
0.5894
0.588497
0.587457
0.586388
0.585447
0.590812
0.591613
0.591917
0.591738
0.591081
0.589975
0.58847
0.586676
0.584775
0.583132
0.591323
0.592418
0.592841
0.592608
0.591713
0.590162
0.587979
0.585271
0.582241
0.579551
0.592496
0.593874
0.594412
0.594161
0.59308
0.591148
0.588317
0.584659
0.580312
0.576267
0.593095
0.594713
0.595363
0.595102
0.593872
0.591612
0.588188
0.583599
0.577808
0.572165
0.594326
0.596158
0.596902
0.596664
0.595347
0.592858
0.588951
0.583525
0.576271
0.568851
0.594767
0.596719
0.597513
0.597248
0.595834
0.593148
0.588854
0.582738
0.574171
0.564927
0.595559
0.597584
0.598413
0.598171
0.596737
0.593973
0.589453
0.582827
0.573245
0.562045
0.593106
0.595038
0.595832
0.595473
0.593879
0.590897
0.586105
0.57903
0.568801
0.556152
0.586624
0.586974
0.58706
0.58703
0.586908
0.586717
0.586477
0.586217
0.585938
0.58549
0.588574
0.588944
0.589092
0.589024
0.588758
0.588322
0.587757
0.587114
0.586454
0.585857
0.589154
0.589738
0.589965
0.589843
0.589383
0.588618
0.587603
0.586427
0.585222
0.584199
0.589436
0.590279
0.59061
0.590434
0.589757
0.588606
0.587034
0.585159
0.583166
0.581464
0.590328
0.591439
0.591874
0.591666
0.590796
0.589275
0.587128
0.584472
0.581517
0.578898
0.590744
0.592096
0.592639
0.592405
0.591363
0.589498
0.586782
0.583309
0.579246
0.575501
0.591841
0.59342
0.594056
0.593825
0.592662
0.590526
0.587312
0.583059
0.577826
0.572779
0.59217
0.593885
0.594578
0.594315
0.593036
0.590669
0.587042
0.582116
0.575795
0.569386
0.592974
0.59478
0.595509
0.595258
0.593933
0.591448
0.587554
0.582113
0.574906
0.567071
0.590592
0.59232
0.59304
0.592709
0.591265
0.588602
0.584461
0.578608
0.570809
0.561949
0.585817
0.586104
0.586165
0.586151
0.586081
0.585973
0.585837
0.58569
0.585519
0.58516
0.587616
0.587874
0.587981
0.587944
0.58778
0.58751
0.587161
0.586762
0.58634
0.585932
0.587918
0.588332
0.588497
0.588419
0.58811
0.5876
0.586933
0.586174
0.585405
0.584743
0.588038
0.588663
0.588913
0.588788
0.588297
0.587475
0.586379
0.585109
0.583804
0.582706
0.588668
0.589526
0.589865
0.589702
0.589033
0.587886
0.586313
0.584438
0.582452
0.580746
0.588902
0.589986
0.590423
0.590227
0.589385
0.587911
0.585837
0.58329
0.580483
0.578003
0.589857
0.591166
0.591691
0.591485
0.590507
0.588755
0.586215
0.582992
0.579288
0.575886
0.590034
0.591481
0.592066
0.591824
0.590721
0.588729
0.585789
0.581966
0.577408
0.57303
0.59084
0.592394
0.593015
0.592777
0.591612
0.589478
0.58626
0.581961
0.57668
0.57131
0.588497
0.589984
0.590613
0.590319
0.58906
0.586776
0.583336
0.578677
0.5729
0.566855
0.585191
0.585437
0.585482
0.585477
0.585437
0.585377
0.5853
0.585215
0.585105
0.584799
0.586906
0.587088
0.587168
0.58715
0.587052
0.586888
0.586674
0.586423
0.586138
0.585834
0.58699
0.587278
0.587395
0.587348
0.587148
0.586817
0.58639
0.585905
0.585406
0.584957
0.58702
0.587469
0.587653
0.587568
0.587226
0.586658
0.585915
0.58507
0.584214
0.583486
0.587418
0.588057
0.588311
0.58819
0.587696
0.586861
0.585746
0.584454
0.583132
0.582009
0.587494
0.588329
0.588668
0.588512
0.58786
0.58674
0.585209
0.583392
0.58148
0.579838
0.58832
0.589364
0.589782
0.589611
0.588825
0.587445
0.585507
0.583138
0.580562
0.578282
0.588318
0.589493
0.589968
0.589759
0.588849
0.587242
0.584945
0.582074
0.578855
0.575903
0.589136
0.590425
0.590936
0.590727
0.589746
0.58799
0.585431
0.582149
0.578366
0.574748
0.586806
0.588036
0.588565
0.588314
0.587257
0.585373
0.582619
0.579038
0.574867
0.570837
0.5847
0.584919
0.584953
0.584952
0.58493
0.584896
0.584852
0.584803
0.584728
0.584458
0.58638
0.586513
0.586574
0.586568
0.586511
0.586412
0.586281
0.586118
0.585912
0.585666
0.586282
0.58648
0.586562
0.586536
0.586409
0.586201
0.585932
0.585623
0.585293
0.584968
0.586292
0.586607
0.586739
0.586684
0.586454
0.586073
0.58558
0.585026
0.584462
0.583961
0.586492
0.586951
0.587135
0.587049
0.586697
0.58611
0.585341
0.58447
0.583598
0.582848
0.586441
0.587062
0.587315
0.587198
0.586712
0.585891
0.584794
0.58353
0.582245
0.581155
0.587165
0.587968
0.58829
0.588155
0.587549
0.586502
0.585072
0.583377
0.581614
0.580094
0.586968
0.587885
0.588258
0.588087
0.587366
0.586118
0.584384
0.582294
0.580065
0.578099
0.587822
0.588855
0.589262
0.589087
0.588297
0.586908
0.584944
0.582516
0.579864
0.57746
0.585484
0.58646
0.586889
0.586683
0.585829
0.584333
0.582205
0.579541
0.5766
0.57397
0.584315
0.584514
0.584539
0.584541
0.584528
0.58451
0.584485
0.584455
0.584402
0.584161
0.585998
0.586099
0.586148
0.586149
0.586116
0.586057
0.585975
0.585864
0.585705
0.585488
0.585729
0.585864
0.585922
0.585907
0.58583
0.585701
0.585535
0.58534
0.585114
0.584864
0.585784
0.586001
0.586094
0.586061
0.58591
0.585661
0.585341
0.584982
0.584607
0.584246
0.585813
0.586133
0.586262
0.586202
0.585959
0.585559
0.585043
0.584469
0.583898
0.58339
0.585673
0.586118
0.586302
0.586216
0.585867
0.585285
0.584522
0.583663
0.58281
0.582085
0.586324
0.586921
0.587161
0.587059
0.586609
0.585844
0.58482
0.58364
0.582452
0.581442
0.585922
0.58661
0.586892
0.586757
0.586209
0.585275
0.584009
0.58253
0.581016
0.579723
0.586853
0.587652
0.587964
0.587827
0.587215
0.586157
0.584701
0.582958
0.581136
0.579558
0.584483
0.585225
0.585561
0.585398
0.584735
0.58359
0.582
0.58008
0.578053
0.576375
0.584015
0.584195
0.584215
0.584218
0.584211
0.5842
0.584186
0.584168
0.584128
0.583913
0.585737
0.585818
0.585858
0.585862
0.585843
0.585807
0.585755
0.585676
0.585545
0.585342
0.585284
0.585376
0.585414
0.585406
0.58536
0.585283
0.585182
0.585059
0.584901
0.584696
0.585442
0.58559
0.585655
0.585636
0.585541
0.585381
0.585178
0.584947
0.584696
0.584422
0.585323
0.585537
0.585624
0.585585
0.585422
0.585157
0.58482
0.584449
0.584081
0.58373
0.585127
0.585436
0.585565
0.585505
0.585263
0.584863
0.584346
0.583776
0.583218
0.582734
0.585735
0.586163
0.586336
0.586262
0.58594
0.585399
0.584689
0.583887
0.583102
0.582433
0.585115
0.585612
0.585817
0.585716
0.585314
0.584639
0.583743
0.582727
0.581718
0.580881
0.586179
0.586777
0.587008
0.586905
0.586449
0.585674
0.584629
0.583413
0.582187
0.581163
0.583747
0.584287
0.58454
0.584417
0.58392
0.583075
0.581927
0.580585
0.579219
0.578174
0.583774
0.583938
0.583952
0.583955
0.583951
0.583945
0.583937
0.583926
0.583897
0.583707
0.585586
0.585653
0.585686
0.585692
0.585681
0.585659
0.585624
0.585565
0.585453
0.585256
0.58491
0.58497
0.584994
0.58499
0.584962
0.584917
0.584858
0.584783
0.584671
0.584494
0.585229
0.585328
0.585373
0.585363
0.585304
0.585205
0.585077
0.58493
0.584761
0.584545
0.584976
0.585115
0.585172
0.585146
0.58504
0.58487
0.584655
0.584421
0.584187
0.583942
0.584758
0.584965
0.585052
0.585013
0.58485
0.584583
0.584242
0.583872
0.583512
0.58319
0.585339
0.585635
0.585755
0.585703
0.585481
0.585111
0.584634
0.584104
0.583596
0.583156
0.584489
0.584833
0.584977
0.584904
0.58462
0.584149
0.583534
0.582855
0.582195
0.581666
0.585753
0.586187
0.586352
0.586278
0.585952
0.585404
0.584679
0.583854
0.583048
0.582388
0.583209
0.583584
0.583769
0.583678
0.583321
0.58272
0.581917
0.581007
0.580106
0.579476
0.583549
0.583694
0.583703
0.583706
0.583704
0.583701
0.583697
0.583691
0.58367
0.583506
0.585545
0.585603
0.58563
0.585636
0.58563
0.585615
0.585591
0.585546
0.585448
0.585252
0.584578
0.584616
0.58463
0.584626
0.58461
0.584585
0.584552
0.584507
0.584429
0.584275
0.585114
0.585179
0.585209
0.585204
0.585168
0.585108
0.58503
0.584938
0.584826
0.584652
0.584746
0.584832
0.584868
0.584852
0.584785
0.584678
0.584545
0.584401
0.584255
0.584084
0.584533
0.584668
0.584726
0.584701
0.584595
0.584422
0.584202
0.583967
0.583738
0.583525
0.58509
0.585286
0.585365
0.58533
0.585182
0.584937
0.584626
0.584287
0.583968
0.583684
0.583999
0.584227
0.584326
0.584276
0.584082
0.583764
0.583353
0.58291
0.582486
0.582162
0.585542
0.585847
0.585961
0.58591
0.585685
0.585312
0.584825
0.584282
0.583764
0.583341
0.582784
0.583032
0.583163
0.583099
0.582851
0.582438
0.581894
0.581297
0.580714
0.580349
0.583234
0.583357
0.583362
0.583364
0.583364
0.583363
0.583361
0.583358
0.583346
0.583211
0.585631
0.585682
0.585703
0.585708
0.585705
0.585695
0.585677
0.585642
0.585558
0.585364
0.584282
0.584303
0.58431
0.584307
0.584297
0.584284
0.584266
0.584242
0.584189
0.584059
0.585075
0.585115
0.585133
0.58513
0.585108
0.585072
0.585027
0.584973
0.584902
0.584767
0.58462
0.584672
0.584695
0.584685
0.584644
0.584579
0.584498
0.584411
0.584321
0.584205
0.584439
0.584525
0.584563
0.584547
0.58448
0.58437
0.584232
0.584085
0.583942
0.583803
0.584958
0.58508
0.585129
0.585104
0.585008
0.584852
0.584656
0.584446
0.584255
0.58408
0.58364
0.583788
0.583855
0.583822
0.583694
0.583485
0.583217
0.582933
0.58266
0.58247
0.585539
0.585746
0.585823
0.585788
0.585638
0.585392
0.585076
0.584729
0.584406
0.584134
0.582336
0.582493
0.582584
0.582541
0.582375
0.5821
0.581742
0.581361
0.580986
0.580789
0.582597
0.582694
0.582696
0.582697
0.582698
0.582698
0.582699
0.5827
0.582696
0.582594
0.585901
0.585946
0.58596
0.585963
0.58596
0.585953
0.585941
0.585915
0.585849
0.585665
0.584057
0.584069
0.584076
0.584076
0.584071
0.584063
0.584052
0.584036
0.584
0.583895
0.585088
0.585109
0.585116
0.585112
0.585098
0.585077
0.585052
0.585024
0.584987
0.584893
0.584593
0.584625
0.58464
0.584635
0.58461
0.58457
0.58452
0.584468
0.584413
0.584336
0.584465
0.584519
0.584544
0.584534
0.584492
0.584424
0.584338
0.584246
0.584157
0.584068
0.584926
0.584995
0.585022
0.585005
0.584943
0.584845
0.584725
0.5846
0.584492
0.584395
0.583487
0.583586
0.583633
0.583614
0.583531
0.583396
0.583222
0.583038
0.582855
0.582742
0.585795
0.585929
0.585977
0.585952
0.585855
0.585696
0.585497
0.585282
0.585091
0.584916
0.581637
0.581734
0.581798
0.58177
0.581661
0.581482
0.58125
0.581009
0.580763
0.580667
0.581322
0.581385
0.581388
0.581391
0.581392
0.581392
0.581392
0.581391
0.581391
0.58132
0.586485
0.586513
0.586513
0.586508
0.586503
0.586499
0.586495
0.586485
0.58645
0.586302
0.584008
0.584027
0.584041
0.584046
0.584045
0.584038
0.584025
0.584006
0.583971
0.583886
0.585119
0.585122
0.58512
0.585114
0.585104
0.585092
0.585079
0.585067
0.585054
0.585007
0.584643
0.584665
0.584676
0.584673
0.584657
0.584632
0.584599
0.584564
0.584528
0.584481
0.584577
0.584613
0.584629
0.584623
0.584596
0.584551
0.584496
0.584436
0.584378
0.584324
0.584967
0.585003
0.585017
0.585004
0.584963
0.5849
0.584825
0.58475
0.584691
0.584649
0.583693
0.583769
0.583805
0.583795
0.583741
0.583651
0.583535
0.583408
0.583274
0.583186
0.586433
0.586508
0.586535
0.586515
0.586449
0.586346
0.586219
0.586089
0.585987
0.585891
0.580408
0.580474
0.58052
0.580501
0.580429
0.580309
0.580156
0.579998
0.579826
0.579778
0.579493
0.579534
0.579546
0.579554
0.579556
0.579553
0.579545
0.579531
0.579514
0.579458
0.587411
0.587388
0.587361
0.587343
0.587333
0.587331
0.587339
0.587355
0.587375
0.587333
0.584194
0.584233
0.584258
0.58427
0.584271
0.584262
0.584243
0.584213
0.584166
0.584087
0.585118
0.585112
0.585105
0.585098
0.58509
0.58508
0.585071
0.585064
0.585062
0.585056
0.584715
0.584733
0.584742
0.584741
0.584729
0.584709
0.584683
0.584654
0.584625
0.584595
0.584698
0.584724
0.584736
0.584731
0.584711
0.584679
0.584637
0.584592
0.584548
0.584512
0.585019
0.585041
0.585049
0.585039
0.585008
0.584962
0.584907
0.584853
0.584814
0.5848
0.584248
0.584318
0.58435
0.584344
0.584304
0.584236
0.584149
0.584051
0.58394
0.583842
0.587433
0.587462
0.587474
0.587455
0.587405
0.587328
0.587237
0.587152
0.587103
0.587102
0.57877
0.578829
0.578863
0.578849
0.578794
0.578705
0.578592
0.578474
0.578344
0.578301
0.437139
0.416453
0.423378
0.464308
0.389419
0.366239
0.377235
0.43441
0.346477
0.319381
0.336598
0.415399
0.308628
0.279249
0.303364
0.404525
0.277299
0.247188
0.278401
0.402023
0.250424
0.220707
0.260292
0.397683
0.228808
0.200829
0.249081
0.394631
0.208501
0.183907
0.240901
0.39218
0.190622
0.171992
0.237186
0.393492
0.171233
0.160619
0.232757
0.388783
0.497024
0.48677
0.487092
0.496844
0.466374
0.453689
0.454796
0.467469
0.435643
0.418875
0.421016
0.438517
0.406796
0.385788
0.389271
0.411854
0.382251
0.356729
0.361802
0.389651
0.36035
0.329884
0.335394
0.368365
0.342602
0.307099
0.312286
0.350267
0.326306
0.28595
0.290531
0.333429
0.312907
0.268455
0.272403
0.319657
0.297771
0.250813
0.2522
0.30199
0.563859
0.561555
0.561027
0.562244
0.545735
0.541936
0.541221
0.543579
0.525835
0.519866
0.519023
0.523361
0.503752
0.495432
0.494579
0.501362
0.482838
0.472067
0.471356
0.480982
0.461816
0.448435
0.447877
0.460419
0.442946
0.426867
0.426423
0.441849
0.424402
0.405736
0.405368
0.423504
0.408205
0.387799
0.387408
0.407437
0.389469
0.369469
0.368301
0.387834
0.576073
0.574892
0.574539
0.574973
0.565928
0.564397
0.563888
0.564328
0.554106
0.55153
0.550787
0.551721
0.539476
0.53562
0.53468
0.536395
0.525108
0.519818
0.518749
0.521547
0.509566
0.502697
0.501542
0.505684
0.494996
0.486466
0.485264
0.490956
0.479729
0.469604
0.468408
0.475734
0.465513
0.4544
0.453216
0.461828
0.447829
0.437708
0.436227
0.444366
0.582712
0.582028
0.581821
0.582086
0.576317
0.575723
0.575477
0.575561
0.568826
0.567793
0.567349
0.567465
0.558864
0.557161
0.556482
0.556759
0.548982
0.54643
0.54552
0.546123
0.537716
0.534161
0.533042
0.534153
0.527009
0.522352
0.521064
0.522874
0.515252
0.509506
0.508118
0.510778
0.504051
0.497621
0.49621
0.499648
0.489428
0.4841
0.482539
0.485421
0.585105
0.584543
0.58439
0.584644
0.581108
0.580798
0.580674
0.580729
0.57598
0.575477
0.575242
0.575266
0.568884
0.568063
0.567664
0.56767
0.561911
0.560638
0.560041
0.560079
0.553634
0.551776
0.550964
0.551113
0.545832
0.543287
0.542271
0.542644
0.536953
0.533694
0.532525
0.533248
0.528477
0.524745
0.523527
0.52466
0.516676
0.514035
0.512725
0.513192
0.586075
0.585566
0.585437
0.585684
0.583677
0.5835
0.583435
0.583476
0.580099
0.579836
0.579713
0.579725
0.574844
0.574425
0.574204
0.574177
0.569722
0.569068
0.568715
0.568652
0.563419
0.56244
0.561924
0.561845
0.557608
0.556223
0.555532
0.555483
0.550826
0.548997
0.548156
0.548214
0.544602
0.542442
0.541536
0.541792
0.535027
0.533961
0.532998
0.532495
0.586283
0.585799
0.585679
0.58592
0.584937
0.584821
0.58478
0.584812
0.582449
0.582297
0.582227
0.582238
0.578538
0.578307
0.578181
0.578159
0.574718
0.574363
0.574157
0.574097
0.56981
0.569273
0.568961
0.568862
0.565406
0.564635
0.564198
0.564076
0.560145
0.559109
0.558555
0.558449
0.555672
0.554416
0.553795
0.553769
0.54772
0.547582
0.546939
0.546117
0.586146
0.585678
0.585562
0.585796
0.585502
0.58542
0.585391
0.585413
0.583773
0.583678
0.583635
0.583641
0.580873
0.580738
0.580662
0.580644
0.578028
0.577828
0.577705
0.577658
0.574191
0.573888
0.573698
0.573619
0.570862
0.570423
0.570152
0.570044
0.566736
0.566141
0.565791
0.565673
0.563538
0.562803
0.562398
0.562309
0.5568
0.557198
0.556801
0.555918
0.585857
0.5854
0.585286
0.585514
0.585674
0.585614
0.585591
0.585603
0.584462
0.5844
0.58437
0.584372
0.582337
0.582253
0.582203
0.582187
0.580227
0.580108
0.580031
0.579996
0.577238
0.57706
0.576942
0.576884
0.574772
0.574514
0.574346
0.574266
0.571514
0.571167
0.570948
0.570855
0.56927
0.568834
0.568578
0.568496
0.563464
0.564156
0.563927
0.563073
0.585524
0.585075
0.584962
0.585185
0.585641
0.585595
0.585574
0.585579
0.584763
0.58472
0.584697
0.584695
0.583241
0.583185
0.583149
0.583134
0.581683
0.581608
0.581557
0.58153
0.579367
0.579258
0.579182
0.579141
0.577603
0.577446
0.577339
0.577283
0.575006
0.574798
0.574661
0.574595
0.573516
0.573253
0.573093
0.573033
0.56843
0.56927
0.569147
0.568347
0.5852
0.584756
0.584644
0.584863
0.585513
0.585475
0.585456
0.585455
0.584828
0.584796
0.584777
0.584772
0.583786
0.583745
0.583717
0.583704
0.582629
0.582579
0.582543
0.582524
0.58085
0.580779
0.580728
0.5807
0.579658
0.579558
0.579489
0.579451
0.57755
0.577423
0.577336
0.577292
0.576683
0.576522
0.576422
0.576383
0.572152
0.573051
0.572992
0.57225
0.584908
0.584469
0.584358
0.584574
0.585358
0.585324
0.585305
0.585301
0.584752
0.584725
0.584709
0.584704
0.584106
0.584072
0.58405
0.584039
0.58323
0.583192
0.583167
0.583155
0.581873
0.581823
0.581789
0.581771
0.581148
0.581081
0.581035
0.581012
0.57938
0.5793
0.579246
0.579218
0.579051
0.57895
0.578888
0.578864
0.574938
0.575839
0.575816
0.575134
0.584657
0.58422
0.584111
0.584326
0.585218
0.585185
0.585165
0.58516
0.584594
0.584569
0.584554
0.584551
0.584295
0.584263
0.584244
0.584238
0.5836
0.583569
0.58355
0.583546
0.582575
0.582537
0.582513
0.582505
0.582224
0.582177
0.582146
0.582135
0.580664
0.580613
0.580578
0.580562
0.58082
0.580756
0.580718
0.580705
0.577009
0.577872
0.577869
0.57725
0.584436
0.584001
0.583895
0.58411
0.585121
0.585086
0.585065
0.585062
0.584388
0.584361
0.584348
0.584349
0.584416
0.584384
0.584366
0.584367
0.583824
0.583795
0.583782
0.583785
0.58306
0.583027
0.583011
0.583011
0.583002
0.582967
0.582947
0.582945
0.581529
0.581495
0.581473
0.581466
0.58215
0.582108
0.582085
0.58208
0.578523
0.57932
0.579325
0.578774
0.584209
0.583776
0.583675
0.583892
0.585095
0.585053
0.585032
0.585033
0.584155
0.584125
0.584112
0.58412
0.584515
0.58448
0.584465
0.584473
0.583969
0.58394
0.58393
0.583941
0.583412
0.583382
0.583371
0.583379
0.58357
0.583543
0.583532
0.583537
0.582078
0.582055
0.582042
0.58204
0.58317
0.583143
0.583129
0.58313
0.579579
0.580285
0.580294
0.579815
0.583871
0.583446
0.583353
0.583572
0.585175
0.585125
0.585103
0.585111
0.583919
0.583883
0.583873
0.583889
0.584621
0.584583
0.584572
0.58459
0.584089
0.58406
0.584053
0.584071
0.583702
0.583674
0.583666
0.58368
0.584001
0.583982
0.583977
0.583987
0.582418
0.582401
0.582392
0.582394
0.584008
0.583989
0.583981
0.583987
0.580189
0.580782
0.580789
0.580393
0.58319
0.582783
0.582705
0.582923
0.585439
0.585381
0.585359
0.585377
0.583733
0.583692
0.583683
0.583708
0.584751
0.584713
0.584706
0.584733
0.584226
0.584197
0.584192
0.584214
0.583981
0.583956
0.583951
0.583967
0.584353
0.584342
0.584341
0.584353
0.582698
0.582682
0.582675
0.582677
0.584822
0.584808
0.584805
0.584814
0.580229
0.580687
0.58069
0.580384
0.58181
0.581453
0.581397
0.581597
0.586057
0.585993
0.585977
0.586008
0.583706
0.583659
0.583649
0.583679
0.584892
0.58486
0.584858
0.58489
0.584388
0.584362
0.584359
0.584382
0.584258
0.584237
0.584234
0.58425
0.584648
0.584645
0.584648
0.584657
0.583111
0.58309
0.583081
0.583086
0.585846
0.585839
0.58584
0.585851
0.579466
0.579757
0.579754
0.579558
0.579746
0.579524
0.579498
0.579624
0.587149
0.587103
0.587102
0.587148
0.583899
0.583851
0.583839
0.583863
0.584997
0.584979
0.584982
0.585009
0.584532
0.584513
0.584511
0.584527
0.58447
0.584456
0.584454
0.584465
0.584834
0.584839
0.584843
0.584846
0.583696
0.583661
0.58365
0.583663
0.587202
0.587219
0.587226
0.587226
0.578027
0.578102
0.578097
0.578052
0.593
0.601565
0.605596
0.608666
0.611756
0.614487
0.616705
0.618441
0.619808
0.620987
0.593469
0.596853
0.604208
0.609149
0.613531
0.61685
0.619273
0.621025
0.622292
0.623318
0.596986
0.593311
0.604186
0.609752
0.614909
0.618392
0.620881
0.62266
0.623915
0.624879
0.599944
0.588966
0.603488
0.608934
0.614686
0.618145
0.620648
0.622404
0.623636
0.624571
0.603734
0.586345
0.603613
0.608864
0.615106
0.618465
0.620983
0.622693
0.623865
0.62473
0.606084
0.583026
0.602767
0.607593
0.61435
0.617581
0.620165
0.621868
0.623078
0.624001
0.609363
0.581136
0.603025
0.607198
0.614424
0.617452
0.620102
0.621789
0.623001
0.623915
0.610313
0.577586
0.601591
0.605052
0.61283
0.61572
0.618574
0.620381
0.621819
0.622985
0.611481
0.57573
0.601681
0.603834
0.611773
0.614227
0.617342
0.619331
0.621001
0.622383
0.595759
0.559865
0.588407
0.590928
0.600739
0.604782
0.609603
0.612892
0.615623
0.617802
0.535627
0.557708
0.574015
0.585587
0.593504
0.599015
0.602999
0.605975
0.608278
0.610217
0.521443
0.551947
0.573936
0.587765
0.596529
0.602454
0.606654
0.609709
0.611958
0.613679
0.510983
0.548517
0.57467
0.589508
0.598823
0.604976
0.609285
0.612378
0.614604
0.616251
0.502385
0.545189
0.574512
0.589663
0.599388
0.605628
0.60996
0.61303
0.615221
0.616822
0.497566
0.543926
0.575294
0.590537
0.600581
0.606805
0.611112
0.614113
0.616224
0.617744
0.493975
0.542374
0.575236
0.590274
0.600602
0.606747
0.611037
0.613987
0.616086
0.617622
0.493145
0.542323
0.576283
0.590836
0.601376
0.607346
0.611601
0.614486
0.616549
0.618059
0.491962
0.540967
0.575865
0.589759
0.600529
0.60633
0.610648
0.613582
0.615792
0.617489
0.492114
0.540957
0.576731
0.589381
0.599964
0.605316
0.609759
0.612841
0.615242
0.617146
0.482897
0.530846
0.567364
0.579542
0.591158
0.597542
0.603188
0.607211
0.610383
0.612778
0.566403
0.572747
0.578819
0.58417
0.588727
0.592535
0.595689
0.598297
0.600485
0.602395
0.552666
0.564091
0.574229
0.582491
0.5891
0.594303
0.598365
0.60153
0.603995
0.605921
0.539465
0.556561
0.570806
0.581571
0.589773
0.595936
0.600577
0.604085
0.60673
0.608721
0.526236
0.548962
0.567146
0.579995
0.589459
0.59628
0.601277
0.604972
0.607717
0.609746
0.516118
0.543813
0.565394
0.579825
0.590218
0.59744
0.602624
0.606385
0.609142
0.611147
0.506995
0.538938
0.563452
0.579021
0.590112
0.597565
0.602857
0.606647
0.609427
0.611463
0.500693
0.536075
0.563042
0.579312
0.590886
0.598405
0.603729
0.6075
0.610271
0.612296
0.494754
0.532747
0.561786
0.578386
0.590304
0.597803
0.603186
0.607008
0.609891
0.612061
0.490822
0.531156
0.561927
0.578192
0.590007
0.597241
0.602705
0.60665
0.609682
0.612018
0.480685
0.522201
0.554162
0.570376
0.582904
0.590875
0.597169
0.601789
0.605363
0.607982
0.575954
0.578447
0.58136
0.584295
0.587054
0.58955
0.591757
0.59369
0.595401
0.59698
0.566609
0.571462
0.57687
0.581982
0.586485
0.590315
0.593514
0.596157
0.598318
0.600069
0.555987
0.564058
0.572399
0.579742
0.585889
0.590895
0.594922
0.598132
0.600662
0.602633
0.543662
0.555668
0.567296
0.576873
0.584539
0.590532
0.595202
0.59883
0.601636
0.603772
0.532853
0.549071
0.563951
0.575525
0.58447
0.591216
0.596336
0.600225
0.603185
0.605396
0.522054
0.542523
0.560509
0.573791
0.583794
0.5911
0.59654
0.600608
0.603687
0.605985
0.513341
0.537878
0.558701
0.573336
0.584157
0.591827
0.597466
0.601628
0.604768
0.607095
0.504803
0.533053
0.556408
0.572033
0.583464
0.591355
0.597151
0.601424
0.604685
0.607142
0.498129
0.529983
0.555522
0.571539
0.583174
0.591058
0.596985
0.601384
0.604766
0.607356
0.487237
0.521641
0.548606
0.565008
0.577291
0.585752
0.592266
0.597146
0.600907
0.603627
0.582199
0.583053
0.584237
0.585599
0.587024
0.588431
0.589768
0.591016
0.592196
0.593368
0.576273
0.578238
0.580774
0.58349
0.586146
0.588612
0.590827
0.592768
0.594434
0.595837
0.568622
0.572067
0.57635
0.580695
0.584743
0.588331
0.591415
0.594011
0.596153
0.597887
0.558831
0.564407
0.57091
0.577103
0.582596
0.587262
0.591135
0.594303
0.596857
0.598872
0.549648
0.557837
0.566807
0.574865
0.581716
0.587316
0.591828
0.595426
0.598274
0.60047
0.539735
0.550882
0.562435
0.572275
0.580354
0.586742
0.591766
0.595698
0.59878
0.601143
0.531165
0.545456
0.559568
0.571
0.580122
0.58712
0.592523
0.596687
0.599923
0.602376
0.52236
0.539829
0.556374
0.569138
0.5791
0.586549
0.592247
0.596611