/*--------------------------------*- C++ -*----------------------------------*\
| =========                 |                                                 |
| \\      /  F ield         | foam-extend: Open Source CFD                    |
|  \\    /   O peration     | Version:     4.0                                |
|   \\  /    A nd           | Web:         http://www.foam-extend.org         |
|    \\/     M anipulation  |                                                 |
\*---------------------------------------------------------------------------*/
FoamFile
{
    version     2.0;
    format      ascii;
    class       volScalarField;
    location    "850";
    object      p;
}
// * * * * * * * * * * * * * * * * * * * * * * * * * * * * * * * * * * * * * //

dimensions      [1 -1 -2 0 0 0 0];

internalField   nonuniform List<scalar> 
34480
(
108013
107913
107874
107889
107972
108152
108491
109167
110123
110457
107894
107795
107756
107766
107843
108015
108347
109008
110029
109982
107820
107716
107674
107672
107731
107871
108160
108751
109766
109162
107832
107722
107670
107652
107685
107778
108009
108499
109444
108254
107844
107718
107653
107614
107619
107664
107834
108217
109057
107314
107946
107815
107739
107688
107671
107677
107788
108061
108757
106477
107928
107778
107691
107626
107590
107565
107626
107796
108326
105574
108067
107919
107834
107782
107761
107747
107791
107885
108227
104996
107995
107840
107749
107694
107676
107672
107706
107740
107870
104256
108095
107952
107916
107963
108085
108260
108484
108692
108819
104715
108809
108685
108640
108665
108769
108970
109302
109826
110635
111695
108625
108494
108448
108473
108584
108804
109185
109830
110959
112547
108490
108353
108304
108321
108422
108632
109018
109712
111078
113042
108439
108294
108235
108237
108321
108504
108864
109547
111051
113261
108398
108237
108165
108147
108206
108352
108672
109309
110878
113226
108453
108285
108202
108170
108208
108319
108594
109159
110729
113100
108395
108212
108118
108069
108088
108166
108395
108882
110404
112739
108505
108323
108228
108187
108212
108290
108497
108916
110335
112543
108418
108230
108128
108079
108094
108166
108354
108721
109990
112108
108506
108328
108267
108296
108413
108608
108920
109389
110603
112513
109413
109300
109261
109289
109391
109575
109857
110255
110781
111388
109223
109092
109048
109082
109203
109430
109789
110325
111132
112128
109064
108921
108874
108905
109032
109273
109673
110312
111396
112810
108975
108819
108762
108784
108904
109142
109560
110257
111562
113354
108894
108722
108654
108660
108764
108984
109396
110110
111581
113696
108908
108729
108651
108645
108733
108931
109326
110025
111606
113967
108817
108623
108536
108515
108586
108760
109128
109796
111437
113988
108900
108707
108617
108600
108674
108844
109199
109833
111471
114125
108798
108600
108503
108477
108538
108693
109027
109634
111205
113969
108872
108681
108613
108641
108772
109009
109417
110088
111622
114381
109847
109760
109730
109752
109832
109969
110165
110416
110707
110986
109691
109576
109537
109568
109676
109866
110151
110537
111037
111551
109549
109411
109365
109398
109520
109744
110094
110599
111345
112175
109447
109290
109234
109262
109388
109629
110028
110633
111620
112795
109349
109172
109105
109121
109241
109483
109906
110576
111775
113290
109337
109151
109074
109080
109192
109426
109858
110564
111938
113761
109224
109022
108936
108930
109029
109250
109677
110396
111906
114010
109285
109083
108994
108991
109092
109311
109738
110459
112045
114371
109169
108962
108868
108857
108948
109156
109570
110290
111883
114434
109229
109028
108953
108981
109120
109383
109846
110612
112195
114885
110157
110096
110074
110091
110146
110239
110365
110516
110675
110812
110045
109953
109922
109947
110032
110178
110385
110645
110945
111218
109936
109816
109776
109805
109912
110100
110379
110751
111228
111695
109840
109696
109644
109672
109792
110012
110355
110837
111518
112234
109741
109572
109510
109531
109654
109890
110279
110849
111730
112717
109717
109535
109462
109477
109598
109842
110260
110897
111966
113225
109592
109392
109311
109316
109431
109672
110107
110789
112021
113553
109639
109437
109351
109359
109477
109722
110170
110884
112238
114011
109514
109305
109215
109217
109329
109569
110017
110755
112171
114200
109562
109359
109281
109309
109454
109731
110213
110992
112428
114653
110379
110339
110325
110336
110372
110430
110506
110592
110677
110744
110307
110240
110216
110235
110296
110400
110540
110707
110883
111030
110239
110141
110107
110132
110217
110364
110573
110834
111134
111399
110158
110033
109988
110014
110118
110304
110580
110944
111399
111830
110071
109918
109862
109885
109999
110212
110544
111002
111622
112248
110045
109876
109808
109828
109948
110179
110556
111093
111881
112719
109917
109727
109652
109665
109785
110025
110432
111034
111979
113044
109957
109762
109682
109697
109822
110073
110505
111158
112238
113519
109826
109624
109540
109550
109673
109924
110367
111061
112232
113757
109867
109668
109591
109620
109764
110042
110511
111243
112456
114169
110542
110518
110509
110516
110538
110572
110617
110665
110710
110744
110499
110453
110436
110449
110492
110561
110651
110755
110858
110939
110470
110395
110369
110387
110451
110560
110708
110885
111073
111228
110408
110306
110268
110290
110375
110523
110734
110998
111298
111563
110338
110208
110160
110181
110281
110461
110729
111080
111508
111908
110319
110168
110109
110130
110240
110446
110765
111197
111763
112317
110195
110022
109955
109972
110087
110310
110669
111173
111875
112603
110234
110055
109981
110000
110124
110363
110755
111318
112145
113049
110101
109912
109835
109851
109975
110220
110630
111243
112166
113274
110138
109951
109878
109906
110045
110310
110742
111392
112366
113625
110666
110652
110647
110651
110664
110684
110709
110736
110760
110777
110642
110612
110600
110609
110636
110680
110737
110800
110859
110904
110644
110589
110570
110583
110629
110705
110806
110922
111038
111130
110599
110520
110490
110507
110572
110684
110838
111023
111220
111384
110550
110444
110404
110422
110504
110649
110856
111115
111407
111663
110540
110413
110363
110383
110478
110652
110910
111243
111642
112009
110425
110274
110216
110234
110339
110534
110835
111238
111749
112245
110470
110310
110245
110266
110380
110596
110933
111397
112014
112644
110337
110166
110097
110116
110234
110460
110820
111334
112037
112821
110374
110204
110136
110164
110292
110533
110914
111462
112216
113112
110764
110755
110753
110755
110762
110774
110788
110802
110815
110825
110748
110729
110721
110727
110744
110771
110806
110843
110878
110903
110775
110737
110723
110732
110763
110814
110881
110955
111027
111081
110742
110683
110660
110672
110721
110802
110911
111036
111164
111265
110713
110630
110599
110613
110678
110789
110943
111127
111324
111488
110715
110611
110570
110587
110666
110806
111006
111254
111531
111773
110609
110483
110434
110451
110541
110705
110947
111258
111621
111957
110664
110527
110472
110492
110593
110778
111056
111423
111872
112305
110532
110383
110324
110343
110449
110647
110950
111363
111884
112426
110573
110424
110364
110389
110504
110714
111036
111480
112045
112667
110842
110837
110836
110837
110841
110847
110855
110863
110870
110875
110827
110816
110811
110814
110825
110841
110862
110884
110904
110919
110873
110847
110838
110844
110864
110898
110941
110987
111031
111062
110846
110804
110787
110796
110830
110887
110961
111045
111127
111190
110836
110774
110750
110761
110809
110891
111002
111130
111260
111365
110848
110767
110735
110749
110811
110919
111069
111248
111437
111595
110753
110651
110611
110626
110700
110831
111018
111250
111505
111729
110819
110707
110661
110679
110764
110916
111137
111417
111737
112030
110688
110563
110514
110532
110623
110788
111034
111354
111731
112098
110737
110611
110560
110582
110679
110856
111118
111465
111877
112299
110906
110903
110902
110903
110905
110909
110913
110917
110921
110924
110887
110881
110877
110879
110886
110895
110908
110921
110933
110941
110947
110931
110924
110928
110941
110962
110989
111018
111044
111062
110921
110892
110880
110886
110909
110948
110997
111052
111104
111143
110927
110881
110864
110872
110907
110965
111042
111130
111215
111281
110946
110886
110861
110872
110919
110999
111108
111234
111362
111464
110861
110781
110750
110762
110820
110921
111061
111229
111404
111553
110940
110852
110815
110830
110899
111019
111188
111394
111618
111813
110809
110707
110668
110683
110758
110891
111082
111323
111589
111835
110868
110765
110723
110741
110822
110964
111170
111431
111726
112007
110958
110956
110956
110956
110958
110959
110962
110964
110966
110967
110931
110928
110926
110927
110930
110936
110944
110951
110958
110964
111004
110993
110989
110991
111000
111013
111029
111046
111062
111072
110973
110953
110945
110949
110964
110990
111022
111057
111090
111115
110992
110960
110948
110954
110978
111018
111071
111128
111183
111225
111017
110973
110955
110963
110997
111055
111132
111218
111303
111369
110939
110878
110855
110864
110908
110983
111085
111203
111321
111419
111032
110965
110937
110949
111002
111093
111219
111366
111520
111647
110898
110818
110787
110800
110859
110962
111106
111281
111465
111628
110969
110888
110855
110870
110933
111044
111200
111391
111596
111781
111001
110999
111000
110999
111000
111001
111002
111004
111005
111005
110963
110961
110959
110960
110962
110966
110970
110975
110979
110983
111047
111041
111038
111040
111045
111053
111062
111073
111082
111087
111008
110995
110989
110991
111001
111018
111038
111061
111081
111097
111038
111016
111008
111012
111028
111055
111090
111127
111162
111188
111066
111035
111022
111027
111052
111092
111144
111202
111258
111300
110992
110948
110931
110938
110970
111024
111095
111176
111255
111319
111100
111051
111030
111040
111079
111146
111236
111339
111443
111524
110960
110899
110876
110885
110930
111007
111112
111235
111361
111467
111046
110984
110959
110971
111019
111102
111217
111352
111492
111611
111036
111035
111035
111035
111036
111036
111037
111037
111038
111038
110983
110982
110981
110981
110982
110984
110987
110990
110993
110996
111081
111078
111076
111077
111080
111085
111090
111096
111101
111103
111029
111020
111017
111018
111024
111034
111047
111062
111074
111085
111069
111055
111049
111052
111062
111080
111102
111126
111148
111164
111097
111076
111067
111071
111087
111114
111149
111187
111223
111249
111027
110996
110984
110989
111011
111049
111097
111152
111202
111244
111150
111116
111101
111108
111136
111184
111246
111316
111384
111435
110999
110954
110937
110944
110977
111032
111106
111191
111274
111343
111103
111059
111040
111049
111084
111144
111225
111318
111411
111488
111067
111066
111066
111066
111066
111067
111067
111067
111067
111067
110992
110992
110991
110991
110992
110993
110995
110997
110999
111002
111109
111107
111106
111107
111109
111111
111114
111117
111120
111120
111040
111034
111032
111033
111036
111043
111051
111059
111067
111074
111088
111079
111075
111077
111084
111095
111109
111124
111137
111146
111114
111100
111094
111097
111107
111125
111148
111173
111195
111212
111048
111027
111019
111022
111038
111063
111095
111130
111162
111188
111187
111163
111153
111158
111178
111210
111253
111298
111343
111373
111019
110987
110975
110980
111003
111041
111091
111148
111202
111247
111148
111117
111104
111110
111135
111177
111233
111294
111355
111403
111098
111097
111098
111098
111098
111098
111098
111098
111098
111098
110992
110991
110991
110991
110991
110992
110993
110995
110996
110999
111132
111131
111131
111131
111132
111134
111135
111137
111138
111136
111043
111040
111038
111039
111041
111045
111049
111055
111059
111064
111097
111092
111089
111091
111095
111102
111110
111119
111127
111132
111119
111110
111106
111108
111115
111126
111141
111156
111171
111181
111058
111045
111040
111042
111052
111068
111089
111111
111130
111147
111212
111197
111190
111193
111206
111228
111256
111285
111314
111332
111023
111000
110992
110996
111011
111037
111070
111106
111141
111170
111189
111168
111159
111163
111180
111208
111246
111285
111325
111353
111145
111144
111145
111145
111145
111145
111144
111144
111144
111143
110979
110978
110978
110978
110978
110979
110980
110981
110982
110986
111149
111150
111149
111150
111150
111151
111152
111152
111153
111151
111041
111039
111039
111039
111040
111042
111045
111048
111050
111053
111097
111094
111092
111093
111096
111100
111105
111110
111115
111118
111114
111108
111106
111107
111111
111118
111127
111137
111146
111152
111061
111053
111050
111052
111058
111068
111081
111094
111105
111115
111224
111214
111209
111211
111220
111234
111252
111271
111290
111299
111009
110994
110988
110991
111001
111018
111039
111062
111083
111102
111241
111227
111221
111224
111235
111253
111277
111303
111328
111344
111233
111232
111233
111233
111233
111233
111232
111232
111231
111230
110947
110946
110946
110946
110947
110947
110948
110949
110950
110953
111156
111156
111155
111155
111155
111156
111157
111157
111158
111156
111036
111036
111036
111036
111037
111039
111040
111041
111041
111043
111089
111087
111086
111086
111088
111090
111094
111097
111100
111102
111099
111095
111094
111094
111097
111102
111107
111113
111119
111123
111056
111051
111050
111051
111055
111062
111070
111077
111083
111088
111211
111204
111201
111202
111207
111216
111228
111241
111254
111260
110970
110960
110957
110959
110966
110977
110990
111004
111016
111029
111328
111319
111314
111316
111324
111336
111352
111368
111385
111393
111391
111391
111391
111390
111390
111390
111390
111390
111390
111390
110884
110884
110885
110886
110886
110887
110887
110886
110886
110888
111139
111138
111136
111135
111135
111136
111137
111139
111141
111142
111033
111034
111034
111035
111036
111037
111037
111038
111037
111037
111077
111075
111074
111074
111076
111077
111080
111082
111084
111086
111081
111078
111077
111077
111079
111082
111086
111090
111094
111097
111047
111045
111044
111045
111048
111052
111058
111063
111066
111068
111159
111153
111150
111150
111154
111160
111169
111178
111188
111195
110894
110889
110887
110889
110894
110901
110910
110918
110924
110930
111473
111467
111463
111465
111470
111478
111489
111500
111513
111518
111573
111570
111569
111568
111568
111568
111569
111571
111573
111577
110801
110806
110810
110812
110813
110813
110812
110810
110806
110800
111105
111100
111098
111097
111097
111098
111099
111102
111107
111113
111036
111037
111037
111038
111039
111039
111040
111041
111041
111040
111067
111066
111065
111065
111066
111068
111070
111072
111075
111077
111068
111065
111064
111065
111066
111069
111072
111076
111080
111083
111043
111041
111040
111041
111043
111047
111052
111056
111059
111060
111088
111081
111079
111079
111083
111088
111095
111103
111112
111121
110800
110799
110798
110800
110804
110810
110817
110824
110827
110824
111630
111625
111623
111624
111628
111635
111644
111654
111664
111668
122639
123848
123674
122410
125842
127242
126846
125238
128813
130397
129813
127841
131035
132738
131970
129722
132760
134546
133605
131157
134155
136005
135094
132536
135119
137004
136232
133612
135963
137857
137253
134599
135883
137750
137293
134652
135472
137325
137127
134641
113060
113248
113286
113167
115332
115701
115759
115472
117617
118167
118227
117724
119804
120523
120571
119826
121808
122666
122686
121687
123705
124676
124666
123463
125275
126334
126298
124943
126799
127920
127870
126412
127583
128737
128689
127182
128226
129417
129417
127959
111905
111994
112021
111995
113227
113393
113432
113366
114713
114978
115031
114903
116237
116609
116671
116462
117712
118189
118250
117940
119234
119815
119872
119449
120561
121236
121286
120747
121962
122716
122759
122110
122788
123590
123629
122888
123601
124442
124500
123704
111100
111123
111134
111134
111858
111911
111931
111923
112811
112915
112948
112924
113887
114056
114106
114054
114963
115205
115270
115176
116134
116457
116534
116384
117172
117574
117659
117444
118350
118825
118915
118629
119070
119596
119693
119344
119843
120413
120528
120139
110857
110867
110872
110872
111340
111363
111374
111374
111956
112005
112025
112021
112703
112787
112820
112811
113471
113599
113646
113625
114347
114527
114588
114548
115115
115349
115424
115355
116054
116342
116428
116324
116639
116969
117068
116933
117314
117682
117800
117643
110762
110766
110768
110768
111079
111088
111093
111094
111505
111525
111536
111538
112033
112073
112093
112096
112591
112656
112687
112690
113254
113352
113396
113393
113818
113952
114008
113998
114564
114736
114804
114779
115030
115233
115315
115277
115582
115812
115910
115860
110753
110755
110756
110756
110963
110968
110970
110971
111280
111290
111296
111298
111661
111682
111693
111697
112075
112110
112129
112135
112584
112638
112667
112674
112997
113074
113113
113120
113593
113695
113744
113747
113949
114073
114134
114131
114383
114524
114595
114587
110782
110783
110783
110783
110917
110919
110921
110921
111158
111163
111166
111168
111437
111448
111455
111458
111752
111771
111783
111788
112151
112182
112200
112207
112454
112498
112524
112533
112936
112996
113029
113038
113189
113264
113305
113313
113527
113613
113661
113666
110827
110827
110828
110828
110911
110912
110913
110913
111097
111100
111102
111103
111296
111303
111307
111309
111539
111550
111557
111560
111855
111873
111884
111889
112076
112102
112118
112125
112469
112505
112527
112535
112634
112680
112707
112715
112901
112954
112985
112992
110876
110877
110877
110877
110923
110924
110925
110925
111072
111074
111075
111076
111209
111213
111216
111217
111395
111402
111406
111409
111645
111655
111663
111666
111800
111815
111826
111831
112126
112148
112162
112168
112221
112249
112266
112272
112437
112469
112488
112494
110924
110924
110925
110925
110944
110945
110945
110945
111068
111070
111070
111071
111155
111158
111160
111161
111299
111303
111306
111308
111495
111502
111506
111509
111596
111606
111612
111616
111871
111885
111894
111898
111910
111927
111938
111942
112090
112110
112122
112126
110968
110968
110968
110968
110966
110966
110966
110967
111076
111077
111077
111078
111123
111124
111126
111127
111236
111239
111241
111242
111388
111393
111396
111397
111446
111452
111456
111458
111684
111692
111698
111700
111675
111686
111693
111696
111832
111844
111852
111855
111005
111005
111005
111005
110984
110984
110985
110985
111089
111090
111090
111090
111102
111103
111104
111105
111195
111196
111198
111198
111312
111315
111317
111318
111335
111339
111342
111343
111547
111552
111556
111558
111497
111504
111509
111511
111642
111650
111655
111657
111038
111038
111038
111038
110996
110997
110997
110997
111105
111105
111105
111105
111088
111088
111089
111090
111168
111168
111169
111170
111258
111260
111261
111262
111254
111256
111258
111259
111450
111453
111455
111456
111363
111368
111371
111372
111507
111511
111514
111516
111067
111067
111067
111067
111002
111002
111003
111003
111121
111121
111121
111121
111076
111076
111077
111077
111149
111149
111149
111150
111217
111219
111220
111220
111194
111195
111196
111197
111383
111385
111387
111387
111260
111263
111265
111266
111414
111417
111419
111420
111097
111097
111097
111097
110999
111000
111000
111000
111137
111137
111137
111137
111064
111064
111065
111065
111134
111134
111134
111134
111185
111186
111186
111186
111149
111149
111150
111150
111339
111340
111341
111341
111179
111181
111182
111182
111359
111360
111362
111362
111142
111142
111142
111142
110986
110986
110986
110987
111151
111151
111151
111151
111052
111052
111052
111052
111119
111119
111119
111119
111155
111156
111156
111156
111114
111113
111114
111114
111306
111307
111307
111307
111108
111109
111110
111110
111346
111347
111347
111348
111229
111229
111229
111229
110953
110953
110953
110954
111158
111159
111158
111158
111040
111040
111040
111040
111103
111103
111103
111103
111126
111126
111126
111126
111085
111084
111084
111084
111268
111270
111270
111270
111031
111032
111032
111032
111394
111393
111394
111395
111389
111389
111389
111389
110884
110884
110884
110884
111148
111149
111149
111149
111033
111032
111032
111032
111087
111087
111087
111087
111099
111100
111100
111100
111063
111062
111061
111062
111208
111211
111211
111210
110926
110925
110925
110925
111524
111524
111524
111525
111578
111579
111579
111580
110785
110782
110780
110780
111124
111125
111126
111126
111037
111036
111035
111035
111079
111079
111079
111079
111085
111085
111085
111085
111055
111054
111054
111054
111138
111142
111143
111141
110799
110793
110792
110796
111690
111693
111693
111690
116080
113580
111666
110387
109587
109070
108718
108469
108291
108156
117145
113980
111626
110237
109417
108895
108549
108310
108143
108020
117574
114085
111425
110116
109297
108781
108434
108194
108032
107927
117654
114079
111193
110050
109249
108767
108436
108207
108049
107942
117479
113966
111001
109983
109190
108742
108423
108206
108053
107954
117202
113945
110939
110056
109263
108853
108542
108334
108180
108068
116659
113787
110747
110004
109202
108831
108522
108320
108163
108054
116317
113886
110813
110212
109395
109055
108736
108525
108352
108214
115647
113601
110548
110123
109328
109032
108700
108483
108301
108152
116109
114307
111229
110827
109909
109509
109065
108759
108507
108287
112616
111876
111219
110669
110218
109850
109553
109314
109122
108973
114234
112879
111755
110909
110271
109792
109432
109158
108948
108791
115577
113643
112116
111052
110273
109714
109309
109010
108791
108644
116634
114208
112346
111154
110295
109704
109283
108978
108754
108600
117339
114564
112436
111169
110259
109660
109235
108932
108708
108558
117894
114901
112560
111264
110324
109731
109308
109009
108783
108623
118114
115013
112498
111209
110249
109671
109250
108955
108727
108569
118381
115278
112627
111381
110409
109848
109421
109119
108880
108698
118196
115119
112424
111284
110340
109808
109373
109063
108814
108621
118618
115643
112912
111792
110772
110166
109652
109277
108980
108736
111840
111527
111176
110839
110535
110269
110041
109849
109689
109560
113011
112377
111714
111141
110672
110294
109989
109743
109545
109391
114249
113211
112198
111385
110754
110271
109900
109612
109391
109234
115421
113954
112611
111609
110857
110302
109886
109571
109331
109159
116416
114525
112881
111726
110882
110280
109837
109507
109256
109082
117354
115072
113159
111892
110979
110349
109890
109552
109294
109108
118009
115379
113230
111887
110923
110279
109810
109469
109204
109019
118702
115794
113455
112077
111078
110430
109950
109599
109325
109119
118898
115778
113355
112015
111024
110385
109892
109530
109245
109029
119412
116208
113739
112392
111346
110652
110105
109697
109378
109126
111112
111016
110882
110731
110576
110426
110286
110160
110050
109957
111850
111626
111341
111051
110777
110529
110311
110123
109965
109837
112756
112328
111826
111355
110940
110588
110295
110053
109858
109712
113743
113065
112324
111672
111124
110679
110322
110035
109807
109635
114665
113702
112711
111891
111227
110708
110301
109983
109731
109549
115613
114349
113111
112142
111381
110805
110363
110022
109753
109554
116354
114785
113309
112215
111374
110756
110287
109931
109649
109445
117180
115326
113641
112455
111552
110906
110414
110041
109747
109524
117574
115479
113664
112444
111515
110853
110342
109956
109651
109419
118186
115916
114006
112737
111756
111052
110502
110082
109754
109496
110864
110824
110763
110688
110606
110522
110439
110362
110291
110231
111347
111253
111118
110962
110802
110646
110500
110369
110254
110158
111964
111775
111522
111254
110994
110754
110541
110355
110199
110077
112707
112387
111985
111582
111211
110884
110603
110366
110169
110015
113448
112964
112389
111846
111365
110957
110618
110338
110108
109935
114267
113591
112829
112147
111565
111088
110699
110385
110130
109934
114936
114046
113090
112278
111604
111068
110640
110299
110023
109818
115734
114627
113487
112563
111812
111229
110766
110402
110109
109884
116187
114879
113601
112602
111797
111179
110690
110308
110003
109769
116790
115306
113915
112848
111991
111335
110815
110407
110085
109832
110765
110748
110720
110683
110640
110595
110549
110504
110462
110425
111086
111043
110977
110894
110803
110709
110618
110532
110454
110387
111520
111435
111307
111156
110997
110841
110694
110560
110443
110350
112062
111911
111696
111456
111215
110986
110779
110594
110436
110308
112631
112390
112065
111722
111391
111089
110822
110592
110396
110245
113295
112942
112491
112037
111616
111244
110924
110653
110426
110247
113842
113356
112764
112197
111688
111252
110885
110580
110327
110134
114548
113915
113180
112507
111918
111426
111018
110684
110410
110195
114973
114194
113335
112573
111918
111383
110943
110589
110300
110075
115497
114582
113622
112791
112086
111514
111047
110671
110369
110128
110755
110746
110732
110713
110691
110666
110641
110615
110591
110569
110967
110945
110910
110865
110813
110758
110702
110648
110598
110554
111289
111245
111176
111088
110992
110892
110794
110702
110619
110552
111683
111606
111487
111342
111187
111032
110885
110749
110628
110528
112113
111988
111802
111586
111363
111147
110947
110768
110610
110486
112638
112451
112184
111887
111591
111313
111062
110842
110652
110497
113062
112796
112434
112050
111678
111340
111041
110783
110563
110392
113658
113300
112835
112362
111918
111524
111182
110892
110650
110454
114008
113550
112987
112433
111926
111486
111111
110800
110539
110333
114434
113887
113246
112631
112078
111605
111205
110874
110601
110382
110783
110778
110771
110761
110749
110736
110722
110708
110694
110682
110919
110908
110889
110864
110835
110803
110769
110736
110705
110677
111163
111139
111100
111049
110990
110928
110865
110803
110747
110702
111451
111409
111340
111252
111153
111050
110949
110853
110765
110690
111778
111709
111599
111463
111315
111165
111020
110886
110766
110668
112192
112089
111927
111735
111531
111330
111141
110969
110817
110690
112511
112362
112139
111882
111617
111364
111130
110922
110740
110595
113003
112798
112505
112180
111856
111552
111278
111039
110834
110664
113261
112993
112629
112239
111862
111517
111211
110949
110725
110544
113601
113277
112858
112421
112004
111629
111301
111021
110786
110593
110827
110825
110821
110816
110810
110802
110795
110787
110779
110772
110912
110906
110896
110882
110865
110846
110826
110807
110788
110770
111100
111086
111064
111034
110998
110959
110919
110880
110843
110813
111306
111282
111241
111187
111124
111058
110990
110924
110862
110808
111555
111516
111449
111363
111266
111163
111062
110965
110877
110804
111882
111822
111723
111598
111460
111318
111180
111051
110934
110835
112116
112028
111889
111718
111534
111349
111173
111012
110868
110750
112519
112399
112213
111994
111763
111537
111326
111136
110969
110828
112692
112533
112300
112033
111760
111499
111259
111048
110862
110710
112963
112772
112501
112198
111894
111608
111349
111121
110925
110762
110877
110875
110873
110870
110867
110863
110859
110855
110850
110847
110925
110921
110915
110908
110898
110887
110876
110864
110853
110842
111074
111066
111053
111035
111013
110990
110965
110939
110916
110898
111215
111201
111177
111144
111105
111062
111017
110973
110931
110893
111406
111382
111341
111287
111223
111155
111086
111018
110955
110902
111662
111626
111564
111484
111391
111294
111196
111102
111016
110940
111826
111773
111685
111573
111446
111316
111187
111067
110956
110865
112160
112088
111970
111823
111662
111499
111342
111196
111066
110953
112261
112166
112017
111837
111644
111453
111271
111106
110958
110835
112481
112367
112193
111988
111772
111561
111363
111184
111027
110894
110924
110924
110923
110921
110919
110917
110915
110912
110910
110908
110945
110943
110940
110936
110930
110924
110917
110910
110903
110896
111070
111065
111057
111046
111033
111019
111003
110987
110973
110962
111160
111152
111137
111117
111092
111065
111036
111007
110979
110954
111306
111292
111267
111232
111191
111146
111100
111054
111010
110974
111506
111484
111445
111393
111332
111266
111199
111133
111071
111015
111614
111581
111525
111451
111366
111275
111184
111096
111014
110946
111893
111849
111774
111677
111567
111452
111339
111231
111133
111045
111937
111879
111784
111663
111530
111393
111260
111136
111021
110925
112120
112051
111940
111803
111653
111501
111355
111220
111098
110994
110968
110967
110967
110966
110965
110964
110962
110961
110960
110959
110967
110966
110964
110961
110958
110955
110951
110947
110942
110938
111077
111074
111069
111063
111055
111046
111037
111027
111018
111013
111126
111121
111112
111100
111085
111068
111049
111031
111013
110995
111241
111232
111216
111194
111168
111139
111109
111078
111048
111024
111396
111382
111358
111324
111285
111241
111195
111149
111106
111067
111457
111437
111401
111353
111296
111235
111171
111109
111050
111001
111697
111670
111622
111559
111485
111406
111326
111249
111177
111111
111692
111657
111596
111516
111426
111331
111235
111144
111058
110987
111851
111809
111739
111649
111547
111441
111336
111237
111146
111066
111005
111005
111005
111004
111004
111003
111002
111002
111001
111001
110985
110984
110984
110982
110980
110978
110976
110974
110971
110967
111090
111088
111085
111081
111076
111071
111065
111059
111054
111052
111105
111102
111097
111089
111080
111069
111058
111046
111034
111023
111198
111192
111183
111169
111152
111134
111114
111094
111074
111059
111317
111309
111294
111272
111247
111218
111188
111157
111128
111100
111343
111330
111307
111276
111239
111198
111155
111112
111071
111036
111555
111539
111509
111468
111419
111365
111311
111257
111206
111158
111509
111486
111447
111396
111335
111270
111203
111139
111077
111025
111655
111630
111585
111527
111459
111386
111313
111243
111177
111119
111038
111038
111037
111037
111037
111037
111036
111036
111035
111035
110998
110998
110997
110996
110995
110994
110993
110991
110990
110986
111105
111103
111102
111099
111096
111093
111090
111086
111084
111083
111090
111088
111085
111081
111075
111069
111062
111054
111047
111039
111169
111166
111160
111152
111141
111129
111117
111104
111092
111082
111261
111256
111246
111233
111217
111198
111179
111158
111139
111120
111259
111251
111236