/*--------------------------------*- C++ -*----------------------------------*\
| =========                 |                                                 |
| \\      /  F ield         | foam-extend: Open Source CFD                    |
|  \\    /   O peration     | Version:     4.0                                |
|   \\  /    A nd           | Web:         http://www.foam-extend.org         |
|    \\/     M anipulation  |                                                 |
\*---------------------------------------------------------------------------*/
FoamFile
{
    version     2.0;
    format      ascii;
    class       volScalarField;
    location    "850";
    object      T;
}
// * * * * * * * * * * * * * * * * * * * * * * * * * * * * * * * * * * * * * //

dimensions      [0 0 0 1 0 0 0];

internalField   nonuniform List<scalar> 
34480
(
278.944
278.832
278.751
278.696
278.663
278.652
278.664
278.745
279.013
278.984
278.436
278.314
278.218
278.15
278.114
278.113
278.132
278.17
278.38
277.935
278.371
278.233
278.124
278.044
277.999
277.978
277.949
277.885
278.002
277.211
278.435
278.277
278.143
278.034
277.953
277.88
277.785
277.615
277.607
276.458
278.473
278.288
278.125
277.983
277.86
277.73
277.566
277.283
277.117
275.602
278.561
278.352
278.165
277.997
277.839
277.659
277.428
277.029
276.674
274.766
278.604
278.371
278.159
277.966
277.778
277.554
277.259
276.746
276.176
273.871
278.687
278.431
278.207
278.006
277.811
277.572
277.242
276.642
275.86
273.128
278.755
278.477
278.235
278.016
277.797
277.531
277.158
276.472
275.474
272.381
279.568
279.277
279.066
278.917
278.804
278.673
278.449
277.9
276.859
273.332
279.488
279.394
279.357
279.372
279.444
279.588
279.845
280.297
280.96
281.829
278.88
278.791
278.755
278.77
278.847
279.01
279.295
279.786
280.571
281.587
278.714
278.63
278.595
278.61
278.69
278.854
279.133
279.613
280.45
281.552
278.682
278.596
278.556
278.561
278.627
278.768
279.022
279.474
280.339
281.48
278.628
278.537
278.488
278.479
278.525
278.636
278.857
279.27
280.133
281.281
278.635
278.54
278.486
278.468
278.498
278.582
278.768
279.131
279.962
281.082
278.606
278.505
278.445
278.417
278.433
278.493
278.644
278.951
279.727
280.799
278.633
278.53
278.472
278.45
278.469
278.524
278.655
278.914
279.614
280.591
278.658
278.547
278.483
278.453
278.46
278.5
278.603
278.813
279.427
280.319
279.419
279.32
279.291
279.326
279.42
279.561
279.765
280.047
280.61
281.223
279.973
279.873
279.837
279.857
279.934
280.077
280.306
280.649
281.144
281.769
279.356
279.254
279.216
279.238
279.326
279.496
279.781
280.231
280.934
281.864
279.17
279.066
279.027
279.047
279.137
279.317
279.626
280.133
280.995
282.201
279.104
278.996
278.951
278.962
279.043
279.214
279.523
280.056
281.051
282.501
279.018
278.904
278.85
278.85
278.916
279.067
279.361
279.896
280.984
282.635
278.996
278.878
278.819
278.809
278.862
278.992
279.264
279.782
280.927
282.726
278.943
278.819
278.754
278.735
278.774
278.883
279.129
279.616
280.783
282.692
278.949
278.823
278.76
278.744
278.785
278.888
279.115
279.568
280.72
282.685
278.956
278.826
278.757
278.736
278.768
278.858
279.061
279.47
280.581
282.621
279.685
279.566
279.524
279.551
279.647
279.81
280.08
280.526
281.58
283.534
280.323
280.236
280.206
280.225
280.292
280.411
280.587
280.827
281.13
281.472
279.732
279.635
279.601
279.624
279.71
279.867
280.109
280.459
280.942
281.496
279.551
279.446
279.407
279.431
279.525
279.703
279.99
280.425
281.075
281.867
279.471
279.356
279.312
279.331
279.423
279.606
279.918
280.414
281.226
282.269
279.366
279.243
279.191
279.201
279.285
279.461
279.779
280.313
281.263
282.543
279.323
279.195
279.137
279.14
279.215
279.381
279.695
280.245
281.306
282.792
279.252
279.117
279.054
279.048
279.114
279.265
279.567
280.117
281.257
282.921
279.241
279.105
279.042
279.038
279.105
279.252
279.545
280.083
281.264
283.061
279.233
279.094
279.027
279.019
279.078
279.216
279.497
280.012
281.194
283.136
279.929
279.801
279.752
279.778
279.881
280.069
280.392
280.935
282.086
284.056
280.565
280.496
280.473
280.488
280.538
280.622
280.741
280.888
281.057
281.228
280.017
279.936
279.906
279.927
279.998
280.124
280.308
280.552
280.853
281.157
279.861
279.764
279.728
279.752
279.837
279.992
280.23
280.564
281.011
281.483
279.782
279.671
279.629
279.65
279.742
279.916
280.195
280.607
281.207
281.881
279.673
279.55
279.5
279.516
279.606
279.786
280.09
280.562
281.307
282.194
279.621
279.49
279.434
279.444
279.531
279.711
280.029
280.542
281.418
282.51
279.539
279.4
279.338
279.342
279.423
279.597
279.919
280.456
281.441
282.726
279.516
279.374
279.312
279.317
279.4
279.574
279.897
280.445
281.506
282.957
279.496
279.352
279.287
279.288
279.366
279.533
279.853
280.402
281.5
283.129
280.16
280.026
279.973
279.998
280.106
280.307
280.655
281.228
282.324
284.045
280.728
280.677
280.66
280.67
280.704
280.759
280.834
280.921
281.014
281.107
280.228
280.164
280.141
280.156
280.211
280.304
280.433
280.595
280.777
280.946
280.102
280.02
279.99
280.01
280.081
280.207
280.39
280.63
280.92
281.2
280.037
279.937
279.899
279.919
280.003
280.154
280.385
280.704
281.121
281.543
279.933
279.818
279.773
279.791
279.879
280.046
280.314
280.701
281.249
281.834
279.881
279.754
279.702
279.717
279.807
279.985
280.28
280.722
281.395
282.152
279.795
279.659
279.601
279.611
279.7
279.88
280.191
280.676
281.463
282.392
279.766
279.626
279.566
279.578
279.669
279.853
280.177
280.689
281.566
282.655
279.738
279.595
279.533
279.541
279.63
279.812
280.14
280.669
281.605
282.868
280.371
280.236
280.183
280.207
280.316
280.521
280.869
281.423
282.377
283.751
280.837
280.8
280.789
280.795
280.816
280.85
280.894
280.944
280.996
281.051
280.38
280.333
280.316
280.327
280.365
280.429
280.516
280.619
280.728
280.824
280.287
280.221
280.197
280.212
280.267
280.363
280.496
280.661
280.846
281.012
280.238
280.153
280.121
280.139
280.209
280.333
280.514
280.748
281.029
281.292
280.148
280.046
280.006
280.024
280.103
280.249
280.471
280.772
281.159
281.54
280.101
279.986
279.939
279.955
280.041
280.204
280.46
280.822
281.317
281.829
280.018
279.891
279.838
279.852
279.94
280.112
280.394
280.806
281.407
282.059
279.988
279.855
279.8
279.815
279.907
280.088
280.39
280.84
281.53
282.319
279.954
279.817
279.76
279.773
279.865
280.048
280.36
280.838
281.593
282.531
280.558
280.428
280.376
280.399
280.505
280.705
281.033
281.536
282.321
283.36
280.911
280.883
280.875
280.879
280.892
280.912
280.937
280.966
280.995
281.031
280.49
280.457
280.444
280.451
280.477
280.519
280.575
280.639
280.705
280.763
280.424
280.375
280.356
280.367
280.408
280.476
280.569
280.68
280.797
280.898
280.392
280.325
280.298
280.313
280.368
280.464
280.599
280.766
280.952
281.117
280.32
280.234
280.201
280.216
280.284
280.404
280.579
280.804
281.071
281.318
280.283
280.182
280.142
280.158
280.234
280.375
280.587
280.87
281.224
281.567
280.206
280.092
280.046
280.061
280.143
280.298
280.54
280.875
281.318
281.768
280.18
280.058
280.008
280.025
280.113
280.281
280.547
280.924
281.447
282.005
280.143
280.017
279.965
279.98
280.07
280.242
280.523
280.932
281.518
282.193
280.718
280.598
280.549
280.571
280.671
280.856
281.151
281.585
282.205
282.96
280.961
280.939
280.934
280.936
280.943
280.955
280.969
280.985
281.002
281.029
280.57
280.547
280.538
280.542
280.558
280.585
280.62
280.66
280.7
280.737
280.527
280.491
280.477
280.484
280.513
280.56
280.623
280.695
280.769
280.832
280.509
280.457
280.436
280.447
280.489
280.56
280.657
280.773
280.895
281
280.454
280.385
280.358
280.371
280.425
280.519
280.652
280.815
280.997
281.157
280.428
280.345
280.311
280.325
280.39
280.506
280.673
280.887
281.136
281.364
280.361
280.262
280.223
280.237
280.31
280.442
280.641
280.903
281.223
281.529
280.341
280.234
280.191
280.208
280.287
280.434
280.658
280.961
281.348
281.736
280.303
280.19
280.145
280.161
280.243
280.398
280.639
280.975
281.415
281.889
280.851
280.744
280.699
280.72
280.809
280.974
281.229
281.587
282.06
282.592
280.994
280.976
280.972
280.973
280.978
280.984
280.992
281.001
281.011
281.033
280.628
280.612
280.606
280.608
280.618
280.635
280.656
280.681
280.707
280.732
280.603
280.578
280.567
280.572
280.591
280.623
280.664
280.711
280.758
280.799
280.595
280.557
280.541
280.549
280.579
280.63
280.698
280.776
280.856
280.923
280.557
280.504
280.483
280.493
280.534
280.605
280.702
280.817
280.939
281.044
280.542
280.475
280.448
280.46
280.512
280.603
280.731
280.888
281.06
281.211
280.483
280.402
280.37
280.382
280.443
280.551
280.708
280.906
281.133
281.34
280.473
280.383
280.347
280.362
280.431
280.554
280.735
280.97
281.249
281.515
280.434
280.338
280.299
280.314
280.386
280.519
280.718
280.982
281.306
281.632
280.956
280.864
280.825
280.843
280.921
281.062
281.273
281.558
281.909
282.274
281.015
281
280.997
280.997
281
281.003
281.008
281.013
281.02
281.038
280.671
280.66
280.655
280.656
280.662
280.672
280.686
280.701
280.719
280.737
280.66
280.643
280.635
280.638
280.651
280.671
280.697
280.727
280.758
280.785
280.658
280.631
280.619
280.624
280.646
280.681
280.726
280.778
280.831
280.875
280.634
280.594
280.579
280.586
280.617
280.668
280.737
280.816
280.897
280.966
280.629
280.578
280.557
280.566
280.606
280.676
280.77
280.882
280.999
281.099
280.578
280.514
280.488
280.498
280.547
280.632
280.752
280.897
281.055
281.194
280.579
280.506
280.477
280.49
280.546
280.645
280.787
280.963
281.16
281.34
280.538
280.459
280.427
280.44
280.501
280.609
280.767
280.969
281.201
281.421
281.034
280.958
280.925
280.941
281.006
281.122
281.291
281.51
281.764
282.007
281.026
281.013
281.011
281.011
281.012
281.014
281.017
281.02
281.024
281.041
280.703
280.695
280.691
280.691
280.695
280.701
280.709
280.719
280.732
280.747
280.704
280.692
280.687
280.688
280.696
280.709
280.725
280.744
280.765
280.785
280.703
280.684
280.675
280.679
280.693
280.717
280.747
280.781
280.816
280.846
280.691
280.662
280.651
280.656
280.678
280.714
280.762
280.815
280.869
280.915
280.694
280.656
280.64
280.647
280.677
280.728
280.795
280.873
280.952
281.018
280.649
280.6
280.58
280.588
280.626
280.69
280.778
280.882
280.99
281.083
280.662
280.605
280.582
280.593
280.638
280.714
280.821
280.949
281.086
281.206
280.618
280.555
280.529
280.54
280.589
280.675
280.796
280.945
281.108
281.255
281.087
281.027
281.001
281.013
281.066
281.158
281.288
281.451
281.63
281.79
281.03
281.018
281.017
281.016
281.017
281.018
281.02
281.022
281.025
281.039
280.726
280.72
280.717
280.717
280.719
280.722
280.727
280.734
280.744
280.757
280.738
280.73
280.726
280.727
280.732
280.74
280.75
280.762
280.776
280.791
280.734
280.721
280.715
280.717
280.727
280.742
280.762
280.784
280.807
280.829
280.732
280.713
280.705
280.709
280.724
280.748
280.78
280.815
280.85
280.881
280.741
280.714
280.702
280.708
280.729
280.765
280.812
280.865
280.917
280.961
280.701
280.664
280.65
280.656
280.684
280.731
280.794
280.866
280.939
281.001
280.726
280.684
280.667
280.675
280.709
280.766
280.844
280.935
281.028
281.107
280.677
280.628
280.608
280.617
280.655
280.72
280.81
280.917
281.029
281.125
281.119
281.073
281.053
281.063
281.103
281.174
281.271
281.388
281.512
281.614
281.028
281.017
281.015
281.015
281.016
281.016
281.017
281.018
281.021
281.034
280.741
280.736
280.734
280.734
280.735
280.737
280.74
280.745
280.753
280.765
280.765
280.76
280.757
280.758
280.761
280.765
280.771
280.779
280.789
280.801
280.755
280.746
280.742
280.743
280.749
280.759
280.772
280.786
280.801
280.818
280.763
280.749
280.744
280.747
280.757
280.773
280.794
280.816
280.839
280.86
280.775
280.756
280.748
280.751
280.766
280.791
280.823
280.858
280.892
280.922
280.737
280.711
280.7
280.705
280.725
280.758
280.802
280.851
280.899
280.94
280.776
280.745
280.733
280.739
280.764
280.805
280.86
280.923
280.984
281.036
280.717
280.68
280.666
280.672
280.701
280.748
280.813
280.888
280.963
281.026
281.132
281.099
281.084
281.091
281.122
281.174
281.244
281.326
281.409
281.473
281.02
281.01
281.009
281.009
281.009
281.01
281.01
281.011
281.013
281.024
280.75
280.746
280.744
280.743
280.744
280.745
280.747
280.751
280.758
280.77
280.788
280.784
280.783
280.783
280.785
280.788
280.791
280.796
280.803
280.814
280.768
280.762
280.76
280.76
280.764
280.77
280.778
280.787
280.797
280.81
280.784
280.775
280.772
280.774
280.78
280.79
280.804
280.818
280.832
280.847
280.797
280.785
280.779
280.782
280.792
280.808
280.829
280.852
280.874
280.894
280.762
280.743
280.736
280.739
280.753
280.776
280.805
280.838
280.869
280.896
280.814
280.793
280.784
280.789
280.806
280.835
280.873
280.915
280.955
280.988
280.742
280.715
280.705
280.71
280.73
280.764
280.808
280.859
280.909
280.949
281.132
281.109
281.098
281.103
281.125
281.162
281.211
281.267
281.322
281.36
281.01
281.001
281.001
281.001
281.001
281.001
281.001
281.002
281.003
281.013
280.752
280.748
280.746
280.746
280.746
280.747
280.749
280.752
280.758
280.77
280.809
280.806
280.805
280.806
280.807
280.808
280.81
280.813
280.818
280.827
280.775
280.771
280.77
280.77
280.772
280.776
280.781
280.786
280.793
280.804
280.798
280.793
280.791
280.792
280.796
280.802
280.81
280.819
280.828
280.839
280.811
280.803
280.799
280.801
280.807
280.818
280.831
280.846
280.86
280.873
280.777
280.765
280.76
280.762
280.771
280.786
280.805
280.826
280.846
280.863
280.844
280.83
280.824
280.827
280.839
280.859
280.884
280.911
280.937
280.957
280.754
280.735
280.728
280.731
280.745
280.768
280.798
280.831
280.863
280.889
281.123
281.108
281.1
281.103
281.119
281.144
281.177
281.214
281.249
281.272
281.004
280.997
280.997
280.997
280.997
280.997
280.997
280.997
280.998
281.006
280.746
280.743
280.741
280.741
280.741
280.742
280.743
280.745
280.75
280.762
280.827
280.825
280.825
280.825
280.826
280.827
280.828
280.829
280.832
280.84
280.778
280.775
280.774
280.774
280.776
280.778
280.781
280.784
280.788
280.797
280.806
280.803
280.801
280.802
280.804
280.808
280.813
280.819
280.824
280.831
280.817
280.812
280.809
280.81
280.814
280.821
280.83
280.839
280.847
280.856
280.785
280.777
280.774
280.776
280.782
280.791
280.804
280.816
280.828
280.839
280.866
280.857
280.853
280.855
280.863
280.876
280.892
280.91
280.926
280.938
280.753
280.74
280.735
280.737
280.747
280.762
280.781
280.803
280.823
280.839
281.113
281.103
281.098
281.1
281.11
281.127
281.149
281.173
281.195
281.207
281.017
281.011
281.011
281.011
281.011
281.011
281.011
281.011
281.011
281.017
280.728
280.726
280.725
280.724
280.725
280.725
280.726
280.727
280.732
280.743
280.84
280.84
280.839
280.839
280.84
280.84
280.841
280.842
280.844
280.85
280.777
280.776
280.775
280.776
280.776
280.778
280.779
280.781
280.783
280.789
280.807
280.805
280.804
280.805
280.806
280.809
280.812
280.815
280.818
280.823
280.815
280.812
280.81
280.811
280.814
280.818
280.823
280.829
280.834
280.84
280.787
280.783
280.781
280.782
280.786
280.792
280.799
280.807
280.814
280.82
280.875
280.869
280.866
280.868
280.873
280.881
280.892
280.903
280.914
280.921
280.736
280.728
280.725
280.726
280.732
280.742
280.754
280.767
280.779
280.79
281.116
281.11
281.106
281.108
281.115
281.126
281.14
281.155
281.17
281.175
281.067
281.063
281.063
281.063
281.063
281.063
281.063
281.063
281.063
281.067
280.692
280.69
280.69
280.69
280.691
280.691
280.691
280.692
280.694
280.703
280.843
280.842
280.841
280.841
280.841
280.842
280.842
280.844
280.846
280.851
280.775
280.775
280.775
280.775
280.776
280.777
280.777
280.778
280.779
280.782
280.804
280.803
280.802
280.802
280.803
280.805
280.807
280.809
280.811
280.814
280.808
280.806
280.805
280.805
280.807
280.81
280.813
280.817
280.82
280.824
280.784
280.782
280.781
280.782
280.785
280.788
280.793
280.798
280.801
280.804
280.863
280.858
280.856
280.856
280.86
280.865
280.872
280.88
280.888
280.894
280.695
280.691
280.689
280.69
280.695
280.701
280.709
280.717
280.723
280.729
281.15
281.146
281.143
281.144
281.148
281.156
281.165
281.175
281.185
281.188
281.149
281.146
281.145
281.145
281.145
281.145
281.145
281.146
281.147
281.151
280.634
280.636
280.637
280.638
280.639
280.639
280.639
280.638
280.636
280.639
280.832
280.829
280.828
280.827
280.827
280.828
280.829
280.831
280.834
280.838
280.775
280.775
280.776
280.776
280.777
280.777
280.778
280.778
280.778
280.779
280.8
280.799
280.798
280.798
280.799
280.8
280.802
280.804
280.805
280.807
280.801
280.799
280.798
280.799
280.8
280.802
280.805
280.807
280.81
280.812
280.781
280.78
280.779
280.78
280.782
280.785
280.788
280.791
280.794
280.795
280.828
280.824
280.822
280.823
280.825
280.829
280.835
280.841
280.847
280.853
280.633
280.631
280.63
280.632
280.635
280.639
280.645
280.65
280.653
280.653
281.206
281.202
281.2
281.201
281.204
281.21
281.217
281.224
281.232
281.234
289.551
291.301
291.564
289.983
290.707
292.828
293.238
291.588
292.348
294.963
295.499
293.541
293.616
296.67
297.339
295.175
294.552
298.014
298.825
296.524
295.287
299.126
300.1
297.981
295.827
300.026
301.193
299.403
296.292
300.815
302.19
300.777
296.501
301.324
302.915
301.923
297.057
302.069
303.925
303.507
286.278
286.826
286.808
286.283
287.579
288.223
288.164
287.514
289.168
289.972
289.864
289.013
290.594
291.543
291.378
290.337
291.761
292.85
292.623
291.402
292.773
294.002
293.763
292.392
293.572
294.931
294.708
293.207
294.26
295.725
295.528
293.92
294.69
296.222
296.057
294.386
295.463
296.972
296.92
295.303
282.416
282.555
282.586
282.513
283.164
283.387
283.428
283.289
284.32
284.661
284.707
284.458
285.574
286.033
286.076
285.7
286.728
287.302
287.333
286.818
287.856
288.543
288.562
287.915
288.84
289.636
289.646
288.877
289.77
290.659
290.663
289.792
290.523
291.454
291.459
290.539
291.751
292.615
292.66
291.819
281.667
281.739
281.761
281.734
281.956
282.048
282.079
282.052
282.659
282.812
282.855
282.8
283.523
283.747
283.801
283.701
284.357
284.658
284.717
284.557
285.242
285.623
285.685
285.454
286.055
286.517
286.579
286.269
286.886
287.42
287.478
287.089
287.637
288.206
288.262
287.819
288.965
289.463
289.534
289.134
281.252
281.294
281.306
281.29
281.324
281.361
281.376
281.37
281.773
281.836
281.862
281.855
282.373
282.475
282.515
282.499
282.962
283.112
283.165
283.13
283.625
283.831
283.895
283.83
284.246
284.511
284.583
284.479
284.916
285.238
285.313
285.164
285.552
285.904
285.979
285.79
286.79
287.073
287.155
287.002
281.093
281.128
281.137
281.122
281.03
281.049
281.057
281.054
281.337
281.367
281.382
281.38
281.768
281.817
281.841
281.841
282.188
282.265
282.3
282.298
282.683
282.793
282.841
282.832
283.145
283.294
283.353
283.331
283.665
283.854
283.92
283.878
284.168
284.38
284.448
284.384
285.277
285.423
285.496
285.47
281.021
281.052
281.06
281.045
280.872
280.883
280.887
280.884
281.084
281.1
281.108
281.107
281.405
281.43
281.444
281.445
281.716
281.755
281.777
281.78
282.096
282.155
282.186
282.19
282.444
282.527
282.568
282.57
282.848
282.956
283.005
283.001
283.229
283.355
283.407
283.392
284.215
284.275
284.331
284.36
280.995
281.024
281.032
281.017
280.794
280.801
280.804
280.802
280.94
280.949
280.953
280.953
281.179
281.193
281.201
281.202
281.412
281.433
281.446
281.449
281.71
281.742
281.761
281.767
281.975
282.022
282.048
282.055
282.292
282.354
282.387
282.393
282.574
282.648
282.684
282.686
283.457
283.464
283.502
283.55
280.988
281.017
281.024
281.01
280.759
280.764
280.766
280.764
280.858
280.864
280.867
280.866
281.036
281.044
281.049
281.05
281.21
281.222
281.229
281.232
281.443
281.462
281.473
281.478
281.645
281.672
281.688
281.695
281.895
281.931
281.952
281.959
282.102
282.146
282.17
282.176
282.898
282.874
282.898
282.95
280.99
281.018
281.025
281.011
280.747
280.751
280.753
280.752
280.816
280.82
280.821
280.821
280.946
280.951
280.954
280.955
281.075
281.082
281.087
281.089
281.258
281.269
281.276
281.279
281.408
281.424
281.434
281.439
281.606
281.627
281.641
281.646
281.756
281.781
281.797
281.802
282.477
282.435
282.449
282.5
280.993
281.021
281.028
281.014
280.749
280.752
280.753
280.753
280.797
280.8
280.801
280.801
280.89
280.894
280.896
280.897
280.986
280.991
280.994
280.995
281.128
281.134
281.139
281.142
281.236
281.245
281.252
281.255
281.394
281.407
281.415
281.419
281.497
281.512
281.522
281.526
282.153
282.102
282.109
282.157
280.995
281.022
281.029
281.015
280.756
280.758
280.76
280.76
280.793
280.795
280.796
280.797
280.857
280.859
280.861
280.862
280.928
280.931
280.933
280.934
281.037
281.041
281.044
281.046
281.11
281.116
281.12
281.123
281.239
281.247
281.252
281.255
281.303
281.312
281.318
281.321
281.9
281.845
281.849
281.894
280.993
281.02
281.027
281.014
280.765
280.767
280.768
280.768
280.798
280.799
280.8
280.801
280.837
280.839
280.841
280.841
280.891
280.893
280.895
280.896
280.974
280.977
280.98
280.981
281.019
281.023
281.026
281.027
281.128
281.132
281.136
281.137
281.157
281.162
281.166
281.168
281.701
281.646
281.648
281.689
280.988
281.014
281.021
281.008
280.773
280.775
280.776
280.776
280.807
280.809
280.81
280.81
280.826
280.828
280.829
280.829
280.868
280.87
280.871
280.872
280.931
280.934
280.935
280.936
280.953
280.956
280.958
280.958
281.049
281.052
281.054
281.055
281.047
281.051
281.053
281.054
281.544
281.491
281.491
281.529
280.979
281.006
281.012
280.999
280.778
280.78
280.782
280.782
280.82
280.822
280.823
280.823
280.818
280.82
280.821
280.821
280.855
280.856
280.857
280.857
280.902
280.904
280.905
280.905
280.905
280.907
280.909
280.909
280.996
280.998
280.999
281
280.964
280.966
280.968
280.968
281.418
281.37
281.369
281.403
280.969
280.996
281.002
280.989
280.779
280.782
280.783
280.783
280.834
280.836
280.837
280.837
280.812
280.814
280.815
280.815
280.846
280.848
280.848
280.847
280.88
280.882
280.883
280.882
280.87
280.872
280.873
280.872
280.962
280.964
280.964
280.964
280.9
280.902
280.902
280.902
281.319
281.275
281.275
281.304
280.965
280.991
280.997
280.983
280.774
280.777
280.778
280.777
280.849
280.851
280.852
280.851
280.806
280.808
280.809
280.808
280.838
280.84
280.841
280.84
280.862
280.864
280.864
280.864
280.844
280.845
280.845
280.845
280.941
280.942
280.943
280.943
280.847
280.848
280.849
280.848
281.244
281.208
281.207
281.232
280.98
281.005
281.01
280.997
280.757
280.76
280.762
280.76
280.86
280.863
280.863
280.862
280.798
280.8
280.8
280.799
280.83
280.832
280.832
280.831
280.845
280.847
280.847
280.846
280.822
280.823
280.823
280.822
280.924
280.925
280.925
280.925
280.796
280.797
280.797
280.796
281.202
281.174
281.174
281.193
281.037
281.059
281.062
281.05
280.718
280.722
280.723
280.721
280.862
280.865
280.865
280.864
280.789
280.791
280.791
280.789
280.82
280.822
280.822
280.82
280.828
280.829
280.83
280.829
280.804
280.804
280.804
280.804
280.898
280.9
280.9
280.9
280.732
280.732
280.732
280.732
281.207
281.189
281.19
281.202
281.133
281.147
281.148
281.141
280.65
280.653
280.653
280.65
280.85
280.853
280.854
280.852
280.783
280.784
280.784
280.782
280.811
280.812
280.812
280.811
280.815
280.816
280.816
280.815
280.793
280.792
280.792
280.792
280.862
280.865
280.865
280.865
280.647
280.646
280.646
280.646
281.251
281.247
281.247
281.25
282.305
281.006
280.466
280.123
279.832
279.593
279.403
279.253
279.131
279.025
282.477
281.243
280.421
279.905
279.496
279.194
278.97
278.801
278.672
278.563
283.066
281.772
280.657
280.029
279.54
279.202
278.955
278.769
278.627
278.509
283.684
282.333
280.951
280.258
279.703
279.34
279.073
278.871
278.716
278.588
284.194
282.825
281.197
280.451
279.834
279.45
279.16
278.944
278.778
278.64
284.783
283.354
281.503
280.72
280.04
279.634
279.321
279.087
278.903
278.747
285.299
283.789
281.739
280.93
280.19
279.768
279.43
279.179
278.979
278.812
285.892
284.305
282.07
281.242
280.442
279.998
279.629
279.351
279.122
278.921
286.36
284.717
282.305
281.501
280.667
280.217
279.81
279.501
279.241
279.013
288.085
286.437
283.876
283.018
282.059
281.485
280.954
280.542
280.198
279.893
284.103
282.797
281.815
281.108
280.619
280.276
280.027
279.841
279.696
279.574
284.576
282.799
281.479
280.63
280.084
279.712
279.446
279.253
279.11
279
285.18
283.004
281.434
280.518
279.935
279.546
279.273
279.076
278.934
278.828
285.677
283.207
281.447
280.511
279.9
279.505
279.229
279.033
278.893
278.791
285.963
283.289
281.404
280.458
279.825
279.43
279.156
278.964
278.829
278.732
286.184
283.388
281.411
280.476
279.824
279.434
279.16
278.972
278.837
278.739
286.252
283.398
281.35
280.442
279.775
279.396
279.124
278.94
278.808
278.711
286.329
283.48
281.376
280.508
279.828
279.46
279.184
278.997
278.856
278.748
286.307
283.489
281.338
280.549
279.883
279.543
279.26
279.063
278.908
278.786
287.217
284.548
282.401
281.663
280.949
280.552
280.199
279.946
279.746
279.594
282.262
281.88
281.512
281.185
280.905
280.67
280.475
280.313
280.177
280.058
282.752
282.071
281.459
280.954
280.545
280.222
279.967
279.769
279.613
279.492
283.528
282.521
281.666
281.008
280.501
280.116
279.824
279.602
279.434
279.308
284.299
282.977
281.892
281.108
280.522
280.095
279.78
279.546
279.372
279.242
284.882
283.285
282.002
281.121
280.477
280.024
279.696
279.457
279.281
279.153
285.405
283.575
282.122
281.173
280.485
280.016
279.681
279.44
279.263
279.133
285.765
283.746
282.15
281.157
280.437
279.964
279.627
279.386
279.209
279.08
286.1
283.941
282.226
281.213
280.473
280.001
279.661
279.418
279.234
279.095
286.315
284.041
282.229
281.238
280.505
280.051
279.706
279.455
279.262
279.113
287.3
285.022
283.174
282.205
281.443
280.952
280.561
280.272
280.048
279.883
281.675
281.523
281.346
281.167
280.998
280.845
280.709
280.59
280.484
280.386
281.915
281.622
281.294
280.981
280.703
280.466
280.268
280.103
279.968
279.858
282.547
282.065
281.562
281.114
280.735
280.425
280.174
279.973
279.814
279.69
283.277
282.57
281.873
281.291
280.82
280.449
280.157
279.929
279.753
279.618
283.91
282.964
282.078
281.376
280.826
280.407
280.087
279.843
279.656
279.516
284.533
283.352
282.288
281.484
280.869
280.415
280.075
279.819
279.624
279.479
285.03
283.626
282.398
281.513
280.848
280.371
280.017
279.755
279.556
279.409
285.51
283.907
282.536
281.593
280.891
280.4
280.037
279.768
279.562
279.406
285.885
284.095
282.601
281.636
280.923
280.433
280.062
279.786
279.572
279.408
286.924
285.034
283.484
282.511
281.769
281.252
280.85
280.546
280.311
280.14
281.283
281.231
281.159
281.076
280.989
280.903
280.82
280.744
280.671
280.599
281.327
281.207
281.052
280.886
280.722
280.57
280.433
280.312
280.209
280.121
281.785
281.577
281.317
281.051
280.802
280.581
280.389
280.228
280.094
279.986
282.375
282.041
281.649
281.272
280.935
280.647
280.407
280.21
280.05
279.924
282.922
282.436
281.899
281.41
280.991
280.645
280.365
280.14
279.962
279.824
283.505
282.851
282.164
281.569
281.075
280.681
280.369
280.124
279.931
279.782
284.004
283.173
282.337
281.648
281.09
280.659
280.323
280.062
279.859
279.705
284.509
283.504
282.529
281.761
281.154
280.694
280.34
280.068
279.855
279.691
284.93
283.745
282.647
281.83
281.194
280.721
280.354
280.071
279.851
279.68
285.959
284.656
283.489
282.641
281.974
281.476
281.085
280.784
280.548
280.377
281.124
281.1
281.067
281.025
280.98
280.932
280.884
280.837
280.789
280.738
281.029
280.972
280.895
280.805
280.71
280.615
280.526
280.444
280.371
280.306
281.35
281.25
281.112
280.957
280.8
280.652
280.516
280.396
280.293
280.206
281.797
281.634
281.414
281.179
280.952
280.744
280.561
280.403
280.271
280.162
282.228
281.979
281.661
281.338
281.038
280.773
280.546
280.356
280.199
280.074
282.719
282.366
281.938
281.524
281.153
280.836
280.571
280.354
280.176
280.036
283.156
282.683
282.139
281.637
281.2
280.838
280.541
280.302
280.11
279.96
283.62
283.018
282.359
281.777
281.284
280.886
280.565
280.308
280.102
279.941
284.016
283.273
282.507
281.866
281.334
280.912
280.573
280.304
280.09
279.922
284.99
284.147
283.313
282.63
282.066
281.619
281.26
280.976
280.75
280.585
281.051
281.04
281.023
281.002
280.978
280.952
280.925
280.897
280.867
280.83
280.869
280.84
280.8
280.75
280.696
280.639
280.583
280.53
280.481
280.436
281.091
281.039
280.965
280.875
280.78
280.684
280.592
280.508
280.432
280.367
281.426
281.342
281.218
281.075
280.927
280.784
280.652
280.533
280.429
280.341
281.754
281.624
281.437
281.23
281.024
280.831
280.658
280.507
280.377
280.271
282.151
281.959
281.698
281.421
281.155
280.913
280.701
280.519
280.366
280.242
282.507
282.242
281.898
281.547
281.221
280.934
280.688
280.481
280.309
280.172
282.902
282.552
282.12
281.7
281.321
280.994
280.719
280.491
280.303
280.154
283.237
282.789
282.276
281.799
281.378
281.023
280.728
280.485
280.287
280.13
284.133
283.615
283.043
282.524
282.071
281.692
281.378
281.122
280.915
280.762
281.025
281.019
281.01
280.999
280.986
280.972
280.957
280.94
280.92
280.892
280.791
280.774
280.752
280.724
280.692
280.659
280.624
280.591
280.559
280.529
280.942
280.914
280.872
280.82
280.761
280.701
280.641
280.583
280.531
280.484
281.192
281.146
281.075
280.987
280.893
280.797
280.704
280.618
280.541
280.474
281.438
281.366
281.255
281.124
280.986
280.851
280.724
280.608
280.506
280.421
281.752
281.645
281.485
281.303
281.118
280.94
280.778
280.633
280.508
280.404
282.032
281.881
281.664
281.427
281.192
280.973
280.778
280.607
280.461
280.342
282.355
282.15
281.872
281.58
281.298
281.042
280.818
280.625
280.462
280.33
282.621
282.354
282.018
281.677
281.358
281.073
280.827
280.619
280.444
280.303
283.434
283.123
282.743
282.365
282.015
281.709
281.446
281.225
281.042
280.906
281.02
281.016
281.011
281.005
280.998
280.99
280.982
280.972
280.958
280.936
280.757
280.747
280.733
280.717
280.698
280.678
280.657
280.636
280.616
280.596
280.86
280.844
280.819
280.788
280.752
280.714
280.675
280.637
280.601
280.569
281.044
281.018
280.975
280.922
280.861
280.798
280.735
280.675
280.62
280.57
281.227
281.186
281.118
281.035
280.944
280.851
280.76
280.676
280.599
280.533
281.472
281.41
281.312
281.193
281.067
280.94
280.82
280.71
280.611
280.527
281.686
281.597
281.461
281.303
281.138
280.977
280.827
280.692
280.574
280.475
281.944
281.823
281.646
281.446
281.243
281.05
280.874
280.718
280.583
280.47
282.147
281.989
281.772
281.535
281.299
281.08
280.883
280.712
280.564
280.443
282.881
282.698
282.449
282.183
281.923
281.684
281.472
281.289
281.134