/*--------------------------------*- C++ -*----------------------------------*\
| =========                 |                                                 |
| \\      /  F ield         | foam-extend: Open Source CFD                    |
|  \\    /   O peration     | Version:     4.0                                |
|   \\  /    A nd           | Web:         http://www.foam-extend.org         |
|    \\/     M anipulation  |                                                 |
\*---------------------------------------------------------------------------*/
FoamFile
{
    version     2.0;
    format      ascii;
    class       volVectorField;
    location    "850";
    object      Urel;
}
// * * * * * * * * * * * * * * * * * * * * * * * * * * * * * * * * * * * * * //

dimensions      [0 1 -1 0 0 0 0];

internalField   nonuniform List<vector> 
34480
(
(208.341 -9.84011 -19.0777)
(208.67 -9.33211 -21.5276)
(208.831 -8.59889 -23.9419)
(208.841 -7.66766 -26.3655)
(208.697 -6.57589 -28.935)
(208.365 -5.3271 -31.8272)
(207.763 -3.90147 -35.441)
(206.614 -2.18335 -40.1192)
(203.95 0.05512 -48.0199)
(196.977 4.25975 -75.1155)
(209.074 -12.9133 -26.7535)
(209.363 -11.7732 -29.5209)
(209.504 -10.4761 -32.1677)
(209.491 -9.03934 -34.7605)
(209.272 -7.49855 -37.4152)
(208.792 -5.87565 -40.3417)
(208.013 -4.19111 -43.9975)
(206.751 -2.39325 -49.1219)
(203.635 -0.321109 -57.9226)
(195.475 3.63268 -88.4296)
(209.548 -17.1862 -33.6837)
(209.82 -15.6159 -36.741)
(209.943 -13.8677 -39.6645)
(209.903 -11.9421 -42.4682)
(209.646 -9.89426 -45.28)
(209.164 -7.75975 -48.3617)
(208.46 -5.56478 -52.2381)
(207.365 -3.23998 -57.9335)
(204.111 -0.619555 -67.6226)
(194.955 4.07433 -101.105)
(209.445 -20.5473 -41.0948)
(209.72 -18.4457 -44.4475)
(209.865 -16.1706 -47.6074)
(209.867 -13.7095 -50.6107)
(209.678 -11.1171 -53.5923)
(209.315 -8.43059 -56.8441)
(208.751 -5.67975 -60.8921)
(207.829 -2.78746 -66.9824)
(204.565 0.416047 -77.2987)
(194.651 5.79139 -112.718)
(209.496 -24.9931 -47.9564)
(209.804 -22.4841 -51.5905)
(209.992 -19.7652 -55.037)
(210.06 -16.8221 -58.2893)
(209.966 -13.7284 -61.507)
(209.741 -10.5213 -64.9938)
(209.33 -7.22455 -69.2726)
(208.599 -3.74964 -75.7803)
(205.45 0.0802548 -86.7664)
(194.932 6.15779 -123.732)
(209.292 -28.2285 -55.551)
(209.614 -25.2249 -59.4266)
(209.825 -21.9962 -63.0436)
(209.928 -18.5245 -66.4403)
(209.903 -14.8746 -69.7679)
(209.796 -11.0886 -73.3549)
(209.541 -7.19217 -77.7088)
(209.034 -3.10175 -84.4411)
(206.149 1.37822 -95.915)
(195.268 8.09549 -134.051)
(209.296 -32.9938 -62.4126)
(209.659 -29.6046 -66.5326)
(209.898 -25.9547 -70.4011)
(210.039 -22.0342 -74.0035)
(210.073 -17.9168 -77.5207)
(210.064 -13.6382 -81.2821)
(209.956 -9.20155 -85.8006)
(209.678 -4.50499 -92.813)
(207.142 0.720543 -104.867)
(196 8.27579 -144.017)
(209.073 -36.166 -70.2545)
(209.441 -32.3072 -74.5866)
(209.659 -28.141 -78.587)
(209.756 -23.6819 -82.2993)
(209.747 -18.9828 -85.868)
(209.721 -14.1 -89.6274)
(209.664 -9.02871 -94.0757)
(209.555 -3.66579 -101.041)
(207.447 2.40988 -113.287)
(196.366 10.8737 -152.958)
(208.973 -41.4166 -77.0732)
(209.39 -37.1936 -81.5968)
(209.639 -32.6543 -85.7867)
(209.773 -27.8359 -89.6533)
(209.811 -22.7942 -93.3818)
(209.83 -17.5595 -97.2819)
(209.849 -12.0754 -101.89)
(209.894 -6.18941 -109.007)
(208.139 0.815654 -121.629)
(196.968 10.771 -161.249)
(208.004 -44.6082 -85.034)
(208.333 -40.0082 -89.8387)
(208.325 -34.9706 -94.2332)
(208.008 -29.6151 -98.285)
(207.437 -23.9565 -102.121)
(206.713 -18.0372 -106.026)
(205.928 -11.7929 -110.475)
(205.262 -5.0332 -117.085)
(203.494 2.97647 -128.861)
(193.583 14.3207 -166.56)
(205.165 1.86951 3.01397)
(205.651 1.07221 1.5668)
(205.842 0.395165 0.0224727)
(205.763 -0.143844 -1.57085)
(205.39 -0.567686 -3.27451)
(204.637 -0.87778 -5.10307)
(203.302 -1.07773 -7.11032)
(200.954 -1.17904 -9.27286)
(197.504 -1.25957 -11.209)
(192.921 -1.15605 -14.3616)
(206.272 2.76548 2.84696)
(206.731 2.07048 1.22431)
(206.917 1.43838 -0.418963)
(206.84 0.874883 -2.10844)
(206.443 0.360437 -3.90935)
(205.607 -0.112653 -5.88228)
(204.139 -0.560972 -8.11964)
(201.581 -1.02208 -10.8746)
(197.435 -1.61323 -13.9331)
(191.754 -1.84796 -20.5247)
(207.029 2.49284 3.36072)
(207.472 1.702 1.62163)
(207.654 0.993325 -0.159851)
(207.581 0.384793 -1.97834)
(207.176 -0.160434 -3.90612)
(206.34 -0.656808 -6.03126)
(204.898 -1.1344 -8.54218)
(202.365 -1.61097 -11.9729)
(197.866 -2.1948 -16.237)
(191.293 -2.1114 -26.6629)
(207.173 3.12342 3.35838)
(207.623 2.36575 1.53377)
(207.833 1.67366 -0.30264)
(207.809 1.07806 -2.17877)
(207.474 0.543775 -4.17762)
(206.747 0.057617 -6.43108)
(205.423 -0.413438 -9.16322)
(202.992 -0.864523 -13.1344)
(198.278 -1.39005 -18.3709)
(190.926 -0.966447 -32.4137)
(207.431 2.64259 3.89426)
(207.911 1.79933 2.01122)
(208.164 1.0468 0.0787385)
(208.208 0.420898 -1.8913)
(207.969 -0.129811 -4.01274)
(207.382 -0.61815 -6.4457)
(206.213 -1.07882 -9.43012)
(203.952 -1.48375 -13.9316)
(199.172 -1.91396 -20.1181)
(191.142 -1.08949 -37.6698)
(207.389 3.38589 3.69344)
(207.885 2.54594 1.79457)
(208.166 1.79833 -0.110262)
(208.254 1.18353 -2.06124)
(208.091 0.658467 -4.16644)
(207.633 0.208089 -6.63255)
(206.634 -0.198504 -9.69892)
(204.602 -0.526736 -14.5273)
(199.922 -0.821416 -21.4319)
(191.393 0.371661 -42.2083)
(207.527 2.57677 4.21777)
(208.059 1.63498 2.307)
(208.371 0.812117 0.348744)
(208.505 0.143573 -1.64132)
(208.409 -0.418341 -3.80799)
(208.069 -0.886033 -6.37424)
(207.238 -1.27624 -9.59385)
(205.462 -1.53703 -14.7739)
(201.005 -1.63148 -22.4445)
(192.077 0.0303528 -46.2577)
(207.396 3.38344 3.75981)
(207.938 2.42579 1.87482)
(208.238 1.61907 -0.000466287)
(208.344 0.975164 -1.91871)
(208.232 0.469059 -3.99402)
(207.914 0.0688662 -6.4799)
(207.182 -0.227293 -9.62558)
(205.637 -0.37927 -14.853)
(201.526 -0.169129 -22.9231)
(192.494 1.8824 -49.241)
(207.366 2.07874 4.31877)
(207.944 1.00436 2.47851)
(208.273 0.0951627 0.613509)
(208.415 -0.657916 -1.27525)
(208.358 -1.28521 -3.35776)
(208.116 -1.80007 -5.88754)
(207.511 -2.15418 -9.17459)
(206.206 -2.2844 -14.6328)
(202.457 -1.70285 -23.353)
(193.197 1.05343 -51.5262)
(206.437 2.89666 3.71116)
(206.961 1.72422 1.8672)
(207.117 0.826064 0.0519817)
(206.942 0.0969858 -1.80473)
(206.458 -0.445281 -3.80885)
(205.708 -0.828 -6.21201)
(204.586 -0.988896 -9.31018)
(202.893 -0.812831 -14.4057)
(199.304 0.238253 -22.9073)
(190.889 4.06547 -51.3861)
(202.727 1.39084 2.34922)
(203.237 0.800038 1.23782)
(203.422 0.273336 0.0145172)
(203.321 -0.157461 -1.23173)
(202.925 -0.504306 -2.51973)
(202.185 -0.765382 -3.79682)
(201.009 -0.949994 -5.01517)
(199.243 -1.08379 -6.02616)
(196.695 -1.25232 -6.47823)
(193.456 -1.43769 -6.50632)
(203.943 2.32484 2.35708)
(204.462 1.78951 0.999715)
(204.655 1.27332 -0.387884)
(204.544 0.791972 -1.80062)
(204.092 0.336897 -3.26304)
(203.22 -0.0982929 -4.77975)
(201.766 -0.527857 -6.31445)
(199.455 -0.985842 -7.80603)
(195.838 -1.58529 -8.75857)
(190.969 -2.16251 -9.79007)
(204.811 2.1376 2.99459)
(205.34 1.46651 1.45975)
(205.542 0.843482 -0.129257)
(205.44 0.291688 -1.74789)
(204.978 -0.218975 -3.44048)
(204.057 -0.699817 -5.22701)
(202.474 -1.17655 -7.11783)
(199.862 -1.68082 -9.20825)
(195.386 -2.35904 -10.9412)
(188.949 -2.93967 -13.5678)
(205.121 2.84884 3.04064)
(205.673 2.18651 1.38278)
(205.906 1.56082 -0.297574)
(205.845 1.00563 -2.0158)
(205.427 0.490928 -3.83319)
(204.55 0.00567162 -5.81241)
(202.958 -0.482648 -7.99929)
(200.187 -0.994259 -10.6477)
(194.986 -1.69338 -13.1335)
(187.082 -2.18493 -17.5565)
(205.541 2.40384 3.61549)
(206.126 1.6421 1.86848)
(206.399 0.946251 0.0632808)
(206.398 0.353733 -1.7801)
(206.055 -0.181971 -3.75962)
(205.27 -0.670812 -5.97107)
(203.743 -1.14875 -8.48908)
(200.935 -1.62276 -11.7333)
(195.198 -2.28494 -15.0602)
(185.995 -2.58194 -21.5878)
(205.639 3.19397 3.43986)
(206.245 2.4227 1.65743)
(206.548 1.72295 -0.140217)
(206.59 1.13557 -1.98779)
(206.311 0.61976 -3.98227)
(205.627 0.162525 -6.27109)
(204.204 -0.271864 -8.94693)
(201.462 -0.686346 -12.6141)
(195.388 -1.25892 -16.6459)
(185.113 -1.32463 -25.3732)
(205.898 2.39975 3.98849)
(206.537 1.52153 2.17685)
(206.869 0.745925 0.309)
(206.958 0.108455 -1.59651)
(206.742 -0.436609 -3.67658)
(206.16 -0.898381 -6.10227)
(204.862 -1.29993 -8.99962)
(202.25 -1.63263 -13.1249)
(196.015 -2.03854 -17.9551)
(184.829 -1.76521 -29.0138)
(205.865 3.24428 3.53547)
(206.513 2.34821 1.74697)
(206.839 1.58656 -0.0398257)
(206.909 0.973069 -1.87764)
(206.686 0.482701 -3.87564)
(206.134 0.0894229 -6.24619)
(204.927 -0.219098 -9.13367)
(202.478 -0.446983 -13.4411)
(196.273 -0.580354 -18.7968)
(184.443 -0.0211886 -31.9443)
(205.918 1.92503 4.09761)
(206.588 0.913029 2.34331)
(206.937 0.0628464 0.551124)
(207.036 -0.630782 -1.27074)
(206.856 -1.19939 -3.28081)
(206.368 -1.65402 -5.69406)
(205.278 -1.95872 -8.74624)
(203.035 -2.09108 -13.3964)
(196.984 -1.82252 -19.565)
(184.388 -0.749726 -34.345)
(205.055 2.79861 3.45759)
(205.674 1.70477 1.73327)
(205.894 0.877756 0.0255036)
(205.758 0.213835 -1.73454)
(205.263 -0.267809 -3.64255)
(204.406 -0.591118 -5.91776)
(202.962 -0.705362 -8.7931)
(200.488 -0.530031 -13.1887)
(194.586 0.233712 -19.4736)
(181.955 2.32948 -34.7858)
(200.926 0.917318 1.71714)
(201.37 0.518102 0.930998)
(201.524 0.139015 0.031216)
(201.428 -0.182179 -0.871332)
(201.083 -0.450392 -1.77391)
(200.473 -0.660851 -2.59629)
(199.568 -0.825391 -3.27347)
(198.341 -0.967724 -3.67069)
(196.784 -1.14351 -3.57173)
(195.029 -1.37637 -2.7546)
(202.081 1.83242 1.82983)
(202.571 1.46194 0.76301)
(202.747 1.07259 -0.338367)
(202.626 0.686541 -1.446)
(202.189 0.306275 -2.54996)
(201.391 -0.0717394 -3.62127)
(200.156 -0.458857 -4.58428)
(198.372 -0.879264 -5.31239)
(195.903 -1.40238 -5.38183)
(193.059 -1.96341 -4.62133)
(202.93 1.69817 2.54355)
(203.466 1.1676 1.25867)
(203.661 0.650155 -0.0874629)
(203.538 0.173975 -1.44769)
(203.06 -0.282608 -2.83719)
(202.156 -0.728764 -4.23862)
(200.69 -1.18437 -5.58611)
(198.462 -1.677 -6.79057)
(195.117 -2.31418 -7.26467)
(191.016 -3.00746 -6.92793)
(203.317 2.48755 2.6259)
(203.899 1.94493 1.1844)
(204.128 1.40644 -0.287673)
(204.03 0.910282 -1.78482)
(203.556 0.434461 -3.34043)
(202.621 -0.0311568 -4.97223)
(201.025 -0.516076 -6.63459)
(198.468 -1.04539 -8.31545)
(194.27 -1.76062 -9.254)
(188.805 -2.53038 -9.55458)
(203.833 2.08409 3.24093)
(204.461 1.42806 1.67663)
(204.727 0.808284 0.0473429)
(204.674 0.264954 -1.60912)
(204.24 -0.240823 -3.36445)
(203.333 -0.718026 -5.26652)
(201.694 -1.19983 -7.2967)
(198.928 -1.70604 -9.54264)
(193.987 -2.43041 -11.0996)
(187.198 -3.17422 -12.3968)
(204.032 2.92612 3.09422)
(204.689 2.24677 1.47127)
(204.985 1.61288 -0.175455)
(204.968 1.06761 -1.86437)
(204.576 0.575644 -3.66957)
(203.721 0.124123 -5.68787)
(202.095 -0.324752 -7.9231)
(199.229 -0.792808 -10.5984)
(193.689 -1.48209 -12.7031)
(185.705 -2.14517 -15.1841)
(204.385 2.15618 3.67266)
(205.075 1.36261 1.99861)
(205.399 0.649761 0.260246)
(205.423 0.0547626 -1.51114)
(205.08 -0.463903 -3.43145)
(204.294 -0.914588 -5.62204)
(202.72 -1.3242 -8.1278)
(199.834 -1.70558 -11.2925)
(193.847 -2.2666 -14.0848)
(184.785 -2.73877 -18.0158)
(204.437 3.05074 3.23082)
(205.136 2.23533 1.57333)
(205.458 1.53185 -0.091744)
(205.47 0.958408 -1.80748)
(205.123 0.491549 -3.66446)
(204.355 0.109426 -5.82741)
(202.826 -0.209559 -8.36917)
(199.988 -0.495504 -11.7773)
(193.755 -0.840988 -15.0712)
(183.82 -1.14914 -20.4011)
(204.561 1.72852 3.82055)
(205.275 0.795334 2.18345)
(205.614 0.0104734 0.492761)
(205.651 -0.624127 -1.22921)
(205.339 -1.13941 -3.11954)
(204.618 -1.54318 -5.33888)
(203.152 -1.81422 -8.04257)
(200.415 -1.96209 -11.8076)
(194.128 -1.91145 -15.9499)
(183.232 -1.85478 -22.4784)
(203.765 2.67353 3.1593)
(204.432 1.67045 1.57614)
(204.682 0.917573 -0.00662002)
(204.551 0.317447 -1.64785)
(204.02 -0.108824 -3.42578)
(203.046 -0.381994 -5.51331)
(201.343 -0.463533 -8.06609)
(198.422 -0.301548 -11.6443)
(192.166 0.243596 -16.0253)
(180.802 1.22846 -22.9705)
(199.652 0.524193 1.20913)
(200.001 0.269191 0.683645)
(200.118 0.0102844 0.0551301)
(200.045 -0.217638 -0.563455)
(199.789 -0.417476 -1.16811)
(199.354 -0.581969 -1.6801)
(198.746 -0.720384 -2.05257)
(197.987 -0.848111 -2.19591)
(197.121 -0.991923 -2.01761)
(196.244 -1.15686 -1.43424)
(200.655 1.3736 1.34442)
(201.07 1.14245 0.547097)
(201.219 0.869091 -0.282141)
(201.114 0.57561 -1.10653)
(200.749 0.272274 -1.89789)
(200.11 -0.0402202 -2.61424)
(199.173 -0.367034 -3.18178)
(197.931 -0.719267 -3.49353)
(196.396 -1.12603 -3.32073)
(194.844 -1.53677 -2.53066)
(201.389 1.24443 2.08422)
(201.884 0.849306 1.0576)
(202.062 0.439347 -0.0342676)
(201.944 0.0447946 -1.12741)
(201.509 -0.347573 -2.21264)
(200.718 -0.742925 -3.25049)
(199.504 -1.15452 -4.15702)
(197.797 -1.60089 -4.80404)
(195.511 -2.13839 -4.79762)
(193.083 -2.70034 -3.94314)
(201.771 2.08855 2.18017)
(202.337 1.67176 0.977116)
(202.553 1.2289 -0.263396)
(202.443 0.801634 -1.51584)
(201.975 0.377455 -2.78483)
(201.089 -0.0507002 -4.05343)
(199.662 -0.507226 -5.23969)
(197.548 -1.01331 -6.23047)
(194.462 -1.65855 -6.44707)
(190.972 -2.36221 -5.6299)
(202.314 1.71878 2.8248)
(202.942 1.1801 1.47148)
(203.196 0.647302 0.0464581)
(203.115 0.16347 -1.39297)
(202.651 -0.300559 -2.88688)
(201.73 -0.75153 -4.43971)
(200.168 -1.21777 -5.98425)
(197.737 -1.7217 -7.44827)
(193.883 -2.4078 -8.06645)
(189.256 -3.17744 -7.56688)
(202.564 2.60807 2.70334)
(203.235 2.03503 1.2698)
(203.521 1.47884 -0.196544)
(203.466 0.985773 -1.69434)
(203.017 0.528729 -3.26702)
(202.094 0.0963223 -4.95982)
(200.456 -0.348716 -6.72093)
(197.804 -0.835398 -8.56093)
(193.259 -1.53036 -9.54313)
(187.516 -2.32715 -9.50716)
(202.971 1.86537 3.31011)
(203.683 1.17185 1.80342)
(203.997 0.533113 0.223465)
(203.975 -0.0107944 -1.38144)
(203.556 -0.494596 -3.09688)
(202.659 -0.925699 -4.98915)
(200.997 -1.333 -7.04339)
(198.202 -1.74043 -9.34867)
(193.069 -2.34423 -10.8627)
(186.25 -3.06438 -11.5646)
(203.083 2.81585 2.88098)
(203.809 2.09635 1.38137)
(204.125 1.46192 -0.13603)
(204.096 0.936735 -1.7003)
(203.67 0.50132 -3.37457)
(202.772 0.1375 -5.26686)
(201.1 -0.183107 -7.38589)
(198.241 -0.504996 -9.93992)
(192.692 -0.953708 -11.8527)
(184.923 -1.61699 -13.324)
(203.264 1.49397 3.50505)
(204 0.654068 2.01025)
(204.331 -0.0583951 0.445678)
(204.322 -0.632096 -1.14841)
(203.921 -1.09551 -2.88266)
(203.055 -1.45376 -4.85857)
(201.402 -1.69819 -7.15051)
(198.529 -1.85988 -10.0228)
(192.751 -1.94905 -12.6752)
(183.945 -2.35685 -14.9143)
(202.529 2.52393 2.82342)
(203.223 1.62195 1.39825)
(203.492 0.947142 -0.043376)
(203.366 0.411072 -1.54556)
(202.814 0.0375543 -3.16463)
(201.773 -0.191074 -5.02232)
(199.957 -0.248439 -7.19696)
(196.922 -0.105832 -9.94785)
(191.052 0.274078 -12.8059)
(181.556 0.663239 -15.2347)
(198.76 0.229156 0.839384)
(199.02 0.0711382 0.503877)
(199.103 -0.100324 0.0795672)
(199.054 -0.256492 -0.327466)
(198.88 -0.401247 -0.721336)
(198.595 -0.52585 -1.0348)
(198.213 -0.636343 -1.24251)
(197.763 -0.740433 -1.29025)
(197.283 -0.849083 -1.14484)
(196.802 -0.959542 -0.784217)
(199.596 0.992759 0.938648)
(199.92 0.865497 0.366357)
(200.038 0.687077 -0.229829)
(199.958 0.474966 -0.815966)
(199.681 0.243446 -1.35925)
(199.208 -0.00367166 -1.81977)
(198.548 -0.265737 -2.14037)
(197.726 -0.544325 -2.24922)
(196.799 -0.845095 -2.03815)
(195.936 -1.12846 -1.44692)
(200.179 0.826447 1.66371)
(200.599 0.545044 0.874707)
(200.752 0.232553 0.0214494)
(200.651 -0.0828285 -0.82527)
(200.287 -0.40797 -1.64219)
(199.647 -0.743718 -2.38221)
(198.713 -1.09651 -2.96947)
(197.487 -1.47595 -3.29687)
(196 -1.90462 -3.14073)
(194.567 -2.32628 -2.36897)
(200.502 1.69377 1.74569)
(201.012 1.39302 0.77804)
(201.205 1.04407 -0.230145)
(201.1 0.688905 -1.24029)
(200.675 0.323542 -2.23574)
(199.902 -0.0547672 -3.17893)
(198.72 -0.463004 -3.98303)
(197.089 -0.915017 -4.52241)
(194.948 -1.45801 -4.43114)
(192.774 -2.02681 -3.46491)
(201.016 1.34063 2.40119)
(201.605 0.917684 1.26752)
(201.837 0.47499 0.0582368)
(201.745 0.0565352 -1.15462)
(201.294 -0.357104 -2.38376)
(200.436 -0.769205 -3.60197)
(199.062 -1.20102 -4.72326)
(197.074 -1.67213 -5.62114)
(194.253 -2.27473 -5.76838)
(191.221 -2.93955 -4.79782)
(201.274 2.26407 2.29461)
(201.92 1.80126 1.06569)
(202.186 1.32873 -0.20321)
(202.109 0.894718 -1.49305)
(201.646 0.481128 -2.81841)
(200.738 0.0795563 -4.18176)
(199.223 -0.342774 -5.50084)
(196.944 -0.814272 -6.68598)
(193.464 -1.45259 -7.04382)
(189.527 -2.19786 -6.13828)
(201.7 1.54522 2.92241)
(202.397 0.959171 1.60191)
(202.692 0.401663 0.20047)
(202.639 -0.084627 -1.21714)
(202.184 -0.526384 -2.70561)
(201.261 -0.929069 -4.28211)
(199.656 -1.32016 -5.89042)
(197.15 -1.72817 -7.47667)
(193.063 -2.30809 -8.22479)
(188.197 -3.04063 -7.6133)
(201.844 2.552 2.50318)
(202.563 1.93762 1.18005)
(202.866 1.37999 -0.170131)
(202.807 0.909606 -1.5615)
(202.338 0.512335 -3.02829)
(201.391 0.174044 -4.62571)
(199.724 -0.135836 -6.31062)
(197.069 -0.466364 -8.11125)
(192.502 -0.939401 -9.13769)
(186.761 -1.68316 -8.86239)
(202.065 1.22943 3.16324)
(202.796 0.492582 1.82925)
(203.111 -0.142108 0.410664)
(203.067 -0.653278 -1.03304)
(202.613 -1.06562 -2.5849)
(201.677 -1.38161 -4.29248)
(199.99 -1.6019 -6.1664)
(197.238 -1.76736 -8.24964)
(192.346 -1.92923 -9.84144)
(185.638 -2.48282 -10.0001)
(201.381 2.35601 2.45984)
(202.074 1.56238 1.20479)
(202.349 0.968658 -0.0823925)
(202.225 0.496915 -1.42868)
(201.668 0.173922 -2.86688)
(200.61 -0.0151931 -4.47036)
(198.802 -0.0548068 -6.25255)
(195.893 0.0670337 -8.26638)
(190.831 0.326259 -9.9954)
(183.419 0.431524 -10.1739)
(198.131 0.0235231 0.589783)
(198.321 -0.0750458 0.38323)
(198.379 -0.188171 0.100722)
(198.348 -0.293211 -0.16065)
(198.238 -0.396309 -0.415395)
(198.062 -0.488193 -0.608794)
(197.833 -0.572577 -0.731835)
(197.575 -0.651927 -0.75194)
(197.31 -0.729403 -0.66127)
(197.024 -0.799671 -0.458712)
(198.825 0.704927 0.621782)
(199.063 0.647861 0.223557)
(199.152 0.540859 -0.188173)
(199.096 0.394935 -0.588465)
(198.899 0.225602 -0.947779)
(198.572 0.038241 -1.23479)
(198.131 -0.162324 -1.4107)
(197.607 -0.372494 -1.43295)
(197.051 -0.587775 -1.25546)
(196.559 -0.775973 -0.865329)
(199.252 0.472503 1.30601)
(199.586 0.277192 0.718552)
(199.711 0.0458774 0.0722549)
(199.632 -0.198459 -0.56417)
(199.349 -0.458956 -1.16282)
(198.864 -0.733112 -1.67923)
(198.183 -1.02197 -2.05433)
(197.338 -1.32773 -2.2146)
(196.391 -1.6542 -2.04574)
(195.54 -1.95625 -1.49541)
(199.493 1.33382 1.34988)
(199.925 1.13004 0.597188)
(200.09 0.865944 -0.194651)
(199.998 0.58063 -0.982273)
(199.64 0.276309 -1.73748)
(199.007 -0.0456916 -2.41537)
(198.084 -0.394455 -2.94016)
(196.883 -0.775852 -3.209)
(195.444 -1.20874 -3.01483)
(194.093 -1.64126 -2.21759)
(199.942 0.97754 1.9957)
(200.463 0.658859 1.07417)
(200.667 0.302683 0.0772789)
(200.577 -0.0489098 -0.915523)
(200.171 -0.407035 -1.89779)
(199.424 -0.771173 -2.82529)
(198.286 -1.15474 -3.61291)
(196.74 -1.57139 -4.13529)
(194.751 -2.07234 -4.0677)
(192.785 -2.60279 -3.14704)
(200.173 1.91709 1.89046)
(200.764 1.5593 0.867655)
(201.003 1.17064 -0.198994)
(200.917 0.799162 -1.27776)
(200.478 0.434989 -2.36092)
(199.647 0.0734469 -3.42268)
(198.331 -0.31091 -4.37152)
(196.473 -0.740751 -5.08674)
(193.918 -1.28925 -5.11055)
(191.266 -1.91678 -4.06726)
(200.589 1.21425 2.52828)
(201.241 0.735216 1.40148)
(201.51 0.26144 0.188996)
(201.44 -0.163263 -1.03164)
(200.987 -0.557507 -2.28852)
(200.105 -0.924065 -3.563)
(198.654 -1.28612 -4.77788)
(196.53 -1.67085 -5.81345)
(193.419 -2.18819 -6.10801)
(190.028 -2.83261 -5.1189)
(200.74 2.27312 2.1132)
(201.423 1.76641 0.976057)
(201.704 1.28953 -0.19498)
(201.626 0.87828 -1.40075)
(201.152 0.524199 -2.64953)
(200.224 0.217232 -3.95511)
(198.672 -0.0713906 -5.24263)
(196.347 -0.386118 -6.43926)
(192.768 -0.827878 -6.89609)
(188.646 -1.5109 -5.98101)
(200.984 0.94524 2.80832)
(201.684 0.315624 1.64579)
(201.976 -0.238447 0.386805)
(201.91 -0.686413 -0.891378)
(201.439 -1.04853 -2.24615)
(200.502 -1.32476 -3.68172)
(198.898 -1.52175 -5.1662)
(196.427 -1.68122 -6.61566)
(192.498 -1.8643 -7.48265)
(187.567 -2.39295 -6.77251)
(200.338 2.17784 2.08)
(201.005 1.49589 1.00123)
(201.274 0.984718 -0.122446)
(201.154 0.577064 -1.30114)
(200.611 0.302411 -2.54531)
(199.585 0.148264 -3.88778)
(197.882 0.121538 -5.29455)
(195.259 0.223014 -6.69989)
(191.121 0.395913 -7.6363)
(185.588 0.387977 -6.85763)
(197.677 -0.113639 0.429873)
(197.818 -0.177942 0.307155)
(197.858 -0.254507 0.117719)
(197.84 -0.325048 -0.0487312)
(197.774 -0.398132 -0.215714)
(197.669 -0.464631 -0.338469)
(197.536 -0.527024 -0.418244)
(197.39 -0.58504 -0.434002)
(197.24 -0.638577 -0.387253)
(197.049 -0.682219 -0.280261)
(198.265 0.50526 0.385378)
(198.433 0.492255 0.114677)
(198.498 0.435666 -0.159429)
(198.461 0.340422 -0.422695)
(198.33 0.221692 -0.651913)
(198.114 0.085232 -0.825209)
(197.83 -0.0621068 -0.918376)
(197.503 -0.214616 -0.907734)
(197.167 -0.364792 -0.775777)
(196.872 -0.487518 -0.52555)
(198.555 0.192482 1.01836)
(198.808 0.0571744 0.591816)
(198.904 -0.110865 0.114381)
(198.848 -0.295301 -0.352875)
(198.64 -0.497724 -0.783498)
(198.29 -0.713844 -1.1408)
(197.814 -0.941449 -1.38243)
(197.248 -1.17791 -1.46287)
(196.649 -1.41841 -1.32671)
(196.133 -1.62818 -0.964913)
(198.713 1.02716 1.00828)
(199.059 0.898061 0.44039)
(199.193 0.705679 -0.161655)
(199.119 0.483908 -0.756464)
(198.836 0.238624 -1.31243)
(198.345 -0.0259695 -1.78659)
(197.655 -0.312318 -2.11983)
(196.802 -0.620143 -2.23849)
(195.848 -0.951768 -2.03395)
(195.004 -1.26771 -1.44409)
(199.078 0.650714 1.62707)
(199.516 0.419127 0.898408)
(199.687 0.140955 0.0988863)
(199.607 -0.146254 -0.692053)
(199.264 -0.447413 -1.45715)
(198.65 -0.758763 -2.1475)
(197.752 -1.08687 -2.6896)
(196.595 -1.43874 -2.98144)
(195.224 -1.83794 -2.83691)
(193.953 -2.24117 -2.10787)
(199.262 1.58722 1.51011)
(199.776 1.32247 0.683224)
(199.983 1.01293 -0.187505)
(199.9 0.703969 -1.06376)
(199.509 0.392301 -1.92343)
(198.79 0.0768168 -2.72653)
(197.704 -0.259761 -3.38709)
(196.251 -0.632371 -3.79118)
(194.426 -1.07967 -3.65608)
(192.656 -1.57535 -2.7412)
(199.647 0.890607 2.14553)
(200.231 0.511368 1.20912)
(200.468 0.11935 0.186199)
(200.392 -0.242649 -0.838376)
(199.971 -0.586078 -1.87266)
(199.177 -0.910832 -2.87678)
(197.933 -1.23441 -3.76963)
(196.21 -1.57867 -4.41676)
(193.917 -2.01481 -4.46038)
(191.586 -2.53808 -3.49312)
(199.782 1.99402 1.72734)
(200.404 1.59114 0.776293)
(200.657 1.19498 -0.212051)
(200.572 0.844653 -1.22875)
(200.121 0.536907 -2.26153)
(199.264 0.265458 -3.29641)
(197.897 0.00580123 -4.2458)
(195.955 -0.2773 -4.99785)
(193.248 -0.657143 -5.10707)
(190.345 -1.21794 -4.07574)
(200.036 0.653097 2.45478)
(200.682 0.129162 1.46599)
(200.946 -0.344396 0.372956)
(200.868 -0.72987 -0.73284)
(200.41 -1.04302 -1.88725)
(199.527 -1.28154 -3.06394)
(198.086 -1.45523 -4.20781)
(195.976 -1.60168 -5.18137)
(192.94 -1.77606 -5.58808)
(189.415 -2.21028 -4.63173)
(199.416 1.99887 1.69663)
(200.033 1.42767 0.793724)
(200.286 0.998442 -0.16267)
(200.172 0.65367 -1.16833)
(199.663 0.424868 -2.21464)
(198.711 0.301493 -3.3043)
(197.182 0.284075 -4.37384)
(194.927 0.366875 -5.30662)
(191.68 0.478689 -5.71938)
(187.694 0.437268 -4.65308)
(197.338 -0.203872 0.331921)
(197.448 -0.249242 0.262089)
(197.475 -0.304016 0.131181)
(197.466 -0.352222 0.0240636)
(197.427 -0.404541 -0.0893719)
(197.367 -0.452342 -0.171435)
(197.291 -0.49762 -0.229112)
(197.209 -0.539003 -0.247367)
(197.121 -0.575302 -0.230681)
(196.98 -0.601858 -0.180102)
(197.856 0.379581 0.213422)
(197.973 0.392766 0.0325605)
(198.019 0.370096 -0.143306)
(197.998 0.311875 -0.309682)
(197.914 0.232266 -0.449957)
(197.776 0.136755 -0.550103)
(197.599 0.0324248 -0.595955)
(197.396 -0.074723 -0.574598)
(197.189 -0.177315 -0.481083)
(197.001 -0.256036 -0.321256)
(198.035 -0.0164656 0.796899)
(198.219 -0.112752 0.492933)
(198.291 -0.23402 0.146599)
(198.253 -0.370506 -0.190957)
(198.107 -0.523635 -0.497529)
(197.865 -0.688839 -0.74537)
(197.545 -0.862334 -0.905809)
(197.174 -1.03929 -0.952621)
(196.794 -1.21218 -0.859429)
(196.472 -1.35479 -0.63623)
(198.122 0.781011 0.725953)
(198.388 0.705547 0.309539)
(198.493 0.570468 -0.134119)
(198.437 0.403507 -0.569717)
(198.223 0.212088 -0.967556)
(197.86 0.00193558 -1.29143)
(197.364 -0.224895 -1.49856)
(196.773 -0.464542 -1.54028)
(196.146 -0.711435 -1.36326)
(195.612 -0.93596 -0.94759)
(198.401 0.37332 1.3062)
(198.753 0.209936 0.744318)
(198.891 -0.00157844 0.119319)
(198.825 -0.229953 -0.495232)
(198.549 -0.476023 -1.07788)
(198.067 -0.73383 -1.58303)
(197.387 -1.0051 -1.9526)
(196.548 -1.29112 -2.11249)
(195.616 -1.59942 -1.96134)
(194.793 -1.89512 -1.42935)
(198.528 1.28938 1.16781)
(198.957 1.10189 0.518114)
(199.129 0.863062 -0.171989)
(199.055 0.613494 -0.863214)
(198.724 0.354499 -1.52634)
(198.133 0.0877794 -2.11784)
(197.274 -0.196429 -2.56507)
(196.177 -0.506127 -2.77674)
(194.898 -0.856723 -2.58538)
(193.723 -1.23015 -1.86377)
(198.872 0.589926 1.78902)
(199.374 0.298487 1.03067)
(199.576 -0.0174992 0.189054)
(199.502 -0.318485 -0.649597)
(199.132 -0.610186 -1.48011)
(198.453 -0.889923 -2.25372)
(197.433 -1.16963 -2.89636)
(196.086 -1.4644 -3.28706)
(194.434 -1.81675 -3.211)
(192.848 -2.21793 -2.40422)
(198.972 1.72852 1.36051)
(199.517 1.42041 0.587163)
(199.737 1.10125 -0.223111)
(199.653 0.811029 -1.056)
(199.246 0.550713 -1.88512)
(198.494 0.317198 -2.68115)
(197.344 0.0914301 -3.35748)
(195.785 -0.152116 -3.80281)
(193.792 -0.461581 -3.72155)
(191.781 -0.889662 -2.79294)
(199.229 0.364565 2.11669)
(199.803 -0.0603386 1.29588)
(200.036 -0.456497 0.367724)
(199.955 -0.781833 -0.5671)
(199.533 -1.048 -1.52809)
(198.742 -1.2508 -2.47074)
(197.505 -1.40107 -3.33176)
(195.78 -1.52991 -3.96657)
(193.502 -1.68158 -4.10562)
(191.038 -2.01093 -3.19466)
(198.622 1.82896 1.32233)
(199.172 1.36353 0.588458)
(199.401 1.01332 -0.202698)
(199.296 0.728976 -1.03656)
(198.836 0.543031 -1.89001)
(197.989 0.446508 -2.74639)
(196.672 0.435789 -3.52827)
(194.815 0.502278 -4.11253)
(192.347 0.571475 -4.20367)
(189.559 0.530104 -3.16431)
(197.078 -0.265307 0.275015)
(197.169 -0.300375 0.237856)
(197.188 -0.342729 0.142502)
(197.183 -0.376954 0.0712313)
(197.161 -0.415418 -0.0103264)
(197.127 -0.450056 -0.0694381)
(197.084 -0.482787 -0.115844)
(197.038 -0.511983 -0.137775)
(196.984 -0.536292 -0.140377)
(196.87 -0.551954 -0.12286)
(197.555 0.311325 0.0886918)
(197.636 0.339623 -0.0303772)
(197.669 0.33905 -0.138222)
(197.658 0.306951 -0.237949)
(197.606 0.256393 -0.318624)
(197.521 0.192305 -0.371823)
(197.412 0.120947 -0.389773)
(197.286 0.0477321 -0.36518)
(197.154 -0.0212252 -0.298434)
(197.025 -0.071133 -0.193148)
(197.647 -0.164319 0.632253)
(197.777 -0.236659 0.418108)
(197.83 -0.324794 0.169438)
(197.805 -0.424554 -0.0726085)
(197.707 -0.537843 -0.290643)
(197.546 -0.660868 -0.464882)
(197.336 -0.789368 -0.576643)
(197.096 -0.91818 -0.611615)
(196.854 -1.04001 -0.556802)
(196.645 -1.13562 -0.428286)
(197.684 0.594108 0.500581)
(197.881 0.55482 0.20359)
(197.96 0.463399 -0.113415)
(197.92 0.34159 -0.422831)
(197.766 0.196886 -0.699578)
(197.506 0.0354936 -0.915597)
(197.161 -0.138302 -1.04161)
(196.761 -0.319114 -1.04698)
(196.35 -0.498867 -0.907846)
(196.005 -0.656002 -0.621719)
(197.881 0.151047 1.03692)
(198.152 0.0381697 0.613198)
(198.26 -0.118945 0.135936)
(198.208 -0.295987 -0.330908)
(197.996 -0.491481 -0.76604)
(197.633 -0.698485 -1.13118)
(197.136 -0.915815 -1.38318)
(196.544 -1.14084 -1.47237)
(195.918 -1.37335 -1.34599)
(195.381 -1.5851 -0.977334)
(197.953 1.03249 0.87214)
(198.295 0.905422 0.375875)
(198.434 0.726768 -0.155006)
(198.372 0.531025 -0.684472)
(198.105 0.322222 -1.18178)
(197.639 0.103847 -1.60656)
(196.984 -0.127767 -1.90179)
(196.181 -0.375722 -2.00164)
(195.298 -0.641985 -1.80967)
(194.519 -0.914166 -1.27147)
(198.252 0.323962 1.46934)
(198.667 0.10586 0.870259)
(198.833 -0.142489 0.194666)
(198.768 -0.386576 -0.475211)
(198.457 -0.62797 -1.12689)
(197.902 -0.86206 -1.71147)
(197.097 -1.09631 -2.1672)
(196.078 -1.33928 -2.39776)
(194.91 -1.61515 -2.28185)
(193.84 -1.91033 -1.66037)
(198.305 1.48795 1.0248)
(198.763 1.26201 0.41398)
(198.949 1.01314 -0.229965)
(198.872 0.779826 -0.891716)
(198.522 0.565995 -1.53701)
(197.891 0.370953 -2.13087)
(196.961 0.181382 -2.59582)
(195.754 -0.0200842 -2.84045)
(194.319 -0.262972 -2.6723)
(192.945 -0.575787 -1.91701)
(198.562 0.0897357 1.80624)
(199.055 -0.246698 1.14091)
(199.252 -0.571249 0.369663)
(199.177 -0.840461 -0.403064)
(198.806 -1.06252 -1.18569)
(198.129 -1.2319 -1.92595)
(197.109 -1.3591 -2.56252)
(195.749 -1.46795 -2.96787)
(194.083 -1.59189 -2.97022)
(192.395 -1.82992 -2.21542)
(197.957 1.67751 0.968229)
(198.43 1.30945 0.390978)
(198.629 1.03311 -0.242603)
(198.536 0.805415 -0.912192)
(198.137 0.658758 -1.58525)
(197.412 0.585427 -2.23517)
(196.321 0.579524 -2.78238)
(194.846 0.632242 -3.12141)
(193.022 0.671996 -3.03332)
(191.12 0.642418 -2.14481)
(196.875 -0.311682 0.245323)
(196.952 -0.341126 0.227926)
(196.966 -0.37677 0.153381)
(196.965 -0.402566 0.102929)
(196.952 -0.43211 0.0398505)
(196.933 -0.457849 -0.00685926)
(196.909 -0.48179 -0.0478148)
(196.882 -0.502403 -0.0732323)
(196.847 -0.51852 -0.088215)
(196.751 -0.527219 -0.0904603)
(197.331 0.285463 -0.00368032)
(197.389 0.322647 -0.0807182)
(197.413 0.336188 -0.142219)
(197.408 0.32212 -0.196671)
(197.377 0.29254 -0.237626)
(197.326 0.251616 -0.260257)
(197.258 0.204495 -0.260706)
(197.179 0.155689 -0.234459)
(197.09 0.109869 -0.184269)
(196.994 0.0784304 -0.110222)
(197.355 -0.263871 0.513401)
(197.446 -0.322153 0.362885)
(197.483 -0.387567 0.18445)
(197.468 -0.460252 0.0103392)
(197.405 -0.542792 -0.146266)
(197.3 -0.632459 -0.271905)
(197.165 -0.725296 -0.354632)
(197.012 -0.816782 -0.387007)
(196.855 -0.900995 -0.36169)
(196.713 -0.964189 -0.295697)
(197.365 0.459779 0.325477)
(197.506 0.443448 0.119701)
(197.564 0.383964 -0.0996797)
(197.537 0.297893 -0.312534)
(197.429 0.191962 -0.499293)
(197.25 0.0721026 -0.639418)
(197.016 -0.056853 -0.71372)
(196.75 -0.189372 -0.703306)
(196.481 -0.317619 -0.599477)
(196.252 -0.426558 -0.403852)