/*--------------------------------*- C++ -*----------------------------------*\
| =========                 |                                                 |
| \\      /  F ield         | foam-extend: Open Source CFD                    |
|  \\    /   O peration     | Version:     4.0                                |
|   \\  /    A nd           | Web:         http://www.foam-extend.org         |
|    \\/     M anipulation  |                                                 |
\*---------------------------------------------------------------------------*/
FoamFile
{
    version     2.0;
    format      ascii;
    class       volScalarField;
    location    "3800";
    object      divFlux;
}
// * * * * * * * * * * * * * * * * * * * * * * * * * * * * * * * * * * * * * //

dimensions      [1 -3 -1 0 0 0 0];

internalField   nonuniform List<scalar> 
34480
(
0.028945
0.00926264
0.00950563
0.00880664
0.00802268
0.00726935
0.00656104
0.00591542
0.00535511
0.00488004
0.00794836
0.00401651
0.00404655
0.00391365
0.00378823
0.00363671
0.0034303
0.00318038
0.00291849
0.00267073
0.00206435
0.00134812
0.00136643
0.00137907
0.00141241
0.00144042
0.00142947
0.00137
0.00127761
0.001172
0.000688135
0.000504363
0.000507478
0.00051475
0.000533523
0.000555315
0.000564286
0.000551365
0.000519273
0.000475621
0.000253834
0.0001988
0.000198089
0.000199921
0.000206977
0.000216794
0.000222872
0.0002202
0.00020825
0.000189693
9.90949e-05
8.09842e-05
8.01502e-05
8.05354e-05
8.32033e-05
8.73542e-05
9.02971e-05
8.96682e-05
8.46892e-05
7.71688e-05
3.99054e-05
3.36508e-05
3.32381e-05
3.33801e-05
3.45105e-05
3.63332e-05
3.76999e-05
3.75214e-05
3.52409e-05
3.19394e-05
1.69905e-05
1.47251e-05
1.46206e-05
1.4744e-05
1.52834e-05
1.61042e-05
1.66901e-05
1.65385e-05
1.5317e-05
1.35565e-05
9.03725e-06
8.07635e-06
8.13848e-06
8.20758e-06
8.35762e-06
8.53116e-06
8.53889e-06
8.20343e-06
7.33419e-06
6.12441e-06
5.64701e-06
5.28689e-06
5.48988e-06
5.61934e-06
5.67633e-06
5.62992e-06
5.43539e-06
5.03696e-06
4.33192e-06
3.34947e-06
0.0376951
0.010827
0.0110881
0.0104022
0.00962267
0.00892893
0.00833858
0.00787722
0.00759209
0.0080135
0.0112607
0.00518372
0.00522842
0.00506867
0.00490788
0.00477954
0.00466672
0.00455479
0.00445834
0.00476548
0.00314858
0.00191614
0.00194459
0.00196366
0.00201265
0.00206645
0.00210929
0.00212626
0.00211246
0.00226478
0.0011531
0.000799281
0.000802765
0.000811793
0.000842383
0.000880195
0.000914226
0.000934811
0.000933036
0.000995052
0.000465513
0.00034847
0.000345346
0.000347002
0.000358772
0.000377247
0.000395012
0.000406863
0.000405811
0.000428381
0.000197315
0.000155585
0.000152818
0.000152707
0.000157165
0.000165629
0.000174001
0.000179574
0.000177942
0.000184606
8.55601e-05
7.03127e-05
6.89084e-05
6.88085e-05
7.07134e-05
7.46475e-05
7.8474e-05
8.0728e-05
7.8806e-05
7.95535e-05
3.94251e-05
3.37667e-05
3.33395e-05
3.3455e-05
3.43741e-05
3.61223e-05
3.76063e-05
3.80091e-05
3.58057e-05
3.40564e-05
2.41281e-05
2.17266e-05
2.18137e-05
2.18342e-05
2.18172e-05
2.18255e-05
2.14817e-05
2.04238e-05
1.77718e-05
1.48754e-05
1.74368e-05
1.66069e-05
1.71374e-05
1.73683e-05
1.72033e-05
1.67157e-05
1.57335e-05
1.40658e-05
1.12668e-05
7.90508e-06
0.0382789
0.00942476
0.00982848
0.0093385
0.00879107
0.00833173
0.00798759
0.00779154
0.00783116
0.0312513
0.0110431
0.00431421
0.00439786
0.00423289
0.00408785
0.00401543
0.00400697
0.00405524
0.00420008
0.0110477
0.00290527
0.00151661
0.00153503
0.00152354
0.00153269
0.00157297
0.00164438
0.00173565
0.00185464
0.00117593
0.0010063
0.000605154
0.000603421
0.000598099
0.000606202
0.000627482
0.000665616
0.00071591
0.000777908
0.000914968
0.000383998
0.000252574
0.000248064
0.000243376
0.000245582
0.000254176
0.000270951
0.000294736
0.000323913
0.000384972
0.000153982
0.000107931
0.00010486
0.000102033
0.000102227
0.000105655
0.000112864
0.000123659
0.000136693
0.000162624
6.34163e-05
4.67646e-05
4.52259e-05
4.38333e-05
4.37138e-05
4.51469e-05
4.82788e-05
5.30928e-05
5.86159e-05
6.89312e-05
2.77522e-05
2.14163e-05
2.08108e-05
2.02202e-05
2.01144e-05
2.06889e-05
2.1987e-05
2.39767e-05
2.59707e-05
2.93736e-05
1.54447e-05
1.24263e-05
1.23373e-05
1.21377e-05
1.19946e-05
1.19935e-05
1.21809e-05
1.25617e-05
1.27619e-05
1.32249e-05
9.60604e-06
7.97609e-06
8.11151e-06
8.15332e-06
8.16831e-06
8.15984e-06
8.05941e-06
7.84662e-06
7.40933e-06
6.90938e-06
0.0390139
0.00863054
0.0090881
0.00874323
0.00833283
0.00799505
0.00775916
0.00638705
0.00234275
0.0197626
0.0114511
0.00410649
0.00419739
0.0040288
0.00386985
0.00377203
0.00374367
0.00378936
0.00287414
0.00930594
0.00302907
0.00147496
0.00149005
0.00146134
0.00144731
0.00146267
0.00151203
0.0015945
0.00171093
0.00302898
0.00106109
0.000603025
0.000600085
0.000588904
0.000586569
0.000596955
0.000624336
0.000668811
0.000729846
0.000154737
0.000408785
0.000256989
0.000252088
0.000245396
0.000244075
0.000248091
0.000260363
0.000281405
0.000310587
0.000423658
0.000165096
0.000111628
0.000108387
0.000104874
0.000103831
0.000105431
0.000110844
0.000120567
0.000134038
0.000272743
6.84131e-05
4.90222e-05
4.74041e-05
4.57622e-05
4.52034e-05
4.5906e-05
4.83404e-05
5.28035e-05
5.88292e-05
6.8225e-05
3.01097e-05
2.27018e-05
2.20683e-05
2.13908e-05
2.11259e-05
2.14095e-05
2.24489e-05
2.43694e-05
2.6794e-05
3.02269e-05
1.66747e-05
1.31532e-05
1.30765e-05
1.28916e-05
1.27515e-05
1.27035e-05
1.28507e-05
1.32731e-05
1.37962e-05
1.46343e-05
1.03495e-05
8.40912e-06
8.54756e-06
8.60817e-06
8.66151e-06
8.68643e-06
8.65576e-06
8.56802e-06
8.37709e-06
8.34155e-06
0.0389107
0.00774258
0.00823592
0.00800308
0.00768742
0.00742064
0.00535191
0.0018617
0.00270727
0.0111849
0.0116151
0.00382267
0.00393047
0.00378049
0.00362446
0.00350811
0.00344186
0.00343318
0.000957271
0.00565196
0.00312196
0.00141267
0.00142733
0.00138779
0.00135707
0.00134857
0.00136643
0.00141329
0.00138609
0.0016686
0.00110888
0.000592365
0.000589422
0.000573538
0.000563496
0.000563455
0.000576572
0.000604441
0.000646251
0.000149671
0.000431406
0.000257732
0.000252911
0.000245088
0.000240539
0.000240438
0.0002468
0.000260661
0.000281826
0.000543221
0.000175307
0.00011368
0.000110563
0.000106635
0.00010458
0.000104498
0.000107498
0.000114205
0.00012454
0.000488147
7.29657e-05
5.05276e-05
4.89802e-05
4.7238e-05
4.63346e-05
4.63761e-05
4.78318e-05
5.10599e-05
5.5979e-05
0.000306385
3.21992e-05
2.3601e-05
2.30145e-05
2.23314e-05
2.19678e-05
2.20039e-05
2.26556e-05
2.41016e-05
2.62388e-05
0.000181547
1.76814e-05
1.36048e-05
1.35576e-05
1.34109e-05
1.32985e-05
1.32368e-05
1.332e-05
1.36546e-05
1.42266e-05
5.85787e-05
1.0963e-05
8.66689e-06
8.80905e-06
8.884e-06
8.96066e-06
9.01225e-06
9.04021e-06
9.05317e-06
9.04807e-06
9.47551e-06
0.0379843
0.00679298
0.00729279
0.00714186
0.00675135
0.0053914
0.0037059
0.00194084
0.000212408
0.00394437
0.0114672
0.00346549
0.00358748
0.00346495
0.00332684
0.00321304
0.00313097
0.00268479
0.00093795
0.00252055
0.003172
0.00132875
0.00134448
0.00129961
0.00125888
0.00123376
0.00122686
0.00124003
0.00116996
0.000490396
0.00114477
0.000572555
0.000570061
0.000550865
0.000535258
0.000527094
0.000528327
0.000540061
0.000592055
0.000416811
0.000449881
0.000254366
0.000250012
0.000241031
0.000234166
0.00023075
0.000232065
0.000238844
0.000250565
0.000562521
0.000183937
0.000113955
0.000111085
0.00010693
0.000103943
0.000102507
0.000103392
0.000107044
0.00011334
0.000495328
7.68795e-05
5.12623e-05
4.98566e-05
4.80605e-05
4.68633e-05
4.63534e-05
4.69281e-05
4.88573e-05
5.21219e-05
0.000353394
3.3988e-05
2.41411e-05
2.36295e-05
2.29645e-05
2.25235e-05
2.23613e-05
2.26645e-05
2.35844e-05
2.51165e-05
0.000272106
1.85035e-05
1.3848e-05
1.38336e-05
1.37171e-05
1.36274e-05
1.35672e-05
1.36152e-05
1.38538e-05
1.43316e-05
0.000194366
1.14801e-05
8.80201e-06
8.94855e-06
9.02986e-06
9.11457e-06
9.18459e-06
9.25433e-06
9.33806e-06
9.44751e-06
0.000161192
0.0359043
0.00540099
0.00580085
0.00546456
0.004784
0.00411737
0.0032063
0.00238529
0.00128688
0.000395505
0.011013
0.00305727
0.00318546
0.00308995
0.00297437
0.00287469
0.0027795
0.0023347
0.00127318
0.000582364
0.00316136
0.00122334
0.00124174
0.00119739
0.0011538
0.00112076
0.00109986
0.00109192
0.00105165
0.000107737
0.00116204
0.000542577
0.000541273
0.000520847
0.00050238
0.00048926
0.000482606
0.000482896
0.000612652
0.000499113
0.000461474
0.000246176
0.00024251
0.000232996
0.000224793
0.000219175
0.000216922
0.000218391
0.000222686
0.000505374
0.00018994
0.00011206
0.000109561
0.000105283
0.000101721
9.93593e-05
9.86822e-05
9.9944e-05
0.000102849
0.000431069
7.97798e-05
5.10569e-05
4.983e-05
4.80468e-05
4.66319e-05
4.57339e-05
4.56392e-05
4.65106e-05
4.82724e-05
0.000312941
3.53498e-05
2.4255e-05
2.38306e-05
2.31942e-05
2.27043e-05
2.24068e-05
2.24491e-05
2.29327e-05
2.38525e-05
0.000256486
1.91153e-05
1.3876e-05
1.38891e-05
1.379e-05
1.37113e-05
1.3661e-05
1.36966e-05
1.38717e-05
1.42269e-05
0.000202744
1.18898e-05
8.8174e-06
8.96568e-06
9.0435e-06
9.12474e-06
9.20114e-06
9.29478e-06
9.41811e-06
9.5833e-06
0.000179248
0.0327373
0.00370903
0.00420709
0.00416645
0.00381181
0.00350457
0.00299239
0.00264181
0.00200626
0.00128059
0.0103073
0.00262798
0.00275385
0.00268071
0.00258557
0.00250135
0.00239907
0.00210587
0.00150779
0.000522546
0.00306833
0.00109718
0.00111848
0.001079
0.0010382
0.00100478
0.000979815
0.00100122
0.000946502
0.00039595
0.00115203
0.000501491
0.000501926
0.00048236
0.000463748
0.000449036
0.00043883
0.000433248
0.000566109
0.000482333
0.00046311
0.000232573
0.000229813
0.000220504
0.000212016
0.000205474
0.000201314
0.000199652
0.000241474
0.000419756
0.000192194
0.000107674
0.000105619
0.000101434
9.77124e-05
9.49068e-05
9.33062e-05
9.30223e-05
9.80862e-05
0.000349781
8.12503e-05
4.97522e-05
4.87247e-05
4.70066e-05
4.55119e-05
4.44188e-05
4.38999e-05
4.40409e-05
4.47027e-05
0.000250845
3.61342e-05
2.38756e-05
2.3534e-05
2.29404e-05
2.24313e-05
2.20691e-05
2.19489e-05
2.21247e-05
2.2567e-05
0.000211842
1.94613e-05
1.36661e-05
1.36968e-05
1.36031e-05
1.3526e-05
1.34808e-05
1.35133e-05
1.36498e-05
1.39085e-05
0.00016723
1.21635e-05
8.69756e-06
8.84266e-06
8.90924e-06
8.97668e-06
9.0488e-06
9.14688e-06
9.28205e-06
9.46169e-06
0.000149125
0.0300944
0.00285074
0.00331606
0.00339523
0.00319461
0.00305887
0.00274175
0.00261172
0.00218395
0.00190009
0.00941843
0.00220444
0.00232146
0.00226606
0.00218827
0.00213142
0.00203679
0.00184652
0.00151085
0.000975097
0.00288884
0.000955177
0.000978066
0.000944953
0.000909416
0.000879409
0.000855863
0.000890912
0.000832451
0.000516692
0.00110929
0.000449922
0.000451981
0.000434496
0.000417427
0.000403387
0.000392725
0.000385426
0.000485418
0.000429121
0.000452513
0.000213559
0.000211721
0.000203141
0.00019513
0.000188664
0.000183973
0.000181053
0.000230175
0.000333615
0.000189793
0.000100719
9.91101e-05
9.52007e-05
9.16299e-05
8.87937e-05
8.68476e-05
8.58174e-05
0.000122866
0.000273302
8.09293e-05
4.72742e-05
4.64422e-05
4.48298e-05
4.338e-05
4.22519e-05
4.15443e-05
4.12845e-05
4.13003e-05
0.00019139
3.61999e-05
2.29616e-05
2.26913e-05
2.21368e-05
2.16408e-05
2.12686e-05
2.1072e-05
2.10722e-05
2.43206e-05
0.000166009
1.94868e-05
1.31969e-05
1.32357e-05
1.31395e-05
1.3053e-05
1.30075e-05
1.30311e-05
1.31359e-05
1.33222e-05
0.000123175
1.22647e-05
8.42835e-06
8.56436e-06
8.61248e-06
8.66065e-06
8.71843e-06
8.80676e-06
8.93095e-06
9.09566e-06
0.000111765
0.0274783
0.00232697
0.00270878
0.00282509
0.00269593
0.00263936
0.00241918
0.00239228
0.00206854
0.00199012
0.00840801
0.00180572
0.00190966
0.00186833
0.00182154
0.00177427
0.0016909
0.00156662
0.0013741
0.0010682
0.00263841
0.000806489
0.000829138
0.000802181
0.000772209
0.000746457
0.000725847
0.000756641
0.000707771
0.000528452
0.00103518
0.000390856
0.000393994
0.000378977
0.000364042
0.000351543
0.000341734
0.000334557
0.000396613
0.000363867
0.000429261
0.000190046
0.000188972
0.000181352
0.000174157
0.000168242
0.00016373
0.000160576
0.000195092
0.000256826
0.000182358
9.14463e-05
9.02269e-05
8.66835e-05
8.34195e-05
8.07734e-05
7.88267e-05
7.75637e-05
0.00011774
0.000206285
7.86015e-05
4.36768e-05
4.30137e-05
4.15315e-05
4.01856e-05
3.9115e-05
3.83692e-05
3.79489e-05
3.7671e-05
0.000138639
3.54469e-05
2.15163e-05
2.1302e-05
2.07819e-05
2.03134e-05
1.99552e-05
1.97334e-05
1.96499e-05
3.55249e-05
0.000124721
1.91378e-05
1.24645e-05
1.25016e-05
1.23925e-05
1.22953e-05
1.22407e-05
1.22454e-05
1.23156e-05
1.24407e-05
8.43992e-05
1.21574e-05
7.99842e-06
8.12127e-06
8.14691e-06
8.17086e-06
8.21148e-06
8.27874e-06
8.37723e-06
8.9808e-06
7.8918e-05
0.0246738
0.00191485
0.00220265
0.00232154
0.00222815
0.00220882
0.00204102
0.00206565
0.00180151
0.0018203
0.00732467
0.00149111
0.00154144
0.00152526
0.00148626
0.00143393
0.00136862
0.00128748
0.00117507
0.000990086
0.0023385
0.000660398
0.000681361
0.000659981
0.000635304
0.000613758
0.000624375
0.000620655
0.000581701
0.000476321
0.00093564
0.000328487
0.000332131
0.000319613
0.000306912
0.000296146
0.00028753
0.000281002
0.000314505
0.000296514
0.000394656
0.000163619
0.000163106
0.000156525
0.000150246
0.000145022
0.000140925
0.0001379
0.000156973
0.000193606
0.000170079
8.04092e-05
7.95048e-05
7.63653e-05
7.346e-05
7.10783e-05
6.92595e-05
6.79756e-05
0.000101482
0.000151876
7.42372e-05
3.91367e-05
3.86109e-05
3.72699e-05
3.60477e-05
3.50641e-05
3.43416e-05
3.38688e-05
3.3475e-05
9.51803e-05
3.38271e-05
1.95936e-05
1.94199e-05
1.89325e-05
1.84939e-05
1.81524e-05
1.7922e-05
1.77957e-05
3.64935e-05
9.05846e-05
1.83772e-05
1.14763e-05
1.15063e-05
1.13852e-05
1.12757e-05
1.12065e-05
1.11859e-05
1.12165e-05
1.1282e-05
5.47991e-05
1.18083e-05
7.40888e-06
7.51389e-06
7.51572e-06
7.51859e-06
7.53724e-06
7.57881e-06
7.64659e-06
1.10306e-05
5.36672e-05
0.0218148
0.00156688
0.00176918
0.00187751
0.00180342
0.00179874
0.00165762
0.00170484
0.00146913
0.00152518
0.00621019
0.00119595
0.00122534
0.00120181
0.00116491
0.00112185
0.00107549
0.00102411
0.000959002
0.000841374
0.00200891
0.000523852
0.000542209
0.000525786
0.000508005
0.000513692
0.0005107
0.000494148
0.000463214
0.000397392
0.000818009
0.000266755
0.000270463
0.00026037
0.000249896
0.000240908
0.0002336
0.000227916
0.000242433
0.000232934
0.000350981
0.000136041
0.000135913
0.000130404
0.000125079
0.000120597
0.000117004
0.000114245
0.000123038
0.000143614
0.000153597
6.83167e-05
6.76631e-05
6.49561e-05
6.24329e-05
6.03398e-05
5.86957e-05
5.74681e-05
8.34869e-05
0.00011026
6.79827e-05
3.39168e-05
3.35044e-05
3.23154e-05
3.12285e-05
3.03402e-05
2.96612e-05
2.91753e-05
2.87288e-05
6.22166e-05
3.13579e-05
1.72847e-05
1.7142e-05
1.66924e-05
1.62847e-05
1.59619e-05
1.57266e-05
1.55707e-05
3.35452e-05
6.46508e-05
1.71885e-05
1.02652e-05
1.0286e-05
1.01547e-05
1.00358e-05
9.95168e-06
9.90645e-06
9.89934e-06
9.91167e-06
3.35259e-05
1.11945e-05
6.671e-06
6.75714e-06
6.73877e-06
6.72166e-06
6.71908e-06
6.7361e-06
6.77207e-06
1.02138e-05
3.56159e-05
0.0182985
0.00118537
0.00131804
0.00142649
0.00138553
0.00140919
0.00130998
0.00139726
0.00120278
0.0013016
0.00509604
0.000880023
0.000909656
0.000894348
0.00087106
0.000842777
0.000813773
0.000783237
0.000746238
0.00066667
0.00169896
0.000437775
0.000453193
0.000441967
0.000429598
0.000416935
0.000401961
0.000382253
0.000357293
0.000312877
0.000689738
0.000208761
0.000212216
0.000204395
0.000196078
0.000188853
0.000182898
0.000178167
0.000180538
0.000176181
0.000300997
0.000108925
0.000109044
0.000104605
0.000100249
9.65399e-05
9.35097e-05
9.11119e-05
9.46611e-05
0.000104753
0.000133854
5.59052e-05
5.54507e-05
5.31972e-05
5.10763e-05
4.92956e-05
4.78597e-05
4.91944e-05
6.68069e-05
7.91704e-05
6.01374e-05
2.83292e-05
2.80106e-05
2.69902e-05
2.60493e-05
2.52682e-05
2.46502e-05
2.41773e-05
2.37153e-05
3.85269e-05
2.81211e-05
1.47138e-05
1.45968e-05
1.41924e-05
1.3824e-05
1.35242e-05
1.32921e-05
1.77393e-05
2.9542e-05
4.60089e-05
1.55848e-05
8.87924e-06
8.89e-06
8.75557e-06
8.63353e-06
8.53936e-06
8.47508e-06
8.43835e-06
8.40811e-06
1.88499e-05
1.031e-05
5.81092e-06
5.87788e-06
5.84374e-06
5.8116e-06
5.79218e-06
5.78698e-06
5.79701e-06
8.47569e-06
2.33259e-05
0.0161149
0.00092336
0.000958128
0.0010002
0.000914775
0.000883346
0.000744673
0.00079677
0.000566214
0.000639777
0.00401745
0.000616845
0.000659858
0.000652103
0.00063468
0.000617657
0.000603542
0.000592596
0.000581838
0.00053657
0.00133905
0.000342752
0.000363809
0.000355538
0.00034071
0.000324312
0.000306843
0.000287719
0.000266922
0.000233962
0.000558048
0.000156741
0.000159732
0.00015396
0.000147655
0.000142107
0.000137474
0.000133724
0.000129872
0.000127539
0.000247698
8.36049e-05
8.38599e-05
8.04433e-05
7.70351e-05
7.40985e-05
7.16612e-05
6.9684e-05
7.16844e-05
7.49579e-05
0.000112003
4.38566e-05
4.3558e-05
4.17621e-05
4.00524e-05
3.85993e-05
3.74026e-05
4.59279e-05
5.22716e-05
5.61192e-05
5.11221e-05
2.26928e-05
2.24553e-05
2.16137e-05
2.08313e-05
2.01714e-05
1.96323e-05
1.92004e-05
1.87587e-05
2.21268e-05
2.42639e-05
1.20237e-05
1.19286e-05
1.15805e-05
1.12593e-05
1.09919e-05
1.48107e-05
2.08004e-05
2.56299e-05
3.29946e-05
1.3616e-05
7.38385e-06
7.38673e-06
7.25771e-06
7.1389e-06
7.04223e-06
6.96791e-06
6.91271e-06
6.85455e-06
9.12705e-06
9.16843e-06
4.86615e-06
4.9156e-06
4.87228e-06
4.83075e-06
4.79978e-06
4.77945e-06
4.77042e-06
6.61242e-06
1.51712e-05
0.0121082
0.000960392
0.00111024
0.00131071
0.00139639
0.00149385
0.00146348
0.00158854
0.00138388
0.00147343
0.00300823
0.000426065
0.000443668
0.000424085
0.000397421
0.00037184
0.000349744
0.000331426
0.000315315
0.000284507
0.000968364
0.000230972
0.000267655
0.000268979
0.000258675
0.000244197
0.000228041
0.000211141
0.000194085
0.000168852
0.000429702
0.000112006
0.000114403
0.000110385
0.000105878
0.000101863
9.84694e-05
9.56707e-05
9.27054e-05
8.73494e-05
0.000194138
6.10786e-05
6.13755e-05
5.8887e-05
5.63589e-05
5.4155e-05
5.23005e-05
5.07632e-05
5.33827e-05
5.2434e-05
8.93284e-05
3.27494e-05
3.25659e-05
3.12083e-05
2.98999e-05
3.07206e-05
3.68114e-05
3.93051e-05
3.98719e-05
3.90645e-05
4.14561e-05
1.7308e-05
1.71378e-05
1.64789e-05
1.58599e-05
1.53306e-05
1.48873e-05
1.45187e-05
1.41281e-05
1.29987e-05
0.000226087
8.01228e-05
3.40443e-05
2.37386e-05
2.15383e-05
2.13529e-05
2.18069e-05
2.15801e-05
2.22833e-05
2.4136e-05
1.13687e-05
5.85587e-06
5.85354e-06
5.73802e-06
5.63043e-06
5.53979e-06
5.46461e-06
5.40201e-06
5.33141e-06
5.21377e-06
7.80899e-06
3.88469e-06
3.9186e-06
3.87297e-06
3.82864e-06
3.79311e-06
3.76422e-06
3.73973e-06
4.84168e-06
9.66656e-06
0.000168641
0.00128089
0.00176544
0.00192907
0.00200475
0.00194048
0.00187609
0.00162589
0.00159789
0.00126219
0.00222589
0.000388199
0.000440113
0.000465847
0.000479789
0.000484851
0.000482569
0.000474525
0.000461455
0.000445956
0.000630262
0.000122702
0.000183553
0.000195757
0.000190708
0.000178067
0.000162222
0.000145333
0.000128357
0.00010523
0.000312321
7.56836e-05
7.73734e-05
7.46643e-05
7.15621e-05
6.87848e-05
6.64393e-05
6.45083e-05
6.24262e-05
5.70417e-05
0.000143348
4.20375e-05
4.23089e-05
4.06107e-05
3.88484e-05
3.7958e-05
3.92302e-05
3.93289e-05
3.86867e-05
3.55494e-05
0.000135129
6.09772e-05
4.43076e-05
3.79788e-05
3.55346e-05
3.42322e-05
3.29885e-05
3.10666e-05
2.91481e-05
2.63331e-05
3.17139e-05
1.24305e-05
1.23139e-05
1.18303e-05
1.13717e-05
1.09736e-05
1.06335e-05
1.03416e-05
1.00221e-05
9.08901e-06
0.000650446
0.000283311
0.000129213
6.95983e-05
4.40122e-05
3.18163e-05
2.55343e-05
2.13954e-05
1.96592e-05
1.82852e-05
8.96345e-06
4.37694e-06
4.37175e-06
4.27647e-06
4.18678e-06
4.10972e-06
4.04191e-06
3.98073e-06
3.91083e-06
3.75822e-06
6.29721e-06
2.92032e-06
2.94165e-06
2.90001e-06
2.85922e-06
2.82413e-06
2.79387e-06
2.735e-06
3.20896e-06
5.67971e-06
0.0694941
0.00756416
0.00808235
0.00753577
0.00671296
0.00583804
0.00499635
0.00422134
0.00340716
0.00290532
0.000319295
0.000273057
0.000329876
0.000366382
0.000374218
0.000356266
0.000319236
0.000269731
0.000212702
0.000159722
0.000253977
5.98623e-06
0.000116242
0.000150774
0.000158153
0.000151317
0.000137683
0.000121452
0.000104336
8.12144e-05
0.000207491
4.69098e-05
4.80423e-05
4.64852e-05
4.46096e-05
4.28607e-05
4.1315e-05
3.99847e-05
3.85226e-05
3.4795e-05
0.000112058
4.09231e-05
3.9437e-05
3.67217e-05
3.43055e-05
3.22086e-05
3.02639e-05
2.82867e-05
2.63549e-05
2.28045e-05
0.000141023
7.50393e-05
5.19928e-05
3.98968e-05
3.28451e-05
2.81916e-05
2.47633e-05
2.18336e-05
1.95128e-05
1.65764e-05
2.2479e-05
8.25123e-06
8.17534e-06
7.84947e-06
7.53576e-06
7.2616e-06
7.02165e-06
6.81076e-06
6.57085e-06
5.86128e-06
0.00108481
0.000474576
0.000209903
0.00010429
5.88691e-05
3.76026e-05
2.6797e-05
2.04191e-05
1.73155e-05
1.42842e-05
6.54687e-06
3.02453e-06
3.01834e-06
2.94714e-06
2.87937e-06
2.8199e-06
2.76527e-06
2.71545e-06
2.65443e-06
2.50086e-06
4.7198e-06
2.02665e-06
2.03729e-06
2.00439e-06
1.97134e-06
1.94199e-06
1.91589e-06
1.89268e-06
1.89602e-06
2.81618e-06
0.269539
0.0117191
0.0116253
0.0099021
0.00805185
0.00640497
0.00501345
0.00385342
0.00298743
0.00206935
0.00383167
0.00150271
0.00146643
0.00135128
0.00119699
0.00102732
0.000856298
0.000690602
0.000530624
0.000387411
0.000117208
0.000149306
4.43094e-06
5.13482e-05
6.88905e-05
7.15468e-05
6.77301e-05
6.20468e-05
5.65088e-05
4.94532e-05
0.000127277
2.65932e-05
2.73197e-05
2.63644e-05
2.51333e-05
2.39286e-05
2.27935e-05
2.16914e-05
2.0335e-05
1.73975e-05
7.48424e-05
3.01417e-05
2.88741e-05
2.61052e-05
2.34165e-05
2.10502e-05
1.89961e-05
1.71785e-05
1.55348e-05
1.29296e-05
9.24897e-05
5.13978e-05
3.52739e-05
2.6287e-05
2.07744e-05
1.71053e-05
1.44937e-05
1.24709e-05
1.09443e-05
9.03095e-06
1.42736e-05
4.88575e-06
4.83627e-06
4.64082e-06
4.45261e-06
4.28453e-06
4.13565e-06
4.00039e-06
3.84028e-06
3.35399e-06
0.0013221
0.000571263
0.00024236
0.000113716
5.97835e-05
3.54231e-05
2.3486e-05
1.69372e-05
1.36533e-05
1.04828e-05
4.27919e-06
1.86197e-06
1.85591e-06
1.80956e-06
1.76554e-06
1.72539e-06
1.68826e-06
1.65239e-06
1.60732e-06
1.47846e-06
3.17969e-06
1.2501e-06
1.25304e-06
1.23025e-06
1.20811e-06
1.18761e-06
1.16835e-06
1.06544e-06
1.18536e-06
1.65279e-06
0.481169
0.00451552
0.00438622
0.00383122
0.00320649
0.00260674
0.00206367
0.00160466
0.000992043
0.000740877
0.00317352
0.00212389
0.00180202
0.00145028
0.00113027
0.00085379
0.000617431
0.000412989
0.000230299
7.33887e-05
6.2873e-05
0.000147461
2.38182e-05
6.92128e-05
8.0508e-05
7.37385e-05
5.83735e-05
3.91111e-05
1.74922e-05
6.59998e-06
5.88731e-05
1.1194e-05
1.15015e-05
1.15334e-05
1.16478e-05
1.18935e-05
1.2286e-05
1.28509e-05
1.34685e-05
1.30642e-05
3.68555e-05
1.33964e-05
1.28366e-05
1.15861e-05
1.03446e-05
9.23304e-06
8.26436e-06
7.41287e-06
6.61135e-06
5.33943e-06
3.48019e-05
1.8959e-05
1.33309e-05
1.00951e-05
8.04362e-06
6.66975e-06
5.70315e-06
4.98482e-06
4.44477e-06
3.69813e-06
7.50609e-06
2.35952e-06
2.32572e-06
2.23175e-06
2.1403e-06
2.0583e-06
1.9833e-06
1.91321e-06
1.82445e-06
1.54346e-06
0.000866455
0.000389741
0.000159471
7.20866e-05
3.62332e-05
2.0511e-05
1.30577e-05
9.18257e-06
7.24593e-06
5.48551e-06
2.30884e-06
9.3274e-07
9.27121e-07
9.03324e-07
8.80545e-07
8.59175e-07
8.39576e-07
8.19221e-07
7.92396e-07
7.05117e-07
8.57463e-05
8.61731e-05
5.7576e-05
3.28886e-05
1.74863e-05
8.58615e-06
3.59257e-06
7.77082e-07
9.95843e-07
2.50416e-06
0.0965121
0.00453021
0.00378593
0.00303147
0.0023708
0.00181746
0.00135679
0.000975869
0.000656285
0.000416636
0.000381024
0.000448833
0.000387495
0.000313004
0.00024043
0.000173489
0.000112077
5.46617e-05
9.85395e-07
5.39273e-05
0.000111502
5.494e-05
5.12021e-06
6.39912e-06
1.27223e-05
1.63362e-05
1.90864e-05
2.18831e-05
2.50162e-05
2.69893e-05
1.8387e-05
3.87467e-06
3.62947e-06
3.21673e-06
2.7734e-06
2.32199e-06
1.85446e-06
1.36574e-06
8.18049e-07
1.32941e-07
9.87518e-06
3.02272e-06
2.94756e-06
2.7647e-06
2.58163e-06
2.41674e-06
2.27513e-06
2.15043e-06
2.01728e-06
1.69354e-06
5.59011e-06
2.59057e-06
2.08837e-06
1.77468e-06
1.55215e-06
1.39185e-06
1.27242e-06
1.17945e-06
1.09712e-06
9.27055e-07
2.36326e-06
7.7453e-07
7.53545e-07
7.22153e-07
6.9277e-07
6.6617e-07
6.40382e-07
6.16537e-07
5.82471e-07
4.68838e-07
7.64536e-05
5.81074e-05
2.41496e-05
1.12733e-05
5.79812e-06
3.37375e-06
2.22739e-06
1.64459e-06
1.35463e-06
1.12057e-06
7.48383e-07
3.15022e-07
3.09905e-07
3.02029e-07
2.94019e-07
2.87151e-07
2.80315e-07
2.73024e-07
2.61794e-07
2.23039e-07
0.000202442
0.000118111
6.95728e-05
3.84828e-05
2.0114e-05
9.7551e-06
4.04371e-06
8.62989e-07
1.06068e-06
2.61458e-06
1.23892
1.25406
1.44942
1.87653
0.940445
0.994143
1.19172
1.75878
0.519642
0.503585
0.703048
1.15921
0.217985
0.185297
0.328823
0.582434
0.0621041
0.0478858
0.106458
0.195355
0.00223906
0.00010349
0.00204188
0.00426628
0.0249615
0.0141345
0.0352443
0.0778361
0.0311933
0.0171489
0.0455964
0.107405
0.0318846
0.0167469
0.0483892
0.120691
0.0290275
0.0144142
0.0474358
0.124796
0.11957
0.0409011
0.00168364
0.0781178
0.128531
0.0427174
0.00722604
0.0552847
0.086231
0.0275252
0.00524426
0.0320383
0.0433381
0.0126142
0.000337175
0.02274
0.0142478
0.0031165
0.00128357
0.00997823
0.00161736
0.000459789
0.000542642
0.000249077
0.00889524
0.000754123
0.000259186
0.000378769
0.0119334
0.00012162
0.000105596
0.000106293
0.0136383
3.79676e-05
4.02706e-05
3.96129e-05
0.0139804
1.6338e-05
1.63869e-05
1.58621e-05
0.120182
0.115981
0.113182
0.141358
0.0990754
0.0899211
0.0869034
0.119901
0.0596709
0.0517403
0.0523096
0.0737796
0.0275787
0.0230609
0.0258172
0.0374183
0.00828347
0.00707815
0.0091666
0.0142036
0.00160582
0.000246562
0.00041755
0.00138666
0.00647013
0.00364582
0.00386704
0.00528317
0.00877646
0.00509691
0.00550844
0.00785732
0.0104849
0.00587944
0.00622861
0.00895442
0.0124092
0.00665965
0.00700487
0.00896897
0.0321673
0.0383765
0.0407454
0.0436447
0.027279
0.028167
0.0305123
0.0374951
0.0174051
0.0169164
0.0192297
0.025275
0.0081952
0.00790777
0.0094303
0.0135703
0.00223841
0.00245652
0.00315414
0.00523138
0.00108778
0.000268631
6.89323e-05
0.000586425
0.00282586
0.00150533
0.00118578
0.00158591
0.0037314
0.0020054
0.00150958
0.00239001
0.0043497
0.00210753
0.00134157
0.00253876
0.00452962
0.00173307
0.000773472
0.00210233
0.0141027
0.0186212
0.0199931
0.0214333
0.0114876
0.013981
0.0164161
0.0202582
0.00680385
0.00831751
0.0102142
0.0133455
0.00290366
0.00395136
0.00505169
0.00705627
0.000517885
0.00120925
0.00172031
0.00272288
0.000809449
0.000227375
5.58965e-05
0.000388516
0.00155138
0.000970361
0.000723789
0.00080837
0.00199882
0.00134371
0.00101136
0.00132655
0.00238472
0.00153907
0.00102581
0.00150627
0.00260053
0.00155864
0.000907785
0.00148571
0.00372919
0.00641198
0.0073048
0.00817754
0.00418568
0.00628183
0.007929
0.01001
0.00244595
0.00376433
0.00499944
0.00676091
0.000843279
0.00179479
0.00255021
0.00363953
8.52143e-05
0.000511158
0.000879523
0.00142485
0.00059214
0.000187398
1.6346e-05
0.000221195
0.000879126
0.000569529
0.00040695
0.000410608
0.00107244
0.000780214
0.000575576
0.000694672
0.00126719
0.000916185
0.000592437
0.000802369
0.0013088
0.000925334
0.000545629
0.000852333
0.000434349
0.00123016
0.00176643
0.00229132
0.000788689
0.00243172
0.00334544
0.00441669
0.000706314
0.0017029
0.00244058
0.00340375
8.62981e-05
0.000810775
0.00129602
0.00186772
0.000261943
0.000195669
0.000450079
0.000738048
0.00045062
0.000153536
6.43503e-06
0.000115551
0.000561213
0.000362842
0.00025543
0.000232544
0.00065
0.000493789
0.000372625
0.000403915
0.000760127
0.000598629
0.00040535
0.000482614
0.000751584
0.000614952
0.000415469
0.000557344
0.00216311
0.00105332
0.000751494
0.000460595
0.00091597
0.000311
0.000774467
0.0012769
0.000131707
0.000611404
0.00101938
0.00152737
0.000235486
0.000300062
0.000586869
0.000872142
0.000306871
3.5247e-05
0.000197581
0.000345074
0.000350224
0.000127641
2.66392e-05
4.31911e-05
0.000378672
0.000236282
0.000164491
0.000140007
0.000415814
0.000314564
0.00024021
0.000239832
0.000476722
0.000388255
0.000272158
0.000295986
0.000452289
0.000401285
0.000302671
0.000367607
0.00266584
0.00187763
0.0017128
0.00155548
0.00153885
0.000607941
0.000377378
0.000172267
0.000516827
5.02825e-05
0.000265026
0.000520828
0.000369619
3.51544e-05
0.000195442
0.000325531
0.000305358
4.48484e-05
5.32679e-05
0.00012598
0.000279073
0.000107946
4.02781e-05
9.48607e-07
0.000268531
0.000160451
0.000111528
9.2038e-05
0.000280359
0.000207113
0.000159201
0.000149849
0.000308371
0.000252056
0.00018127
0.000184787
0.000286919
0.000263836
0.000216079
0.000244414
0.00260619
0.00202284
0.00193338
0.00184832
0.00162007
0.000900587
0.000786318
0.000730718
0.000635197
0.000198878
8.94662e-05
3.38276e-05
0.000400239
9.24627e-05
8.00655e-06
3.93186e-05
0.000280233
8.11247e-05
2.54874e-05
5.82137e-06
0.000223296
9.08965e-05
4.74149e-05
2.66791e-05
0.000194458
0.000110979
7.79555e-05
6.44392e-05
0.000193532
0.000137859
0.000105858
9.58731e-05
0.000201022
0.0001605
0.000116335
0.000112872
0.000187031
0.000172545
0.000149173
0.000160423
0.00229986
0.00186123
0.00181536
0.00177217
0.0014637
0.000906398
0.000851248
0.000870004
0.000605383
0.000269186
0.000212849
0.000152515
0.000368919
0.000135182
9.24029e-05
8.4734e-05
0.000239859
8.87767e-05
5.88487e-05
4.8993e-05
0.000175454
7.41025e-05
4.73173e-05
3.77689e-05
0.000140196
7.63099e-05
5.49192e-05
4.65393e-05
0.000133712
9.0956e-05
6.97113e-05
6.15741e-05
0.000131554
0.000100405
7.2441e-05
6.72698e-05
0.000123669
0.000111984
0.000100099
0.000103286
0.00187537
0.00153654
0.00150722
0.00148633
0.00122227
0.000796382
0.000772762
0.000828492
0.000511537
0.000255693
0.0002258
0.000194011
0.000308919
0.000133232
0.000112357
0.000121152
0.00019347
8.01766e-05
6.46976e-05
6.43496e-05
0.000134046
5.77925e-05
4.18153e-05
3.83647e-05
9.92945e-05
5.14955e-05
3.84091e-05
3.39119e-05
9.15161e-05
5.89771e-05
4.53265e-05
3.95749e-05
8.56525e-05
6.13064e-05
4.36218e-05
3.88528e-05
8.21554e-05
7.19305e-05
6.55581e-05
6.50062e-05
0.00161399
0.00135227
0.00134152
0.00134188
0.000952406
0.000634384
0.000627304
0.000702643
0.000399161
0.000209458
0.000192766
0.000173243
0.000241284
0.000112217
0.000102783
0.000116976
0.000148138
6.48182e-05
5.70831e-05
5.99757e-05
9.91997e-05
4.30777e-05
3.37658e-05
3.31773e-05
6.8645e-05
3.3942e-05
2.64715e-05
2.46e-05
6.19477e-05
3.76598e-05
2.9258e-05
2.57258e-05
5.4826e-05
3.60727e-05
2.50731e-05
2.13995e-05