/*--------------------------------*- C++ -*----------------------------------*\
| =========                 |                                                 |
| \\      /  F ield         | foam-extend: Open Source CFD                    |
|  \\    /   O peration     | Version:     4.0                                |
|   \\  /    A nd           | Web:         http://www.foam-extend.org         |
|    \\/     M anipulation  |                                                 |
\*---------------------------------------------------------------------------*/
FoamFile
{
    version     2.0;
    format      ascii;
    class       surfaceScalarField;
    location    "3800";
    object      phi;
}
// * * * * * * * * * * * * * * * * * * * * * * * * * * * * * * * * * * * * * //

dimensions      [1 0 -1 0 0 0 0];

internalField   nonuniform List<scalar> 
97302
(
-0.000109159
5.33192e-06
-0.000614711
0.000631516
-0.000133909
5.79799e-06
-0.000618302
0.000637255
-0.000162523
6.22115e-06
-0.000621116
0.000643509
-0.000196839
6.63526e-06
-0.000623149
0.00065083
-0.000239382
7.05911e-06
-0.000624257
0.00065974
-0.000293226
7.47635e-06
-0.000623703
0.000670071
-0.000361122
7.79437e-06
-0.000619434
0.000679535
-0.00044235
7.7883e-06
-0.000606795
0.000680236
-0.000532909
7.05864e-06
-0.000575102
0.000658601
4.58611e-06
-0.000491038
-0.000669236
0.00062278
-0.000137843
7.91683e-06
-0.000859743
0.000875228
-0.0001581
8.81096e-06
-0.000865521
0.000882765
-0.000181384
9.47951e-06
-0.000870275
0.000890301
-0.000209471
9.98751e-06
-0.000873842
0.000898577
-0.000245386
1.03791e-05
-0.000876512
0.000909106
-0.00029353
1.06555e-05
-0.000878131
0.000923096
-0.000359412
1.07281e-05
-0.000876871
0.00093982
-0.000446172
1.03272e-05
-0.000867452
0.000951673
-0.000549438
8.8488e-06
-0.000836516
0.000937992
4.59678e-06
-0.000726328
-0.000721815
0.000898695
-0.000168266
8.43873e-06
-0.00110358
0.0011182
-0.000185284
9.69508e-06
-0.00111156
0.0011277
-0.000204954
1.06179e-05
-0.00111852
0.00113706
-0.000228894
1.12818e-05
-0.00112432
0.00114697
-0.000260228
1.17312e-05
-0.00112925
0.00115923
-0.00030416
1.19826e-05
-0.00113379
0.0011764
-0.000367982
1.19592e-05
-0.00113686
0.00119945
-0.000457888
1.13576e-05
-0.00113287
0.00122174
-0.000569509
9.37503e-06
-0.00110629
0.00121739
3.59179e-06
-0.000974926
-0.000767608
0.00117403
-0.000199694
8.52685e-06
-0.00134391
0.00135783
-0.000215525
1.00054e-05
-0.0013554
0.00137092
-0.000233884
1.10874e-05
-0.0013659
0.00138379
-0.000256175
1.18426e-05
-0.00137523
0.00139696
-0.000285328
1.22926e-05
-0.00138336
0.00141195
-0.000326784
1.24461e-05
-0.00139103
0.00143202
-0.000389034
1.22316e-05
-0.0013979
0.00145988
-0.000480726
1.13276e-05
-0.00139911
0.00149083
-0.00059759
8.70153e-06
-0.00137792
0.00149546
1.11013e-06
-0.00122758
-0.000811545
0.00144402
-0.000233301
8.44495e-06
-0.00158429
0.00159775
-0.000248478
9.97931e-06
-0.00159973
0.00161493
-0.000266124
1.1077e-05
-0.00161422
0.00163188
-0.000287475
1.18069e-05
-0.00162752
0.00164891
-0.000315264
1.21761e-05
-0.00163936
0.00166726
-0.000354966
1.21736e-05
-0.0016504
0.00169037
-0.00041592
1.17251e-05
-0.00166095
0.00172241
-0.000508794
1.05005e-05
-0.00166726
0.00176096
-0.000629459
7.19211e-06
-0.00165189
0.00177407
-2.36921e-06
-0.00148266
-0.000852993
0.00170967
-0.000269428
8.23505e-06
-0.00182312
0.0018362
-0.000284093
9.66587e-06
-0.00184268
0.00185766
-0.000301178
1.06445e-05
-0.00186118
0.00187869
-0.000321809
1.12427e-05
-0.00187844
0.00189963
-0.000348557
1.14581e-05
-0.00189405
0.00192152
-0.000386862
1.12686e-05
-0.0019085
0.00194771
-0.000446697
1.06123e-05
-0.00192254
0.00198348
-0.000540585
9.19743e-06
-0.00193353
0.00202872
-0.000665167
5.48534e-06
-0.00192343
0.00204972
-5.67762e-06
-0.00173226
-0.000898881
0.00196928
-0.000307429
8.00697e-06
-0.00206109
0.0020738
-0.000321633
9.13897e-06
-0.00208442
0.00209915
-0.000338172
9.8594e-06
-0.00210653
0.00212386
-0.000358076
1.02126e-05
-0.00212731
0.00214825
-0.000383748
1.01876e-05
-0.00214637
0.00217332
-0.000420498
9.7656e-06
-0.00216401
0.00220227
-0.000478727
8.95215e-06
-0.00218144
0.00224133
-0.00057266
7.58482e-06
-0.00219734
0.00229289
-0.000700062
4.02376e-06
-0.00219336
0.00232222
-7.87646e-06
-0.00198027
-0.000942651
0.00222506
-0.000348439
7.22824e-06
-0.00229925
0.00231188
-0.000361994
7.89551e-06
-0.00232594
0.00234074
-0.000377839
8.29979e-06
-0.00235103
0.00236844
-0.000396922
8.41165e-06
-0.00237475
0.00239563
-0.000421418
8.18924e-06
-0.00239667
0.00242316
-0.000456338
7.60428e-06
-0.00241695
0.00245403
-0.000512199
6.76652e-06
-0.00243725
0.0024953
-0.000604743
5.74058e-06
-0.00245795
0.00255234
-0.000733301
3.12747e-06
-0.00246158
0.00259104
-8.1261e-06
-0.00222915
-0.000982709
0.00247881
-0.000390221
5.0566e-06
-0.00253426
0.002547
-0.000402693
5.04722e-06
-0.00256346
0.00257878
-0.000417624
4.98846e-06
-0.00259091
0.00260916
-0.00043607
4.77479e-06
-0.00261752
0.0026396
-0.000459984
4.37133e-06
-0.00264307
0.0026708
-0.000493692
3.73225e-06
-0.00266731
0.00270489
-0.000547096
3.0488e-06
-0.00269126
0.00274838
-0.000636959
2.61516e-06
-0.00271672
0.00280971
-0.000764505
1.67028e-06
-0.0027287
0.00285771
-7.24323e-06
-0.00248151
-0.00101449
0.00273061
-0.00043259
-0.00275431
0.00276792
-0.000443464
-0.00278615
0.00280208
-0.000456895
-0.00281618
0.00283459
-0.000474059
-0.00284526
0.0028672
-0.000496868
-0.00287307
0.00290025
-0.000529216
-0.0028996
0.00293567
-0.00057985
-0.00292624
0.00297993
-0.000665249
-0.0029571
0.00304512
-0.000788331
-0.00298302
0.00310777
-0.0027397
-0.00103719
0.00298131
1.23279e-05
5.38525e-06
-0.000599575
-1.0115e-05
5.84991e-06
-0.00060171
-3.49042e-05
6.2382e-06
-0.000602565
-6.26635e-05
6.55735e-06
-0.000601947
-9.43061e-05
6.80264e-06
-0.000599417
-0.000130716
6.94153e-06
-0.000594234
-0.000171781
6.90113e-06
-0.00058527
-0.000214224
6.53608e-06
-0.000570889
-0.000247647
5.58678e-06
-0.000547265
3.53374e-06
-0.000505124
-0.000237095
2.25629e-05
7.97567e-06
-0.0008444
2.61295e-06
8.9288e-06
-0.00084865
-1.9645e-05
9.63727e-06
-0.000851416
-4.47836e-05
1.01314e-05
-0.000852278
-7.41135e-05
1.04169e-05
-0.000850796
-0.000109741
1.04682e-05
-0.00084603
-0.000153793
1.02154e-05
-0.000836134
-0.00020617
9.47671e-06
-0.000818015
-0.000259403
7.89605e-06
-0.000785592
4.63569e-06
-0.000720942
-0.00026589
3.21702e-05
8.48962e-06
-0.00108821
1.43767e-05
9.88675e-06
-0.00109473
-5.77935e-06
1.09329e-05
-0.00109966
-2.90251e-05
1.16736e-05
-0.00110262
-5.67758e-05
1.21053e-05
-0.00110319
-9.18284e-05
1.2203e-05
-0.00110048
-0.000138167
1.18971e-05
-0.00109221
-0.000198833
1.09677e-05
-0.00107369
-0.000270199
8.91814e-06
-0.00103595
4.4964e-06
-0.000947981
-0.000297005
4.14838e-05
8.43284e-06
-0.00132865
2.42927e-05
1.01604e-05
-0.00133848
4.58621e-06
1.14749e-05
-0.00134673
-1.84078e-05
1.24206e-05
-0.00135298
-4.60997e-05
1.29744e-05
-0.00135654
-8.14773e-05
1.30882e-05
-0.00135654
-0.000129749
1.26793e-05
-0.00135041
-0.000197089
1.15092e-05
-0.00133231
-0.000284532
8.93408e-06
-0.00129049
3.21672e-06
-0.00117862
-0.000332211
4.89279e-05
8.14505e-06
-0.00156908
3.19254e-05
1.00589e-05
-0.00158263
1.23085e-05
1.15189e-05
-0.00159465
-1.07372e-05
1.25695e-05
-0.00160463
-3.86292e-05
1.31808e-05
-0.00161167
-7.44019e-05
1.32754e-05
-0.00161481
-0.000124118
1.27475e-05
-0.0016113
-0.000196827
1.13497e-05
-0.00159439
-0.000298338
8.27144e-06
-0.00154972
1.2153e-06
-0.00141361
-0.000365387
5.41351e-05
7.66989e-06
-0.0018079
3.72564e-05
9.62358e-06
-0.00182537
1.77112e-05
1.11089e-05
-0.00184122
-5.35656e-06
1.21751e-05
-0.00185498
-3.33756e-05
1.27893e-05
-0.00186564
-6.94092e-05
1.28575e-05
-0.00187205
-0.000120136
1.2259e-05
-0.00187132
-0.000197079
1.07634e-05
-0.001856
-0.000310493
7.41991e-06
-0.00180917
-7.05925e-07
-0.00164784
-0.000392989
5.70876e-05
7.07531e-06
-0.00204588
4.03823e-05
8.87615e-06
-0.00206697
2.10375e-05
1.02561e-05
-0.00208633
-1.82791e-06
1.12454e-05
-0.00210352
-2.9645e-05
1.18071e-05
-0.00211757
-6.54726e-05
1.18383e-05
-0.00212717
-0.000116457
1.12351e-05
-0.00212944
-0.000196351
9.84652e-06
-0.00211653
-0.000319844
6.67929e-06
-0.00206913
-2.08727e-06
-0.00188328
-0.000415454
5.7495e-05
5.89639e-06
-0.00228385
4.12755e-05
7.34428e-06
-0.00230819
2.24668e-05
8.53223e-06
-0.0023305
1.66125e-07
9.43228e-06
-0.00235064
-2.70179e-05
9.9932e-06
-0.00236767
-6.20697e-05
1.00889e-05
-0.00238015
-0.000112396
9.65997e-06
-0.00238535
-0.000193736
8.67644e-06
-0.00237544
-0.000325726
6.39123e-06
-0.0023293
-2.25298e-06
-0.00212087
-0.000433839
5.58595e-05
3.41223e-06
-0.00251853
4.06931e-05
4.24198e-06
-0.00254519
2.29445e-05
5.03828e-06
-0.00256967
1.52982e-06
5.68497e-06
-0.00259236
-2.5049e-05
6.17751e-06
-0.00261268
-5.95977e-05
6.37904e-06
-0.00262905
-0.000109159
6.28708e-06
-0.00263833
-0.000190799
5.98884e-06
-0.00263239
-0.000329961
5.37371e-06
-0.00258852
-1.41581e-06
-0.00235919
-0.000453114
5.31585e-05
-0.00273903
3.92766e-05
-0.00276803
2.29798e-05
-0.00279484
3.10751e-06
-0.0028197
-2.18966e-05
-0.00284188
-5.50027e-05
-0.00286011
-0.000102728
-0.00287223
-0.00018269
-0.00287115
-0.000327134
-0.0028332
-0.00259063
-0.000477619
6.83471e-06
5.29881e-06
-0.000587488
-1.1928e-05
5.70806e-06
-0.000588655
-3.20011e-05
6.00912e-06
-0.000588501
-5.32745e-05
6.20395e-06
-0.000586878
-7.5459e-05
6.27243e-06
-0.000583505
-9.78457e-05
6.1687e-06
-0.000578016
-0.000118917
5.82215e-06
-0.000570021
-0.00013574
5.13987e-06
-0.000559205
-0.000141922
4.01048e-06
-0.000545093
2.34475e-06
-0.000526496
-0.000122895
1.6153e-05
7.99834e-06
-0.000830658
-2.08957e-06
8.87639e-06
-0.000833576
-2.21534e-05
9.49116e-06
-0.000834835
-4.40081e-05
9.85894e-06
-0.000834078
-6.77116e-05
9.96133e-06
-0.000830782
-9.31619e-05
9.73849e-06
-0.00082415
-0.0001195
9.09971e-06
-0.000813073
-0.000144146
7.91291e-06
-0.000796143
-0.000160328
6.01381e-06
-0.000771414
3.25533e-06
-0.000736806
-0.000145374
2.57213e-05
8.72741e-06
-0.00107355
8.43145e-06
1.00546e-05
-0.00107862
-1.09753e-05
1.10153e-05
-0.00108178
-3.27845e-05
1.16355e-05
-0.00108259
-5.74289e-05
1.1887e-05
-0.00108047
-8.55302e-05
1.16979e-05
-0.00107434
-0.000117262
1.09475e-05
-0.00106232
-0.000150871
9.43625e-06
-0.00104161
-0.000179645
6.86973e-06
-0.00100803
2.92014e-06
-0.000954968
-0.000172323
3.51864e-05
8.77964e-06
-0.00131363
1.80272e-05
1.04607e-05
-0.00132173
-1.58682e-06
1.17122e-05
-0.00132782
-2.4138e-05
1.25644e-05
-0.00133136
-5.02595e-05
1.29615e-05
-0.00133149
-8.1043e-05
1.2807e-05
-0.00132686
-0.000117623
1.19419e-05
-0.00131483
-0.000159607
1.01012e-05
-0.00129099
-0.000201474
6.83831e-06
-0.00124859
1.59769e-06
-0.00117425
-0.000204524
4.31093e-05
8.54515e-06
-0.00155385
2.58788e-05
1.04459e-05
-0.00156538
5.95638e-06
1.18782e-05
-0.00157489
-1.72575e-05
1.28743e-05
-0.00158172
-4.46163e-05
1.33659e-05
-0.00158472
-7.7556e-05
1.32266e-05
-0.00158229
-0.000118119
1.22555e-05
-0.00157105
-0.000167575
1.01233e-05
-0.00154496
-0.00022232
6.19127e-06
-0.00149433
-4.08769e-07
-0.00139686
-0.000237061
4.89623e-05
8.06137e-06
-0.00179247
3.1704e-05
1.0037e-05
-0.0018077
1.16127e-05
1.15337e-05
-0.00182079
-1.20126e-05
1.2589e-05
-0.00183107
-4.02245e-05
1.31312e-05
-0.0018372
-7.47548e-05
1.30146e-05
-0.00183731
-0.000118499
1.20101e-05
-0.00182733
-0.000174544
9.74534e-06
-0.00179958
-0.00024174
5.38562e-06
-0.00174116
-2.35607e-06
-0.00161898
-0.000268657
5.26224e-05
7.37334e-06
-0.00203032
3.54718e-05
9.22394e-06
-0.00204901
1.54611e-05
1.06497e-05
-0.00206544
-8.19033e-06
1.16758e-05
-0.00207895
-3.66987e-05
1.22327e-05
-0.00208817
-7.20516e-05
1.21598e-05
-0.00209096
-0.000117948
1.12258e-05
-0.00208275
-0.000179418
9.06654e-06
-0.00205438
-0.000258299
4.70845e-06
-0.00198957
-3.86606e-06
-0.00184244
-0.000297622
5.36726e-05
6.06062e-06
-0.00226804
3.70013e-05
7.55928e-06
-0.00228986
1.75127e-05
8.79101e-06
-0.00230915
-5.6545e-06
9.73754e-06
-0.00232553
-3.38206e-05
1.03374e-05
-0.00233761
-6.91607e-05
1.04181e-05
-0.00234307
-0.000116061
9.7844e-06
-0.00233701
-0.0001815
8.1248e-06
-0.00230906
-0.000271032
4.55171e-06
-0.00223961
-4.24435e-06
-0.00206837
-0.000323152
5.2381e-05
3.55379e-06
-0.00250237
3.67332e-05
4.40624e-06
-0.00252639
1.83538e-05
5.22057e-06
-0.00254772
-3.80971e-06
5.88221e-06
-0.00256634
-3.13398e-05
6.40482e-06
-0.00258121
-6.65697e-05
6.63827e-06
-0.00259004
-0.000114085
6.48481e-06
-0.00258751
-0.000182225
5.72564e-06
-0.00256185
-0.00028079
3.91355e-06
-0.00248932
-3.26307e-06
-0.002294
-0.000346959
5.00194e-05
-0.002723
3.55416e-05
-0.00274915
1.85692e-05
-0.00277265
-2.0312e-06
-0.00279322
-2.78338e-05
-0.00280968
-6.14546e-05
-0.00281985
-0.000107798
-0.0028194
-0.000176299
-0.00279693
-0.000280719
-0.00272487
-0.00250943
-0.000365183
3.95386e-06
4.93799e-06
-0.000579037
-1.02957e-05
5.27653e-06
-0.000579682
-2.50577e-05
5.48425e-06
-0.000579223
-3.9913e-05
5.56425e-06
-0.000577587
-5.42504e-05
5.49797e-06
-0.000574666
-6.71613e-05
5.25148e-06
-0.000570357
-7.72978e-05
4.78274e-06
-0.000564668
-8.26678e-05
4.04795e-06
-0.000557883
-8.01224e-05
3.01621e-06
-0.000550655
1.74795e-06
-0.000543123
-6.52438e-05
1.13573e-05
7.67626e-06
-0.000819402
-4.05973e-06
8.45077e-06
-0.000821333
-2.06574e-05
8.94339e-06
-0.000821696
-3.80753e-05
9.16732e-06
-0.000820263
-5.57715e-05
9.09974e-06
-0.000816687
-7.28187e-05
8.68321e-06
-0.000810534
-8.76182e-05
7.84645e-06
-0.000801337
-9.74834e-05
6.52228e-06
-0.000788753
-9.78261e-05
4.68389e-06
-0.000772739
2.4764e-06
-0.000754249
-8.11124e-05
2.00313e-05
8.67047e-06
-0.00106045
4.21634e-06
9.88352e-06
-0.00106423
-1.32589e-05
1.07124e-05
-0.00106607
-3.22727e-05
1.11686e-05
-0.00106558
-5.2607e-05
1.12169e-05
-0.00106225
-7.37161e-05
1.07752e-05
-0.00105532
-9.41955e-05
9.72981e-06
-0.00104373
-0.000110945
7.94471e-06
-0.00102628
-0.000117645
5.30327e-06
-0.00100195
1.93462e-06
-0.000971043
-0.000101029
2.90536e-05
8.90386e-06
-0.00129953
1.26965e-05
1.04866e-05
-0.00130598
-5.80449e-06
1.16183e-05
-0.00131022
-2.65815e-05
1.2315e-05
-0.00131173
-4.96452e-05
1.25052e-05
-0.00130972
-7.48144e-05
1.20746e-05
-0.00130299
-0.000101049
1.08558e-05
-0.00128972
-0.000125263
8.62976e-06
-0.00126746
-0.000140077
5.15196e-06
-0.00123363
5.14341e-07
-0.00118686
-0.000126043
3.70307e-05
8.78448e-06
-0.00153912
2.01847e-05
1.06164e-05
-0.00154867
8.1448e-07
1.19579e-05
-0.00155586
-2.13898e-05
1.28297e-05
-0.00156003
-4.66897e-05
1.31339e-05
-0.00156005
-7.52971e-05
1.27214e-05
-0.00155433
-0.000106696
1.13643e-05
-0.00154016
-0.000138219
8.74916e-06
-0.00151355
-0.000162095
4.45207e-06
-0.00146975
-1.54313e-06
-0.00140442
-0.000152478
4.32361e-05
8.34311e-06
-0.00177727
2.60884e-05
1.02841e-05
-0.00179022
6.16201e-06
1.17268e-05
-0.00180063
-1.70101e-05
1.26983e-05
-0.00180776
-4.39697e-05
1.30903e-05
-0.00181019
-7.53026e-05
1.2727e-05
-0.00180598
-0.000111129
1.13305e-05
-0.00179147
-0.000149544
8.50072e-06
-0.00176091
-0.00018302
3.6048e-06
-0.00170684
-3.57871e-06
-0.00162061
-0.000179357
4.74237e-05
7.61444e-06
-0.00201477
3.02175e-05
9.45904e-06
-0.00203097
1.01243e-05
1.08626e-05
-0.00204448
-1.34595e-05
1.18454e-05
-0.00205452
-4.13464e-05
1.23038e-05
-0.00205949
-7.44955e-05
1.20407e-05
-0.00205712
-0.000113757
1.07505e-05
-0.00204291
-0.00015832
7.97705e-06
-0.0020093
-0.000201602
2.88651e-06
-0.00194557
-5.26149e-06
-0.00183719
-0.000205169
4.90507e-05
6.21325e-06
-0.0022521
3.22372e-05
7.71843e-06
-0.0022713
1.25404e-05
8.93255e-06
-0.00228753
-1.07793e-05
9.84394e-06
-0.00230021
-3.87583e-05
1.03711e-05
-0.00230769
-7.27011e-05
1.03158e-05
-0.0023074
-0.000114223
9.40106e-06
-0.00229414
-0.000163898
7.1613e-06
-0.00225857
-0.000216976
2.71875e-06
-0.00218637
-5.80574e-06
-0.00205548
-0.000229331
4.83227e-05
3.67914e-06
-0.00248601
3.24528e-05
4.53812e-06
-0.00250734
1.38129e-05
5.34118e-06
-0.00252549
-8.50911e-06
5.97042e-06
-0.00254014
-3.59034e-05
6.43373e-06
-0.00254988
-7.00727e-05
6.57466e-06
-0.00255213
-0.000113234
6.24931e-06
-0.0025412
-0.000167168
5.08121e-06
-0.00250584
-0.000229423
2.44678e-06
-0.00242679
-4.60341e-06
-0.00227259
-0.000252036
4.64387e-05
-0.0027065
3.16424e-05
-0.00272981
1.43369e-05
-0.00275
-6.47919e-06
-0.00276643
-3.21738e-05
-0.00277755
-6.47267e-05
-0.00278072
-0.000107152
-0.00277073
-0.00016292
-0.00273608
-0.000231871
-0.00265347
-0.00247774
-0.000268158
2.51023e-06
4.39904e-06
-0.000573824
-7.61739e-06
4.66785e-06
-0.000574222
-1.78467e-05
4.80041e-06
-0.000573794
-2.77133e-05
4.80196e-06
-0.000572522
-3.6648e-05
4.66279e-06
-0.000570394
-4.395e-05
4.36648e-06
-0.000567421
-4.87855e-05
3.89842e-06
-0.000563731
-5.01959e-05
3.24918e-06
-0.000559722
-4.6968e-05
2.42206e-06
-0.000556305
1.47915e-06
-0.000554132
-3.74376e-05
7.95893e-06
7.08151e-06
-0.000810904
-4.27243e-06
7.74036e-06
-0.000812174
-1.71546e-05
8.11245e-06
-0.000812126
-3.01892e-05
8.21248e-06
-0.000810639
-4.26901e-05
8.0249e-06
-0.000807548
-5.36784e-05
7.51246e-06
-0.000802692
-6.17928e-05
6.63956e-06
-0.000795964
-6.52557e-05
5.39475e-06
-0.000787435
-6.18762e-05
3.82735e-06
-0.000777523
2.13673e-06
-0.000767279
-4.95037e-05
1.53611e-05
8.31794e-06
-0.00104942
1.65354e-06
9.38883e-06
-0.00105218
-1.32238e-05
1.00681e-05
-0.00105315
-2.8876e-05
1.03598e-05
-0.00105207
-4.47311e-05
1.02326e-05
-0.0010486
-5.9835e-05
9.61745e-06
-0.00104232
-7.25821e-05
8.43872e-06
-0.00103278
-8.04045e-05
6.6397e-06
-0.0010197
-7.94468e-05
4.23343e-06
-0.00100331
1.48806e-06
-0.000985103
-6.47373e-05
2.353e-05
8.76059e-06
-0.0012869
8.6249e-06
1.02066e-05
-0.00129189
-8.00637e-06
1.11872e-05
-0.00129471
-2.6169e-05
1.17054e-05
-0.00129491
-4.54338e-05
1.16898e-05
-0.00129191
-6.49603e-05
1.10317e-05
-0.00128488
-8.30312e-05
9.59874e-06
-0.00127281
-9.64232e-05
7.26203e-06
-0.00125469
-9.96521e-05
3.95485e-06
-0.00123012
2.08156e-08
-0.00120089
-8.41517e-05
3.11872e-05
8.79555e-06
-0.00152541
1.53164e-05
1.05136e-05
-0.0015331
-2.74151e-06
1.17224e-05
-0.00153834
-2.29964e-05
1.2429e-05
-0.0015405
-4.52131e-05
1.25239e-05
-0.00153866
-6.87882e-05
1.18559e-05
-0.00153158
-9.20961e-05
1.02224e-05
-0.00151748
-0.000111522
7.39711e-06
-0.00149426
-0.000120165
3.17415e-06
-0.00146033
-2.07816e-06
-0.0014173
-0.000105191
3.74498e-05
8.43881e-06
-0.00176274
2.09395e-05
1.02981e-05
-0.0017735
1.88137e-06
1.16381e-05
-0.00178149
-1.9913e-05
1.24744e-05
-0.00178601
-4.44628e-05
1.26744e-05
-0.00178579
-7.14775e-05
1.20534e-05
-0.00177917
-9.96111e-05
1.03405e-05
-0.00176345
-0.000125169
7.20371e-06
-0.00173516
-0.000140203
2.25249e-06
-0.00169088
-4.1914e-06
-0.00163143
-0.000127269
4.1957e-05
7.71745e-06
-0.00199962
2.51507e-05
9.51254e-06
-0.00201338
5.60183e-06
1.08445e-05
-0.00202414
-1.70546e-05
1.17263e-05
-0.00203111
-4.3139e-05
1.20271e-05
-0.00203276
-7.27219e-05
1.15339e-05
-0.00202702
-0.000104922
9.92429e-06
-0.0020103
-0.00013632
6.76698e-06
-0.00197746
-0.000158439
1.45784e-06
-0.00192266
-5.99458e-06
-0.00184493
-0.0001489
4.40451e-05
6.26632e-06
-0.00223639
2.74743e-05
7.74852e-06
-0.00225297
8.1073e-06
8.90858e-06
-0.00226622
-1.46009e-05
9.7374e-06
-0.00227551
-4.12606e-05
1.013e-05
-0.00227914
-7.23339e-05
9.87671e-06
-0.00227467
-0.000107559
8.66695e-06
-0.00225765
-0.00014418
6.00901e-06
-0.00222119
-0.000173955
1.19312e-06
-0.00215633
-6.67244e-06
-0.00205917
-0.000169582
4.38954e-05
3.73606e-06
-0.00246978
2.81322e-05
4.5893e-06
-0.00248842
9.67643e-06
5.36474e-06
-0.00250349
-1.21747e-05
5.94009e-06
-0.00251449
-3.84164e-05
6.30881e-06
-0.00251982
-7.00233e-05
6.30812e-06
-0.00251695
-0.000107475
5.76314e-06
-0.00250084
-0.000148844
4.2513e-06
-0.00246271
-0.000186528
1.20606e-06
-0.00238912
-5.30066e-06
-0.00227134
-0.000189153
4.24697e-05
-0.00268995
2.76693e-05
-0.00271042
1.04272e-05
-0.00272739
-1.00727e-05
-0.00273999
-3.48405e-05
-0.00274647
-6.51154e-05
-0.00274414
-0.00010216
-0.00272792
-0.00014572
-0.00268827
-0.000189445
-0.00260854
-0.0024708
-0.000201689
1.81908e-06
3.77724e-06
-0.000571074
-5.02125e-06
3.98634e-06
-0.000571368
-1.18098e-05
4.06801e-06
-0.000571074
-1.81603e-05
4.02905e-06
-0.000570201
-2.36505e-05
3.86809e-06
-0.000568772
-2.78249e-05
3.58192e-06
-0.000566829
-3.02264e-05
3.1731e-06
-0.000564502
-3.04447e-05
2.64818e-06
-0.000562152
-2.80757e-05
2.01598e-06
-0.00056069
1.30686e-06
-0.00056117
-2.2345e-05
5.61884e-06
6.30815e-06
-0.000804974
-3.58719e-06
6.8533e-06
-0.000805835
-1.30983e-05
7.12336e-06
-0.00080567
-2.24181e-05
7.13604e-06
-0.000804426
-3.09354e-05
6.88661e-06
-0.00080205
-3.78848e-05
6.35976e-06
-0.00079852
-4.23421e-05
5.55012e-06
-0.000793883
-4.32991e-05
4.47935e-06
-0.000788309
-3.98552e-05
3.22236e-06
-0.000782174
1.95284e-06
-0.000776154
-3.16255e-05
1.16812e-05
7.7188e-06
-0.00104065
3.6606e-07
8.63482e-06
-0.00104264
-1.17076e-05
9.1676e-06
-0.00104312
-2.40327e-05
9.32073e-06
-0.00104193
-3.59372e-05
9.07229e-06
-0.00103889
-4.64675e-05
8.37621e-06
-0.00103381
-5.43046e-05
7.19736e-06
-0.00102659
-5.77348e-05
5.53907e-06
-0.00101733
-5.4766e-05
3.48344e-06
-0.00100654
1.29997e-06
-0.000995421
-4.37953e-05
1.87675e-05
8.36201e-06
-0.00127611
5.75874e-06
9.64574e-06
-0.00127989
-8.55072e-06
1.04632e-05
-0.00128169
-2.37518e-05
1.08099e-05
-0.0012812
-3.91908e-05
1.06249e-05
-0.00127802
-5.38219e-05
9.82146e-06
-0.00127169
-6.5979e-05
8.31591e-06
-0.00126177
-7.31647e-05
6.06466e-06
-0.00124803
-7.20229e-05
3.12115e-06
-0.0012309
-1.2297e-07
-0.00121232
-5.91748e-05
2.58171e-05
8.56742e-06
-0.00151314
1.14155e-05
1.01354e-05
-0.00151919
-4.77116e-06
1.11859e-05
-0.00152288
-2.24937e-05
1.17136e-05
-0.00152368
-4.12002e-05
1.16135e-05
-0.00152095
-5.98864e-05
1.07513e-05
-0.00151383
-7.66835e-05
8.97565e-06
-0.00150134
-8.83858e-05
6.16288e-06
-0.00148266
-9.0133e-05
2.28171e-06
-0.00145774
-2.18063e-06
-0.00142927
-7.61022e-05
3.18678e-05
8.32584e-06
-0.0017493
1.6479e-05
1.00624e-05
-0.00175803
-1.108e-06
1.12642e-05
-0.00176398
-2.08193e-05
1.19347e-05
-0.00176652
-4.22725e-05
1.19353e-05
-0.00176466
-6.46307e-05
1.10917e-05
-0.00175715
-8.5999e-05
9.17772e-06
-0.00174229
-0.000102646
5.96878e-06
-0.00171832
-0.000108266
1.29779e-06
-0.00168428
-4.29288e-06
-0.00164345
-9.41307e-05
3.64791e-05
7.6562e-06
-0.00198529
2.05249e-05
9.36301e-06
-0.00199673
2.10629e-06
1.0585e-05
-0.00200504
-1.88846e-05
1.13264e-05
-0.00200951
-4.23235e-05
1.14426e-05
-0.00200883
-6.76424e-05
1.0726e-05
-0.00200134
-9.31219e-05
8.88221e-06
-0.00198452
-0.00011477
5.57099e-06
-0.00195542
-0.000125045
4.35376e-07
-0.00191152
-6.12789e-06
-0.00185633
-0.000111811
3.8877e-05
6.19948e-06
-0.00222127
2.29508e-05
7.63084e-06
-0.00223531
4.44763e-06
8.70799e-06
-0.00224584
-1.694e-05
9.42164e-06
-0.00225222
-4.13797e-05
9.64916e-06
-0.0022529
-6.86502e-05
9.18469e-06
-0.00224586
-9.74206e-05
7.72608e-06
-0.00222773
-0.000123788
4.83833e-06
-0.00219409
-0.000139481
4.81498e-08
-0.00214025
-6.89232e-06
-0.00206922
-0.000128669
3.92336e-05
3.71577e-06
-0.00245403
2.39291e-05
4.54812e-06
-0.00247003
6.11454e-06
5.27979e-06
-0.00248225
-1.46616e-05
5.78357e-06
-0.00249008
-3.89314e-05
6.03806e-06
-0.00249194
-6.6973e-05
5.8803e-06
-0.00248561
-9.81237e-05
5.12897e-06
-0.0024671
-0.000128935
3.38562e-06
-0.00243045
-0.000150673
2.4638e-07
-0.00236758
-5.43206e-06
-0.00227949
-0.00014398
3.82178e-05
-0.00267371
2.37457e-05
-0.0026914
6.98154e-06
-0.00270535
-1.26675e-05
-0.00271456
-3.57974e-05
-0.0027173
-6.29454e-05
-0.00271111
-9.40471e-05
-0.00269169
-0.000126865
-0.00265206
-0.000153198
-0.00258196
-0.00247704
-0.000152387
1.44298e-06
3.1518e-06
-0.00056997
-3.01672e-06
3.31371e-06
-0.000570222
-7.40096e-06
3.36561e-06
-0.000570055
-1.14273e-05
3.31486e-06
-0.000569489
-1.48118e-05
3.16554e-06
-0.000568553
-1.72781e-05
2.92168e-06
-0.000567284
-1.85878e-05
2.59363e-06
-0.000565786
-1.85789e-05
2.1922e-06
-0.000564353
-1.71387e-05
1.72048e-06
-0.000563851
1.17401e-06
-0.000565681
-1.38012e-05
3.99722e-06
5.45169e-06
-0.000801155
-2.64465e-06
5.894e-06
-0.000801773
-9.4071e-06
6.08677e-06
-0.000801629
-1.58649e-05
6.04996e-06
-0.000800704
-2.15424e-05
5.78804e-06
-0.000798995
-2.59096e-05
5.30156e-06
-0.000796533
-2.84036e-05
4.60383e-06
-0.0007934
-2.85016e-05
3.73082e-06
-0.00078975
-2.58745e-05
2.75668e-06
-0.000785837
1.81258e-06
-0.000782037
-2.06307e-05
8.82906e-06
6.94756e-06
-0.00103407
-1.17e-07
7.70962e-06
-0.00103551
-9.52388e-06
8.11286e-06
-0.00103574
-1.88905e-05
8.16415e-06
-0.00103468
-2.75979e-05
7.85298e-06
-0.00103224
-3.48628e-05
7.15615e-06
-0.00102839
-3.97389e-05
6.06921e-06
-0.00102318
-4.1188e-05
4.62906e-06
-0.00101678
-3.82656e-05
2.94022e-06
-0.00100965
1.22743e-06
-0.00100254
-3.05661e-05
1.4763e-05
7.75236e-06
-0.00126731
3.85649e-06
8.86189e-06
-0.00127014
-7.97988e-06
9.51982e-06
-0.00127127
-2.02461e-05
9.72091e-06
-0.00127049
-3.22406e-05
9.42038e-06
-0.00126759
-4.29737e-05
8.55967e-06
-0.00126236
-5.10955e-05
7.10006e-06
-0.00125468
-5.49041e-05
5.05788e-06
-0.00124465
-5.25532e-05
2.548e-06
-0.00123286
-7.54531e-08
-0.00122071
-4.28621e-05
2.10202e-05
8.12003e-06
-0.00150257
8.41634e-06
9.51347e-06
-0.00150724
-5.57168e-06
1.03954e-05
-0.00150976
-2.05279e-05
1.07527e-05
-0.00150976
-3.57571e-05
1.04969e-05
-0.00150679
-5.01638e-05
9.52288e-06
-0.00150038
-6.20544e-05
7.73525e-06
-0.00149009
-6.90052e-05
5.09605e-06
-0.00147574
-6.79907e-05
1.68626e-06
-0.00145789
-2.01945e-06
-0.00143876
-5.65507e-05
2.66425e-05
8.0076e-06
-0.00173728
1.27562e-05
9.58899e-06
-0.00174422
-2.93051e-06
1.06311e-05
-0.00174853
-2.01363e-05
1.11269e-05
-0.00174969
-3.82451e-05
1.09493e-05
-0.00174701
-5.61747e-05
9.9498e-06
-0.00173964
-7.20093e-05
7.96304e-06
-0.00172668
-8.26616e-05
4.86984e-06
-0.00170744
-8.3797e-05
6.71437e-07
-0.00168213
-4.05219e-06
-0.00165393
-7.12877e-05
3.11587e-05
7.4247e-06
-0.00197212
1.64476e-05
9.00963e-06
-0.00198144
-3.67025e-07
1.00947e-05
-0.00198769
-1.91643e-05
1.06751e-05
-0.00199026
-3.95034e-05
1.06096e-05
-0.00198815
-6.04471e-05
9.71321e-06
-0.00198016
-8.00287e-05
7.74797e-06
-0.00196473
-9.46436e-05
4.48436e-06
-0.00194042
-9.86166e-05
-2.24104e-07
-0.00190665
-5.82937e-06
-0.00186751
-8.56551e-05
3.37061e-05
6.00357e-06
-0.00220708
1.87962e-05
7.35735e-06
-0.00221875
1.62173e-06
8.32932e-06
-0.0022269
-1.7885e-05
8.9087e-06
-0.00223095
-3.95251e-05
8.96646e-06
-0.00222962
-6.26159e-05
8.31561e-06
-0.00222137
-8.53545e-05
6.69601e-06
-0.00220394
-0.00010388
3.77001e-06
-0.00217485
-0.000111427
-7.08738e-07
-0.00213222
-6.62719e-06
-0.00208068
-9.9164e-05
3.44656e-05
3.61274e-06
-0.00243909
1.99623e-05
4.40716e-06
-0.00245258
3.21009e-06
5.08012e-06
-0.00246225
-1.59847e-05
5.49985e-06
-0.00246748
-3.77279e-05
5.63484e-06
-0.00246686
-6.17373e-05
5.33063e-06
-0.00245861
-8.66919e-05
4.42351e-06
-0.00243987
-0.000108902
2.58366e-06
-0.00240705
-0.000120696
-4.11593e-07
-0.00235609
-5.17321e-06
-0.00229114
-0.000110502
3.37978e-05
-0.00265818
1.99814e-05
-0.00267318
4.09116e-06
-0.00268438
-1.42289e-05
-0.00269074
-3.51837e-05
-0.00269071
-5.87373e-05
-0.00268223
-8.39754e-05
-0.00266203
-0.000107903
-0.00262555
-0.000122889
-0.00256739
-0.00248911
-0.000116
1.18636e-06
2.57467e-06
-0.000569848
-1.65505e-06
2.70063e-06
-0.000570081
-4.44345e-06
2.73715e-06
-0.000570004
-6.98555e-06
2.69109e-06
-0.000569638
-9.09892e-06
2.56929e-06
-0.000569009
-1.06192e-05
2.37868e-06
-0.000568143
-1.14223e-05
2.13161e-06
-0.000567114
-1.14487e-05
1.83757e-06
-0.000566164
-1.06818e-05
1.49139e-06
-0.000566109
1.05831e-06
-0.00056863
-8.79178e-06
2.85247e-06
4.59193e-06
-0.000798915
-1.77639e-06
4.94597e-06
-0.00079939
-6.44604e-06
5.08443e-06
-0.000799307
-1.0824e-05
5.02777e-06
-0.000798662
-1.4565e-05
4.78649e-06
-0.000797471
-1.73184e-05
4.37005e-06
-0.000795771
-1.87524e-05
3.79992e-06
-0.000793634
-1.8607e-05
3.114e-06
-0.000791172
-1.67879e-05
2.37571e-06
-0.00078854
1.67915e-06
-0.000785932
-1.35136e-05
6.63384e-06
6.08521e-06
-0.00102939
-1.87415e-07
6.70394e-06
-0.00103045
-7.27208e-06
7.00084e-06
-0.00103057
-1.41839e-05
6.98644e-06
-0.00102973
-2.04193e-05
6.66049e-06
-0.00102788
-2.53985e-05
6.01775e-06
-0.00102506
-2.84922e-05
5.07283e-06
-0.00102136
-2.9098e-05
3.87561e-06
-0.00101694
-2.67784e-05
2.52613e-06
-0.00101212
1.19673e-06
-0.00100734
-2.14933e-05
1.14575e-05
6.99354e-06
-0.00126044
2.63924e-06
7.9293e-06
-0.00126254
-6.81397e-06
8.44273e-06
-0.00126325
-1.64002e-05
8.53197e-06
-0.00126245
-2.5478e-05
8.16979e-06
-0.00126003
-3.32302e-05
7.32504e-06
-0.00125592
-3.86655e-05
5.9934e-06
-0.00125016
-4.06981e-05
4.22482e-06
-0.00124297
-3.83585e-05
2.15167e-06
-0.00123482
6.38644e-08
-0.00122663
-3.13058e-05
1.68342e-05
7.4936e-06
-0.00149378
6.17046e-06
8.70056e-06
-0.00149735
-5.51657e-06
9.41722e-06
-0.00149905
-1.77365e-05
9.62787e-06
-0.00149863
-2.9781e-05
9.26648e-06
-0.00149585
-4.06495e-05
8.26147e-06
-0.00149045
-4.89825e-05
6.56728e-06
-0.00148233
-5.3092e-05
4.2048e-06
-0.00147161
-5.12062e-05
1.30903e-06
-0.00145894
-1.71197e-06
-0.00144585
-4.23487e-05
2.18776e-05
7.50591e-06
-0.00172686
9.73575e-06
8.91013e-06
-0.00173229
-3.81572e-06
9.7851e-06
-0.00173534
-1.83581e-05
1.01167e-05
-0.00173564
-3.31829e-05
9.80019e-06
-0.00173272
-4.71925e-05
8.72275e-06
-0.0017261
-5.87181e-05
6.78103e-06
-0.00171537
-6.54456e-05
3.93985e-06
-0.00170045
-6.46158e-05
3.02967e-07
-0.00168195
-3.60117e-06
-0.00166229
-5.43582e-05
2.61325e-05
7.03111e-06
-0.00196037
1.29555e-05
8.4678e-06
-0.00196782
-1.93413e-06
9.40156e-06
-0.00197242
-1.82387e-05
9.81965e-06
-0.00197366
-3.53433e-05
9.5976e-06
-0.00197085
-5.21732e-05
8.58557e-06
-0.00196319
-6.68714e-05
6.61429e-06
-0.00194986
-7.65493e-05
3.55753e-06
-0.00193036
-7.73036e-05
-5.83778e-07
-0.00190501
-5.24909e-06
-0.00187721
-6.59603e-05
2.86792e-05
5.67811e-06
-0.00219412
1.50914e-05
6.93052e-06
-0.00220362
-4.00381e-07
7.7829e-06
-0.00220979
-1.76549e-05
8.22335e-06
-0.0022121
-3.62198e-05
8.12813e-06
-0.00220959
-5.51689e-05
7.34065e-06
-0.00220117
-7.26395e-05
5.6629e-06
-0.00218552
-8.53366e-05
2.86512e-06
-0.00216146
-8.83013e-05
-1.1218e-06
-0.00212872
-6.02727e-06
-0.0020915
-7.67091e-05
2.97264e-05
3.42633e-06
-0.00242525
1.63285e-05
4.16594e-06
-0.00243641
9.90941e-07
4.76824e-06
-0.00244389
-1.62477e-05
5.0985e-06
-0.00244711
-3.51655e-05
5.1219e-06
-0.00244494
-5.51053e-05