/*--------------------------------*- C++ -*----------------------------------*\
| =========                 |                                                 |
| \\      /  F ield         | foam-extend: Open Source CFD                    |
|  \\    /   O peration     | Version:     4.0                                |
|   \\  /    A nd           | Web:         http://www.foam-extend.org         |
|    \\/     M anipulation  |                                                 |
\*---------------------------------------------------------------------------*/
FoamFile
{
    version     2.0;
    format      ascii;
    class       volVectorField;
    location    "3800";
    object      Urel;
}
// * * * * * * * * * * * * * * * * * * * * * * * * * * * * * * * * * * * * * //

dimensions      [0 1 -1 0 0 0 0];

internalField   nonuniform List<vector> 
34480
(
(212.108 -5.1316 -19.9645)
(213.718 -5.92844 -24.5789)
(215.134 -6.48803 -29.8693)
(216.365 -6.80725 -36.1194)
(217.388 -6.87956 -43.7273)
(217.969 -6.68961 -53.1766)
(217.244 -6.20765 -64.8186)
(212.898 -5.49971 -79.1581)
(200.036 -4.89321 -98.7325)
(167.926 -4.34952 -119.474)
(214.236 -5.40332 -26.9675)
(216.151 -5.08431 -31.0631)
(217.837 -4.73406 -35.5503)
(219.285 -4.32807 -40.7028)
(220.575 -3.87755 -46.9905)
(221.678 -3.4119 -55.1104)
(222.075 -2.9374 -65.8563)
(219.995 -2.47023 -80.0741)
(210.885 -2.33352 -101.484)
(180.445 -2.76015 -130.006)
(215.43 -9.93792 -32.0144)
(217.613 -8.92301 -35.8846)
(219.616 -7.94532 -40.0361)
(221.442 -6.98149 -44.7363)
(223.166 -6.03099 -50.4217)
(224.866 -5.13704 -57.9002)
(226.23 -4.32425 -68.2609)
(225.772 -3.58476 -82.6656)
(219.385 -3.21531 -105.554)
(190.571 -3.54308 -140.531)
(215.715 -13.6467 -37.5458)
(218.375 -12.1675 -41.4722)
(220.888 -10.7411 -45.6599)
(223.264 -9.3367 -50.3419)
(225.528 -7.96106 -55.9091)
(227.77 -6.65991 -63.1598)
(229.811 -5.47043 -73.3336)
(230.447 -4.39154 -87.9298)
(225.991 -3.7379 -111.931)
(198.232 -3.93612 -151.7)
(215.911 -18.3347 -43.0103)
(218.996 -16.5798 -47.0541)
(221.951 -14.8781 -51.4045)
(224.804 -13.1746 -56.2074)
(227.556 -11.5002 -61.8548)
(230.279 -9.90305 -69.0924)
(232.869 -8.4354 -79.2393)
(234.357 -7.10386 -94.1225)
(231.394 -6.24859 -119.185)
(204.232 -6.4143 -162.768)
(215.744 -22.0489 -49.5294)
(219.155 -19.9994 -53.6708)
(222.436 -18.0042 -58.1357)
(225.642 -15.9778 -63.0243)
(228.769 -13.9571 -68.7395)
(231.873 -11.9809 -75.9744)
(234.888 -10.1065 -86.081)
(237.045 -8.35823 -101.198)
(235.24 -7.14503 -127.235)
(208.282 -7.17677 -174.034)
(215.73 -27.0702 -55.8481)
(219.355 -24.8256 -60.1197)
(222.824 -22.6069 -64.7523)
(226.233 -20.3168 -69.7739)
(229.583 -18.01 -75.5999)
(232.931 -15.7134 -82.8662)
(236.256 -13.4696 -92.9322)
(239.006 -11.2754 -108.233)
(238.291 -9.50819 -135.152)
(211.651 -8.95253 -184.712)
(215.476 -30.8332 -63.4549)
(219.187 -28.3131 -67.767)
(222.714 -25.78 -72.4339)
(226.176 -23.143 -77.475)
(229.58 -20.4513 -83.2839)
(232.989 -17.7101 -90.4338)
(236.449 -14.9183 -100.241)
(239.672 -12.0373 -115.363)
(240.104 -9.43139 -142.704)
(214.22 -7.95938 -194.405)
(215.497 -36.7518 -70.3449)
(219.218 -33.9987 -74.6972)
(222.747 -31.1417 -79.4466)
(226.226 -28.1415 -84.5971)
(229.659 -25.0689 -90.5453)
(233.089 -21.9179 -97.7744)
(236.581 -18.6347 -107.492)
(240.123 -15.0814 -122.394)
(241.632 -11.3662 -150.027)
(216.607 -8.24809 -203.159)
(214.42 -41.1588 -78.2963)
(218.152 -38.0946 -82.5004)
(221.701 -34.9131 -87.1267)
(225.185 -31.5639 -92.1857)
(228.559 -28.0597 -98.0524)
(231.836 -24.3643 -105.177)
(235.117 -20.3828 -114.655)
(238.699 -15.9207 -128.883)
(241.417 -11.0198 -155.986)
(218.284 -6.23578 -209.373)
(204.292 6.14201 1.56048)
(205.221 4.5977 -1.8699)
(205.648 3.24364 -5.77715)
(205.459 2.10563 -10.2266)
(204.467 1.18214 -15.3699)
(202.342 0.483657 -21.3321)
(198.58 0.00794038 -28.1627)
(192.523 -0.272217 -35.6723)
(182.726 -0.419343 -42.8908)
(164.057 -0.559842 -45.4033)
(208.278 9.63092 1.58825)
(209.657 8.6835 -1.42743)
(210.613 7.71608 -4.82997)
(210.995 6.78515 -8.67529)
(210.664 5.89253 -13.1618)
(209.336 5.02105 -18.5797)
(206.398 4.1505 -25.3175)
(200.929 3.27405 -33.6396)
(191.477 2.35877 -43.4764)
(171.619 1.28208 -50.4694)
(210.608 9.17352 3.66742)
(212.337 8.46414 0.905745)
(213.714 7.67675 -2.18071)
(214.64 6.83802 -5.75968)
(214.979 5.97596 -9.99481)
(214.505 5.06923 -15.2715)
(212.632 4.0907 -22.1939)
(208.216 3.02146 -31.43)
(199.593 1.82906 -43.7748)
(178.842 0.424585 -55.8127)
(211.63 9.51187 5.4166)
(213.849 8.86827 2.74342)
(215.772 8.12487 -0.265743)
(217.326 7.30197 -3.81392)
(218.348 6.42649 -8.06059)
(218.624 5.48117 -13.4049)
(217.604 4.43956 -20.5573)
(214.081 3.27306 -30.5177)
(206.241 1.91609 -44.9319)
(184.755 0.280375 -61.8756)
(212.308 8.86359 7.33336)
(214.963 8.11928 4.71271)
(217.363 7.26699 1.68074)
(219.45 6.34761 -1.90397)
(221.068 5.3634 -6.25752)
(221.991 4.29949 -11.7497)
(221.703 3.11865 -19.1587)
(218.993 1.78945 -29.7745)
(211.912 0.233087 -45.9999)
(189.781 -1.60922 -67.6745)
(212.488 9.22606 8.23337)
(215.495 8.4014 5.70225)
(218.262 7.4535 2.71539)
(220.759 6.45555 -0.832027)
(222.848 5.40144 -5.21122)
(224.298 4.29092 -10.7679)
(224.619 3.08622 -18.3215)
(222.631 1.75192 -29.4114)
(216.246 0.166054 -47.0616)
(193.41 -1.76347 -72.9481)
(212.719 8.24681 9.38468)
(215.97 7.24605 6.91883)
(218.979 6.14111 3.93148)
(221.746 5.02124 0.386902)
(224.161 3.85949 -4.03251)
(226.004 2.66649 -9.64804)
(226.831 1.40701 -17.3024)
(225.541 0.0625815 -28.7714)
(219.925 -1.45633 -47.6566)
(196.593 -3.27683 -77.5008)
(212.63 8.5507 9.26086)
(216.008 7.44528 6.95798)
(219.138 6.26286 4.12038)
(222.045 5.09416 0.713194)
(224.643 3.91376 -3.58674)
(226.735 2.74647 -9.0812)
(227.94 1.58633 -16.6054)
(227.299 0.444933 -28.1101)
(222.614 -0.766511 -47.7912)
(199.275 -2.38973 -81.1483)
(212.673 6.69727 9.83857)
(216.083 5.42141 7.71164)
(219.256 4.15465 4.99961)
(222.248 2.94471 1.68624)
(225 1.74727 -2.59811)
(227.322 0.586567 -8.13164)
(228.856 -0.513858 -15.7036)
(228.782 -1.48025 -27.2281)
(225.074 -2.19523 -47.6309)
(201.922 -3.22077 -84.0151)
(211.706 6.48513 9.27339)
(215.128 5.09088 7.43976)
(218.343 3.7391 5.04427)
(221.38 2.44979 2.02381)
(224.164 1.23646 -1.9698)
(226.526 0.145024 -7.25186)
(228.179 -0.756304 -14.6349)
(228.481 -1.31582 -25.7671)
(225.915 -1.36175 -46.3575)
(203.739 -1.22796 -84.6923)
(198.507 4.90344 0.45547)
(199 3.72682 -2.21871)
(198.968 2.70219 -5.15303)
(198.332 1.84199 -8.36229)
(196.96 1.16303 -11.8023)
(194.675 0.673336 -15.3722)
(191.256 0.357861 -18.8724)
(186.47 0.163119 -21.9778)
(179.963 0.00977362 -23.948)
(171.056 -0.20883 -23.0072)
(203.364 8.23801 0.412957)
(204.291 7.46154 -2.1417)
(204.737 6.65367 -4.96482)
(204.574 5.86229 -8.06815)
(203.629 5.09829 -11.4891)
(201.64 4.35911 -15.2146)
(198.228 3.63396 -19.1713)
(192.883 2.90698 -23.1371)
(184.902 2.16283 -26.4407)
(173.288 1.36555 -27.0816)
(206.389 7.99835 2.32911)
(207.697 7.37327 -0.151701)
(208.574 6.66375 -2.91344)
(208.898 5.90417 -6.03169)
(208.508 5.11618 -9.57189)
(207.11 4.2886 -13.6386)
(204.195 3.40787 -18.3059)
(198.994 2.46022 -23.4949)
(190.415 1.43337 -28.674)
(176.488 0.301749 -31.7283)
(207.991 8.44907 3.9466)
(209.774 7.86902 1.47298)
(211.169 7.18583 -1.30478)
(212.073 6.4191 -4.54103)
(212.29 5.59928 -8.29056)
(211.509 4.71107 -12.7329)
(209.134 3.74126 -18.0523)
(204.175 2.67377 -24.3473)
(195.18 1.48647 -31.3292)
(179.139 0.154751 -37.1169)
(209.103 7.86148 5.83534)
(211.315 7.183 3.3599)
(213.177 6.39914 0.503928)
(214.601 5.53896 -2.86892)
(215.374 4.61648 -6.85716)
(215.176 3.61329 -11.6682)
(213.352 2.50579 -17.5868)
(208.735 1.27224 -24.9158)
(199.529 -0.111672 -33.6544)
(181.636 -1.63681 -42.4727)
(209.622 8.30849 6.75503)
(212.192 7.55739 4.33598)
(214.435 6.68793 1.48946)
(216.277 5.75457 -1.90581)
(217.518 4.76576 -6.01095)
(217.825 3.71433 -11.047)
(216.51 2.57402 -17.3866)
(212.279 1.3165 -25.5499)
(203.005 -0.111155 -35.8339)
(183.512 -1.7251 -47.7098)
(210.105 7.36072 7.99169)
(212.936 6.44691 5.61583)
(215.448 5.43652 2.74394)
(217.592 4.39738 -0.688512)
(219.187 3.3186 -4.90267)
(219.905 2.20075 -10.1259)
(219.057 1.01682 -16.8079)
(215.281 -0.257469 -25.7044)
(206.138 -1.65691 -37.4526)
(185.362 -3.20633 -52.4992)
(210.207 7.72699 7.96372)
(213.192 6.7156 5.73837)
(215.862 5.63442 3.00657)
(218.194 4.55596 -0.304612)
(220.033 3.47141 -4.44083)
(221.065 2.39106 -9.63981)
(220.631 1.30634 -16.4026)
(217.369 0.210844 -25.7033)
(208.601 -0.932695 -38.5861)
(186.943 -2.37347 -56.596)
(210.363 5.90718 8.62492)
(213.394 4.72086 6.55289)
(216.126 3.54759 3.93438)
(218.562 2.42411 0.721666)
(220.589 1.33012 -3.39244)
(221.911 0.278804 -8.6656)
(221.891 -0.709589 -15.6277)
(219.188 -1.60187 -25.3125)
(210.935 -2.29131 -39.2979)
(188.494 -3.29447 -59.8485)
(209.572 5.86757 8.11113)
(212.612 4.54722 6.2854)
(215.391 3.28895 3.95986)
(217.876 2.0854 1.02316)
(219.946 0.970564 -2.807)
(221.33 -0.0152607 -7.81156)
(221.53 -0.804028 -14.6004)
(219.33 -1.28859 -24.1871)
(211.839 -1.30418 -38.8532)
(189.045 -1.19847 -60.8216)
(194.404 3.82628 -0.0960355)
(194.636 3.00832 -1.97593)
(194.426 2.29132 -3.97612)
(193.731 1.68774 -6.06949)
(192.493 1.21283 -8.16665)
(190.656 0.868784 -10.1444)
(188.195 0.64024 -11.8176)
(185.172 0.477062 -12.9432)
(181.725 0.299197 -13.1122)
(177.802 0.0197947 -11.7335)
(199.38 6.84123 -0.297212)
(199.959 6.26029 -2.29992)
(200.077 5.63662 -4.44083)
(199.646 5.00643 -6.7234)
(198.548 4.38947 -9.10109)
(196.639 3.7897 -11.4634)
(193.753 3.20095 -13.6255)
(189.75 2.61153 -15.2887)
(184.543 2.01668 -15.8845)
(178.272 1.4275 -14.6616)
(202.712 6.7913 1.32536)
(203.65 6.27422 -0.775303)
(204.138 5.66878 -3.08188)
(204.066 5.01343 -5.60406)
(203.298 4.3263 -8.34201)
(201.623 3.60529 -11.2512)
(198.752 2.84319 -14.1975)
(194.348 2.03064 -16.8715)
(188.081 1.1627 -18.5552)
(179.826 0.2531 -18.1478)
(204.686 7.36491 2.70956)
(206.058 6.86752 0.525183)
(206.999 6.26307 -1.90761)
(207.396 5.57744 -4.67206)
(207.07 4.83715 -7.76858)
(205.754 4.03554 -11.2182)
(203.04 3.16856 -14.9395)
(198.378 2.22728 -18.6539)
(191.167 1.2013 -21.5541)
(180.893 0.103949 -22.3268)
(206.127 6.84231 4.49039)
(207.903 6.24228 2.23761)
(209.272 5.53853 -0.342101)
(210.126 4.75674 -3.35099)
(210.25 3.91536 -6.80117)
(209.338 2.99852 -10.7703)
(206.877 1.99625 -15.2419)
(202.114 0.895436 -20.0155)
(194.137 -0.316472 -24.2503)
(181.958 -1.60129 -26.6177)
(206.926 7.37367 5.36725)
(209.055 6.70508 3.12483)
(210.791 5.92298 0.506492)
(212.037 5.07029 -2.60168)
(212.567 4.16434 -6.26111)
(212.043 3.19496 -10.5851)
(209.868 2.14933 -15.6318)
(205.104 1.00916 -21.3135)
(196.505 -0.257537 -26.8023)
(182.558 -1.63576 -30.9313)
(207.632 6.45868 6.64276)
(210.029 5.63569 4.41)
(212.041 4.72374 1.72926)
(213.588 3.77441 -1.47334)
(214.452 2.78928 -5.32032)
(214.277 1.76221 -9.95057)
(212.409 0.677847 -15.5033)
(207.761 -0.48242 -22.0422)
(198.743 -1.74537 -28.8219)
(183.243 -3.0955 -34.9914)
(207.909 6.90424 6.67499)
(210.477 5.98956 4.57075)
(212.669 5.01023 2.00786)
(214.426 4.02415 -1.10685)
(215.546 3.03703 -4.93105)
(215.673 2.04959 -9.6337)
(214.131 1.05703 -15.4258)
(209.725 0.0493071 -22.5455)
(200.548 -1.00682 -30.4239)
(183.794 -2.2954 -38.6407)
(208.161 5.13113 7.44367)
(210.792 4.0429 5.46596)
(213.061 2.9662 2.98972)
(214.933 1.93 -0.0443267)
(216.24 0.933381 -3.85767)
(216.646 -0.0162404 -8.66129)
(215.475 -0.894226 -14.7456)
(211.454 -1.68549 -22.4626)
(202.35 -2.32847 -31.5362)
(184.418 -3.25677 -41.6448)
(207.488 5.2631 6.98287)
(210.138 4.03829 5.21719)
(212.467 2.88426 3.00777)
(214.403 1.77835 0.223467)
(215.783 0.770767 -3.33203)
(216.281 -0.105384 -7.88427)
(215.312 -0.777885 -13.812)
(211.669 -1.16513 -21.5964)
(202.975 -1.1409 -31.5521)
(184.16 -1.05134 -42.6975)
(191.878 2.90997 -0.317726)
(191.99 2.37842 -1.54437)
(191.783 1.90336 -2.8211)
(191.243 1.49822 -4.10488)
(190.357 1.17345 -5.31849)
(189.124 0.929316 -6.36976)
(187.583 0.755136 -7.1379)
(185.869 0.610948 -7.50637)
(184.266 0.428869 -7.30409)
(182.95 0.127516 -6.34014)
(196.415 5.53584 -0.659679)
(196.769 5.1389 -2.12951)
(196.741 4.68882 -3.64625)
(196.282 4.21456 -5.20765)
(195.332 3.7395 -6.74542)
(193.834 3.27135 -8.1499)
(191.745 2.80999 -9.26258)
(189.074 2.34986 -9.87515)
(185.933 1.89393 -9.68244)
(182.653 1.46629 -8.45878)
(199.668 5.61465 0.643399)
(200.326 5.21074 -1.04257)
(200.572 4.7192 -2.85851)
(200.328 4.17745 -4.7798)
(199.503 3.60291 -6.76833)
(197.977 2.99926 -8.72623)
(195.626 2.36386 -10.4867)
(192.357 1.69255 -11.7754)
(188.185 0.987049 -12.1177)
(183.474 0.274757 -11.0367)
(201.774 6.30001 1.74574)
(202.806 5.89477 -0.0983653)
(203.415 5.38258 -2.12448)
(203.504 4.79237 -4.36209)
(202.937 4.14876 -6.77328)
(201.532 3.45237 -9.29365)
(199.059 2.7045 -11.7555)
(195.283 1.90242 -13.8371)
(190.068 1.04394 -14.8835)
(183.754 0.160507 -14.1809)
(203.395 5.83751 3.36338)
(204.793 5.32487 1.38967)
(205.768 4.7105 -0.849904)
(206.218 4.02197 -3.40421)
(205.964 3.27606 -6.24087)
(204.768 2.46457 -9.33635)
(202.296 1.58534 -12.542)
(198.146 0.631857 -15.5252)
(191.973 -0.402348 -17.4641)
(184.024 -1.46699 -17.4864)
(204.38 6.4484 4.14724)
(206.111 5.87026 2.13587)
(207.419 5.18285 -0.189404)
(208.205 4.42393 -2.91383)
(208.261 3.61457 -6.02597)
(207.305 2.74664 -9.54539)
(204.903 1.81624 -13.3599)
(200.482 0.811466 -17.1609)
(193.442 -0.290238 -19.9887)
(183.878 -1.45817 -20.8987)
(205.246 5.56646 5.4182)
(207.241 4.8403 3.37818)
(208.815 4.03073 0.949575)
(209.879 3.17988 -1.92839)
(210.212 2.2972 -5.29544)
(209.5 1.37566 -9.20271)
(207.228 0.408169 -13.5947)
(202.661 -0.619861 -18.2271)
(194.905 -1.73321 -22.0552)
(183.827 -2.89663 -24.1546)
(205.662 6.09942 5.47464)
(207.838 5.28847 3.5342)
(209.598 4.41528 1.19291)
(210.868 3.52885 -1.63971)
(211.435 2.64444 -5.03983)
(210.964 1.76036 -9.09696)
(208.884 0.874643 -13.8184)
(204.319 -0.0268495 -19.0629)
(196.064 -0.979319 -23.7816)
(183.655 -2.10558 -27.1463)
(206.006 4.37194 6.33838)
(208.261 3.3922 4.49327)
(210.11 2.41964 2.20252)
(211.497 1.48077 -0.584057)
(212.231 0.586886 -4.00424)
(211.987 -0.255366 -8.19328)
(210.168 -1.02271 -13.2542)
(205.778 -1.71371 -19.154)
(197.266 -2.29622 -24.949)
(183.595 -3.1054 -29.6308)
(205.432 4.67553 5.90434)
(207.715 3.56389 4.24376)
(209.633 2.52406 2.19108)
(211.093 1.52904 -0.37886)
(211.91 0.638042 -3.58419)
(211.76 -0.119943 -7.57613)
(210.09 -0.676366 -12.5313)
(205.896 -0.968863 -18.5396)
(197.465 -0.913992 -25.121)
(182.773 -0.833272 -30.4954)
(190.517 2.156 -0.357241)
(190.577 1.82876 -1.11093)
(190.427 1.52755 -1.88509)
(190.066 1.265 -2.63764)
(189.499 1.04692 -3.3172)
(188.744 0.87338 -3.86663)
(187.849 0.739038 -4.21479)
(186.941 0.614293 -4.31966)
(186.313 0.444465 -4.10335)
(186.253 0.142349 -3.53159)
(194.354 4.38334 -0.792021)
(194.568 4.13915 -1.81214)
(194.495 3.83623 -2.827)
(194.111 3.49756 -3.8343)
(193.395 3.14627 -4.77385)
(192.338 2.79209 -5.56592)
(190.949 2.44005 -6.1068)
(189.28 2.09053 -6.27876)
(187.449 1.75155 -5.93519)
(185.689 1.44618 -5.0434)
(197.275 4.51716 0.221243)
(197.725 4.2192 -1.06635)
(197.833 3.83852 -2.42395)
(197.55 3.40799 -3.81715)
(196.824 2.94424 -5.19581)
(195.605 2.45397 -6.46222)
(193.86 1.93839 -7.47916)
(191.606 1.39824 -8.06112)
(188.957 0.840814 -7.95009)
(186.237 0.293601 -6.9713)
(199.322 5.28917 1.03417)
(200.077 4.97695 -0.456348)
(200.454 4.56224 -2.06584)
(200.377 4.07317 -3.79401)
(199.759 3.53315 -5.58463)
(198.495 2.94748 -7.34543)
(196.482 2.32079 -8.9106)
(193.665 1.65576 -10.0259)
(190.108 0.958158 -10.2797)
(186.23 0.263316 -9.32746)
(200.987 4.8745 2.45861)
(202.06 4.45225 0.793318)
(202.732 3.93292 -1.075)
(202.913 3.34439 -3.15276)
(202.475 2.70176 -5.38532)
(201.26 2.00329 -7.6969)
(199.081 1.25131 -9.90814)
(195.777 0.445074 -11.7142)
(191.311 -0.413907 -12.5292)
(186.169 -1.27388 -11.852)
(202.064 5.55451 3.11409)
(203.44 5.07057 1.37006)
(204.396 4.48228 -0.62375)
(204.841 3.82561 -2.9143)
(204.61 3.12085 -5.45247)
(203.494 2.36444 -8.19287)
(201.22 1.55752 -10.959)
(197.501 0.693577 -13.4196)
(192.147 -0.239473 -14.8158)
(185.679 -1.20343 -14.5097)
(203.028 4.70358 4.34333)
(204.655 4.07796 2.53365)
(205.851 3.37337 0.399622)
(206.531 2.6272 -2.09297)
(206.503 1.85237 -4.92788)
(205.519 1.044 -8.08825)
(203.223 0.200125 -11.4232)
(199.192 -0.689846 -14.6063)
(193.034 -1.64323 -16.729)
(185.251 -2.61256 -17.0497)
(203.539 5.32679 4.38943)
(205.348 4.62477 2.6475)
(206.724 3.86162 0.567656)
(207.59 3.08176 -1.92178)
(207.749 2.30522 -4.8338)
(206.923 1.53129 -8.18841)
(204.686 0.759606 -11.8751)
(200.483 -0.0268114 -15.6103)
(193.679 -0.860244 -18.3867)
(184.675 -1.80716 -19.4003)
(203.96 3.64025 5.32524)
(205.858 2.77603 3.64483)
(207.329 1.9134 1.57472)
(208.308 1.08012 -0.912497)
(208.602 0.293613 -3.88542)
(207.934 -0.438198 -7.40206)
(205.833 -1.0957 -11.4357)
(201.624 -1.68824 -15.778)
(194.385 -2.19897 -19.4231)
(184.212 -2.85856 -21.2822)
(203.457 4.11677 4.89234)
(205.392 3.12987 3.37263)
(206.937 2.21109 1.51101)
(207.991 1.33582 -0.79533)
(208.368 0.566008 -3.60065)
(207.78 -0.0718433 -6.98277)
(205.765 -0.517638 -10.9719)
(201.596 -0.727355 -15.427)
(194.217 -0.654242 -19.645)
(183.073 -0.570721 -21.8916)
(189.943 1.55404 -0.313798)
(189.982 1.36012 -0.755625)
(189.89 1.17483 -1.20899)
(189.673 1.00942 -1.63781)
(189.339 0.866299 -2.01293)
(188.906 0.745969 -2.30197)
(188.413 0.647021 -2.46248)
(187.964 0.546551 -2.48991)
(187.832 0.399015 -2.33371)
(188.413 0.10758 -2.0252)
(193.029 3.41323 -0.79246)
(193.159 3.28333 -1.46857)
(193.091 3.09493 -2.1159)
(192.812 2.86577 -2.73522)
(192.32 2.61666 -3.28277)
(191.625 2.35778 -3.70778)
(190.751 2.0972 -3.95069)
(189.749 1.83941 -3.95268)
(188.7 1.59488 -3.64728)
(187.74 1.38124 -3.05665)
(195.486 3.53432 -0.0132089)
(195.789 3.32635 -0.953714)
(195.827 3.04403 -1.92439)
(195.574 2.71426 -2.89374)
(195.006 2.35201 -3.81563)
(194.111 1.96499 -4.61349)
(192.895 1.55704 -5.19196)
(191.409 1.13224 -5.43985)
(189.761 0.700394 -5.22844)
(188.164 0.284496 -4.51104)
(197.336 4.36087 0.532063)
(197.878 4.13481 -0.624073)
(198.102 3.814 -1.84797)
(197.959 3.42371 -3.12808)
(197.398 2.98584 -4.40647)
(196.37 2.50834 -5.59582)
(194.845 1.99803 -6.56448)
(192.845 1.46137 -7.13952)
(190.486 0.909196 -7.09088)
(188.082 0.373507 -6.27218)
(198.933 3.97726 1.75616)
(199.738 3.64204 0.400802)
(200.186 3.21722 -1.09971)
(200.21 2.7284 -2.72743)
(199.725 2.18979 -4.42088)
(198.638 1.60405 -6.09077)
(196.866 0.976306 -7.57614)
(194.377 0.310398 -8.64521)
(191.255 -0.385684 -8.93391)
(187.921 -1.06575 -8.18734)
(200.017 4.71103 2.26441)
(201.086 4.31968 0.801886)
(201.765 3.83067 -0.849189)
(201.978 3.27819 -2.70288)
(201.607 2.68023 -4.69733)
(200.512 2.0379 -6.75504)
(198.547 1.35516 -8.69731)
(195.6 0.630376 -10.2448)
(191.689 -0.139082 -10.8853)
(187.33 -0.916232 -10.2414)
(201.018 3.88679 3.42392)
(202.316 3.36122 1.86542)
(203.201 2.76122 0.0459166)
(203.596 2.1216 -2.03861)
(203.353 1.45545 -4.34395)
(202.294 0.761555 -6.81128)
(200.2 0.0411229 -9.26292)
(196.867 -0.711796 -11.3917)
(192.195 -1.50517 -12.5388)
(186.776 -2.28893 -12.1978)
(201.579 4.59836 3.43077)
(203.051 4.00638 1.90994)
(204.1 3.35428 0.114535)
(204.65 2.68417 -2.00129)
(204.538 2.01717 -4.40969)
(203.554 1.35493 -7.08193)
(201.414 0.69858 -9.85751)
(197.808 0.0316665 -12.432)
(192.48 -0.673391 -14.0227)
(186.037 -1.445 -14.0109)
(202.054 2.94565 4.41525)
(203.622 2.19946 2.92252)
(204.765 1.44913 1.09661)
(205.416 0.725268 -1.06158)
(205.406 0.0468422 -3.57128)
(204.511 -0.576396 -6.42833)
(202.4 -1.12822 -9.53156)
(198.666 -1.62288 -12.6137)
(192.845 -2.0517 -14.8544)
(185.418 -2.56528 -15.3596)
(201.599 3.59699 3.96)
(203.208 2.74067 2.60704)
(204.425 1.94609 0.96151)
(205.147 1.1943 -1.04938)
(205.208 0.545007 -3.43327)
(204.37 0.0226608 -6.2074)
(202.289 -0.323353 -9.31224)
(198.488 -0.46465 -12.5014)
(192.414 -0.383174 -15.1191)
(184.175 -0.298671 -15.7966)
(189.84 1.08595 -0.241243)
(189.871 0.973401 -0.490288)
(189.821 0.86116 -0.750831)
(189.699 0.759405 -0.991666)
(189.513 0.667925 -1.19913)
(189.276 0.587622 -1.35557)
(189.014 0.519523 -1.43308)
(188.812 0.444562 -1.44488)
(188.924 0.322783 -1.34422)
(189.831 0.0469677 -1.19447)
(192.25 2.62935 -0.728269)
(192.332 2.57774 -1.15925)
(192.283 2.47234 -1.55459)
(192.099 2.32637 -1.91874)
(191.783 2.15771 -2.2236)
(191.35 1.976 -2.439)
(190.82 1.79025 -2.53273)
(190.231 1.60673 -2.47701)
(189.635 1.43652 -2.24269)
(189.103 1.2921 -1.85927)
(194.213 2.68811 -0.121745)
(194.416 2.54972 -0.783101)
(194.424 2.34792 -1.45221)
(194.226 2.10363 -2.10377)
(193.815 1.82941 -2.70193)
(193.194 1.53261 -3.19372)
(192.384 1.21822 -3.51923)
(191.433 0.891641 -3.61656)
(190.418 0.562522 -3.4231)
(189.467 0.248532 -2.93724)
(195.792 3.53673 0.194129)
(196.173 3.38414 -0.669297)
(196.303 3.14686 -1.56365)
(196.151 2.84658 -2.47608)
(195.692 2.50318 -3.35642)
(194.911 2.12578 -4.13546)
(193.812 1.72233 -4.72078)
(192.44 1.30127 -5.00452)
(190.899 0.875165 -4.86511)
(189.392 0.470283 -4.24627)
(197.239 3.16591 1.22802)
(197.83 2.90909 0.161243)
(198.122 2.57226 -1.00265)
(198.066 2.17742 -2.23529)
(197.613 1.73789 -3.47875)
(196.716 1.25905 -4.65195)
(195.353 0.747702 -5.63019)
(193.547 0.210643 -6.2544)
(191.409 -0.340839 -6.31295)
(189.235 -0.868883 -5.68715)
(198.259 3.9346 1.58546)
(199.072 3.6292 0.397993)
(199.543 3.23501 -0.923334)
(199.611 2.78266 -2.37269)
(199.2 2.28872 -3.88675)
(198.228 1.75741 -5.38305)
(196.63 1.19444 -6.71025)
(194.391 0.601905 -7.65949)
(191.604 -0.0163115 -7.91165)
(188.666 -0.629522 -7.26152)
(199.243 3.13112 2.65731)
(200.257 2.7007 1.35352)
(200.895 2.20143 -0.153007)
(201.094 1.66568 -1.8404)
(200.748 1.10501 -3.6568)
(199.742 0.5222 -5.52457)
(197.957 -0.0795799 -7.27958)
(195.324 -0.701797 -8.6722)
(191.883 -1.34471 -9.26752)
(188.125 -1.96223 -8.74867)
(199.809 3.92499 2.60357)
(200.983 3.43964 1.31309)
(201.763 2.89599 -0.192427)
(202.081 2.33442 -1.9332)
(201.813 1.77466 -3.86097)
(200.814 1.2212 -5.91873)
(198.914 0.676686 -7.94184)
(195.97 0.127872 -9.66237)
(191.938 -0.447492 -10.5326)
(187.369 -1.05952 -10.1316)
(200.316 2.29699 3.61614)
(201.587 1.66676 2.32353)
(202.454 1.02746 0.752467)
(202.856 0.412358 -1.06902)
(202.657 -0.161086 -3.13046)
(201.692 -0.681524 -5.38627)
(199.746 -1.13541 -7.70592)
(196.608 -1.53726 -9.82732)
(192.106 -1.8809 -11.1573)
(186.762 -2.26555 -11.0609)
(199.887 3.12528 3.11762)
(201.199 2.40006 1.94689)
(202.135 1.72884 0.531612)
(202.599 1.09919 -1.17044)
(202.453 0.565098 -3.13723)
(201.517 0.148815 -5.34295)
(199.556 -0.111578 -7.68513)
(196.295 -0.200204 -9.89517)
(191.506 -0.117996 -11.4578)
(185.526 -0.0387495 -11.3985)
(189.988 0.728556 -0.165395)
(190.013 0.663013 -0.300888)
(189.99 0.594661 -0.450946)
(189.925 0.533215 -0.586512)
(189.825 0.476342 -0.703885)
(189.699 0.425065 -0.793473)
(189.565 0.381661 -0.83427)
(189.491 0.32919 -0.848352)
(189.714 0.231414 -0.786064)
(190.787 -0.028407 -0.728865)
(191.849 2.01821 -0.641725)
(191.901 2.01606 -0.907238)
(191.871 1.96715 -1.13817)
(191.758 1.88104 -1.3417)
(191.566 1.77275 -1.50173)
(191.306 1.651 -1.60118)
(190.994 1.52462 -1.62324)
(190.655 1.40003 -1.55486)
(190.318 1.28773 -1.38333)
(190.02 1.19592 -1.13281)
(193.351 1.98506 -0.15195)
(193.485 1.89597 -0.603)
(193.485 1.75573 -1.05185)
(193.344 1.57994 -1.47896)
(193.063 1.37831 -1.85903)
(192.651 1.15713 -2.15765)
(192.128 0.921318 -2.33918)
(191.531 0.676101 -2.37076)
(190.912 0.42948 -2.22224)
(190.342 0.194063 -1.90547)
(194.637 2.82891 -0.0211156)
(194.9 2.73437 -0.644284)
(194.975 2.56654 -1.27514)
(194.843 2.34355 -1.90347)
(194.495 2.08283 -2.48999)
(193.929 1.79359 -2.98476)
(193.166 1.48397 -3.32765)
(192.247 1.16288 -3.45546)
(191.252 0.842501 -3.30669)
(190.304 0.543208 -2.86217)
(195.885 2.45412 0.843683)
(196.31 2.26377 0.0292221)
(196.497 2.00441 -0.846268)
(196.412 1.69397 -1.75261)
(196.03 1.34459 -2.64047)
(195.333 0.962976 -3.44488)
(194.326 0.556697 -4.07755)
(193.052 0.133867 -4.43693)
(191.609 -0.293633 -4.40526)
(190.189 -0.696682 -3.93196)
(196.793 3.23766 1.0588)
(197.398 3.00802 0.124219)
(197.717 2.69994 -0.89955)
(197.706 2.3397 -1.99735)
(197.317 1.94262 -3.11096)
(196.512 1.5148 -4.16696)
(195.271 1.06296 -5.04998)
(193.623 0.591517 -5.61629)
(191.672 0.107669 -5.67696)
(189.694 -0.36621 -5.12819)
(197.718 2.44868 2.03448)
(198.493 2.10491 0.974033)
(198.943 1.69944 -0.238096)
(199.018 1.26069 -1.56542)
(198.647 0.799319 -2.95582)
(197.765 0.320667 -4.33137)
(196.319 -0.170745 -5.55836)
(194.31 -0.67288 -6.45214)
(191.83 -1.1813 -6.74294)
(189.237 -1.65698 -6.2444)
(198.249 3.31568 1.90686)
(199.165 2.92959 0.843364)
(199.731 2.4883 -0.382165)
(199.89 2.02984 -1.77024)
(199.556 1.57146 -3.26638)
(198.634 1.12012 -4.80191)
(197.038 0.679752 -6.23218)
(194.725 0.24121 -7.34713)
(191.751 -0.212099 -7.78769)
(188.54 -0.684942 -7.29466)
(198.768 1.7017 2.93136)
(199.775 1.1812 1.8406)
(200.418 0.648068 0.522179)
(200.643 0.137043 -0.974182)
(200.347 -0.337733 -2.62458)
(199.419 -0.763828 -4.36129)
(197.736 -1.1301 -6.05531)
(195.21 -1.44919 -7.48188)
(191.828 -1.71372 -8.24128)
(188.033 -1.99241 -7.92705)
(198.345 2.70916 2.37162)
(199.391 2.11071 1.38836)
(200.095 1.55811 0.206102)
(200.368 1.04476 -1.19107)
(200.107 0.616802 -2.76595)
(199.183 0.294112 -4.46705)
(197.454 0.104097 -6.1819)
(194.783 0.0533458 -7.6658)
(191.131 0.130129 -8.55483)
(186.86 0.198039 -8.19698)
(190.244 0.457554 -0.0961044)
(190.265 0.41792 -0.16708)
(190.256 0.374829 -0.256351)
(190.223 0.338099 -0.334687)
(190.171 0.303671 -0.404701)
(190.105 0.272518 -0.460986)
(190.039 0.247468 -0.485696)
(190.027 0.212816 -0.505938)
(190.295 0.135226 -0.467607)
(191.445 -0.110479 -0.464476)
(191.689 1.5569 -0.556252)
(191.723 1.5836 -0.714624)
(191.707 1.57106 -0.842242)
(191.641 1.52599 -0.947742)
(191.529 1.46095 -1.02323)
(191.378 1.38365 -1.05939)
(191.198 1.3022 -1.04772)
(191.005 1.22254 -0.981898)
(190.817 1.15423 -0.856313)
(190.649 1.10219 -0.687881)
(192.795 1.41773 -0.137407)
(192.884 1.36079 -0.437746)
(192.882 1.26508 -0.733213)
(192.789 1.14158 -1.00903)
(192.606 0.997176 -1.24836)
(192.342 0.836737 -1.4296)
(192.013 0.664422 -1.53197)
(191.645 0.484442 -1.53826)
(191.269 0.302573 -1.43358)
(190.926 0.127114 -1.23231)
(193.804 2.23916 -0.148746)
(193.984 2.18748 -0.584433)
(194.028 2.07427 -1.01526)
(193.926 1.91449 -1.43467)
(193.675 1.72286 -1.81408)
(193.283 1.5079 -2.11931)
(192.767 1.27719 -2.31287)
(192.164 1.0391 -2.35905)
(191.527 0.80439 -2.22808)
(190.929 0.588604 -1.91503)
(194.835 1.8479 0.573279)
(195.136 1.711 -0.0315187)
(195.254 1.51669 -0.672614)
(195.169 1.27895 -1.32273)
(194.869 1.00833 -1.94274)
(194.351 0.71183 -2.48419)
(193.632 0.396949 -2.88782)
(192.754 0.0718786 -3.09181)
(191.791 -0.252522 -3.03276)
(190.864 -0.554772 -2.69244)
(195.604 2.62736 0.66296)
(196.045 2.46133 -0.0505126)
(196.257 2.22806 -0.819639)
(196.21 1.94926 -1.62706)
(195.878 1.63878 -2.42321)
(195.244 1.30355 -3.14865)
(194.315 0.950676 -3.72089)
(193.133 0.585628 -4.04657)
(191.788 0.216709 -4.01823)
(190.462 -0.141552 -3.58762)
(196.443 1.84782 1.54158)
(197.023 1.57981 0.702257)
(197.333 1.25843 -0.246769)
(197.337 0.907367 -1.26407)
(196.992 0.536491 -2.30188)
(196.263 0.152392 -3.29155)
(195.138 -0.239666 -4.1321)
(193.65 -0.635384 -4.69552)
(191.894 -1.02833 -4.82309)
(190.117 -1.38666 -4.40917)
(196.906 2.77698 1.33445)
(197.605 2.47972 0.484085)
(198.007 2.13185 -0.483025)
(198.066 1.76753 -1.55714)
(197.725 1.40197 -2.68419)
(196.932 1.0432 -3.79702)
(195.65 0.696025 -4.77901)
(193.891 0.354834 -5.47802)
(191.744 0.00835073 -5.66881)
(189.509 -0.348291 -5.20693)
(197.422 1.16528 2.36002)
(198.203 0.744869 1.46298)
(198.667 0.309962 0.383933)
(198.773 -0.105234 -0.81437)
(198.448 -0.490047 -2.10425)
(197.623 -0.831939 -3.41181)
(196.238 -1.12203 -4.62607)
(194.276 -1.37076 -5.57053)
(191.797 -1.56847 -5.99012)
(189.134 -1.7658 -5.64325)
(196.989 2.35422 1.72415)
(197.803 1.87419 0.924255)
(198.319 1.43196 -0.0328888)
(198.46 1.02544 -1.14352)
(198.153 0.691988 -2.36638)
(197.313 0.449023 -3.63853)
(195.867 0.314745 -4.85731)
(193.762 0.28959 -5.82136)
(191.052 0.356946 -6.29474)
(188.046 0.410545 -5.85606)
(190.527 0.250256 -0.0352944)
(190.546 0.224319 -0.0706932)
(190.543 0.195124 -0.127927)
(190.527 0.173042 -0.176149)
(190.501 0.152646 -0.222025)
(190.467 0.134824 -0.26226)
(190.435 0.122627 -0.280408)
(190.451 0.101227 -0.306984)
(190.727 0.0399974 -0.283011)
(191.905 -0.193766 -0.312784)
(191.671 1.21936 -0.48299)
(191.694 1.26145 -0.574074)
(191.687 1.27111 -0.63856)
(191.65 1.253 -0.685491)
(191.587 1.2177 -0.712274)
(191.501 1.17195 -0.714002)
(191.399 1.12299 -0.686534)
(191.29 1.07609 -0.626631)
(191.185 1.04003 -0.531815)
(191.091 1.01739 -0.412624)
(192.455 0.970129 -0.100292)
(192.513 0.932379 -0.296811)
(192.513 0.86734 -0.489233)
(192.454 0.782067 -0.666403)
(192.339 0.68093 -0.81749)
(192.175 0.567309 -0.929213)
(191.973 0.444292 -0.989456)
(191.749 0.314775 -0.989083)
(191.522 0.182271 -0.920118)
(191.316 0.0515195 -0.79599)
(193.226 1.76078 -0.216811)
(193.347 1.7387 -0.511916)
(193.374 1.66644 -0.796742)
(193.301 1.55623 -1.06798)
(193.129 1.42006 -1.30613)
(192.866 1.2653 -1.48866)
(192.526 1.0985 -1.59278)
(192.137 0.926907 -1.59863)
(191.732 0.759521 -1.49238)
(191.355 0.608278 -1.27364)
(194.043 1.34648 0.389339)
(194.252 1.25055 -0.0483967)
(194.327 1.10865 -0.506693)
(194.256 0.931163 -0.963232)
(194.033 0.726841 -1.38871)
(193.663 0.502195 -1.74882)
(193.164 0.264056 -2.00513)
(192.571 0.0198479 -2.12104)
(191.935 -0.221368 -2.06294)
(191.332 -0.444131 -1.82707)
(194.665 2.10532 0.375438)
(194.98 1.99034 -0.152821)
(195.119 1.81946 -0.71338)
(195.063 1.6101 -1.29063)
(194.797 1.37426 -1.84507)
(194.321 1.11885 -2.33159)
(193.648 0.85074 -2.69373)
(192.818 0.575504 -2.87308)
(191.904 0.301159 -2.81006)
(191.02 0.0360613 -2.48549)
(195.405 1.33286 1.16145)
(195.829 1.12863 0.514481)
(196.039 0.879938 -0.209483)
(196.01 0.605625 -0.970726)
(195.715 0.314551 -1.72862)
(195.142 0.0135577 -2.42755)
(194.298 -0.291994 -2.99516)
(193.222 -0.596734 -3.34633)
(191.999 -0.89416 -3.39213)