/*--------------------------------*- C++ -*----------------------------------*\
  =========                 |
  \\      /  F ield         | OpenFOAM: The Open Source CFD Toolbox
   \\    /   O peration     | Website:  https://openfoam.org
    \\  /    A nd           | Version:  6
     \\/     M anipulation  |
\*---------------------------------------------------------------------------*/
FoamFile
{
    version     2.0;
    format      ascii;
    class       volScalarField;
    location    "350";
    object      epsilon;
}
// * * * * * * * * * * * * * * * * * * * * * * * * * * * * * * * * * * * * * //

dimensions      [0 2 -3 0 0 0 0];

internalField   nonuniform List<scalar> 
3072
(
2.34843
4.33737
4.40113
4.2366
3.66878
3.1408
3.68422
11.2564
35.5247
50.2564
57.4185
62.8479
2.31478
6.30525
5.88653
5.84213
7.22357
16.1883
24.9994
27.6921
36.3116
39.8168
40.9205
41.6359
10.2997
8.77683
12.4814
17.3834
19.3284
20.4236
24.268
27.9206
31.6188
32.7973
34.1119
34.9798
15.497
12.6339
15.9056
17.2273
18.181
20.5168
24.3208
27.3642
29.2714
30.3603
31.4383
32.2062
17.6164
14.4722
16.2581
16.8302
18.4078
21.2823
24.7083
27.1493
28.6126
29.5603
30.4162
31.0515
18.6091
14.5998
15.9095
16.9179
19.1365
22.3241
25.2754
27.3618
28.6569
29.4827
30.1606
30.6854
18.3618
13.8564
15.0464
17.2664
20.3205
23.6363
26.3907
28.2429
29.3984
30.1544
30.7481
31.2102
17.9621
13.0609
15.2755
18.8678
23.0635
26.6946
29.3413
31.0125
31.993
32.5697
32.9508
33.2209
18.2822
13.6738
18.2313
24.4717
30.2737
34.3882
36.8317
38.0175
38.4164
38.3563
38.0815
37.7273
19.8995
17.5394
29.4044
40.2236
47.7298
51.692
52.8989
52.4004
50.962
49.1246
47.2297
45.4436
24.3116
34.7516
59.6939
75.4095
81.3572
81.4558
78.4684
74.0375
69.1345
64.2866
59.8088
55.8185
112.584
108.144
119.472
122.914
120.084
112.521
103.933
95.217
86.8916
79.1461
72.1786
66.0229
65.6471
67.0402
66.7183
66.0212
64.0093
60.2167
55.0075
48.081
39.647
29.9594
19.8143
25.3748
42.0103
42.2034
42.1841
42.1456
42.4088
43.3734
45.613
49.6037
54.7365
60.4405
64.9237
80.2538
35.4881
35.7447
35.7598
35.7457
36.188
37.5536
40.3316
45.2025
53.1556
65.4033
84.527
125.44
32.6672
32.9384
33.1115
33.3188
33.8894
35.2648
38.0494
43.1289
51.8442
66.8727
95.3723
158.271
31.4554
31.6971
31.8513
32.0625
32.6079
33.8882
36.5113
41.4429
50.3516
66.8112
101.342
183.362
31.0529
31.2972
31.4736
31.7168
32.2651
33.495
36.0096
40.7653
49.5412
66.4084
104.711
206.112
31.5521
31.8019
32.009
32.2785
32.8028
33.9248
36.2287
40.7163
49.2458
65.9268
106.311
225.994
33.4091
33.5442
33.6734
33.8723
34.2973
35.2454
37.2654
41.3589
49.4705
65.9185
106.912
250.278
37.3616
37.0232
36.7535
36.647
36.8308
37.4807
39.109
42.7012
50.26
66.2676
107.989
278.543
43.8543
42.5016
41.4053
40.6192
40.2852
40.5901
41.7197
44.6861
51.5337
66.8967
109.11
308.556
52.3826
49.5219
47.2148
45.4752
44.3569
44.1492
44.86
47.1325
53.0588
67.609
110.765
346.074
60.7348
56.3614
52.8499
50.1936
48.3691
47.5556
47.9423
49.5487
54.1407
67.2062
110.633
408.818
2.35161
4.3441
4.40826
4.24303
3.675
3.14398
3.68382
11.2177
35.4731
50.2167
57.3818
62.8107
2.31471
6.3034
5.88443
5.84365
7.21961
16.1688
24.9882
27.669
36.2898
39.7972
40.9017
41.6175
10.2937
8.76876
12.4666
17.3731
19.3314
20.4149
24.2517
27.8998
31.5992
32.7785
34.097
34.9674
15.4836
12.6222
15.8959
17.2206
18.1754
20.5028
24.3024
27.3452
29.2543
30.3433
31.4225
32.192
17.5993
14.4599
16.249
16.8221
18.3968
21.2638
24.6906
27.1335
28.5971
29.5445
30.4002
31.0361
18.5887
14.5889
15.9005
16.9076
19.1219
22.3085
25.2609
27.3474
28.6427
29.4681
30.1456
30.67
18.3467
13.8478
15.0376
17.256
20.3083
23.6243
26.379
28.2312
29.3862
30.1414
30.7343
31.1958
17.9546
13.056
15.2685
18.8603
23.0565
26.6882
29.3348
31.0054
31.9849
32.5602
32.9399
33.2092
18.2786
13.6713
18.2292
24.4716
30.2761
34.3916
36.8344
38.0187
38.4157
38.3532
38.0762
37.7202
19.9001
17.5404
29.4084
40.2337
47.7458
51.7096
52.9153
52.4139
50.9717
49.1303
47.232
45.4429
24.3147
34.7531
59.7006
75.4252
81.3793
81.4808
78.4931
74.0595
69.1526
64.3002
59.8182
55.8241
112.575
108.136
119.467
122.92
120.097
112.539
103.954
95.2376
86.9103
79.1618
72.1908
66.0318
65.6127
67.0078
66.6888
65.9975
63.9905
60.2021
54.9971
48.0739
39.6427
29.9579
19.8143
25.3751
41.9932
42.1882
42.1715
42.1351
42.4004
43.3668
45.608
49.5993
54.7325
60.4372
64.9223
80.253
35.477
35.734
35.749
35.7348
36.1785
37.5454
40.3245
45.1962
53.1499
65.3981
84.5226
125.435
32.6537
32.9253
33.0987
33.3066
33.8783
35.2549
38.0405
43.1209
51.837
66.8663
95.3659
158.261
31.4404
31.6827
31.8373
32.0493
32.5955
33.8768
36.5008
41.4333
50.3428
66.8034
101.334
183.348
31.0376
31.2822
31.4591
31.703
32.2521
33.4828
35.9983
40.7547
49.5315
66.3997
104.702
206.095
31.5375
31.7874
31.9948
32.2648
32.7897
33.9124
36.217
40.7053
49.2356
65.9171
106.303
225.974
33.3964
33.5314
33.6606
33.8596
34.285
35.2335
37.254
41.348
49.4601
65.9088
106.902
250.257
37.3531
37.0136
36.7434
36.6367
36.8203
37.4703
39.0987
42.6911
50.2501
66.2578
107.979
278.52
43.8513
42.4967
41.3992
40.6122
40.2774
40.582
41.7113
44.6775
51.525
66.8878
109.1
308.534
52.385
49.5219
47.2129
45.4718
44.3524
44.1438
44.8543
47.1263
53.0523
67.6019
110.757
346.059
60.7406
56.3647
52.8511
50.1933
48.3676
47.553
47.9395
49.5454
54.1368
67.2018
110.629
408.809
2.31589
4.26213
4.35442
4.20777
3.66997
3.13817
3.68083
11.2493
35.5213
50.2575
57.4234
62.8549
11.0478
7.14152
5.9711
5.84325
7.22486
16.186
24.9977
27.6894
36.3131
39.8197
40.9248
41.6407
10.2027
8.73773
12.4635
17.3882
19.3237
20.4205
24.2671
27.9212
31.6211
32.8007
34.1161
34.9845
15.5116
12.6181
15.8793
17.2125
18.1759
20.5148
24.3211
27.3658
29.2743
30.3639
31.4424
32.2107
17.6143
14.4672
16.2483
16.8241
18.4041
21.2828
24.7095
27.1513
28.6154
29.5637
30.4199
31.0556
18.6091
14.5962
15.9031
16.9132
19.1353
22.3243
25.2765
27.3638
28.6597
29.486
30.1643
30.6894
18.3623
13.8542
15.0428
17.2637
20.3199
23.6372
26.3926
28.2456
29.4018
30.1582
30.7523
31.2145
17.9656
13.0605
15.2737
18.8673
23.0649
26.6977
29.3457
31.0178
31.9988
32.5756
32.9565
33.2264
18.2861
13.6744
18.2319
24.4743
30.279
34.396
36.8413
38.0278
38.4268
38.366
38.0903
37.735
19.9031
17.5406
29.4064
40.2292
47.7404
51.7065
52.9157
52.4176
50.978
49.1389
47.2421
45.454
24.3163
34.7523
59.6948
75.4156
81.369
81.4725
78.4881
74.058
69.154
64.304
59.8236
55.8307
112.599
108.146
119.472
122.916
120.09
112.531
103.948
95.2339
86.9088
79.1621
72.1926
66.0346
65.6561
67.0497
66.7282
66.031
64.0189
60.2251
55.015
48.0868
39.6516
29.9618
19.8153
25.3756
42.0155
42.2086
42.1892
42.1504
42.4133
43.3773
45.6165
49.6071
54.7397
60.4438
64.926
80.257
35.4931
35.7499
35.7652
35.751
36.1931
37.5585
40.3364
45.2074
53.1606
65.4089
84.5328
125.447
32.672
32.9434
33.1166
33.324
33.8946
35.2702
38.0548
43.1346
51.8501
66.8792
95.3809
158.284
31.4598
31.7018
31.8562
32.0675
32.613
33.8935
36.5168
41.4488
50.3583
66.8192
101.352
183.378
31.0571
31.3016
31.4781
31.7215
32.2699
33.4999
36.0148
40.771
49.5479
66.4166
104.722
206.133
31.5565
31.8063
32.0134
32.2829
32.8071
33.9293
36.2334
40.7216
49.252
65.9349
106.323
226.017
33.4142
33.5491
33.6779
33.8765
34.3014
35.2494
37.2695
41.3636
49.4763
65.9262
106.924
250.305
37.3684
37.029
36.7585
36.6513
36.8346
37.4843
39.1126
42.7053
50.2651
66.2748
108.001
278.573
43.8629
42.5086
41.411
40.6238
40.2889
40.5934
41.7229
44.6896
51.5383
66.9033
109.121
308.591
52.3923
49.5297
47.2208
45.4799
44.3606
44.1523
44.863
47.1358
53.063
67.6153
110.777
346.117
60.7441
56.3687
52.8555
50.198
48.3727
47.5586
47.9453
49.552
54.1449
67.2124
110.645
408.881
2.35178
4.34456
4.40875
4.24365
3.67556
3.14458
3.68464
11.2215
35.4823
50.2276
57.3935
62.8232
2.31487
6.30414
5.88491
5.8446
7.22148
16.1738
24.994
27.6752
36.297
39.8047
40.909
41.6247
10.2945
8.76955
12.4678
17.3768
19.3375
20.4205
24.2565
27.9052
31.6048
32.784
34.1021
34.9722
15.4841
12.6234
15.899
17.2249
18.1802
20.5071
24.3065
27.3496
29.2586
30.3475
31.4267
32.1959
17.5996
14.4616
16.2525
16.8261
18.4004
21.2665
24.6938
27.137
28.6007
29.5481
30.4037
31.0394
18.5882
14.5906
15.9037
16.9108
19.1241
22.3109
25.2638
27.3506
28.6459
29.4712
30.1485
30.6728
18.3462
13.8492
15.0401
17.2585
20.3105
23.6266
26.3816
28.234
29.3889
30.144
30.7367
31.1981
17.9542
13.0573
15.2707
18.8626
23.059
26.6906
29.3372
31.0076
31.9869
32.562
32.9416
33.2107
18.279
13.6728
18.232
24.475
30.2797
34.3947
36.8369
38.0206
38.4171
38.3542
38.077
37.7208
19.9021
17.5436
29.4141
40.2402
47.7519
51.7144
52.9186
52.416
50.9729
49.1309
47.2322
45.4429
24.3193
34.761
59.7118
75.4355
81.3875
81.4865
78.4966
74.0614
69.1534
64.3003
59.8179
55.8235
112.601
108.152
119.48
122.93
120.104
112.544
103.957
95.2391
86.9107
79.1615
72.1902
66.031
65.6253
67.0205
66.7011
66.0094
64.0017
60.2122
55.0058
48.0811
39.6476
29.9617
19.8168
25.3795
42.0001
42.1948
42.1776
42.1409
42.4058
43.3721
45.6131
49.6046
54.7381
60.4427
64.929
80.2628
35.4815
35.7383
35.753
35.7386
36.1818
37.5486
40.3275
45.1992
53.1531
65.4019
84.5282
125.445
32.6573
32.9286
33.1018
33.3095
33.8809
35.2573
38.0427
43.1231
51.8392
66.8691
95.37
158.272
31.4435
31.6855
31.84
32.0517
32.5977
33.8788
36.5026
41.4349
50.3443
66.8049
101.337
183.357
31.0403
31.2846
31.4613
31.705
32.2539
33.4845
35.9999
40.7561
49.5327
66.4008
104.704
206.103
31.5396
31.7893
31.9965
32.2664
32.7911
33.9138
36.2183
40.7065
49.2366
65.9178
106.303
225.981
33.3978
33.5325
33.6616
33.8606
34.2859
35.2344
37.2549
41.3489
49.461
65.9094
106.902
250.262
37.3536
37.014
36.7437
36.6369
36.8206
37.4706
39.0991
42.6916
50.2506
66.2581
107.979
278.521
43.8511
42.4964
41.3988
40.6119
40.2772
40.5818
41.7112
44.6775
51.525
66.8876
109.099
308.53
52.3843
49.5211
47.2121
45.4711
44.3518
44.1433
44.8537
47.1258
53.0515
67.6008
110.755
346.048
60.7398
56.364
52.8504
50.1927
48.3671
47.5524
47.9387
49.5444
54.1353
67.1994
110.624
408.785
155.173
148.405
140.889
132.813
125.449
117.653
109.633
101.556
93.5574
85.6706
78.2627
71.451
95.7761
97.5561
98.2269
97.9884
97.2545
95.6576
93.3087
90.1296
85.7999
80.3869
74.8567
69.3334
67.2305
68.7265
69.8361
70.556
71.1354
71.2514
70.9104
70.0378
68.5558
66.656
64.2298
61.1481
52.1837
52.7843
53.1438
53.2865
53.4005
53.4455
53.3894
53.2004
52.8265
52.2547
51.487
50.55
65.415
60.3861
56.3308
53.2504
51.1467
49.9919
50.1229
51.0947
54.1143
62.5698
85.6163
168.442
64.1465
59.8136
56.325
53.7106
51.933
50.8398
50.7575
51.2493
52.8825
57.0046
67.2736
91.457
57.8997
55.2933
53.1647
51.5537
50.3613
49.4984
49.066
49.0848
49.8674
51.4623
55.9806
64.48
49.7487
48.9129
47.9125
46.8655
45.8374
44.9378
44.3101
44.1135
44.6306
45.3908
47.6173
50.9437
155.179
148.405
140.885
132.81
125.451
117.66
109.643
101.568
93.5704
85.683
78.2734
71.4597
95.7854
97.564
98.2299
97.9895
97.2555
95.66
93.3123
90.1351
85.8082
80.3955
74.8649
69.3408
67.24
68.7351
69.8425
70.5604
71.1388
71.255
70.9144
70.0426
68.5614
66.6619
64.2361
61.1546
52.1904
52.7915
53.1502
53.292
53.4054
53.4502
53.3942
53.2055
52.8321
52.2607
51.4934
50.5569
65.4217
60.3908
56.334
53.2523
51.1478
49.9923
50.1232
51.0947
54.1139
62.569
85.6146
168.437
64.1528
59.8188
56.3294
53.7143
51.9363
50.8427
50.7603
51.2521
52.8851
57.0068
67.2754
91.457
57.9061
55.2994
53.1706
51.5594
50.3669
49.504
49.0714
49.0902
49.8724
51.467
55.9845
64.4831
49.756
48.9203
47.92
46.873
45.8448
44.945
44.3171
44.1201
44.6367
45.3962
47.6221
50.9475
155.178
148.409
140.889
132.811
125.449
117.656
109.639
101.565
93.5683
85.682
78.2733
71.4602
95.7847
97.5649
98.2321
97.991
97.2558
95.6591
93.311
90.1335
85.8065
80.3945
74.8643
69.3405
67.242
68.7372
69.8446
70.5625
71.1404
71.2555
70.9145
70.0424
68.5611
66.6616
64.2357
61.154
52.1933
52.7938
53.1524
53.294
53.4071
53.4513
53.395
53.206
52.8323
52.2607
51.493
50.5561
65.4226
60.3922
56.3357
53.2545
51.1502
49.9953
50.1264
51.0985
54.1189
62.5759
85.6258
168.466
64.1525
59.8187
56.3294
53.7147
51.937
50.8438
50.7619
51.254
52.8877
57.011
67.2821
91.4701
57.9052
55.2985
53.1697
51.5587
50.3665
49.5037
49.0719
49.0911
49.874
51.4698
55.9896
64.4911
49.755
48.9194
47.9192
46.8724
45.8446
44.9454
44.3183
44.1223
44.6399
45.4007
47.6282
50.9555
155.198
148.418
140.896
132.82
125.459
117.667
109.648
101.572
93.5725
85.6841
78.2739
71.46
95.7992
97.5776
98.2436
98.0032
97.2687
95.672
93.3232
90.1441
85.8143
80.4003
74.8688
69.344
67.2522
68.7481
69.8561
70.5747
71.1534
71.2689
70.9277
70.0549
68.5724
66.672
64.2448
61.1614
52.2028
52.8044
53.1637
53.3059
53.4197
53.4642
53.4078
53.2184
52.8441
52.2717
51.5033
50.5653
65.4219
60.3911
56.3343
53.2527
51.148
49.9922
50.1227
51.0935
54.1118
62.5657
85.6098
168.432
64.1556
59.8215
56.3318
53.7164
51.9377
50.8435
50.7596
51.2507
52.8825
57.0029
67.2697
91.4492
57.9121
55.3048
53.1751
51.5629
50.369
49.5048
49.0702
49.088
49.8686
51.4621
55.9781
64.4752
49.7629
48.9262
47.9244
46.8755
45.8454
44.9439
44.3142
44.1154
44.631
45.3898
47.6153
50.9412
42.5992
42.4241
42.2182
42.0167
41.9212
41.871
41.8433
41.8265
41.8207
41.8366
41.8795
41.9393
35.2354
34.9875
34.7961
34.68
34.6635
34.6948
34.7792
34.9326
35.1568
35.4091
35.5855
35.5271
29.7764
29.7188
29.7214
29.7648
29.8281
29.8845
29.968
30.1362
30.4238
30.8268
31.263
31.5038
25.6293
25.7933
25.9826
26.1449
26.2294
26.1965
26.0972
26.0641
26.2094
26.8012
28.2489
30.9162
41.905
40.3412
38.7573
37.867
37.309
37.2624
37.6856
38.5309
39.6743
40.8429
42.1284
42.8998
35.0276
32.0188
30.0635
29.4945
29.6041
30.3639
31.5587
32.9706
34.2405
35.1963
35.871
35.8879
31.2951
25.6371
23.3971
23.0684
23.6386
24.8243
26.3618
27.9082
29.105
29.8906
30.3156
30.2044
33.2635
21.1642
18.4166
18.1662
18.9721
20.3174
21.9187
23.4252
24.5399
25.2554
25.6475
25.6923
42.6053
42.4299
42.2237
42.022
41.9264
41.8763
41.849
41.8326
41.8275
41.844
41.8878
41.9482
35.2407
34.9927
34.8013
34.6855
34.6693
34.7008
34.7855
34.9394
35.1643
35.4175
35.5948
35.5374
29.7812
29.7236
29.7266
29.7706
29.8342
29.8909
29.9746
30.1432
30.4315
30.8356
31.273
31.5149
25.6337
25.7979
25.9878
26.1508
26.2356
26.203
26.1037
26.0706
26.2166
26.8091
28.2582
30.9279
41.9142
40.3498
38.7653
37.8747
37.3162
37.2692
37.6917
38.5364
39.679
40.8469
42.1317
42.9026
35.0378
32.0273
30.071
29.5012
29.6102
30.3695
31.5638
32.9749
34.2442
35.1994
35.8737
35.8902
31.3063
25.6451
23.4037
23.0741
23.6436
24.8289
26.3661
27.9119
29.1082
29.8935
30.3181
30.2066
33.2773
21.1717
18.4223
18.1712
18.9765
20.3214
21.9225
23.4286
24.5429
25.2582
25.65
25.6944
42.6075
42.4319
42.2253
42.0235
41.9277
41.8773
41.8497
41.8331
41.8274
41.8437
41.8872
41.9479
35.2428
34.9944
34.8028
34.6868
34.6706
34.702
34.7867
34.9404
35.1651
35.4183
35.5958
35.5394
29.7832
29.7253
29.7281
29.772
29.8357
29.8927
29.9767
30.1456
30.4342
30.8385
31.2766
31.5196
25.6356
25.7995
25.9894
26.1523
26.2375
26.2055
26.1069
26.0746
26.2218
26.8151
28.2657
30.9375
41.9148
40.3508
38.7669
37.8771
37.3196
37.2734
37.6971
38.5426
39.6862
40.855
42.141
42.9126
35.0413
32.0308
30.0753
29.5064
29.6164
30.3764
31.5715
32.9835
34.2534
35.2093
35.884
35.9008
31.3128
25.6506
23.4097
23.0809
23.6512
24.8371
26.3749
27.9213
29.118
29.9035
30.3283
30.2165
33.2887
21.1789
18.4291
18.1783
18.9843
20.3298
21.9314
23.4379
24.5524
25.2676
25.6593
25.7033
42.6183
42.4431
42.2368
42.035
41.939
41.8882
41.86
41.8425
41.8358
41.8511
41.8931
41.9516
35.2533
35.0049
34.8131
34.6966
34.6795
34.71
34.7935
34.946
35.169
35.4204
35.5957
35.5358
29.7926
29.7343
29.7365
29.7796
29.842
29.8975
29.9798
30.1467
30.4329
30.8348
31.2699
31.5097
25.6436
25.8068
25.9958
26.1577
26.2413
26.2071
26.1064
26.0717
26.215
26.8058
28.2526
30.9193
41.9155
40.3501
38.7642
37.872
37.3122
37.264
37.6853
38.5295
39.6721
40.8403
42.1262
42.8979
35.0343
32.0241
30.067
29.4964
29.6044
30.3631
31.5567
32.9678
34.2374
35.1935
35.869
35.8866
31.2989
25.6398
23.3985
23.0687
23.6378
24.8226
26.3592
27.9053
29.1021
29.888
30.314
30.2038
33.2652
21.1651
18.4167
18.1658
18.971
20.3155
21.9162
23.4225
24.5375
25.2535
25.6467
25.6924
22.2661
22.6228
22.948
23.1688
23.205
22.9453
22.4544
21.8333
21.1606
20.534
20.3392
22.9971
19.3873
19.8747
20.2699
20.4992
20.4193
19.853
18.8289
17.3421
15.2776
12.2554
7.18936
2.86499
16.8084
17.3673
17.7882
17.9931
17.7752
16.9292
15.4291
13.2319
10.2561
6.46552
2.76135
1.66531
14.4542
15.0368
15.4576
15.6266
15.3038
14.2858
12.5245
10.0362
6.96062
3.80376
1.76741
1.55737
12.3104
12.8837
13.2897
13.4278
13.0591
12.0038
10.2213
7.81923
5.1253
2.80886
1.53635
1.52391
10.3914
10.9335
11.3177
11.4364
11.0783
10.0994
8.4708
6.363
4.16868
2.45719
1.50768
1.46041
8.72037
9.21874
9.57806
9.68786
9.37767
8.54864
7.1635
5.41294
3.66815
2.35252
1.54883
1.32715
7.32417
7.77397
8.10808
8.21323
7.9689
7.32245
6.19945
4.78789
3.40269
2.34223
1.60816
1.14851
6.24209
6.64735
6.95615
7.06325
6.88785
6.40692
5.52408
4.39921
3.28797
2.38654
1.64943
0.927272
5.56857
5.94539
6.2422
6.35812
6.24307
5.87794
5.17728
4.26934
3.32254
2.49217
1.66371
0.683286
5.71127
6.11685
6.44783
6.5928
6.50965
6.15851
5.53818
4.72138
3.77087
2.80035
1.64907
0.458604
10.5709
11.4476
12.2197
12.5755
12.4095
11.7229
10.5518
8.87729
6.7194
4.23328
1.90518
0.267316
51.5185
17.5234
14.459
14.3352
15.2411
16.5903
18.1161
19.5272
20.5856
21.2976
21.7625
22.0246
29.3567
12.9773
11.1734
11.2941
12.2152
13.4878
14.88
16.1735
17.1794
17.9194
18.4701
18.9224
20.0299
9.63659
8.58527
8.87223
9.75267
10.9089
12.1498
13.3136
14.2609
15.0103
15.6356
16.2175
14.3219
7.24808
6.59242
6.94924
7.75565
8.77829
9.86732
10.8973
11.7762
12.511
13.1682
13.8083
10.4041
5.5097
5.07299
5.43237
6.14789
7.03409
7.97656
8.87902
9.67664
10.3734
11.0188
11.6624
7.54222
4.21701
3.91282
4.24348
4.86582
5.62297
6.42909
7.21207
7.92267
8.56245
9.16821
9.77825
5.43263
3.25123
3.02324
3.31685
3.85607
4.4989
5.18317
5.85736
6.48253
7.05701
7.60775
8.16328
3.87996
2.50711
2.33803
2.59898
3.07531
3.62405
4.20503
4.78538
5.33363
5.84434
6.33617
6.83057
2.68753
1.89096
1.80331
2.05407
2.49339
2.97312
3.47387
3.98095
4.46859
4.92677
5.36695
5.80587
1.74834
1.35775
1.38751
1.6807
2.12061
2.5666
3.01764
3.47913
3.92828
4.3545
4.76497
5.16903
0.963051
0.863069
1.14562
1.5501
2.04207
2.50668
2.96911
3.45692
3.94356
4.40872
4.85447
5.28634
0.303195
0.349479
1.89661
2.71904
3.47337
4.2045
5.0199
5.98217
6.99284
7.94969
8.8411
9.70497
22.27
22.6272
22.9531
23.1746
23.2113
22.9518
22.4607
21.8391
21.1663
20.5394
20.3447
23.0045
19.3907
19.8789
20.2748
20.5049
20.4256
19.8594
18.8348
17.3471
15.2816
12.2581
7.19084
2.86636
16.8114
17.3711
17.7928
17.9986
17.7814
16.9354
15.4346
13.2363
10.259
6.467
2.76233
1.66651
14.4568
15.0403
15.4618
15.6317
15.3096
14.2917
12.5297
10.0401
6.96311
3.80509
1.76841
1.55861
12.3128
12.8868
13.2936
13.4324
13.0644
12.0092
10.2261
7.82284
5.12762
2.81025
1.53742
1.52515
10.3935
10.9362
11.321
11.4405
11.083
10.1042
8.47512
6.36632
4.17092
2.45866
1.50881
1.46167
8.7223
9.22107
9.581
9.69138
9.38172
8.55284
7.16738
5.41599
3.67033
2.35407
1.55008
1.32831
7.32596
7.776
8.11063
8.21625
7.97232
7.32607
6.2029
4.79068
3.40481
2.34384
1.6095
1.14954
6.24373
6.6491
6.95842
7.06586
6.89077
6.41003
5.52718
4.4018
3.29006
2.38822
1.65084
0.928123
5.57007
5.94701
6.2443
6.36052
6.24571
5.88076
5.18014
4.27185
3.32468
2.49397
1.66514
0.683946
5.71264
6.11857
6.45008
6.59535
6.51247
6.16147
5.54117
4.72414
3.77336
2.80244
1.65049
0.459091
10.5737
11.4512
12.224
12.5807
12.4151
11.7288
10.5576
8.88252
6.72403
4.23654
1.9068
0.267521
51.5435
17.5304
14.464
14.3395
15.245
16.594
18.1196
19.5305
20.5887
21.3004
21.7649
22.0267
29.3712
12.9831
11.1778
11.298
12.2189
13.4913
14.8834
16.1768
17.1825
17.9222
18.4725
18.9244
20.0403
9.64132
8.58915
8.87582
9.75613
10.9123
12.1532
13.317
14.2641
15.0132
15.6381
16.2196
14.3295
7.25201
6.59589
6.9526
7.75898
8.78165
9.87072
10.9007
11.7794
12.514
13.1708
13.8104
10.4099
5.51297
5.07609
5.43552
6.15111
7.03739
7.97994
8.88243
9.67994
10.3765
11.0215
11.6647
7.54654
4.2197
3.91557
4.24641
4.86891
5.62619
6.43242
7.21547
7.92601
8.5656
9.17104
9.78069
5.43585
3.25341
3.02563
3.31956
3.859
4.50201
5.18643
5.86072
6.48587
7.06023
7.61071
8.16589
3.88227
2.50883
2.34008
2.60145
3.07809
3.62704
4.2082
4.78868
5.33697
5.8476
6.33924
6.83336
2.68916
1.89228
1.80504
2.05633
2.49602
2.97599
3.47695
3.98421
4.47192
4.93007
5.37013
5.80884
1.74937
1.35873
1.38895
1.68286
2.12319
2.56945
3.02072
3.48243
3.9317
4.35794
4.76834
5.17228
0.963594
0.863748
1.14703
1.55236
2.04483
2.50976
2.97248
3.46061
3.94747
4.41268
4.85841
5.29022
0.303315
0.349678
1.89951
2.72315
3.47819
4.20983
5.02588
5.98888
7.00008
7.95715
8.84867
9.71238
22.2718
22.6287
22.9546
23.1762
23.2134
22.9548
22.4648
21.8445
21.1731
20.5477
20.3545
23.0154
19.3923
19.8803
20.2761
20.5064
20.4277
19.8625
18.8391
17.3527
15.2883
12.265
7.19546
2.86737
16.813
17.3724
17.794
17.9999
17.7833
16.9382
15.4386
13.2411
10.2642
6.47113
2.76377
1.66673
14.4584
15.0415
15.4629
15.6328
15.3112
14.294
12.5328
10.0438
6.96651
3.80712
1.7689
1.55872
12.3145
12.888
13.2946
13.4334
13.0657
12.011
10.2284
7.82535
5.12968
2.81124
1.53758
1.52524
10.3954
10.9376
11.3222
11.4414
11.0841
10.1055
8.47677
6.36796
4.17211
2.45917
1.50885
1.46175
8.72442
9.2227
9.58227
9.69241
9.38275
8.55388
7.16854
5.41707
3.671
2.35434
1.55
1.32839
7.32832
7.77786
8.11212
8.2174
7.97341
7.327
6.20378
4.79143
3.40518
2.344
1.60937
1.14964
6.24638
6.6512
6.96019
7.0671
6.89203
6.41096
5.52792
4.40243
3.29022
2.3884
1.65071
0.928263
5.57303
5.94946
6.2463
6.36199
6.2471
5.8818
5.18089
4.2724
3.32484
2.49407
1.66508
0.684009
5.71624
6.12158
6.45249
6.59719
6.51411
6.16269
5.54209
4.72475
3.77352
2.80259
1.6505
0.459129
10.5803
11.457
12.2284
12.5843
12.418
11.7311
10.5594
8.88378
6.72467
4.23679
1.90688
0.267528
51.5654
17.5382
14.4707
14.3463
15.2524
16.6019
18.128
19.5391
20.5973
21.3088
21.7731
22.0342
29.3877
12.9899
11.1837
11.304
12.2254
13.4983
14.8908
16.1844
17.1901
17.9296
18.4795
18.9307
20.0528
9.647
8.59415
8.88096
9.76166
10.9182
12.1595
13.3235
14.2705
15.0194
15.6439
16.2246
14.3393
7.25655
6.59992
6.95674
7.76345
8.78644
9.87577
10.9059
11.7846
12.5189
13.1754
13.8145
10.4172
5.51656
5.07924
5.43873
6.15456
7.04109
7.98384
8.88644
9.68393
10.3803
11.025
11.6678
7.55197
4.22253
3.91797
4.2488
4.87146
5.62893
6.4353
7.21842
7.92895
8.56842
9.17363
9.78292
5.43981
3.25568
3.02743
3.32127
3.8608
4.50393
5.18844
5.86277
6.48791
7.06217
7.61246
8.16735
3.88516
2.51063
2.34142
2.60262
3.07929
3.62832
4.20951
4.79001
5.33827
5.84883
6.34031
6.83417
2.69114
1.89365
1.80601
2.05707
2.49676
2.97679
3.47776
3.98498
4.47266
4.93075
5.37068
5.80917
1.75069
1.35969
1.38963
1.68327
2.1236
2.56993
3.02119
3.48283
3.93205
4.35821
4.76851
5.17223
0.964313
0.864244
1.14744
1.55257
2.04509
2.51011
2.97282
3.46081
3.94757
4.41271
4.85834
5.28991
0.3035
0.349831
1.89984
2.72361
3.47889
4.21075
5.02668
5.9893
7.00036
7.95737
8.84865
9.71204
22.2784
22.6344
22.9592
23.1795
23.215
22.9539
22.4615
21.8386
21.164
20.5357
20.3399
22.9986
19.3975
19.8843
20.2793
20.5082
20.4274
19.8599
18.8344
17.346
15.28
12.2565
7.19018
2.8663
16.817
17.3753
17.796
18.0005
17.7818
16.9348
15.4335
13.2351
10.2582
6.46691
2.76247
1.66649
14.4614
15.0435
15.464
15.6326
15.3092
14.2905
12.5282
10.039
6.96268
3.80521
1.76837
1.55851
12.3167
12.8893
13.295
13.4327
13.0635
12.0077
10.2245
7.82176
5.12721
2.81017
1.53721
1.525
10.3969
10.9384
11.3222
11.4405
11.082
10.1026
8.47356
6.36525
4.1704
2.45836
1.5085
1.46138
8.72535
9.22303
9.58196
9.69132
9.38078
8.55142
7.16591
5.41494
3.66969
2.35359
1.54963
1.328
7.32876
7.77788
8.11159
8.21626
7.97165
7.32491
6.20158
4.78968
3.4041
2.34326
1.60895
1.14921
6.2464
6.65099
6.95949
7.06606
6.89041
6.40918
5.52604
4.40088
3.28931
2.38756
1.65023
0.927816
5.57276
5.94903
6.24555
6.36096
6.24565
5.88021
5.17922
4.27102
3.32391
2.49323
1.66451
0.683682
5.71575
6.12099
6.45171
6.59612
6.51258
6.1611
5.54044
4.72335
3.77246
2.80157
1.64986
0.458874
10.58
11.4564
12.2275
12.5821
12.4153
11.7281
10.5563
8.88106
6.72226
4.23516
1.90608
0.267423
51.5222
17.5235
14.4586
14.3345
15.24
16.5887
18.1139
19.525
20.5838
21.2966
21.7624
22.0251
29.3571
12.9769
11.1728
11.2934
12.2143
13.4865
14.8783
16.1718
17.1781
17.919
18.4706
18.9228
20.0294
9.63605
8.58469
8.8716
9.75191
10.9079
12.1486
13.3124
14.26
15.0101
15.6363
16.2181
14.3211
7.24752
6.59187
6.9487
7.75508
8.77761
9.86649
10.8964
11.7755
12.5108
13.1687
13.8092
10.4034
5.50918
5.0725
5.43191
6.14745
7.03361
7.97598
8.87839
9.67612
10.3732
11.0191
11.6633
7.54155
4.21654
3.91239
4.24309
4.86546
5.62261
6.42867
7.2116
7.92225
8.5622
9.16833
9.77884
5.43214
3.25085
3.02286
3.3165
3.85575
4.49859
5.18283
5.85698
6.48214
7.05672
7.60768
8.16355
3.87958
2.50681
2.33771
2.59866
3.07501
3.62377
4.20473
4.78504
5.33326
5.84399
6.33593
6.83055
2.68732
1.89075
1.80305
2.05378
2.4931
2.97283
3.47358
3.98063
4.46821
4.92637
5.36656
5.80559
1.74822
1.35763
1.38731
1.68044
2.12031
2.5663
3.01733
3.4788
3.92789
4.35405
4.76445
5.16854
0.963012
0.863055
1.14544
1.54981
2.04173
2.50633
2.96877
3.45656
3.94313
4.40815
4.85374
5.28548
0.303185
0.349459
1.89637
2.71858
3.47282
4.20398
5.01945
5.98154
6.99193
7.94834
8.83911
9.70227
)
;

boundaryField
{
    rotor
    {
        Cmu             0.09;
        kappa           0.41;
        E               9.8;
        type            epsilonWallFunction;
        value           nonuniform List<scalar> 
192
(
2.34843
4.33737
4.40113
4.2366
3.66878
3.1408
3.68422
11.2564
35.5247
50.2564
57.4185
62.8479
65.6471
67.0402
66.7183
66.0212
64.0093
60.2167
55.0075
48.081
39.647
29.9594
19.8143
25.3748
2.35161
4.3441
4.40826
4.24303
3.675
3.14398
3.68382
11.2177
35.4731
50.2167
57.3818
62.8107
65.6127
67.0078
66.6888
65.9975
63.9905
60.2021
54.9971
48.0739
39.6427
29.9579
19.8143
25.3751
2.31589
4.26213
4.35442
4.20777
3.66997
3.13817
3.68083
11.2493
35.5213
50.2575
57.4234
62.8549
65.6561
67.0497
66.7282
66.031
64.0189
60.2251
55.015
48.0868
39.6516
29.9618
19.8153
25.3756
2.35178
4.34456
4.40875
4.24365
3.67556
3.14458
3.68464
11.2215
35.4823
50.2276
57.3935
62.8232
65.6253
67.0205
66.7011
66.0094
64.0017
60.2122
55.0058
48.0811
39.6476
29.9617
19.8168
25.3795
2.34843
2.31478
10.2997
15.497
17.6164
18.6091
18.3618
17.9621
18.2822
19.8995
24.3116
112.584
25.3795
80.2628
125.445
158.272
183.357
206.103
225.981
250.262
278.521
308.53
346.048
408.785
2.35161
2.31471
10.2937
15.4836
17.5993
18.5887
18.3467
17.9546
18.2786
19.9001
24.3147
112.575
25.3748
80.2538
125.44
158.271
183.362
206.112
225.994
250.278
278.543
308.556
346.074
408.818
2.31589
11.0478
10.2027
15.5116
17.6143
18.6091
18.3623
17.9656
18.2861
19.9031
24.3163
112.599
25.3751
80.253
125.435
158.261
183.348
206.095
225.974
250.257
278.52
308.534
346.059
408.809
2.35178
2.31487
10.2945
15.4841
17.5996
18.5882
18.3462
17.9542
18.279
19.9021
24.3193
112.601
25.3756
80.257
125.447
158.284
183.378
206.133
226.017
250.305
278.573
308.591
346.117
408.881
)
;
    }
    stator
    {
        Cmu             0.09;
        kappa           0.41;
        E               9.8;
        type            epsilonWallFunction;
        value           nonuniform List<scalar> 
192
(
10.5709
11.4476
12.2197
12.5755
12.4095
11.7229
10.5518
8.87729
6.7194
4.23328
1.90518
0.267316
0.303195
0.349479
1.89661
2.71904
3.47337
4.2045
5.0199
5.98217
6.99284
7.94969
8.8411
9.70497
10.5737
11.4512
12.224
12.5807
12.4151
11.7288
10.5576
8.88252
6.72403
4.23654
1.9068
0.267521
0.303315
0.349678
1.89951
2.72315
3.47819
4.20983
5.02588
5.98888
7.00008
7.95715
8.84867
9.71238
10.5803
11.457
12.2284
12.5843
12.418
11.7311
10.5594
8.88378
6.72467
4.23679
1.90688
0.267528
0.3035
0.349831
1.89984
2.72361
3.47889
4.21075
5.02668
5.9893
7.00036
7.95737
8.84865
9.71204
10.58
11.4564
12.2275
12.5821
12.4153
11.7281
10.5563
8.88106
6.72226
4.23516
1.90608
0.267423
0.303185
0.349459
1.89637
2.71858
3.47282
4.20398
5.01945
5.98154
6.99193
7.94834
8.83911
9.70227
51.5185
29.3567
20.0299
14.3219
10.4041
7.54222
5.43263
3.87996
2.68753
1.74834
0.963051
0.303195
22.9971
2.86499
1.66531
1.55737
1.52391
1.46041
1.32715
1.14851
0.927272
0.683286
0.458604
0.267316
51.5435
29.3712
20.0403
14.3295
10.4099
7.54654
5.43585
3.88227
2.68916
1.74937
0.963594
0.303315
23.0045
2.86636
1.66651
1.55861
1.52515
1.46167
1.32831
1.14954
0.928123
0.683946
0.459091
0.267521
51.5654
29.3877
20.0528
14.3393
10.4172
7.55197
5.43981
3.88516
2.69114
1.75069
0.964313
0.3035
23.0154
2.86737
1.66673
1.55872
1.52524
1.46175
1.32839
1.14964
0.928263
0.684009
0.459129
0.267528
51.5222
29.3571
20.0294
14.3211
10.4034
7.54155
5.43214
3.87958
2.68732
1.74822
0.963012
0.303185
22.9986
2.8663
1.66649
1.55851
1.525
1.46138
1.328
1.14921
0.927816
0.683682
0.458874
0.267423
)
;
    }
    front
    {
        type            empty;
    }
    back
    {
        type            empty;
    }
}


// ************************************************************************* //
