/*--------------------------------*- C++ -*----------------------------------*\
  =========                 |
  \\      /  F ield         | OpenFOAM: The Open Source CFD Toolbox
   \\    /   O peration     | Website:  https://openfoam.org
    \\  /    A nd           | Version:  6
     \\/     M anipulation  |
\*---------------------------------------------------------------------------*/
FoamFile
{
    version     2.0;
    format      ascii;
    class       volScalarField;
    location    "350";
    object      k;
}
// * * * * * * * * * * * * * * * * * * * * * * * * * * * * * * * * * * * * * //

dimensions      [0 2 -2 0 0 0 0];

internalField   nonuniform List<scalar> 
3072
(
0.0549615
0.0572373
0.0580656
0.0566163
0.0513404
0.0462546
0.0513809
0.107702
0.23262
0.293539
0.320912
0.340873
0.0734719
0.115455
0.117459
0.109268
0.0917165
0.124434
0.201904
0.235524
0.32907
0.400197
0.47711
0.547361
0.0784271
0.148238
0.195373
0.21454
0.208918
0.221465
0.296638
0.381228
0.484242
0.5727
0.65396
0.720955
0.109315
0.211021
0.237148
0.235957
0.249512
0.315899
0.415018
0.514208
0.608779
0.690085
0.760743
0.818102
0.125978
0.248869
0.275291
0.2811
0.328541
0.416783
0.517882
0.613817
0.698636
0.770541
0.832342
0.882942
0.137598
0.274391
0.311052
0.339248
0.407893
0.50264
0.600153
0.688065
0.763294
0.827121
0.881875
0.927368
0.143088
0.287168
0.338899
0.397108
0.484903
0.582829
0.675188
0.755336
0.822488
0.878821
0.926735
0.966891
0.147512
0.30147
0.380457
0.476287
0.584394
0.685221
0.771335
0.841776
0.898488
0.944635
0.983052
1.01511
0.155677
0.332863
0.46854
0.611492
0.740039
0.841356
0.916856
0.971991
1.01217
1.04202
1.06525
1.0839
0.171401
0.402699
0.645375
0.840488
0.981314
1.07312
1.1283
1.15905
1.17421
1.17955
1.18029
1.17887
0.203348
0.549609
0.944695
1.18433
1.31061
1.37127
1.3918
1.38859
1.37047
1.34542
1.31834
1.29183
0.585154
0.951837
1.37019
1.56165
1.63014
1.64147
1.62699
1.59076
1.54491
1.49422
1.44325
1.39435
0.350965
0.355916
0.354793
0.352375
0.345216
0.33147
0.312099
0.285337
0.250958
0.208205
0.158033
0.124466
0.608804
0.65598
0.683595
0.690611
0.683357
0.668138
0.647237
0.617575
0.568825
0.465684
0.340912
0.288902
0.772051
0.805278
0.819757
0.820815
0.813334
0.802213
0.788819
0.77084
0.739033
0.670305
0.505819
0.416064
0.861435
0.89134
0.908387
0.915435
0.916169
0.914628
0.912958
0.910918
0.901061
0.861406
0.718877
0.516192
0.921983
0.950154
0.968295
0.978665
0.984751
0.990625
0.999874
1.01337
1.02212
1.00666
0.89652
0.601992
0.963572
0.991027
1.01063
1.02449
1.03602
1.04961
1.06961
1.09787
1.12941
1.14139
1.0774
0.685106
0.999648
1.02556
1.04559
1.06173
1.07733
1.09707
1.12614
1.16794
1.21918
1.25751
1.23523
0.764078
1.04162
1.06328
1.08108
1.09686
1.11379
1.13678
1.17212
1.22549
1.29621
1.36117
1.37056
0.855115
1.09921
1.11214
1.1237
1.13543
1.15008
1.17249
1.21005
1.27162
1.36108
1.45502
1.48554
0.957495
1.17688
1.17575
1.17651
1.18032
1.18912
1.20713
1.24213
1.30689
1.41253
1.54056
1.61007
1.06618
1.26795
1.24836
1.23409
1.22713
1.2303
1.24208
1.2711
1.33164
1.44355
1.60955
1.75274
1.19446
1.35023
1.31364
1.28571
1.26793
1.26556
1.27365
1.29678
1.34889
1.4528
1.64125
1.89064
1.38258
0.0549106
0.0572445
0.0581034
0.0566737
0.0513993
0.0462897
0.0513802
0.107449
0.232392
0.293385
0.320777
0.34074
0.073467
0.115427
0.117495
0.10938
0.0917748
0.124286
0.201846
0.235236
0.328803
0.39991
0.476804
0.547036
0.0783847
0.14813
0.195277
0.214531
0.208976
0.221251
0.296332
0.380831
0.483876
0.572302
0.653554
0.720546
0.109246
0.210892
0.237045
0.235865
0.249278
0.315501
0.414607
0.513786
0.608371
0.689662
0.760313
0.817671
0.125896
0.248697
0.275072
0.280826
0.328161
0.416368
0.51746
0.613399
0.69822
0.770117
0.831906
0.882504
0.1375
0.274195
0.310789
0.338907
0.407512
0.502242
0.599758
0.687665
0.762893
0.826702
0.881446
0.926929
0.14301
0.286994
0.338648
0.396795
0.484569
0.582492
0.674843
0.754984
0.822121
0.878437
0.926331
0.966475
0.147469
0.301368
0.380284
0.476088
0.584186
0.685002
0.771099
0.841517
0.898204
0.944322
0.982711
1.01475
0.155655
0.332833
0.468508
0.611463
0.740012
0.841315
0.916786
0.971884
1.01203
1.04182
1.06501
1.08363
0.171401
0.402735
0.645436
0.840598
0.981455
1.07326
1.12841
1.15912
1.17423
1.1795
1.18019
1.17872
0.203359
0.549649
0.944782
1.18449
1.31084
1.37151
1.39204
1.3888
1.37063
1.34551
1.31837
1.29181
0.585119
0.951798
1.3702
1.56173
1.63031
1.64168
1.62725
1.59101
1.54513
1.4944
1.44337
1.39443
0.350845
0.355804
0.354691
0.352293
0.34515
0.331418
0.312061
0.28531
0.25094
0.208198
0.158034
0.124466
0.60849
0.655679
0.683328
0.690392
0.683171
0.667987
0.647115
0.617481
0.568758
0.465643
0.340899
0.2889
0.771656
0.804901
0.819412
0.820497
0.813072
0.801999
0.788645
0.770702
0.738927
0.670232
0.505786
0.416053
0.86101
0.890922
0.907983
0.915058
0.915844
0.91435
0.912724
0.910733
0.900914
0.8613
0.718817
0.51617
0.921546
0.949726
0.967881
0.978277
0.984401
0.990317
0.999608
1.01315
1.02194
1.00653
0.896444
0.601963
0.963134
0.990594
1.01022
1.02409
1.03565
1.04928
1.06931
1.09761
1.1292
1.14124
1.07731
0.68507
0.999225
1.02514
1.04518
1.06133
1.07696
1.09672
1.12582
1.16766
1.21895
1.25733
1.23512
0.764035
1.04124
1.06289
1.0807
1.09649
1.11344
1.13644
1.17181
1.22521
1.29597
1.36099
1.37044
0.855068
1.09891
1.11183
1.12338
1.13511
1.14976
1.17219
1.20976
1.27135
1.36085
1.45483
1.48542
0.957444
1.1767
1.17553
1.17627
1.18008
1.18887
1.20688
1.24188
1.30665
1.41232
1.54039
1.60996
1.06613
1.26789
1.24825
1.23395
1.22697
1.23013
1.24191
1.27092
1.33145
1.44339
1.60941
1.75265
1.19443
1.35027
1.31363
1.28566
1.26786
1.26547
1.27356
1.29668
1.34879
1.4527
1.64116
1.8906
1.38256
0.0564491
0.0572916
0.057926
0.0564757
0.0513156
0.0462269
0.0513612
0.107713
0.232626
0.293548
0.320931
0.340898
0.0696795
0.112418
0.117293
0.109051
0.0916736
0.124382
0.201908
0.235507
0.329089
0.400222
0.477153
0.547416
0.078342
0.147343
0.195267
0.214475
0.208828
0.221477
0.296656
0.381252
0.484291
0.572759
0.654034
0.721042
0.109362
0.210785
0.236941
0.235802
0.2495
0.315942
0.415058
0.51426
0.608846
0.690162
0.760833
0.818205
0.12597
0.248802
0.275201
0.281072
0.328564
0.416826
0.517932
0.613879
0.69871
0.770626
0.83244
0.883052
0.137586
0.274353
0.31101
0.339245
0.407923
0.502689
0.600212
0.688135
0.763376
0.827214
0.881981
0.927485
0.143082
0.287156
0.338895
0.397138
0.484958
0.582903
0.675275
0.755433
0.822595
0.878937
0.926858
0.967022
0.147524
0.301484
0.380496
0.476364
0.584501
0.685349
0.771478
0.841926
0.898642
0.94479
0.983206
1.01527
0.155693
0.332898
0.468625
0.611611
0.740197
0.841546
0.917066
0.972208
1.01239
1.04222
1.06544
1.08409
0.171416
0.402738
0.645455
0.840619
0.981504
1.07336
1.12857
1.15933
1.17448
1.17981
1.18053
1.17908
0.203361
0.549624
0.944755
1.18445
1.31081
1.37152
1.3921
1.3889
1.37078
1.34571
1.3186
1.29207
0.585178
0.951861
1.37025
1.56174
1.6303
1.64167
1.62726
1.59105
1.54521
1.49452
1.44352
1.39459
0.350997
0.35595
0.354828
0.35241
0.34525
0.3315
0.312127
0.285359
0.250976
0.208215
0.158038
0.124468
0.608871
0.656055
0.68368
0.690699
0.683445
0.668221
0.647313
0.617642
0.568879
0.465722
0.340928
0.288909
0.772151
0.805388
0.819876
0.820937
0.813454
0.802328
0.788925
0.770936
0.739119
0.670378
0.50586
0.416079
0.861551
0.891466
0.908521
0.915573
0.916308
0.914765
0.913089
0.91104
0.901171
0.861499
0.718947
0.516218
0.922106
0.950287
0.968438
0.978815
0.984905
0.990779
1.00003
1.01352
1.02226
1.00678
0.896608
0.602026
0.963701
0.991167
1.01078
1.02464
1.03618
1.04978
1.06977
1.09803
1.12956
1.14153
1.07751
0.685149
0.999786
1.02571
1.04574
1.06188
1.07749
1.09723
1.12631
1.16811
1.21934
1.25766
1.23535
0.764127
1.04177
1.06343
1.08124
1.09702
1.11396
1.13695
1.17229
1.22566
1.29638
1.36134
1.37069
0.855174
1.09939
1.11231
1.12386
1.1356
1.15024
1.17266
1.21022
1.2718
1.36127
1.45519
1.48567
0.957562
1.17708
1.17593
1.17668
1.18049
1.18928
1.2073
1.2423
1.30707
1.41272
1.54075
1.61022
1.06626
1.26817
1.24855
1.23426
1.22729
1.23046
1.24225
1.27127
1.33182
1.44377
1.60976
1.75291
1.19456
1.35045
1.31383
1.28588
1.26809
1.26572
1.27382
1.29695
1.34908
1.45303
1.64149
1.89085
1.38272
0.0549149
0.0572486
0.0581079
0.0566784
0.0514047
0.0462956
0.0513876
0.107473
0.232432
0.293427
0.32082
0.340784
0.0734715
0.115436
0.117507
0.109396
0.0917956
0.12432
0.201876
0.235271
0.328849
0.399962
0.476864
0.547103
0.078389
0.148137
0.195296
0.214571
0.209025
0.221282
0.296361
0.380869
0.483925
0.572359
0.653619
0.720615
0.109249
0.210907
0.237075
0.235901
0.249304
0.31551
0.414629
0.51382
0.608417
0.689716
0.760373
0.817735
0.125897
0.248709
0.275088
0.280837
0.328154
0.416371
0.517477
0.613428
0.69826
0.770164
0.831959
0.882561
0.137497
0.274199
0.310792
0.338898
0.407498
0.502238
0.599767
0.687687
0.762923
0.82674
0.881489
0.926975
0.143008
0.286992
0.338639
0.396773
0.48455
0.582482
0.674844
0.754994
0.822139
0.878461
0.926361
0.966508
0.147467
0.301367
0.380277
0.476076
0.584177
0.684998
0.771099
0.841523
0.898214
0.944335
0.982728
1.01477
0.155658
0.332847
0.468527
0.611492
0.740042
0.84134
0.916806
0.9719
1.01204
1.04183
1.06503
1.08365
0.171413
0.402782
0.645515
0.840691
0.981543
1.07333
1.12847
1.15916
1.17426
1.17952
1.18021
1.17873
0.203384
0.54975
0.944922
1.18464
1.31097
1.37163
1.39213
1.38887
1.37069
1.34556
1.31841
1.29184
0.585205
0.951965
1.37038
1.56192
1.63049
1.64183
1.62738
1.59112
1.54522
1.49447
1.44344
1.39448
0.350889
0.355848
0.354734
0.352335
0.34519
0.331454
0.312094
0.285338
0.25096
0.208215
0.158047
0.12448
0.608562
0.655754
0.683403
0.690462
0.683239
0.66805
0.647174
0.617536
0.568809
0.465681
0.340925
0.288922
0.771728
0.804973
0.819482
0.820566
0.813137
0.802061
0.788702
0.770754
0.738974
0.670275
0.505815
0.416074
0.861076
0.89099
0.90805
0.915122
0.915906
0.914409
0.912779
0.910782
0.900959
0.86134
0.718853
0.516192
0.921605
0.949786
0.967941
0.978335
0.984457
0.990371
0.999659
1.0132
1.02198
1.00657
0.896478
0.601981
0.963183
0.990644
1.01027
1.02414
1.0357
1.04933
1.06936
1.09766
1.12924
1.14127
1.07734
0.685086
0.99926
1.02518
1.04522
1.06137
1.077
1.09676
1.12587
1.1677
1.21899
1.25736
1.23515
0.764048
1.04126
1.06292
1.08072
1.09652
1.11347
1.13648
1.17185
1.22525
1.296
1.36102
1.37046
0.855078
1.09893
1.11184
1.12339
1.13513
1.14979
1.17221
1.20978
1.27138
1.36088
1.45485
1.48543
0.957446
1.17671
1.17554
1.17628
1.18009
1.18888
1.2069
1.24191
1.30667
1.41233
1.5404
1.60996
1.06612
1.26791
1.24827
1.23397
1.22699
1.23014
1.24192
1.27093
1.33146
1.44339
1.60939
1.75262
1.1944
1.35031
1.31367
1.2857
1.26789
1.2655
1.27358
1.29669
1.34878
1.45267
1.64111
1.89054
1.3825
1.70421
1.70517
1.72076
1.73661
1.74113
1.73208
1.70842
1.66839
1.61951
1.56318
1.50471
1.44647
1.7033
1.66275
1.64524
1.64069
1.63961
1.6341
1.62125
1.60054
1.5694
1.52496
1.47659
1.42504
1.59358
1.56066
1.53121
1.50922
1.49099
1.47612
1.46237
1.44627
1.42786
1.40454
1.37618
1.34167
1.44917
1.42508
1.39558
1.36458
1.33579
1.31087
1.2905
1.27433
1.26211
1.25054
1.24032
1.23282
1.3926
1.34815
1.31439
1.29251
1.28854
1.29539
1.31518
1.35845
1.44193
1.60601
1.89681
1.82202
1.37632
1.33826
1.31098
1.29584
1.29609
1.30382
1.32273
1.35914
1.41935
1.52248
1.74971
1.75976
1.31132
1.29339
1.2826
1.28129
1.2854
1.29656
1.31391
1.33972
1.38165
1.43744
1.57585
1.61788
1.23167
1.23887
1.24174
1.24623
1.25199
1.26051
1.27432
1.29316
1.32443
1.35563
1.43184
1.46561
1.70425
1.70518
1.72077
1.73663
1.74123
1.73221
1.70861
1.6686
1.61972
1.56338
1.50488
1.4466
1.7034
1.66282
1.64529
1.64075
1.63969
1.63421
1.62138
1.6007
1.56958
1.52515
1.47676
1.4252
1.59369
1.56079
1.53131
1.50932
1.49109
1.47624
1.4625
1.44641
1.42802
1.40471
1.37636
1.34184
1.44928
1.42522
1.39571
1.3647
1.33592
1.31101
1.29065
1.27449
1.26228
1.25071
1.24049
1.23301
1.39269
1.34821
1.31443
1.29253
1.28854
1.2954
1.31518
1.35844
1.44191
1.606
1.89682
1.82204
1.37645
1.33837
1.31108
1.29593
1.29618
1.3039
1.32281
1.35922
1.41943
1.52256
1.74978
1.75983
1.31149
1.29355
1.28275
1.28145
1.28556
1.29672
1.31408
1.33989
1.38181
1.43759
1.57598
1.618
1.23187
1.23908
1.24195
1.24644
1.25221
1.26073
1.27454
1.29338
1.32463
1.35582
1.43201
1.46575
1.70433
1.70528
1.72087
1.73671
1.74127
1.73225
1.70864
1.66864
1.61977
1.56345
1.50496
1.4467
1.70348
1.66293
1.64541
1.64085
1.63977
1.63428
1.62144
1.60075
1.56963
1.5252
1.47682
1.42526
1.59381
1.5609
1.53142
1.50943
1.49119
1.47631
1.46257
1.44647
1.42807
1.40476
1.3764
1.34188
1.44942
1.42534
1.39582
1.3648
1.33601
1.31109
1.29072
1.27454
1.26232
1.25075
1.24053
1.23303
1.3928
1.34834
1.31457
1.29268
1.28871
1.29557
1.31538
1.35866
1.44217
1.60629
1.89707
1.82225
1.37652
1.33844
1.31116
1.29603
1.29628
1.30402
1.32294
1.35938
1.41962
1.52278
1.75003
1.76005
1.31152
1.29358
1.2828
1.2815
1.28563
1.2968
1.31417
1.34001
1.38196
1.43777
1.57622
1.61823
1.23189
1.2391
1.24199
1.24649
1.25228
1.26082
1.27465
1.29351
1.32479
1.35601
1.43225
1.46601
1.70444
1.70537
1.72097
1.73685
1.74144
1.73241
1.70879
1.66876
1.61986
1.5635
1.50498
1.44669
1.70367
1.66309
1.64556
1.64102
1.63996
1.63447
1.62163
1.60093
1.56978
1.52531
1.47691
1.42533
1.59404
1.56112
1.53163
1.50964
1.4914
1.47653
1.46278
1.44668
1.42827
1.40494
1.37656
1.34201
1.44967
1.42559
1.39605
1.36503
1.33624
1.31132
1.29094
1.27475
1.26252
1.25094
1.24069
1.23317
1.39277
1.34828
1.3145
1.29258
1.28858
1.29542
1.31519
1.35841
1.44185
1.60591
1.89671
1.82192
1.37657
1.33848
1.31118
1.296
1.29623
1.30392
1.32279
1.35916
1.41933
1.52243
1.74962
1.75967
1.31164
1.29368
1.28285
1.28152
1.28558
1.2967
1.31401
1.33978
1.38166
1.43742
1.57578
1.6178
1.232
1.23917
1.242
1.24644
1.25216
1.26063
1.2744
1.2932
1.32443
1.3556
1.43176
1.46553
1.28602
1.25296
1.21977
1.18873
1.16246
1.14157
1.12634
1.11667
1.11249
1.11325
1.12137
1.13897
1.15446
1.123
1.09322
1.0663
1.04349
1.02506
1.01153
1.00318
1.00003
1.00134
1.00724
1.02189
1.05079
1.02573
1.0017
0.978919
0.95752
0.93767
0.920132
0.905448
0.893413
0.883112
0.875624
0.87727
0.96636
0.948973
0.930804
0.910994
0.88874
0.863958
0.837312
0.809243
0.779312
0.746013
0.711945
0.693522
1.15826
1.16844
1.16442
1.16756
1.17769
1.19451
1.21828
1.2458
1.27622
1.30363
1.32961
1.32404
1.04216
1.05057
1.03967
1.04555
1.06431
1.09278
1.12746
1.16223
1.19007
1.2078
1.21528
1.19407
0.901246
0.922976
0.913669
0.923954
0.950795
0.987816
1.02954
1.06635
1.09147
1.10506
1.10567
1.08294
0.722837
0.79072
0.794138
0.810712
0.843643
0.8857
0.930674
0.967887
0.992115
1.0049
1.00532
0.988443
1.28616
1.2531
1.21992
1.18887
1.16261
1.14172
1.1265
1.11683
1.11267
1.11344
1.12158
1.13919
1.1546
1.12314
1.09338
1.06646
1.04366
1.02522
1.01169
1.00335
1.00022
1.00153
1.00747
1.02214
1.05092
1.02587
1.00186
0.979088
0.957693
0.93784
0.920299
0.905615
0.893589
0.883301
0.875837
0.877504
0.966485
0.94911
0.930963
0.911168
0.888919
0.864132
0.837477
0.809401
0.779467
0.74617
0.712109
0.693707
1.1585
1.16869
1.16467
1.16781
1.17793
1.19475
1.21851
1.24602
1.27642
1.30381
1.32976
1.32418
1.04241
1.05083
1.03993
1.0458
1.06455
1.09302
1.12769
1.16244
1.19026
1.20797
1.21544
1.1942
0.901497
0.923233
0.913922
0.9242
0.951032
0.988044
1.02976
1.06656
1.09166
1.10523
1.10582
1.08307
0.723057
0.790958
0.79438
0.81095
0.843874
0.885924
0.930891
0.968091
0.992305
1.00508
1.00549
0.988579
1.28628
1.25321
1.22001
1.18895
1.16269
1.14179
1.12656
1.11688
1.1127
1.11347
1.12161
1.13923
1.15472
1.12324
1.09346
1.06653
1.04372
1.02528
1.01175
1.0034
1.00026
1.00157
1.00752
1.02221
1.05103
1.02596
1.00194
0.979156
0.957758
0.937906
0.920366
0.905683
0.893658
0.883374
0.875924
0.87761
0.9666
0.949204
0.931039
0.911235
0.888986
0.864207
0.837561
0.809494
0.779568
0.746283
0.712235
0.693849
1.15855
1.16875
1.16475
1.16791
1.17806
1.1949
1.21868
1.24621
1.27664
1.30405
1.33003
1.32444
1.04251
1.05095
1.04007
1.04595
1.06473
1.09322
1.1279
1.16268
1.19051
1.20823
1.21571
1.19447
0.901635
0.92339
0.914099
0.924393
0.951245
0.988274
1.03
1.06681
1.09192
1.1055
1.10609
1.08332
0.723212
0.791146
0.794578
0.811161
0.8441
0.886163
0.93114
0.968346
0.992562
1.00534
1.00574
0.988812
1.28654
1.25346
1.22025
1.18918
1.1629
1.14199
1.12674
1.11704
1.11285
1.11359
1.12168
1.13923
1.15497
1.12348
1.09368
1.06674
1.04391
1.02544
1.01188
1.0035
1.00032
1.00161
1.00745
1.02207
1.05127
1.02618
1.00213
0.979324
0.957897
0.938013
0.920435
0.90571
0.893636
0.8833
0.875769
0.877389
0.96681
0.949389
0.931198
0.911363
0.889079
0.864261
0.83757
0.809454
0.779477
0.746135
0.712027
0.693578
1.15849
1.16864
1.16457
1.16768
1.17776
1.19454
1.21828
1.24577
1.27617
1.30356
1.32952
1.32396
1.04231
1.0507
1.03975
1.04559
1.06432
1.09276
1.12742
1.16216
1.18999
1.20771
1.2152
1.19399
0.901334
0.923043
0.913699
0.92396
0.950773
0.987769
1.02947
1.06627
1.09139
1.10497
1.10559
1.08287
0.722885
0.790743
0.794138
0.810694
0.843605
0.885643
0.930602
0.967808
0.992034
1.00483
1.00526
0.988382
0.893012
0.882983
0.870074
0.852252
0.827742
0.79585
0.756451
0.708985
0.650638
0.572087
0.444892
0.2618
0.824829
0.821232
0.812913
0.796597
0.769575
0.730227
0.677211
0.608802
0.520563
0.401271
0.218884
0.0667735
0.758313
0.760004
0.755756
0.740954
0.712219
0.66701
0.603062
0.518684
0.411749
0.281792
0.136343
0.0475523
0.692241
0.697908
0.697146
0.684197
0.655242
0.60715
0.537442
0.445938
0.335575
0.218424
0.117315
0.0464688
0.626347
0.634936
0.636895
0.626263
0.59878
0.551192
0.481345
0.391158
0.28814
0.189388
0.113595
0.0467693
0.560946
0.571527
0.575611
0.56753
0.54297
0.498849
0.433381
0.350171
0.258973
0.175863
0.11265
0.0463951
0.496394
0.508202
0.513925
0.508368
0.487678
0.449181
0.390953
0.317504
0.238743
0.167667
0.111161
0.0443931
0.432867
0.445241
0.452116
0.448756
0.43239
0.400768
0.351214
0.288311
0.221066
0.159373
0.106772
0.0410933
0.369846
0.382127
0.389632
0.38814
0.375815
0.351216
0.311237
0.258602
0.201585
0.147631
0.0976577
0.0362985
0.304822
0.316317
0.323965
0.323887
0.314986
0.296677
0.26678
0.224231
0.176349
0.129357
0.0818539
0.030154
0.228875
0.238619
0.245657
0.246538
0.240697
0.227482
0.207483
0.177817
0.13858
0.0991627
0.0558706
0.0235276
0.102562
0.108161
0.112983
0.11518
0.114172
0.109927
0.102482
0.091334
0.0758603
0.0557529
0.0327414
0.0207168
0.44899
0.651549
0.680717
0.706369
0.743645
0.788195
0.83406
0.871498
0.896331
0.91026
0.913685
0.905211
0.31597
0.527724
0.576527
0.610843
0.65092
0.696226
0.741631
0.779247
0.805405
0.821361
0.828838
0.828492
0.250458
0.430648
0.485259
0.524411
0.565698
0.610438
0.654517
0.691983
0.719455
0.73776
0.74922
0.755176
0.204664
0.353391
0.406737
0.447149
0.488134
0.531238
0.573337
0.610077
0.638311
0.658845
0.67353
0.684172
0.168892
0.290296
0.339425
0.378713
0.418141
0.458772
0.498371
0.533716
0.562049
0.583958
0.60109
0.614984
0.139097
0.237199
0.281406
0.318367
0.355357
0.392909
0.429579
0.462926
0.490695
0.513111
0.53161
0.547468
0.113989
0.190868
0.230866
0.26512
0.299168
0.33323
0.366616
0.397535
0.424118
0.446257
0.465131
0.481813
0.0928417
0.14939
0.186191
0.217841
0.248691
0.278992
0.308822
0.336994
0.361869
0.38307
0.401491
0.418064
0.0740662
0.112278
0.146017
0.175241
0.202646
0.228953
0.254983
0.280131
0.302865
0.322574
0.339855
0.355561
0.0566248
0.079457
0.109137
0.135435
0.158733
0.18061
0.202486
0.224297
0.244507
0.262202
0.277687
0.291808
0.0397856
0.0502928
0.0735085
0.094285
0.111576
0.127766
0.144525
0.162246
0.179217
0.194011
0.206644
0.218156
0.0253859
0.0282505
0.0327305
0.0415573
0.0489637
0.0556007
0.062539
0.0702494
0.0779188
0.0848462
0.0910572
0.0968847
0.893126
0.883112
0.870229
0.852427
0.827924
0.796026
0.756614
0.709131
0.650766
0.572195
0.444973
0.261851
0.824933
0.821353
0.813063
0.79677
0.769757
0.730404
0.677372
0.608938
0.520668
0.401342
0.218917
0.0667943
0.758408
0.760115
0.755898
0.741122
0.712399
0.667187
0.603222
0.518814
0.411844
0.281851
0.13638
0.0475753
0.692329
0.698011
0.697278
0.684355
0.655415
0.607323
0.537599
0.446066
0.335668
0.218486
0.11736
0.0464936
0.626429
0.635031
0.637016
0.62641
0.598944
0.551358
0.481498
0.391284
0.288234
0.189455
0.113646
0.0467948
0.561024
0.571615
0.575722
0.567664
0.543121
0.499004
0.433526
0.350293
0.259067
0.175934
0.112705
0.0464218
0.496468
0.508283
0.514026
0.508488
0.487813
0.449324
0.391089
0.31762
0.238835
0.167739
0.111218
0.0444189
0.432935
0.445315
0.452207
0.448862
0.432509
0.400895
0.351339
0.28842
0.221155
0.159444
0.106828
0.0411179
0.369908
0.382193
0.389715
0.388233
0.375919
0.351327
0.311349
0.258701
0.201669
0.1477
0.097711
0.0363208
0.304874
0.316373
0.324036
0.323966
0.315075
0.296771
0.266876
0.224319
0.176424
0.129419
0.0818993
0.0301734
0.228912
0.238663
0.245714
0.246602
0.240767
0.227555
0.207557
0.177887
0.138643
0.0992118
0.0559019
0.0235443
0.102579
0.108183
0.11301
0.115212
0.114206
0.109963
0.10252
0.0913702
0.0758954
0.0557817
0.0327599
0.0207327
0.449136
0.651761
0.680944
0.706599
0.743872
0.788417
0.834277
0.871705
0.896527
0.910445
0.913852
0.905353
0.316078
0.527914
0.576742
0.611067
0.651144
0.696449
0.741851
0.779459
0.805606
0.82155
0.829011
0.828639
0.250546
0.43082
0.485464
0.524629
0.56592
0.61066
0.654738
0.692199
0.719661
0.737952
0.749395
0.755327
0.20474
0.353548
0.406931
0.447361
0.488353
0.531459
0.573559
0.610295
0.638521
0.659041
0.673707
0.684327
0.168956
0.290439
0.339608
0.378918
0.418355
0.45899
0.498591
0.533934
0.562259
0.584156
0.60127
0.61514
0.139153
0.237327
0.281577
0.318562
0.355564
0.39312
0.429794
0.463141
0.490904
0.513309
0.531791
0.547627
0.114036
0.19098
0.231022
0.265303
0.299363
0.333431
0.366822
0.397743
0.424322
0.446451
0.46531
0.481973
0.0928812
0.149485
0.18633
0.218008
0.248872
0.27918
0.309015
0.33719
0.362063
0.383257
0.401665
0.418221
0.0740969
0.112354
0.146137
0.175389
0.202807
0.229122
0.255157
0.28031
0.303044
0.322748
0.340019
0.355711
0.0566494
0.0795134
0.109238
0.135559
0.158869
0.180754
0.202636
0.224453
0.244664
0.262355
0.277833
0.291944
0.0398035
0.0503267
0.0735845
0.0943791
0.111678
0.127873
0.144639
0.162366
0.17934
0.194132
0.206761
0.218267
0.0253983
0.0282658
0.0327633
0.0415982
0.0490079
0.0556467
0.0625877
0.0703011
0.0779717
0.0848986
0.0911085
0.0969331
0.893244
0.883207
0.870306
0.852495
0.827995
0.796108
0.756711
0.709243
0.650892
0.57233
0.445105
0.261935
0.825054
0.82145
0.81314
0.796838
0.769828
0.730488
0.677473
0.609056
0.520798
0.401468
0.219001
0.0668102
0.758534
0.760216
0.755976
0.741189
0.712469
0.667267
0.603318
0.518924
0.411957
0.281944
0.136419
0.0475795
0.692458
0.698116
0.697359
0.684423
0.655481
0.607396
0.537684
0.446158
0.335754
0.218545
0.117381
0.0464959
0.626562
0.635139
0.637101
0.626478
0.599007
0.551424
0.48157
0.391357
0.288296
0.189493
0.113658
0.0467969
0.561159
0.571726
0.57581
0.567735
0.543183
0.499064
0.433587
0.35035
0.259112
0.17596
0.112713
0.0464236
0.496604
0.508396
0.514117
0.50856
0.487876
0.449378
0.391141
0.317665
0.238867
0.167759
0.111223
0.044421
0.433071
0.445428
0.452299
0.448935
0.432572
0.400947
0.351384
0.288458
0.22118
0.15946
0.106832
0.0411204
0.370041
0.382302
0.389805
0.388302
0.375983
0.351375
0.311389
0.258734
0.201686
0.147716
0.0977131
0.0363246
0.304996
0.316475
0.324118
0.324031
0.315132
0.296816
0.266911
0.224346
0.17644
0.129431
0.0819054
0.0301756
0.229012
0.238747
0.24578
0.246653
0.240813
0.227592
0.207586
0.17791
0.138657
0.0992216
0.0559085
0.0235459
0.102621
0.10822
0.113036
0.115233
0.114224
0.109978
0.102532
0.0913789
0.0759004
0.0557843
0.0327612
0.0207335
0.449264
0.651957
0.681147
0.70681
0.744095
0.78865
0.834517
0.871946
0.896766
0.91068
0.91408
0.905559
0.316192
0.528096
0.576933
0.611265
0.651351
0.696664
0.742071
0.779677
0.80582
0.821759
0.82921
0.828817
0.250649
0.43098
0.485633
0.524805
0.566104
0.61085
0.654932
0.69239
0.719847
0.738129
0.749562
0.755476
0.204829
0.353684
0.407075
0.44751
0.488508
0.531619
0.573722
0.610455
0.638676
0.659188
0.673841
0.684446
0.169033
0.29055
0.339725
0.379039
0.41848
0.459119
0.498721
0.534063
0.562383
0.584272
0.601375
0.61523
0.139217
0.237416
0.281669
0.318656
0.355661
0.39322
0.429893
0.463239
0.490997
0.513396
0.531868
0.547692
0.114089
0.191049
0.231092
0.265372
0.299435
0.333504
0.366893
0.397813
0.424387
0.446511
0.465362
0.482014
0.0929242
0.149535
0.186379
0.218056
0.248921
0.27923
0.309063
0.337236
0.362104
0.383294
0.401696
0.418243
0.0741326
0.112389
0.14617
0.17542
0.202839
0.229154
0.255187
0.280336
0.303066
0.322767
0.340032
0.355717
0.0566753
0.0795353
0.109255
0.135577
0.158889
0.180774
0.202653
0.224465
0.244672
0.262361
0.277835
0.291939
0.0398205
0.0503395
0.0735907
0.0943878
0.11169
0.127887
0.144648
0.162369
0.17934
0.19413
0.206756
0.218256
0.0254115
0.0282781
0.0327672
0.0416031
0.0490151
0.0556554
0.0625951
0.070305
0.0779742
0.0849006
0.0911087
0.0969313
0.893426
0.883361
0.870429
0.852583
0.828044
0.796115
0.756672
0.709157
0.650763
0.572165
0.444924
0.261806
0.825208
0.821575
0.813231
0.796891
0.769842
0.73046
0.677404
0.608951
0.520669
0.40134
0.218927
0.0667931
0.758659
0.760315
0.756038
0.741214
0.712455
0.667217
0.603234
0.518819
0.41185
0.281867
0.136398
0.0475749
0.692557
0.69819
0.697397
0.684424
0.655448
0.607332
0.537597
0.446064
0.335674
0.2185
0.117368
0.0464916
0.626635
0.63519
0.63712
0.626462
0.598961
0.551353
0.481484
0.391275
0.288234
0.18946
0.113645
0.0467919
0.561207
0.571756
0.575813
0.567706
0.543129
0.498991
0.433506
0.350277
0.25906
0.17593
0.112698
0.0464159
0.496632
0.508409
0.514106
0.508523
0.487817
0.449307
0.391065
0.3176
0.238821
0.167727
0.111206
0.0444122
0.433083
0.445428
0.452278
0.448893
0.432513
0.400879
0.351312
0.288397
0.221137
0.159427
0.106813
0.0411102
0.370038
0.382293
0.389777
0.388262
0.375924
0.351313
0.311323
0.258677
0.201647
0.14768
0.0976943
0.0363129
0.304984
0.316459
0.32409
0.323992
0.315079
0.296761
0.266854
0.224296
0.176402
0.129399
0.0818838
0.0301658
0.228997
0.23873
0.245757
0.246621
0.24077
0.227548
0.207542
0.177869
0.138622
0.099194
0.0558906
0.023537
0.10262
0.108216
0.113032
0.11522
0.114207
0.109959
0.102512
0.0913604
0.0758825
0.0557699
0.0327519
0.0207254
0.449017
0.651544
0.680698
0.706339
0.743602
0.788138
0.833991
0.871425
0.89626
0.910193
0.913628
0.905162
0.31598
0.527707
0.5765
0.610809
0.650878
0.696174
0.74157
0.779183
0.805344
0.821304
0.828791
0.828453
0.250459
0.430625
0.485229
0.524377
0.565659
0.610393
0.654464
0.691928
0.719402
0.737712
0.74918
0.755143
0.204663
0.353368
0.406707
0.447116
0.488099
0.531199
0.573292
0.61003
0.638265
0.658803
0.673496
0.684141
0.168888
0.290274
0.339396
0.378684
0.41811
0.458739
0.498334
0.533674
0.562008
0.583922
0.601059
0.614948
0.139094
0.237179
0.28138
0.31834
0.35533
0.39288
0.429547
0.46289
0.490659
0.513077
0.531578
0.54743
0.113986
0.190851
0.230843
0.265096
0.299143
0.333205
0.366588
0.397504
0.424085
0.446224
0.465098
0.481772
0.09284
0.149378
0.186171
0.217819
0.248669
0.27897
0.308798
0.336967
0.361839
0.383039
0.401456
0.418021
0.0740645
0.11227
0.146001
0.175222
0.202626
0.228934
0.254962
0.280107
0.302838
0.322544
0.33982
0.355518
0.0566257
0.0794529
0.109126
0.13542
0.158717
0.180595
0.20247
0.224279
0.244485
0.262175
0.277654
0.291769
0.0397883
0.0502919
0.0735016
0.0942747
0.111564
0.127755
0.144515
0.162233
0.1792
0.19399
0.206617
0.218123
0.0253865
0.0282496
0.0327285
0.0415527
0.0489586
0.0555961
0.0625352
0.0702444
0.077912
0.0848366
0.0910433
0.0968664
)
;

boundaryField
{
    rotor
    {
        type            kqRWallFunction;
        value           nonuniform List<scalar> 
192
(
0.0549615
0.0572373
0.0580656
0.0566163
0.0513404
0.0462546
0.0513809
0.107702
0.23262
0.293539
0.320912
0.340873
0.350965
0.355916
0.354793
0.352375
0.345216
0.33147
0.312099
0.285337
0.250958
0.208205
0.158033
0.124466
0.0549106
0.0572445
0.0581034
0.0566737
0.0513993
0.0462897
0.0513802
0.107449
0.232392
0.293385
0.320777
0.34074
0.350845
0.355804
0.354691
0.352293
0.34515
0.331418
0.312061
0.28531
0.25094
0.208198
0.158034
0.124466
0.0564491
0.0572916
0.057926
0.0564757
0.0513156
0.0462269
0.0513612
0.107713
0.232626
0.293548
0.320931
0.340898
0.350997
0.35595
0.354828
0.35241
0.34525
0.3315
0.312127
0.285359
0.250976
0.208215
0.158038
0.124468
0.0549149
0.0572486
0.0581079
0.0566784
0.0514047
0.0462956
0.0513876
0.107473
0.232432
0.293427
0.32082
0.340784
0.350889
0.355848
0.354734
0.352335
0.34519
0.331454
0.312094
0.285338
0.25096
0.208215
0.158047
0.12448
0.0549615
0.0734719
0.0784271
0.109315
0.125978
0.137598
0.143088
0.147512
0.155677
0.171401
0.203348
0.585154
0.12448
0.288922
0.416074
0.516192
0.601981
0.685086
0.764048
0.855078
0.957446
1.06612
1.1944
1.3825
0.0549106
0.073467
0.0783847
0.109246
0.125896
0.1375
0.14301
0.147469
0.155655
0.171401
0.203359
0.585119
0.124466
0.288902
0.416064
0.516192
0.601992
0.685106
0.764078
0.855115
0.957495
1.06618
1.19446
1.38258
0.0564491
0.0696795
0.078342
0.109362
0.12597
0.137586
0.143082
0.147524
0.155693
0.171416
0.203361
0.585178
0.124466
0.2889
0.416053
0.51617
0.601963
0.68507
0.764035
0.855068
0.957444
1.06613
1.19443
1.38256
0.0549149
0.0734715
0.078389
0.109249
0.125897
0.137497
0.143008
0.147467
0.155658
0.171413
0.203384
0.585205
0.124468
0.288909
0.416079
0.516218
0.602026
0.685149
0.764127
0.855174
0.957562
1.06626
1.19456
1.38272
)
;
    }
    stator
    {
        type            kqRWallFunction;
        value           nonuniform List<scalar> 
192
(
0.102562
0.108161
0.112983
0.11518
0.114172
0.109927
0.102482
0.091334
0.0758603
0.0557529
0.0327414
0.0207168
0.0253859
0.0282505
0.0327305
0.0415573
0.0489637
0.0556007
0.062539
0.0702494
0.0779188
0.0848462
0.0910572
0.0968847
0.102579
0.108183
0.11301
0.115212
0.114206
0.109963
0.10252
0.0913702
0.0758954
0.0557817
0.0327599
0.0207327
0.0253983
0.0282658
0.0327633
0.0415982
0.0490079
0.0556467
0.0625877
0.0703011
0.0779717
0.0848986
0.0911085
0.0969331
0.102621
0.10822
0.113036
0.115233
0.114224
0.109978
0.102532
0.0913789
0.0759004
0.0557843
0.0327612
0.0207335
0.0254115
0.0282781
0.0327672
0.0416031
0.0490151
0.0556554
0.0625951
0.070305
0.0779742
0.0849006
0.0911087
0.0969313
0.10262
0.108216
0.113032
0.11522
0.114207
0.109959
0.102512
0.0913604
0.0758825
0.0557699
0.0327519
0.0207254
0.0253865
0.0282496
0.0327285
0.0415527
0.0489586
0.0555961
0.0625352
0.0702444
0.077912
0.0848366