/*--------------------------------*- C++ -*----------------------------------*\
  =========                 |
  \\      /  F ield         | OpenFOAM: The Open Source CFD Toolbox
   \\    /   O peration     | Website:  https://openfoam.org
    \\  /    A nd           | Version:  6
     \\/     M anipulation  |
\*---------------------------------------------------------------------------*/
FoamFile
{
    version     2.0;
    format      ascii;
    class       volScalarField;
    location    "350";
    object      nut;
}
// * * * * * * * * * * * * * * * * * * * * * * * * * * * * * * * * * * * * * //

dimensions      [0 2 -1 0 0 0 0];

internalField   nonuniform List<scalar> 
3072
(
0.000115766
6.79791e-05
6.89471e-05
6.8094e-05
6.46606e-05
6.13074e-05
6.44911e-05
9.2746e-05
0.00013709
0.000154306
0.000161422
0.000166393
0.000209882
0.000190269
0.000210937
0.000183933
0.000104806
8.6083e-05
0.000146758
0.000180284
0.000268394
0.000362012
0.000500655
0.000647623
5.37468e-05
0.000225333
0.000275237
0.0002383
0.000203235
0.000216132
0.000326335
0.000468476
0.000667455
0.000900033
0.00112834
0.00133734
6.93993e-05
0.000317216
0.000318222
0.000290864
0.000308182
0.000437755
0.000637379
0.000869636
0.00113951
0.0014117
0.00165676
0.00187033
8.10804e-05
0.000385165
0.000419524
0.000422547
0.000527741
0.000734587
0.000976922
0.001249
0.00153528
0.00180769
0.00204994
0.00225956
9.15677e-05
0.000464126
0.000547334
0.000612254
0.000782476
0.00101855
0.00128253
0.00155724
0.00182977
0.00208839
0.00232069
0.0025224
0.000100354
0.000535629
0.000686992
0.000821973
0.0010414
0.00129344
0.00155468
0.00181808
0.00207099
0.00230512
0.00251382
0.00269588
0.000109028
0.000626265
0.000852821
0.00108208
0.00133269
0.001583
0.00182494
0.00205635
0.00227097
0.0024658
0.00263955
0.00279165
0.000119306
0.000729264
0.00108373
0.00137518
0.00162812
0.00185265
0.0020541
0.00223657
0.00240014
0.00254775
0.00268183
0.00280265
0.00013287
0.000832127
0.00127484
0.00158061
0.0018158
0.002005
0.00216592
0.00230733
0.00243493
0.00254906
0.00265464
0.00275232
0.000153077
0.000782304
0.00134554
0.00167404
0.00190018
0.00207761
0.0022218
0.00234389
0.00244504
0.00253418
0.00261535
0.00269076
0.00027372
0.000753988
0.00141428
0.0017857
0.00199162
0.00215513
0.00229224
0.00239187
0.00247214
0.00253889
0.00259726
0.00265027
0.000168871
0.00017006
0.000169804
0.000169266
0.000167564
0.000164215
0.00015937
0.0001524
0.000142966
0.000130224
0.000113439
5.49464e-05
0.00079404
0.000917648
0.000996993
0.00101849
0.000991019
0.000926301
0.000826571
0.000692003
0.000532014
0.000322921
0.00016111
9.36005e-05
0.00151165
0.00163276
0.00169129
0.00169633
0.00164519
0.00154231
0.00138852
0.00118306
0.000924744
0.000618283
0.000272419
0.000124201
0.00204445
0.00217083
0.00224288
0.00226364
0.0022291
0.00213496
0.0019715
0.00173154
0.00140946
0.000998643
0.000487674
0.000151517
0.00243216
0.00256336
0.0026493
0.00268852
0.00267653
0.00260623
0.00246437
0.00223014
0.00186739
0.00136509
0.000713796
0.000177875
0.00269097
0.00282429
0.00292068
0.00297829
0.00299395
0.00296021
0.00285938
0.00266105
0.00231728
0.00176559
0.000997717
0.000204953
0.00285041
0.00297655
0.00307393
0.00314306
0.00318441
0.00319294
0.00315045
0.00301518
0.00271649
0.00215874
0.00129169
0.000232499
0.00292276
0.00303331
0.0031237
0.00319668
0.0032553
0.00329983
0.00331805
0.00326808
0.00305664
0.00252967
0.0015813
0.000262947
0.00291056
0.00300669
0.00309203
0.00316612
0.00323212
0.00330108
0.00336954
0.00340814
0.00331734
0.00287527
0.00183919
0.000296225
0.00284247
0.0029273
0.00300867
0.00308683
0.00315899
0.00323097
0.00332842
0.0034399
0.00348455
0.00319298
0.00213831
0.000331563
0.00276224
0.00283221
0.00290306
0.00298023
0.00307115
0.00314501
0.00324148
0.00338605
0.00353469
0.00344861
0.00249615
0.000371036
0.00270162
0.00275557
0.00281502
0.00288259
0.00298017
0.00307004
0.00315685
0.00330492
0.00350858
0.0036073
0.00290786
0.000420814
0.000115395
6.78906e-05
6.89252e-05
6.81286e-05
6.46994e-05
6.13383e-05
6.44963e-05
9.2628e-05
0.000137021
0.000154266
0.000161389
0.000166362
0.00020986
0.000190232
0.000211144
0.000184261
0.000104997
8.59817e-05
0.00014674
0.000179994
0.000268121
0.000361671
0.000500242
0.000647139
5.37198e-05
0.000225211
0.000275292
0.000238422
0.000203316
0.000215806
0.000325881
0.00046785
0.000666861
0.000899299
0.00112743
0.0013363
6.93719e-05
0.000317125
0.000318141
0.000290751
0.000307699
0.000436949
0.0006366
0.000868812
0.00113865
0.00141076
0.00165572
0.00186918
8.10532e-05
0.000384963
0.000419091
0.000421926
0.000526834
0.000733762
0.000976034
0.00124802
0.00153428
0.00180667
0.00204887
0.00225844
9.15373e-05
0.000463807
0.000546719
0.000611396
0.000781616
0.00101765
0.00128158
0.00155625
0.00182875
0.00208732
0.00231958
0.00252128
0.000100327
0.000535313
0.000686374
0.000821172
0.00104059
0.0012926
0.00155378
0.00181714
0.00207
0.0023041
0.00251277
0.0026948
0.00010901
0.000626074
0.000852435
0.00108161
0.00133214
0.00158237
0.00182423
0.00205557
0.00227012
0.00246488
0.00263859
0.00279064
0.000119296
0.000729268
0.0010837
0.00137505
0.00162787
0.00185228
0.00205364
0.00223601
0.00239948
0.00254699
0.00268101
0.00280178
0.000132867
0.000832226
0.0012749
0.00158063
0.00181572
0.00200484
0.00216568
0.00230701
0.00243456
0.00254853
0.00265407
0.00275168
0.000153073
0.000782384
0.00134563
0.00167413
0.00190031
0.00207772
0.00222185
0.0023439
0.00244497
0.002534
0.00261509
0.00269042
0.000273708
0.000753983
0.00141437
0.0017858
0.00199184
0.00215534
0.00229249
0.00239209
0.00247231
0.00253899
0.00259728
0.00265021
0.000168843
0.000170035
0.000169781
0.000169247
0.00016755
0.000164204
0.000159361
0.000152394
0.000142962
0.000130222
0.000113439
5.49465e-05
0.000793542
0.000917137
0.000996511
0.0010181
0.000990677
0.000926021
0.000826352
0.000691855
0.000531926
0.000322882
0.000161102
9.36001e-05
0.00151058
0.00163172
0.00169038
0.00169553
0.00164456
0.00154182
0.00138815
0.00118281
0.000924576
0.000618197
0.000272397
0.0001242
0.00204327
0.00216966
0.00224175
0.00226261
0.00222825
0.00213426
0.00197095
0.00173116
0.00140919
0.000998491
0.000487625
0.000151514
0.00243102
0.00256222
0.00264819
0.00268749
0.00267564
0.00260548
0.00246376
0.00222968
0.00186704
0.00136488
0.000713728
0.000177871
0.00268984
0.00282317
0.00291961
0.00297728
0.00299303
0.0029594
0.0028587
0.00266051
0.00231689
0.00176534
0.000997622
0.000204948
0.00284932
0.00297547
0.00307288
0.00314206
0.00318347
0.0031921
0.00314972
0.00301458
0.00271604
0.00215846
0.00129158
0.000232493
0.00292175
0.00303229
0.00312269
0.00319571
0.00325438
0.00329899
0.0033173
0.00326745
0.00305616
0.00252936
0.00158118
0.000262941
0.00290967
0.00300576
0.0030911
0.00316522
0.00323126
0.00330028
0.00336881
0.00340752
0.00331686
0.00287496
0.00183908
0.000296219
0.00284178
0.00292654
0.0030079
0.00308608
0.00315826
0.00323026
0.00332775
0.00343932
0.00348409
0.0031927
0.00213821
0.000331558
0.00276182
0.00283172
0.00290254
0.00297967
0.00307061
0.00314449
0.00324097
0.00338556
0.00353433
0.00344841
0.00249609
0.000371033
0.00270149
0.00275537
0.00281477
0.0028823
0.00297985
0.00306977
0.00315658
0.00330466
0.00350834
0.00360715
0.00290787
0.000420813
0.000123833
6.93103e-05
6.93521e-05
6.82203e-05
6.45772e-05
6.12852e-05
6.45013e-05
9.28233e-05
0.00013711
0.000154312
0.000161428
0.0001664
3.95529e-05
0.000159265
0.000207363
0.000183166
0.000104689
8.60235e-05
0.000146774
0.000180275
0.000268415
0.000362033
0.000500694
0.000647678
5.41396e-05
0.000223616
0.000275334
0.000238089
0.000203109
0.000216189
0.000326384
0.000468526
0.000667541
0.000900126
0.00112845
0.00133748
6.93929e-05
0.000316901
0.000318192
0.000290733
0.000308238
0.000437915
0.000637496
0.000869762
0.00113965
0.00141185
0.00165694
0.00187054
8.10795e-05
0.000385092
0.000419504
0.000422614
0.000527918
0.000734723
0.000977068
0.00124916
0.00153545
0.00180789
0.00205017
0.00225983
9.15517e-05
0.000464111
0.000547407
0.000612413
0.000782641
0.00101874
0.00128273
0.00155745
0.00182999
0.00208864
0.00232096
0.00252272
0.000100343
0.000535671
0.000687138
0.000822226
0.00104167
0.00129371
0.00155497
0.00181838
0.00207129
0.00230543
0.00251416
0.00269624
0.000109025
0.00062634
0.000853097
0.00108246
0.00133309
0.0015834
0.00182534
0.00205674
0.00227134
0.00246616
0.00263992
0.00279203
0.000119305
0.000729385
0.00108408
0.00137557
0.00162853
0.00185306
0.00205451
0.00223697
0.00240051
0.00254811
0.00268219
0.00280303
0.000132869
0.000832228
0.00127506
0.00158088
0.0018161
0.00200533
0.00216628
0.00230769
0.0024353
0.00254942
0.00265501
0.0027527
0.000153066
0.000782329
0.00134569
0.00167424
0.00190047
0.00207795
0.00222219
0.00234429
0.00244546
0.00253459
0.00261577
0.00269118
0.000273705
0.000754014
0.0014144
0.00178588
0.00199192
0.00215547
0.00229268
0.00239233
0.00247261
0.00253937
0.00259773
0.00265073
0.000168879
0.000170068
0.000169812
0.000169274
0.000167572
0.000164222
0.000159376
0.000152406
0.00014297
0.000130226
0.00011344
5.4947e-05
0.000794116
0.000917747
0.000997118
0.00101864
0.000991168
0.000926445
0.000826703
0.000692105
0.000532083
0.000322956
0.00016112
9.36014e-05
0.00151183
0.00163297
0.00169153
0.00169658
0.00164544
0.00154255
0.00138873
0.00118323
0.00092487
0.000618365
0.000272444
0.000124203
0.0020447
0.00217112
0.00224319
0.00226397
0.00222943
0.00213528
0.00197179
0.00173178
0.00140964
0.00099876
0.000487725
0.000151521
0.00243247
0.00256371
0.00264967
0.00268892
0.00267695
0.00260664
0.00246474
0.00223046
0.00186763
0.00136524
0.000713864
0.000177879
0.00269133
0.00282468
0.00292112
0.00297876
0.00299444
0.0029607
0.00285984
0.00266145
0.00231759
0.00176579
0.000997807
0.000204959
0.00285081
0.00297699
0.00307441
0.00314358
0.00318495
0.00319349
0.00315098
0.00301566
0.00271688
0.00215899
0.0012918
0.000232506
0.00292318
0.00303376
0.00312419
0.00319721
0.00325587
0.00330043
0.00331865
0.00326864
0.0030571
0.00252997
0.00158142
0.000262955
0.00291097
0.00300712
0.00309251
0.00316665
0.00323269
0.0033017
0.00337019
0.00340878
0.0033179
0.00287564
0.00183934
0.000296235
0.00284288
0.00292772
0.00300913
0.00308734
0.00315956
0.00323157
0.00332907
0.00344059
0.0034852
0.00319345
0.00213848
0.000331575
0.00276266
0.00283264
0.00290352
0.00298072
0.00307169
0.00314561
0.00324213
0.00338677
0.00353544
0.00344922
0.00249637
0.000371051
0.00270207
0.00275603
0.00281549
0.00288309
0.00298071
0.00307064
0.00315751
0.00330566
0.00350941
0.00360805
0.0029082
0.000420835
0.000115405
6.78932e-05
6.89284e-05
6.813e-05
6.47031e-05
6.13423e-05
6.45007e-05
9.26372e-05
0.000137032
0.000154277
0.0001614
0.000166373
0.000209872
0.000190237
0.00021117
0.000184284
0.000105017
8.60024e-05
0.000146749
0.000180007
0.000268141
0.000361697
0.00050028
0.000647186
5.37212e-05
0.000225213
0.00027532
0.000238459
0.000203348
0.000215808
0.000325878
0.000467854
0.000666878
0.000899329
0.00112748
0.00133637
6.93727e-05
0.000317137
0.00031816
0.000290766
0.000307681
0.000436882
0.000636562
0.000868787
0.00113865
0.00141078
0.00165576
0.00186925
8.1053e-05
0.000384955
0.000419052
0.000421859
0.00052671
0.00073368
0.000975971
0.00124798
0.00153427
0.00180667
0.00204889
0.00225849
9.15354e-05
0.000463768
0.00054662
0.000611245
0.000781472
0.00101752
0.00128147
0.00155617
0.00182869
0.00208729
0.00231958
0.00252131
0.000100326
0.000535249
0.000686223
0.000820962
0.0010404
0.00129243
0.00155363
0.00181701
0.0020699
0.00230403
0.00251273
0.00269479
0.00010901
0.000626012
0.000852284
0.00108142
0.00133196
0.0015822
0.00182408
0.00205545
0.00227002
0.00246481
0.00263855
0.00279063
0.000119297
0.000729246
0.00108362
0.00137499
0.00162781
0.00185223
0.00205359
0.00223598
0.00239946
0.00254698
0.00268102
0.0028018
0.000132872
0.000832271
0.00127497
0.00158072
0.00181581
0.00200493
0.00216576
0.0023071
0.00243464
0.00254859
0.00265414
0.00275175
0.000153082
0.000782495
0.00134578
0.00167432
0.00190052
0.00207793
0.00222205
0.0023441
0.00244516
0.00253416
0.00261524
0.00269056
0.000273727
0.000754136
0.00141459
0.00178608
0.00199214
0.00215566
0.0022928
0.00239239
0.00247259
0.00253925
0.00259752
0.00265044
0.000168854
0.000170046
0.000169791
0.000169257
0.000167559
0.000164212
0.000159369
0.000152401
0.000142967
0.000130227
0.000113444
5.49489e-05
0.000793599
0.000917203
0.000996584
0.00101817
0.000990745
0.000926084
0.000826408
0.000691902
0.000531968
0.000322906
0.00016111
9.36032e-05
0.00151066
0.00163181
0.00169048
0.00169564
0.00164467
0.00154193
0.00138825
0.00118289
0.00092464
0.000618241
0.000272411
0.000124202
0.00204336
0.00216977
0.00224187
0.00226273
0.00222838
0.00213439
0.00197107
0.00173126
0.00140927
0.000998543
0.000487653
0.000151517
0.00243109
0.00256232
0.0026483
0.00268762
0.00267577
0.00260562
0.00246389
0.0022298
0.00186714
0.00136496
0.000713766
0.000177873
0.00268989
0.00282324
0.0029197
0.00297738
0.00299315
0.00295953
0.00285883
0.00266063
0.00231699
0.00176542
0.000997663
0.00020495
0.00284934
0.00297552
0.00307294
0.00314215
0.00318358
0.00319222
0.00314984
0.0030147
0.00271616
0.00215855
0.00129163
0.000232494
0.00292176
0.00303233
0.00312275
0.00319579
0.00325448
0.0032991
0.00331742
0.00326757
0.00305627
0.00252945
0.00158122
0.000262942
0.0029097
0.00300581
0.00309117
0.0031653
0.00323136
0.00330039
0.00336893
0.00340763
0.00331696
0.00287503
0.00183911
0.000296218
0.00284185
0.00292662
0.00300799
0.00308617
0.00315836
0.00323037
0.00332787
0.00343942
0.00348417
0.00319274
0.00213823
0.000331555
0.00276195
0.00283186
0.00290267
0.0029798
0.00307074
0.00314461
0.00324108
0.00338565
0.00353435
0.00344839
0.00249608
0.000371029
0.0027017
0.00275557
0.00281497
0.00288248
0.00298
0.00306991
0.00315668
0.0033047
0.00350829
0.00360706
0.00290779
0.000420803
0.00168451
0.00176332
0.0018915
0.00204365
0.00217488
0.00229495
0.00239604
0.00246679
0.00252308
0.00256702
0.00260371
0.00263544
0.00272627
0.0025506
0.00248011
0.00247242
0.00248778
0.00251236
0.00253525
0.00255805
0.00258358
0.0026036
0.00262139
0.00263607
0.00339959
0.00318959
0.00302155
0.00290546
0.0028126
0.00275227
0.00271423
0.00268786
0.00267652
0.00266361
0.00265375
0.00264942
0.003622
0.00346271
0.00329837
0.00314501
0.00300727
0.00289369
0.00280741
0.00274723
0.00271387
0.00269347
0.00268912
0.00270595
0.00266818
0.00270882
0.00276025
0.00282351
0.00292159
0.00302097
0.00310584
0.00325052
0.00345793
0.00371
0.0037821
0.00177377
0.00265772
0.00269476
0.00274623
0.00281376
0.00291118
0.00300934
0.00310229
0.003244
0.00342855
0.00365962
0.00409571
0.00304742
0.00267292
0.00272286
0.00278483
0.00286601
0.00295273
0.00305656
0.00316661
0.00329097
0.00344528
0.00361353
0.0039924
0.0036535
0.00274442
0.00282405
0.00289639
0.00298252
0.0030777
0.00318217
0.00329837
0.00341176
0.00353725
0.00364381
0.00387494
0.00379481
0.00168451
0.00176333
0.00189156
0.00204374
0.0021751
0.00229517
0.00239634
0.00246711
0.00252339
0.00256729
0.00260393
0.0026356
0.0027263
0.00255062
0.00248019
0.00247257
0.002488
0.00251264
0.00253557
0.00255841
0.00258393
0.00260396
0.00262172
0.00263636
0.00339956
0.00318971
0.00302167
0.00290565
0.00281285
0.00275258
0.00271458
0.00268822
0.0026769
0.00266402
0.00265415
0.00264981
0.00362208
0.00346292
0.00329857
0.00314527
0.00300758
0.00289404
0.00280778
0.00274763
0.00271427
0.00269389
0.00268955
0.0027064
0.00266828
0.00270887
0.00276025
0.00282348
0.00292156
0.00302097
0.00310583
0.00325047
0.00345788
0.00371001
0.0037822
0.00177387
0.00265797
0.00269499
0.00274643
0.00281396
0.00291139
0.00300956
0.0031025
0.0032442
0.00342875
0.00365984
0.00409594
0.00304767
0.0026733
0.00272324
0.00278521
0.00286641
0.00295313
0.00305699
0.00316705
0.00329142
0.00344571
0.00361396
0.00399279
0.00365386
0.00274488
0.00282455
0.00289692
0.00298308
0.00307829
0.00318278
0.003299
0.00341239
0.00353786
0.0036444
0.00387548
0.00379526
0.00168469
0.00176351
0.00189174
0.00204392
0.00217524
0.00229534
0.0023965
0.00246729
0.0025236
0.00256755
0.00260423
0.00263594
0.00272659
0.00255092
0.00248049
0.00247283
0.00248824
0.00251286
0.00253578
0.00255861
0.00258414
0.00260417
0.00262194
0.0026366
0.00339996
0.00319008
0.00302203
0.00290598
0.00281315
0.00275284
0.00271482
0.00268845
0.00267711
0.00266421
0.00265433
0.00264998
0.00362254
0.00346335
0.00329895
0.0031456
0.00300789
0.00289433
0.00280804
0.00274783
0.00271446
0.00269406
0.00268971
0.00270656
0.00266867
0.00270931
0.00276074
0.00282404
0.00292218
0.0030216
0.00310653
0.00325129
0.00345882
0.00371093
0.0037827
0.00177396
0.00265824
0.00269529
0.00274676
0.00281435
0.00291181
0.00301004
0.00310305
0.00324484
0.00342951
0.00366066
0.00409669
0.003048
0.00267348
0.00272344
0.00278545
0.00286668
0.00295346
0.00305738
0.0031675
0.00329195
0.00344636
0.00361469
0.00399362
0.00365446
0.00274504
0.00282473
0.00289715
0.00298335
0.00307862
0.00318318
0.00329945
0.00341291
0.00353847
0.00364508
0.00387626
0.00379597
0.00168469
0.00176358
0.00189187
0.00204411
0.00217548
0.00229558
0.00239674
0.0024675
0.00252376
0.00256765
0.00260427
0.00263591
0.0027268
0.00255109
0.00248066
0.00247304
0.00248848
0.00251312
0.00253604
0.00255887
0.0025844
0.00260438
0.00262212
0.00263673
0.00340042
0.00319045
0.00302234
0.00290628
0.00281344
0.00275313
0.00271511
0.00268875
0.00267741
0.00266448
0.00265457
0.00265018
0.00362314
0.00346385
0.00329938
0.00314596
0.00300821
0.00289464
0.00280833
0.0027481
0.00271472
0.00269431
0.0026899
0.00270667
0.00266857
0.00270914
0.0027605
0.0028237
0.00292171
0.00302109
0.00310588
0.00325042
0.00345773
0.0037098
0.00378199
0.00177369
0.00265832
0.0026953
0.0027467
0.00281415
0.00291154
0.00300961
0.00310245
0.00324403
0.00342845
0.00365949
0.00409555
0.00304737
0.00267364
0.00272353
0.0027854
0.00286653
0.00295311
0.00305684
0.00316683
0.00329105
0.00344525
0.00361343
0.00399221
0.0036534
0.00274512
0.00282465
0.00289687
0.00298292
0.003078
0.00318236
0.00329848
0.00341183
0.00353721
0.00364372
0.00387471
0.00379458
0.00349413
0.00333047
0.00317177
0.0030268
0.00290112
0.00280112
0.00272871
0.0026831
0.00266345
0.00266608
0.00270235
0.00278383
0.00340426
0.00324405
0.00309122
0.00295069
0.00282715
0.00272568
0.00264776
0.00259282
0.00256014
0.00254853
0.00256587
0.0026454
0.00333732
0.00318622
0.00303845
0.00289756
0.00276639
0.00264786
0.00254264
0.00244839
0.00236121
0.00227691
0.00220723
0.0021986
0.00327932
0.00314227
0.00300107
0.00285684
0.00271022
0.0025644
0.00241782
0.0022613
0.00208549
0.00186888
0.00161486
0.00140016
0.00288129
0.00304585
0.00314852
0.00323997
0.00334572
0.00344628
0.00354456
0.0036252
0.00369476
0.00374487
0.0037767
0.00367783
0.0027906
0.00310235
0.0032359
0.00333571
0.00344368
0.0035396
0.00362516
0.00368724
0.00372261
0.00373021
0.00370557
0.00357566
0.00233589
0.00299058
0.00321113
0.00333062
0.00344187
0.00353768
0.00361871
0.00366701
0.00368384
0.00367685
0.00362932
0.00349446
0.00141369
0.0026588
0.00308194
0.0032562
0.00337632
0.00347494
0.0035565
0.00359923
0.00360989
0.00359863
0.00354657
0.0034225
0.00349437
0.00333075
0.0031721
0.00302717
0.00290151
0.00280152
0.00272911
0.00268351
0.00266387
0.0026665
0.00270283
0.00278436
0.00340457
0.0032444
0.00309161
0.00295112
0.00282756
0.00272608
0.00264815
0.0025932
0.00256053
0.00254892
0.00256635
0.00264591
0.00333764
0.00318659
0.00303887
0.002898
0.00276682
0.00264826
0.002543
0.00244873
0.00236153
0.00227723
0.0022076
0.002199
0.0032796
0.00314262
0.00300149
0.00285729
0.00271066
0.00256479
0.00241817
0.00226161
0.00208575
0.00186912
0.00161507
0.00140037
0.00288185
0.00304648
0.00314921
0.0032407
0.00334646
0.00344701
0.00354531
0.00362593
0.00369545
0.00374552
0.00377731
0.00367833
0.00279116
0.00310306
0.0032367
0.00333656
0.00344455
0.00354046
0.00362601
0.00368806
0.00372337
0.00373094
0.00370623
0.0035762
0.00233636
0.0029913
0.00321201
0.00333158
0.00344285
0.00353865
0.00361967
0.00366793
0.00368469
0.00367766
0.00363005
0.00349506
0.00141397
0.00265945
0.00308287
0.00325722
0.0033774
0.00347601
0.00355755
0.00360023
0.00361083
0.00359951
0.00354737
0.00342315
0.00349484
0.00333116
0.00317245
0.00302747
0.00290179
0.00280177
0.00272933
0.00268369
0.00266403
0.00266666
0.00270299
0.00278456
0.00340505
0.00324481
0.00309195
0.0029514
0.00282781
0.00272631
0.00264835
0.00259338
0.00256068
0.00254907
0.00256656
0.00264615
0.00333815
0.00318699
0.00303919
0.00289826
0.00276705
0.00264847
0.0025432
0.0024489
0.00236169
0.00227739
0.00220778
0.0021992
0.00328015
0.00314304
0.00300181
0.00285754
0.00271088
0.00256499
0.00241835
0.00226179
0.00208588
0.00186926
0.00161521
0.00140051
0.00288207
0.00304675
0.00314954
0.00324104
0.00334687
0.00344749
0.00354581
0.00362648
0.00369607
0.00374618
0.00377797
0.00367896
0.00279139
0.00310339
0.00323709
0.00333696
0.00344499
0.00354095
0.00362654
0.00368861
0.00372397
0.00373154
0.00370683
0.00357676
0.00233658
0.00299168
0.00321243
0.00333199
0.0034433
0.00353913
0.00362017
0.00366845
0.00368524
0.00367821
0.00363059
0.00349555
0.00141409
0.00265982
0.00308327
0.00325764
0.00337782
0.00347646
0.003558
0.00360069
0.0036113
0.0036
0.00354786
0.00342359
0.00349537
0.00333161
0.00317284
0.0030278
0.00290209
0.00280203
0.00272956
0.00268388
0.00266418
0.00266677
0.00270293
0.00278431
0.00340552
0.00324521
0.00309229
0.0029517
0.00282808
0.00272652
0.00264852
0.00259348
0.00256071
0.00254907
0.00256622
0.00264569
0.00333858
0.00318736
0.0030395
0.00289853
0.00276727
0.00264865
0.00254332
0.00244896
0.00236168
0.00227729
0.00220747
0.00219878
0.00328054
0.00314337
0.00300208
0.00285777
0.00271105
0.00256515
0.00241845
0.00226182
0.00208593
0.00186917
0.00161502
0.00140024
0.00288173
0.00304623
0.00314876
0.00324019
0.00334584
0.0034463
0.00354457
0.00362514
0.00369464
0.00374469
0.00377642
0.00367754
0.0027909
0.00310258
0.00323602
0.0033358
0.00344372
0.00353955
0.00362509
0.00368712
0.00372243
0.00372996
0.00370525
0.0035753
0.00233606
0.00299069
0.00321116
0.00333063
0.00344183
0.00353758
0.0036186
0.00366685
0.00368363
0.0036766
0.00362899
0.00349405
0.00141381
0.00265884
0.00308192
0.00325613
0.00337622
0.00347482
0.00355636
0.00359904
0.00360965
0.00359834
0.0035462
0.00342207
0.00322339
0.0031017
0.00296899
0.00282147
0.00265737
0.00248434
0.00229352
0.00207204
0.0018005
0.00143448
0.000875824
0.00026823
0.0031583
0.00305403
0.00293413
0.00278601
0.00261038
0.00241731
0.00219213
0.00192351
0.00159637
0.00118247
0.000599763
0.000140064
0.00307902
0.00299324
0.00288983
0.00274612
0.00256836
0.00236522
0.00212142
0.0018299
0.00148774
0.00110534
0.000605881
0.000122205
0.00298376
0.0029153
0.00282976
0.00269612
0.00252491
0.00232235
0.00207561
0.0017833
0.00145604
0.00112883
0.00070083
0.000124788
0.00286813
0.00281619
0.00274702
0.00262876
0.00247095
0.00227787
0.00204008
0.0017611
0.00145791
0.00114926
0.000755905
0.000129183
0.00272528
0.00268878
0.00263478
0.00253473
0.00239508
0.00221762
0.00199553
0.00173436
0.00144795
0.00113281
0.000757532
0.000132651
0.00254309
0.00252141
0.00248179
0.00240088
0.00228251
0.00212417
0.00192029
0.00167612
0.00139847
0.00107549
0.00071803
0.000133645
0.00230246
0.00229503
0.00226894
0.00220672
0.00211152
0.00197411
0.00179074
0.00156251
0.0012926
0.000975981
0.000638008
0.000132327
0.00197222
0.00197702
0.00196419
0.00191962
0.00184547
0.00173277
0.00157821
0.00136814
0.00111232
0.000821924
0.00052038
0.000127883
0.00150173
0.00151463
0.00151321
0.00148491
0.0014303
0.00134768
0.00123722
0.00105992
0.000842398
0.000604294
0.000362446
0.000119765
0.00082548
0.000837768
0.000842343
0.000829735
0.000800989
0.000756243
0.000699584
0.000602726
0.000458357
0.000316029
0.000170361
0.000108633
8.95571e-05
9.19753e-05
9.40183e-05
9.49448e-05
9.45377e-05
9.27709e-05
8.95803e-05
8.45721e-05
7.708e-05
6.60847e-05
5.06406e-05
0.000144499
0.000352169
0.00218031
0.00288428
0.00313259
0.00326555
0.0033702
0.00345599
0.00350054
0.00351249
0.00350141
0.00345245
0.00334837
0.000306074
0.0019314
0.00267729
0.00297339
0.00312174
0.00323446
0.00332672
0.00337901
0.00339832
0.00338834
0.00334745
0.0032647
0.00028186
0.00173206
0.00246851
0.00278967
0.00295317
0.0030743
0.00317332
0.00323696
0.00326664
0.0032635
0.00323107
0.00316486
0.000263224
0.00155071
0.00225852
0.00258946
0.00276504
0.00289342
0.00299822
0.00307392
0.00311388
0.0031226
0.00310048
0.00305094
0.000246749
0.00137657
0.00204392
0.00237615
0.00255954
0.00269295
0.00280242
0.00288734
0.0029381
0.00295858
0.00295114
0.00291864
0.000230877
0.00120079
0.00182146
0.00214969
0.0023357
0.00247093
0.00258333
0.00267427
0.00273523
0.00276737
0.00277424
0.00275867
0.000215258
0.00100847
0.00158669
0.00190723
0.00208895
0.00222138
0.00233383
0.00242824
0.00249731
0.00253975
0.00255939
0.00255938
0.000199941
0.00080115
0.00133447
0.00164331
0.00180998
0.001933
0.00204122
0.00213585
0.00220964
0.00225977
0.00228965
0.00230288
0.000183709
0.000599998
0.00106409
0.00134555
0.00148227
0.0015868
0.00168442
0.00177409
0.00184744
0.00190082
0.00193688
0.00195976
0.000165055
0.000418491
0.000772598
0.00098223
0.00106934
0.00114385
0.00122283
0.00130143
0.00136969
0.00142094
0.00145644
0.00148261
0.000147926
0.000263759
0.0004245
0.00051614
0.00054867
0.0005861
0.000633141
0.000685329
0.000733015
0.000768392
0.000791674
0.000810252
0.000191296
0.000205529
5.0836e-05
5.71638e-05
6.21213e-05
6.6174e-05
7.01213e-05
7.42453e-05
7.81399e-05
8.14999e-05
8.44043e-05
8.70481e-05
0.00322365
0.00310202
0.0029694
0.00282192
0.00265781
0.00248474
0.00229387
0.00207233
0.00180073
0.00143464
0.000875906
0.000268249
0.00315854
0.00305429
0.0029345
0.00278644
0.0026108
0.00241771
0.00219248
0.00192381
0.0015966
0.00118263
0.00059982
0.000140085
0.00307925
0.00299345
0.00289017
0.00274653
0.00256876
0.00236561
0.00212178
0.00183021
0.001488
0.00110555
0.000605991
0.000122235
0.00298398
0.00291548
0.00283005
0.0026965
0.00252529
0.00232273
0.00207597
0.00178362
0.00145633
0.00112909
0.000700973
0.000124822
0.00286834
0.00281637
0.00274727
0.0026291
0.00247129
0.00227822
0.00204043
0.00176142
0.00145819
0.0011495
0.000756063
0.000129219
0.00272549
0.00268895
0.00263501
0.00253503
0.00239539
0.00221795
0.00199585
0.00173467
0.00144822
0.00113303
0.000757702
0.00013269
0.00254328
0.00252158
0.002482
0.00240114
0.0022828
0.00212447
0.00192059
0.00167641
0.00139873
0.0010757
0.000718187
0.000133684
0.00230263
0.0022952
0.00226914
0.00220696
0.00211178
0.00197439
0.00179102
0.00156277
0.00129284
0.000976183
0.000638154
0.000132367
0.00197236
0.00197718
0.00196438
0.00191983
0.00184571
0.00173303
0.00157846
0.00136839
0.00111254
0.000822102
0.000520505
0.000127923
0.00150183
0.00151476
0.00151337
0.00148508
0.0014305
0.00134788
0.00123743
0.00106013
0.000842576
0.000604432
0.000362538
0.000119804
0.00082555
0.000837842
0.000842438
0.000829845
0.000801108
0.000756367
0.000699704
0.000602852
0.000458466
0.000316105
0.000170405
0.000108671
8.95647e-05
9.19845e-05
9.40295e-05
9.49582e-05
9.45524e-05
9.27869e-05
8.95971e-05
8.45893e-05
7.70981e-05
6.6102e-05
5.06551e-05
0.000144609
0.000352228
0.00218086
0.00288522
0.00313367
0.00326671
0.00337135
0.00345712
0.00350161
0.0035135
0.00350237
0.00345332
0.0033491
0.000306132
0.00193193
0.00267825
0.00297454
0.00312296
0.00323568
0.00332792
0.00338016
0.0033994
0.00338936
0.00334839
0.0032655
0.000281911
0.0017326
0.00246948
0.00279086
0.00295444
0.00307557
0.00317457
0.00323816
0.00326778
0.00326457
0.00323207
0.00316573
0.000263279
0.00155125
0.00225949
0.00259066
0.00276633
0.00289472
0.00299951
0.00307516
0.00311507
0.00312372
0.0031015
0.00305185
0.000246799
0.0013771
0.00204489
0.00237735
0.00256082
0.00269425
0.0028037
0.00288859
0.0029393
0.00295971
0.00295218
0.00291956
0.000230931
0.00120131
0.00182239
0.00215084
0.00233693
0.00247218
0.00258457
0.00267549
0.00273641
0.00276849
0.00277527
0.00275958
0.000215306
0.00100897
0.00158757
0.0019083
0.00209009
0.00222254
0.00233498
0.00242938
0.00249842
0.00254081
0.00256037
0.00256026
0.000199992
0.000801612
0.00133529
0.00164426
0.00181098
0.00193401
0.00204223
0.00213686
0.00221063
0.00226071
0.00229052
0.00230367
0.000183749
0.000600393
0.00106482
0.00134633
0.00148307
0.00158761
0.00168523
0.00177491
0.00184824
0.00190159
0.0019376
0.00196041
0.000165102
0.000418783
0.000773215
0.000982771
0.00106988
0.0011444
0.00122339
0.001302
0.00137026
0.00142148
0.00145695
0.00148307
0.000147976
0.000263908
0.000424856
0.000516417
0.000548935
0.000586368
0.000633424
0.000685618
0.000733296
0.000768663
0.000791928
0.000810481
0.000191406
0.000205635
5.08601e-05
5.71898e-05
6.21473e-05
6.61997e-05
7.0147e-05
7.42714e-05
7.81652e-05
8.15241e-05
8.44271e-05
8.70686e-05
0.00322424
0.00310247
0.00296973
0.00282218
0.00265803
0.00248492
0.00229403
0.00207248
0.00180084
0.00143474
0.000876006
0.000268295
0.0031592
0.0030548
0.00293486
0.00278672
0.00261102
0.00241788
0.00219263
0.00192393
0.0015967
0.0011827
0.000599898
0.000140102
0.00307998
0.00299403
0.00289058
0.00274683
0.00256899
0.00236578
0.00212191
0.00183031
0.00148807
0.00110558
0.000606027
0.000122241
0.00298476
0.00291612
0.00283051
0.00269684
0.00252554
0.00232291
0.0020761
0.00178371
0.00145637
0.00112909
0.000701022
0.000124825
0.00286916
0.00281704
0.00274779
0.00262948
0.00247158
0.00227843
0.00204057
0.00176151
0.00145824
0.00114955
0.000756142
0.000129222
0.0027263
0.00268964
0.00263555
0.00253544
0.00239571
0.00221818
0.00199602
0.00173479
0.00144831
0.00113313
0.000757781
0.000132693
0.00254406
0.00252226
0.00248255
0.00240157
0.00228313
0.00212473
0.00192078
0.00167656
0.00139885
0.00107583
0.000718285
0.000133688
0.00230333
0.00229582
0.00226965
0.00220737
0.00211211
0.00197464
0.00179122
0.00156294
0.00129298
0.000976307
0.000638248
0.000132372
0.00197294
0.00197768
0.00196479
0.00192017
0.001846
0.00173325
0.00157865
0.00136854
0.00111267
0.000822221
0.000520568
0.00012793
0.00150223
0.00151511
0.00151365
0.00148533
0.0014307
0.00134805
0.00123757
0.00106025
0.000842689
0.00060452
0.000362605
0.00011981
0.000825749
0.000838019
0.000842573
0.000829962
0.000801212
0.000756461
0.000699789
0.000602929
0.00045854
0.000316152
0.000170444
0.000108678
8.95817e-05
9.19991e-05
9.40396e-05
9.49664e-05
9.45592e-05
9.27926e-05