/*--------------------------------*- C++ -*----------------------------------*\
  =========                 |
  \\      /  F ield         | OpenFOAM: The Open Source CFD Toolbox
   \\    /   O peration     | Website:  https://openfoam.org
    \\  /    A nd           | Version:  6
     \\/     M anipulation  |
\*---------------------------------------------------------------------------*/
FoamFile
{
    version     2.0;
    format      ascii;
    class       volScalarField;
    location    "350";
    object      p;
}
// * * * * * * * * * * * * * * * * * * * * * * * * * * * * * * * * * * * * * //

dimensions      [0 2 -2 0 0 0 0];

internalField   nonuniform List<scalar> 
3072
(
-5.60535e-05
-0.122557
-0.2337
-0.306484
-0.335047
-0.312747
-0.280338
-0.192204
-0.0166362
0.0703452
-0.116863
-0.396219
0.660933
0.463584
0.331696
0.265943
0.275638
0.414184
0.66768
0.972978
1.65811
2.15382
2.35139
2.49192
1.36676
1.08951
0.976515
0.985943
1.12368
1.44203
1.89674
2.30463
2.70409
3.01021
3.2138
3.37147
2.28885
2.04833
2.01773
2.15242
2.48551
2.92158
3.35693
3.74894
4.09828
4.3593
4.56304
4.72425
3.31773
3.19128
3.26682
3.52815
3.92556
4.35634
4.75863
5.11543
5.41719
5.64582
5.82283
5.95747
4.37682
4.36794
4.54595
4.88313
5.29833
5.70775
6.07292
6.37927
6.62753
6.81953
6.96811
7.08045
5.42491
5.54854
5.80642
6.18651
6.59978
6.97969
7.29986
7.55765
7.76027
7.91502
8.03267
8.12042
6.46965
6.74137
7.05637
7.45442
7.84477
8.17964
8.44758
8.65441
8.81087
8.92702
9.01321
9.07645
7.53328
7.96761
8.31471
8.70189
9.04452
9.31745
9.52304
9.67296
9.78032
9.85648
9.91119
9.95055
8.63971
9.19823
9.56211
9.91676
10.1949
10.3898
10.5221
10.609
10.6648
10.7007
10.7252
10.7424
9.79152
10.5012
10.8219
11.0638
11.249
11.3525
11.4067
11.4318
11.4403
11.4418
11.4427
11.4438
10.8141
11.8243
12.0096
12.0566
12.1198
12.1334
12.121
12.0991
12.0764
12.0588
12.0501
12.0466
-0.636363
-0.719744
-0.666208
-0.454809
-0.124782
0.318974
0.834947
1.37127
1.84873
2.22956
2.40689
2.26222
2.57468
2.6215
2.66583
2.72552
2.81354
2.92768
3.05574
3.1815
3.28637
3.46126
3.407
2.72776
3.46362
3.53679
3.60973
3.69781
3.79622
3.89282
3.9791
4.02573
4.00359
3.98177
3.83694
2.85589
4.84213
4.93621
5.0105
5.06704
5.10417
5.11905
5.10556
5.03059
4.87225
4.67581
4.3986
3.14297
6.05437
6.12472
6.17303
6.20083
6.20657
6.18544
6.12633
6.01442
5.81731
5.53581
5.20211
3.74975
7.16196
7.21903
7.25473
7.27002
7.26356
7.23129
7.16267
7.0446
6.8518
6.56049
6.21226
4.76798
8.1837
8.22709
8.25324
8.2633
8.25677
8.23106
8.1797
8.09166
7.94731
7.72117
7.44479
6.14954
9.1219
9.15323
9.17328
9.18391
9.18598
9.17913
9.16059
9.12489
9.06356
8.95666
8.84128
7.88466
9.97912
9.99957
10.015
10.0283
10.0423
10.0595
10.0809
10.1084
10.1482
10.1989
10.3294
9.90369
10.756
10.7668
10.778
10.7929
10.8173
10.8575
10.9174
11.0068
11.1449
11.3601
11.8445
12.1391
11.4475
11.4514
11.4597
11.4751
11.5049
11.5601
11.6482
11.7849
11.9964
12.3487
13.2274
14.4044
12.0496
12.0516
12.0592
12.0744
12.1041
12.1622
12.2585
12.4137
12.6465
13.0457
14.0265
15.8967
0.00162256
-0.120939
-0.232404
-0.305453
-0.334253
-0.312062
-0.279675
-0.191663
-0.0163473
0.0711115
-0.115775
-0.395256
0.662338
0.464783
0.332628
0.266657
0.276137
0.414321
0.667766
0.972555
1.65752
2.1539
2.35163
2.4923
1.36792
1.09037
0.977068
0.986199
1.12368
1.44155
1.89634
2.30431
2.70381
3.01028
3.21393
3.37169
2.28976
2.0488
2.01789
2.15207
2.48484
2.92096
3.35648
3.74866
4.09815
4.35933
4.56312
4.72439
3.31847
3.19162
3.26674
3.52769
3.92505
4.35598
4.75845
5.11534
5.41724
5.64594
5.82299
5.95763
4.3776
4.36829
4.54596
4.88293
5.29815
5.70771
6.07296
6.37944
6.62771
6.81976
6.96831
7.08067
5.42575
5.54897
5.80659
6.18657
6.5999
6.97988
7.30012
7.55794
7.76059
7.91531
8.03295
8.12066
6.47053
6.74188
7.05672
7.4547
7.84508
8.17999
8.44795
8.65479
8.81125
8.92737
9.01352
9.07672
7.53412
7.96818
8.31515
8.7023
9.04493
9.31788
9.52347
9.67339
9.78073
9.85686
9.91152
9.95083
8.6405
9.19883
9.56263
9.91722
10.1954
10.3902
10.5225
10.6095
10.6652
10.701
10.7255
10.7427
9.79225
10.5018
10.8224
11.0643
11.2494
11.353
11.4072
11.4322
11.4407
11.4421
11.443
11.4441
10.8148
11.8248
12.0101
12.0571
12.1203
12.1338
12.1215
12.0995
12.0768
12.0591
12.0504
12.0468
-0.635514
-0.719128
-0.665752
-0.454532
-0.124607
0.319051
0.834994
1.3713
1.84878
2.22964
2.40698
2.26229
2.57504
2.62182
2.66606
2.72567
2.81362
2.92773
3.05577
3.18153
3.28639
3.46133
3.40708
2.72781
3.46384
3.53701
3.60991
3.69793
3.79629
3.89286
3.97913
4.02575
4.00361
3.9818
3.837
2.8559
4.84227
4.93635
5.01063
5.06715
5.10425
5.1191
5.10559
5.03061
4.87225
4.6758
4.39862
3.14293
6.05454
6.12487
6.17317
6.20095
6.20667
6.18551
6.12637
6.01443
5.81731
5.53579
5.20209
3.74968
7.16214
7.2192
7.25486
7.27014
7.26366
7.23136
7.16271
7.04463
6.85179
6.56044
6.21223
4.76788
8.18391
8.22727
8.2534
8.26343
8.25687
8.23114
8.17976
8.09168
7.94731
7.72116
7.44473
6.14944
9.12213
9.15343
9.17345
9.18405
9.1861
9.17922
9.16066
9.12494
9.0636
8.95662
8.84124
7.88456
9.97937
9.99977
10.0152
10.0284
10.0424
10.0596
10.081
10.1084
10.1482
10.1989
10.3294
9.90363
10.7563
10.767
10.7782
10.7931
10.8174
10.8576
10.9175
11.0069
11.1449
11.3601
11.8445
12.1391
11.4477
11.4516
11.4598
11.4752
11.505
11.5602
11.6483
11.785
11.9965
12.3488
13.2274
14.4045
12.0498
12.0518
12.0593
12.0745
12.1042
12.1623
12.2586
12.4138
12.6466
13.0458
14.0266
15.8969
-0.00148083
-0.126232
-0.236697
-0.308386
-0.336252
-0.313591
-0.280945
-0.192655
-0.0170244
0.0700936
-0.116901
-0.396085
0.663669
0.463343
0.330369
0.264753
0.274774
0.413599
0.667209
0.972569
1.65774
2.15354
2.35121
2.49185
1.37013
1.09262
0.977713
0.986193
1.12356
1.44198
1.89671
2.30463
2.7041
3.01026
3.21389
3.3716
2.29141
2.05094
2.01981
2.15381
2.48638
2.92213
3.35731
3.74923
4.09852
4.35951
4.56323
4.72444
3.31986
3.19343
3.26882
3.52978
3.92677
4.35721
4.75928
5.11593
5.4176
5.64616
5.82312
5.95773
4.37877
4.36989
4.54779
4.8847
5.29957
5.70872
6.07368
6.37988
6.62802
6.81994
6.96847
7.08076
5.42666
5.5503
5.80808
6.18794
6.60095
6.98064
7.30062
7.55828
7.7608
7.91547
8.03305
8.12076
6.47115
6.74295
7.05784
7.45571
7.84583
8.18052
8.4483
8.65501
8.81139
8.92747
9.01359
9.07679
7.5346
7.96902
8.31602
8.70303
9.04547
9.31824
9.52371
9.67353
9.78082
9.85691
9.91157
9.95088
8.64088
9.19949
9.56327
9.91775
10.1958
10.3905
10.5227
10.6095
10.6653
10.7011
10.7255
10.7427
9.7926
10.5024
10.823
11.0647
11.2497
11.3531
11.4073
11.4323
11.4408
11.4421
11.443
11.4441
10.8151
11.8253
12.0105
12.0574
12.1205
12.1339
12.1215
12.0995
12.0768
12.0591
12.0504
12.0468
-0.636093
-0.719392
-0.66581
-0.454399
-0.124382
0.319337
0.835259
1.37151
1.84891
2.22969
2.407
2.26233
2.57471
2.62161
2.66601
2.72574
2.81377
2.92792
3.05596
3.18169
3.28653
3.4614
3.40709
2.72788
3.46379
3.53699
3.60995
3.69804
3.79644
3.89304
3.97931
4.02592
4.00377
3.98193
3.83707
2.85608
4.84232
4.9364
5.0107
5.06724
5.10438
5.11926
5.10577
5.0308
4.87245
4.67602
4.39881
3.14324
6.05461
6.12495
6.17325
6.20105
6.20679
6.18566
6.12655
6.01464
5.81755
5.53605
5.20235
3.75007
7.16224
7.21929
7.25497
7.27025
7.26379
7.23151
7.16289
7.04482
6.85203
6.56074
6.21253
4.76833
8.184
8.22737
8.25349
8.26354
8.25699
8.23128
8.17991
8.09187
7.94754
7.72142
7.44507
6.14991
9.1222
9.15351
9.17354
9.18415
9.1862
9.17933
9.16079
9.12509
9.06377
8.9569
8.84155
7.885
9.97942
9.99984
10.0153
10.0285
10.0425
10.0597
10.0811
10.1086
10.1483
10.1991
10.3297
9.904
10.7563
10.7671
10.7783
10.7932
10.8175
10.8576
10.9176
11.0069
11.145
11.3602
11.8447
12.1393
11.4478
11.4517
11.4599
11.4753
11.5051
11.5603
11.6483
11.7851
11.9965
12.3488
13.2275
14.4046
12.0498
12.0519
12.0594
12.0746
12.1043
12.1624
12.2587
12.4138
12.6465
13.0457
14.0265
15.8968
0.00140026
-0.121163
-0.232632
-0.305679
-0.334477
-0.312289
-0.27991
-0.19188
-0.0165267
0.0709008
-0.116086
-0.39563
0.662107
0.464545
0.332384
0.266417
0.275904
0.414092
0.667546
0.972391
1.65742
2.15379
2.35149
2.49212
1.36767
1.0901
0.976775
0.985899
1.1234
1.4413
1.89611
2.3041
2.70362
3.01009
3.21372
3.37147
2.28949
2.04847
2.01754
2.1517
2.4845
2.92068
3.35625
3.74847
4.09796
4.35916
4.56294
4.7242
3.3182
3.19129
3.26637
3.52732
3.92474
4.35573
4.75825
5.11518
5.41708
5.64578
5.82283
5.95747
4.37736
4.36798
4.54563
4.88262
5.29791
5.70753
6.07282
6.37931
6.62758
6.81964
6.96818
7.08052
5.42555
5.54869
5.80631
6.18634
6.59973
6.97976
7.30003
7.55785
7.7605
7.91522
8.03283
8.12053
6.47036
6.74164
7.05649
7.45453
7.84497
8.17992
8.44789
8.65473
8.81118
8.92728
9.01341
9.0766
7.53396
7.96798
8.31497
8.70217
9.04486
9.31783
9.52343
9.67334
9.78066
9.85677
9.91141
9.95071
8.64034
9.19865
9.56249
9.91713
10.1953
10.3902
10.5225
10.6094
10.6652
10.7009
10.7254
10.7426
9.79208
10.5016
10.8223
11.0642
11.2494
11.3529
11.4071
11.4321
11.4407
11.442
11.4428
11.4439
10.8147
11.8247
12.01
12.057
12.1202
12.1338
12.1214
12.0994
12.0767
12.059
12.0503
12.0467
-0.635945
-0.71958
-0.666208
-0.454967
-0.125008
0.318703
0.834701
1.37106
1.84859
2.22952
2.40692
2.2622
2.57483
2.62158
2.66581
2.72542
2.81338
2.92751
3.05556
3.18134
3.28623
3.46122
3.40697
2.72766
3.4636
3.53676
3.60965
3.69768
3.79604
3.89263
3.97891
4.02554
4.00342
3.98161
3.83681
2.85566
4.84206
4.93614
5.01041
5.06693
5.10403
5.11888
5.10537
5.03038
4.87202
4.67557
4.39838
3.14264
6.05436
6.12468
6.17297
6.20074
6.20645
6.18529
6.12614
6.01419
5.81706
5.53552
5.20183
3.74938
7.16198
7.21903
7.25468
7.26995
7.26345
7.23114
7.16247
7.04438
6.85153
6.56017
6.21195
4.76758
8.18377
8.22711
8.25322
8.26324
8.25667
8.23092
8.17952
8.09143
7.94704
7.72088
7.44445
6.14915
9.122
9.15327
9.17328
9.18386
9.1859
9.179
9.16042
9.12468
9.06333
8.95634
8.84096
7.88429
9.97922
9.99961
10.015
10.0282
10.0422
10.0594
10.0807
10.1082
10.1479
10.1986
10.3291
9.90336
10.7561
10.7668
10.778
10.7929
10.8172
10.8573
10.9173
11.0066
11.1446
11.3598
11.8442
12.1388
11.4475
11.4515
11.4596
11.475
11.5048
11.56
11.648
11.7848
11.9962
12.3484
13.2271
14.4042
12.0496
12.0516
12.0591
12.0743
12.104
12.162
12.2584
12.4135
12.6463
13.0455
14.0262
15.8964
12.8504
13.0184
12.9038
12.7841
12.7269
12.6764
12.6268
12.5841
12.5547
12.5397
12.5406
12.5478
13.2249
13.087
13.0747
13.0253
12.9929
12.9566
12.9189
12.8911
12.8821
12.8927
12.923
12.9576
13.388
13.2915
13.2545
13.1933
13.1464
13.1075
13.0806
13.0753
13.0987
13.1493
13.2248
13.3026
13.5074
13.4204
13.3479
13.2682
13.2015
13.1546
13.1366
13.1586
13.2279
13.3427
13.4947
13.6556
12.563
12.5693
12.5795
12.5935
12.6183
12.6674
12.7516
12.8934
13.0861
13.3686
13.6966
14.6246
12.9992
13.0141
13.0296
13.0397
13.0529
13.0813
13.1375
13.245
13.384
13.5871
13.6741
13.9492
13.382
13.4033
13.4248
13.4242
13.4165
13.413
13.4256
13.4792
13.5517
13.6893
13.7047
13.7821
13.793
13.8032
13.8252
13.7995
13.7534
13.6964
13.6385
13.6058
13.5866
13.6436
13.6261
13.6901
12.8512
13.019
12.9042
12.7845
12.7274
12.6768
12.6272
12.5845
12.555
12.54
12.5408
12.548
13.2256
13.0876
13.0751
13.0258
12.9934
12.957
12.9193
12.8914
12.8824
12.8929
12.9232
12.9578
13.3888
13.292
13.255
13.1938
13.1469
13.1078
13.0809
13.0756
13.0989
13.1495
13.2251
13.3028
13.5082
13.4211
13.3485
13.2687
13.202
13.155
13.1369
13.1588
13.2282
13.3429
13.4949
13.6558
12.5632
12.5694
12.5796
12.5936
12.6185
12.6675
12.7517
12.8935
13.0863
13.3687
13.6968
14.6248
12.9993
13.0143
13.0298
13.0398
13.053
13.0815
13.1376
13.2451
13.3841
13.5872
13.6742
13.9494
13.3822
13.4034
13.4249
13.4243
13.4167
13.4131
13.4257
13.4793
13.5518
13.6894
13.7048
13.7822
13.7931
13.8033
13.8253
13.7996
13.7536
13.6965
13.6386
13.6059
13.5867
13.6438
13.6262
13.6902
12.8514
13.0194
12.9045
12.7848
12.7275
12.6769
12.6272
12.5845
12.5549
12.5399
12.5408
12.548
13.2258
13.0879
13.0753
13.0259
12.9934
12.957
12.9192
12.8913
12.8823
12.8928
12.9232
12.9578
13.3889
13.2922
13.2551
13.1939
13.1469
13.1078
13.0808
13.0755
13.0988
13.1494
13.225
13.3028
13.5083
13.4212
13.3485
13.2687
13.2019
13.1549
13.1367
13.1586
13.2279
13.3427
13.4947
13.6557
12.5632
12.5695
12.5797
12.5937
12.6185
12.6675
12.7518
12.8935
13.0862
13.3686
13.6966
14.6247
12.9993
13.0143
13.0298
13.0399
13.0531
13.0815
13.1376
13.2451
13.3841
13.5871
13.6741
13.9492
13.3822
13.4035
13.425
13.4244
13.4167
13.4132
13.4258
13.4794
13.5518
13.6894
13.7047
13.7821
13.7932
13.8034
13.8254
13.7997
13.7536
13.6966
13.6387
13.606
13.5868
13.6438
13.6262
13.6902
12.8511
13.0189
12.9041
12.7845
12.7273
12.6768
12.6272
12.5844
12.5549
12.5399
12.5407
12.5479
13.2256
13.0876
13.0752
13.0258
12.9934
12.9571
12.9194
12.8914
12.8824
12.8929
12.9231
12.9577
13.3888
13.2921
13.255
13.1939
13.147
13.108
13.081
13.0757
13.099
13.1496
13.225
13.3027
13.5083
13.4212
13.3486
13.2688
13.2022
13.1552
13.1371
13.1591
13.2283
13.3431
13.4949
13.6557
12.563
12.5692
12.5794
12.5934
12.6182
12.6672
12.7515
12.8932
13.0859
13.3683
13.6963
14.6242
12.9991
13.0141
13.0295
13.0395
13.0528
13.0812
13.1373
13.2448
13.3837
13.5868
13.6737
13.9486
13.382
13.4032
13.4247
13.424
13.4164
13.4128
13.4254
13.4789
13.5514
13.689
13.7043
13.7815
13.7929
13.8031
13.8251
13.7993
13.7533
13.6962
13.6383
13.6055
13.5863
13.6433
13.6257
13.6895
13.6156
13.5496
13.4737
13.3959
13.3255
13.2727
13.2479
13.2623
13.3234
13.4309
13.5754
13.7449
13.7242
13.6661
13.6006
13.5352
13.4745
13.4251
13.3952
13.3936
13.4268
13.4964
13.5962
13.7204
13.8074
13.7542
13.6956
13.637
13.5799
13.5291
13.4916
13.4761
13.4906
13.5386
13.6183
13.7258
13.8693
13.8194
13.7643
13.7079
13.6495
13.5931
13.5454
13.5161
13.5163
13.5537
13.6281
13.6856
13.945
13.9768
14.0149
13.9945
13.9521
13.8907
13.821
13.7592
13.7043
13.7002
13.6577
13.6899
13.9543
13.9815
14.0324
14.0296
14.0111
13.9775
13.9385
13.9028
13.8681
13.8543
13.8107
13.7972
14.0256
14.0167
14.0696
14.075
14.0675
14.0471
14.0216
13.9959
13.9674
13.9465
13.9036
13.8733
14.2047
14.0907
14.1177
14.1214
14.1165
14.1019
14.0822
14.0597
14.0327
14.0064
13.9638
13.9271
13.6163
13.5503
13.4743
13.3964
13.326
13.273
13.2482
13.2625
13.3235
13.431
13.5756
13.7451
13.7249
13.6667
13.6012
13.5358
13.475
13.4255
13.3955
13.3938
13.427
13.4966
13.5964
13.7206
13.808
13.7548
13.6962
13.6375
13.5804
13.5295
13.4919
13.4763
13.4908
13.5389
13.6185
13.726
13.8699
13.8199
13.7649
13.7084
13.6499
13.5934
13.5457
13.5163
13.5165
13.5539
13.6283
13.6858
13.9452
13.9769
14.015
13.9947
13.9522
13.8908
13.8211
13.7593
13.7044
13.7003
13.6578
13.69
13.9545
13.9816
14.0325
14.0297
14.0112
13.9776
13.9386
13.9029
13.8681
13.8544
13.8107
13.7973
14.0258
14.0168
14.0697
14.0751
14.0676
14.0472
14.0217
13.9959
13.9675
13.9465
13.9036
13.8733
14.2048
14.0908
14.1178
14.1216
14.1166
14.1019
14.0823
14.0598
14.0327
14.0065
13.9638
13.9271
13.6163
13.5503
13.4743
13.3964
13.3259
13.2729
13.248
13.2623
13.3233
13.4308
13.5754
13.745
13.7249
13.6667
13.6012
13.5357
13.4749
13.4254
13.3953
13.3936
13.4268
13.4963
13.5962
13.7205
13.808
13.7548
13.6961
13.6375
13.5803
13.5294
13.4918
13.4762
13.4906
13.5386
13.6183
13.7258
13.8699
13.8199
13.7648
13.7083
13.6499
13.5934
13.5456
13.5162
13.5163
13.5537
13.6281
13.6856
13.9452
13.977
14.0151
13.9948
13.9523
13.8909
13.8211
13.7594
13.7045
13.7004
13.6578
13.69
13.9545
13.9817
14.0326
14.0298
14.0113
13.9777
13.9387
13.903
13.8682
13.8545
13.8108
13.7974
14.0259
14.017
14.0698
14.0752
14.0678
14.0474
14.0219
13.9961
13.9676
13.9467
13.9038
13.8734
14.2051
14.091
14.1179
14.1217
14.1168
14.1021
14.0824
14.0599
14.0329
14.0066
13.964
13.9273
13.6164
13.5504
13.4745
13.3966
13.3262
13.2732
13.2484
13.2628
13.3238
13.4312
13.5757
13.745
13.725
13.6668
13.6013
13.5359
13.4752
13.4257
13.3957
13.394
13.4272
13.4967
13.5965
13.7206
13.8081
13.7549
13.6963
13.6377
13.5805
13.5297
13.4921
13.4765
13.491
13.539
13.6186
13.726
13.87
13.82
13.765
13.7085
13.6501
13.5936
13.5459
13.5165
13.5166
13.554
13.6284
13.6859
13.945
13.9766
14.0148
13.9944
13.9518
13.8905
13.8207
13.7589
13.704
13.6998
13.6572
13.6893
13.9543
13.9813
14.0322
14.0294
14.0108
13.9773
13.9382
13.9025
13.8677
13.8539
13.8102
13.7967
14.0256
14.0166
14.0694
14.0748
14.0673
14.0469
14.0213
13.9955
13.9671
13.9461
13.9032
13.8727
14.2046
14.0905
14.1175
14.1212
14.1163
14.1016
14.0819
14.0594
14.0323
14.006
13.9634
13.9266
13.914
13.8651
13.8107
13.7529
13.6898
13.6248
13.5644
13.5189
13.4997
13.5094
13.5479
13.4556
13.9443
13.8947
13.8387
13.7768
13.7069
13.6319
13.5582
13.4966
13.4592
13.4461
13.4828
13.4696
13.9634
13.9119
13.8528
13.7856
13.7084
13.624
13.5392
13.4663
13.4206
13.4074
13.4411
13.4615
13.9743
13.9205
13.8578
13.7852
13.7016
13.61
13.5179
13.4404
13.395
13.3889
13.4237
13.4599
13.9797
13.9237
13.8576
13.7805
13.6921
13.5959
13.5008
13.4238
13.3827
13.384
13.4241
13.4688
13.9818
13.9239
13.8552
13.7749
13.6835
13.5853
13.4902
13.4167
13.3815
13.3901
13.4377
13.4861
13.9826
13.9233
13.853
13.7708
13.6779
13.5795
13.4863
13.4176
13.3882
13.4037
13.4578
13.5085
13.9834
13.9234
13.8524
13.7695
13.6765
13.5789
13.4882
13.4243
13.3999
13.4213
13.4809
13.5322
13.9855
13.9256
13.8549
13.7723
13.6799
13.5835
13.4949
13.4348
13.4135
13.4394
13.5026
13.5542
13.9909
13.9324
13.8631
13.7816
13.6903
13.5945
13.5063
13.4479
13.4261
13.4538
13.5187
13.5727
14.0011
13.9458
13.8795
13.8003
13.7101
13.6139
13.5237
13.4635
13.4366
13.4633
13.5305
13.5857
14.0109
13.9592
13.8967
13.8212
13.7339
13.6387
13.5493
13.4784
13.45
13.4739
13.5375
13.5866
14.5384
14.2445
14.172
14.163
14.1553
14.1427
14.1257
14.1044
14.0778
14.0485
14.0065
13.9668
14.5187
14.3085
14.2109
14.1939
14.1845
14.1727
14.1565
14.1353
14.1085
14.0774
14.0361
13.9949
14.4656
14.3057
14.2347
14.2148
14.206
14.1943
14.1783
14.1565
14.1288
14.0963
14.0556
14.0133
14.412
14.2894
14.2485
14.2289
14.2213
14.2097
14.1934
14.1707
14.142
14.1082
14.0676
14.0244
14.3688
14.2766
14.2565
14.2391
14.2323
14.2207
14.2037
14.18
14.1502
14.1153
14.0746
14.0305
14.3408
14.2698
14.2618
14.2467
14.2403
14.2284
14.2106
14.1858
14.155
14.1192
14.0783
14.0334
14.3283
14.2701
14.2664
14.2531
14.2462
14.2338
14.2151
14.1893
14.1576
14.1212
14.0802
14.0348
14.3276
14.2783
14.2714
14.2588
14.2505
14.2372
14.2177
14.191
14.1588
14.1222
14.0813
14.0358
14.3345
14.2931
14.2771
14.2635
14.2529
14.2386
14.2185
14.1915
14.1591
14.1228
14.0826
14.0376
14.3455
14.3112
14.2836
14.2661
14.252
14.2368
14.217
14.1904
14.1588
14.1236
14.0849
14.0414
14.3576
14.3254
14.2905
14.2664
14.2482
14.2319
14.2125
14.1872
14.1577
14.1251
14.0891
14.0485
14.3702
14.3393
14.2974
14.2685
14.2466
14.2284
14.2084
14.1841
14.1566
14.1264
14.0928
14.055
13.9145
13.8656
13.8112
13.7534
13.6902
13.6251
13.5647
13.5191
13.4999
13.5096
13.5482
13.4559
13.9448
13.8952
13.8391
13.7772
13.7073
13.6323
13.5585
13.4968
13.4594
13.4463
13.4831
13.4699
13.9639
13.9124
13.8532
13.786
13.7088
13.6244
13.5394
13.4665
13.4208
13.4076
13.4414
13.4617
13.9748
13.921
13.8582
13.7856
13.702
13.6103
13.5182
13.4406
13.3952
13.3891
13.424
13.4602
13.9802
13.9241
13.858
13.7809
13.6925
13.5962
13.501
13.424
13.3829
13.3842
13.4243
13.469
13.9823
13.9244
13.8557
13.7753
13.6839
13.5856
13.4904
13.4169
13.3816
13.3903
13.4379
13.4863
13.983
13.9237
13.8534
13.7712
13.6783
13.5798
13.4865
13.4178
13.3884
13.4039
13.4581
13.5088
13.9838
13.9238
13.8529
13.7699
13.6768
13.5792
13.4885
13.4245
13.4001
13.4215
13.4812
13.5325
13.986
13.9261
13.8554
13.7727
13.6803
13.5838
13.4952
13.435
13.4137
13.4396
13.5028
13.5545
13.9913
13.9328
13.8635
13.7821
13.6907
13.5948
13.5066
13.4481
13.4263
13.454
13.519
13.5731
14.0016
13.9463
13.8799
13.8007
13.7105
13.6143
13.5239
13.4637
13.4369
13.4636
13.5308
13.5861
14.0113
13.9597
13.8972
13.8216
13.7343
13.639
13.5496
13.4786
13.4503
13.4742
13.5378
13.5869
14.5386
14.2446
14.1721
14.1631
14.1554
14.1428
14.1257
14.1044
14.0778
14.0485
14.0065
13.9668
14.5189
14.3086
14.211
14.194
14.1846
14.1727
14.1566
14.1354
14.1085
14.0774
14.0361
13.9948
14.4657
14.3058
14.2348
14.2149
14.2061
14.1944
14.1783
14.1565
14.1288
14.0963
14.0556
14.0132
14.4121
14.2895
14.2486
14.229
14.2214
14.2098
14.1934
14.1707
14.142
14.1082
14.0676
14.0243
14.3689
14.2767
14.2566
14.2392
14.2324
14.2208
14.2038
14.18
14.1501
14.1153
14.0745
14.0304
14.3409
14.2699
14.262
14.2469
14.2403
14.2285
14.2107
14.1858
14.155
14.1192
14.0782
14.0333
14.3284
14.2702
14.2665
14.2532
14.2463
14.2339
14.2151
14.1893
14.1576
14.1212
14.0801
14.0347
14.3277
14.2784
14.2715
14.2589
14.2506
14.2373
14.2177
14.191
14.1588
14.1222
14.0812
14.0357
14.3345
14.2931
14.2772
14.2637
14.253
14.2387
14.2186
14.1915
14.1591
14.1227
14.0825
14.0375
14.3456
14.3113
14.2837
14.2662
14.2521
14.2369
14.217
14.1904
14.1587
14.1236
14.0848
14.0413
14.3576
14.3255
14.2906
14.2665
14.2482
14.2319
14.2125
14.1872
14.1577
14.125
14.089
14.0484
14.3702
14.3393
14.2975
14.2686
14.2467
14.2285
14.2084
14.1841
14.1565
14.1263
14.0927
14.0549
13.9145
13.8656
13.8112
13.7533
13.6901
13.6251
13.5646
13.519
13.4997
13.5093
13.5479
13.4555
13.9448
13.8951
13.8391
13.7772
13.7072
13.6322
13.5584
13.4966
13.4592
13.4461
13.4828
13.4695
13.9638
13.9123
13.8532
13.7859
13.7087
13.6243
13.5393
13.4664
13.4206
13.4073
13.441
13.4614
13.9747
13.9209
13.8581
13.7855
13.7019
13.6102
13.5181
13.4404
13.3949
13.3888
13.4236
13.4598
13.9801
13.924
13.8579
13.7808
13.6924
13.5961
13.5009
13.4238
13.3826
13.3839
13.424
13.4687
13.9822
13.9243
13.8556
13.7752
13.6838
13.5855
13.4903
13.4167
13.3814
13.39
13.4376
13.486
13.9829
13.9236
13.8533
13.7711
13.6782
13.5797
13.4864
13.4176
13.3882
13.4036
13.4577
13.5084
13.9837
13.9237
13.8527
13.7698
13.6767
13.579
13.4883
13.4243
13.3998
13.4212
13.4809
13.5322
13.9858
13.926
13.8552
13.7726
13.6802
13.5837
13.495
13.4348
13.4135
13.4393
13.5025
13.5541
13.9912
13.9327
13.8634
13.7819
13.6905
13.5947
13.5064
13.4479
13.4261
13.4537
13.5187
13.5727
14.0015
13.9461
13.8798
13.8006
13.7104
13.6141
13.5238
13.4635
13.4366
13.4633
13.5304
13.5857
14.0112
13.9596
13.897
13.8215
13.7341
13.6389
13.5494
13.4784
13.45
13.4738
13.5375
13.5866
14.539
14.2449
14.1723
14.1633
14.1555
14.143
14.1259
14.1046
14.078
14.0487
14.0067
13.967
14.5193
14.3089
14.2112
14.1942
14.1848
14.1729
14.1568
14.1356
14.1087
14.0775
14.0363
13.995
14.4661
14.3061
14.2351
14.2151
14.2063
14.1946
14.1785
14.1567
14.129
14.0965
14.0558
14.0134
14.4125
14.2898
14.2488
14.2293
14.2216
14.21
14.1936
14.1709
14.1422
14.1084
14.0678
14.0245
14.3692
14.277
14.2569
14.2394
14.2326
14.221
14.204
14.1802
14.1504
14.1155
14.0747
14.0306
14.3413
14.2702
14.2622
14.2471
14.2406
14.2287
14.2109
14.186
14.1552
14.1194
14.0784
14.0335
14.3288
14.2705
14.2668
14.2534
14.2465
14.2341
14.2153
14.1895
14.1578
14.1214
14.0803
14.0349
14.3281
14.2787
14.2717
14.2591
14.2509
14.2375
14.2179
14.1913
14.159
14.1224
14.0815
14.0359
14.3349
14.2935
14.2775
14.2639
14.2532
14.2389
14.2188
14.1917
14.1593
14.1229
14.0827
14.0377
14.346
14.3116
14.284
14.2665
14.2523
14.2371
14.2173
14.1906
14.159
14.1238
14.085
14.0415
14.358
14.3259
14.2909
14.2668
14.2485
14.2321
14.2127
14.1875
14.1579
14.1252
14.0892
14.0486
14.3707
14.3397
14.2978
14.2689
14.2469
14.2287
14.2086
14.1843
14.1568
14.1265
14.093
14.0551
13.9146
13.8657
13.8114
13.7535
13.6903
13.6253
13.5648
13.5193
13.5001
13.5097
13.5482
13.456
13.9449
13.8953
13.8392
13.7773
13.7074
13.6324
13.5586
13.497
13.4595
13.4465
13.4832
13.4699
13.964
13.9125
13.8533
13.7861
13.7089
13.6245
13.5396
13.4667
13.421
13.4077
13.4415
13.4618
13.9749
13.9211
13.8583
13.7857
13.7021
13.6104
13.5183
13.4408
13.3953
13.3892
13.4241
13.4602
13.9803
13.9242
13.8581
13.781
13.6926
13.5963
13.5012
13.4241
13.383
13.3843
13.4244
13.4691
13.9824
13.9244
13.8557
13.7754
13.684
13.5857
13.4906
13.4171
13.3818
13.3905
13.438
13.4864
13.9831
13.9238
13.8535
13.7713
13.6784
13.5799
13.4867
13.418
13.3886
13.404
13.4582
13.5089
13.9839
13.9239
13.8529
13.77
13.6769
13.5793
13.4886
13.4246
13.4002
13.4216
13.4813
13.5326
13.986
13.9262
13.8554
13.7728
13.6804
13.5839
13.4953
13.4352
13.4139
13.4397
13.5029
13.5546
13.9914
13.9329
13.8636
13.7821
13.6908
13.5949
13.5067
13.4483
13.4265
13.4541
13.5191
13.5731
14.0017
13.9463
13.8799
13.8007
13.7106
13.6144
13.5241
13.4639
13.437
13.4637
13.5309
13.5861
14.0114
13.9598
13.8972
13.8217
13.7343
13.6391
13.5497
13.4788
13.4504
13.4743
13.5379
13.587
14.5382
14.2443
14.1718
14.1627
14.155
14.1424
14.1253
14.104
14.0774
14.0481
14.0061
13.9663
14.5185
14.3082
14.2106
14.1936
14.1842
14.1724
14.1562
14.135
14.1081
14.0769
14.0357
13.9944
14.4653
14.3054
14.2345
14.2145
14.2057
14.194
14.1779
14.1561
14.1284
14.0959
14.0552
14.0128
14.4117
14.2891
14.2482
14.2286
14.221
14.2094
14.193
14.1703
14.1416
14.1078
14.0672
14.0239
14.3684
14.2763
14.2562
14.2388
14.232
14.2204
14.2033
14.1796
14.1497
14.1149
14.0741
14.03
14.3405
14.2695
14.2615
14.2464
14.2399
14.2281
14.2103
14.1854
14.1545
14.1188
14.0778
14.033
14.328
14.2698
14.2661
14.2528
14.2459
14.2334
14.2147
14.1889
14.1572
14.1208
14.0797
14.0343
14.3273
14.278
14.2711
14.2584
14.2502
14.2368
14.2173
14.1906
14.1584
14.1218
14.0809
14.0354
14.3341
14.2927
14.2768
14.2632
14.2525
14.2382
14.2182
14.1911
14.1587
14.1223
14.0821
14.0371
14.3452
14.3109
14.2833
14.2658
14.2517
14.2365
14.2166
14.19
14.1584
14.1232
14.0844
14.041
14.3572
14.3251
14.2902
14.2661
14.2478
14.2315
14.2121
14.1868
14.1573
14.1246
14.0886
14.0481
14.3699
14.3389
14.2971
14.2682
14.2463
14.2281
14.208
14.1837
14.1562
14.1259
14.0924
14.0546
)
;

boundaryField
{
    rotor
    {
        type            zeroGradient;
    }
    stator
    {
        type            zeroGradient;
    }
    front
    {
        type            empty;
    }
    back
    {
        type            empty;
    }
}


// ************************************************************************* //
