/*--------------------------------*- C++ -*----------------------------------*\
  =========                 |
  \\      /  F ield         | OpenFOAM: The Open Source CFD Toolbox
   \\    /   O peration     | Website:  https://openfoam.org
    \\  /    A nd           | Version:  6
     \\/     M anipulation  |
\*---------------------------------------------------------------------------*/
FoamFile
{
    version     2.0;
    format      ascii;
    class       surfaceScalarField;
    location    "350";
    object      phi;
}
// * * * * * * * * * * * * * * * * * * * * * * * * * * * * * * * * * * * * * //

dimensions      [0 3 -1 0 0 0 0];

internalField   nonuniform List<scalar> 
5952
(
5.3865e-06
-5.41034e-06
8.9973e-06
-3.61278e-06
1.16522e-05
-2.65237e-06
1.2958e-05
-1.30664e-06
1.26979e-05
2.62046e-07
1.00645e-05
2.63576e-06
4.87443e-06
5.19135e-06
-4.19254e-06
9.0694e-06
-1.87267e-05
1.45345e-05
-3.19198e-05
1.31934e-05
-4.18499e-05
9.93005e-06
7.61577e-06
-4.94658e-05
1.6122e-06
-7.01934e-06
3.64663e-06
-5.64703e-06
3.42666e-06
-2.4301e-06
1.0064e-06
1.1143e-06
-4.36308e-06
5.63288e-06
-1.38307e-05
1.21044e-05
-2.59549e-05
1.73161e-05
-3.56956e-05
1.88107e-05
-3.97088e-05
1.85479e-05
-4.2146e-05
1.56308e-05
-4.46443e-05
1.24284e-05
9.7265e-06
-4.67551e-05
7.21412e-07
-7.73933e-06
-1.35709e-07
-4.78922e-06
-3.22144e-06
6.56461e-07
-9.67777e-06
7.57078e-06
-1.8985e-05
1.49405e-05
-2.68934e-05
2.00133e-05
-3.1355e-05
2.1778e-05
-3.37253e-05
2.11814e-05
-3.45583e-05
1.93812e-05
-3.52335e-05
1.63061e-05
-3.60984e-05
1.32934e-05
1.043e-05
-3.68019e-05
-2.36066e-06
-5.37763e-06
-6.13586e-06
-1.01357e-06
-1.15496e-05
6.0704e-06
-1.78406e-05
1.38619e-05
-2.28712e-05
1.99714e-05
-2.5649e-05
2.27914e-05
-2.67871e-05
2.29165e-05
-2.71669e-05
2.15615e-05
-2.71389e-05
1.93532e-05
-2.72365e-05
1.64038e-05
-2.7404e-05
1.34609e-05
1.05584e-05
-2.75324e-05
-4.0556e-06
-1.32053e-06
-9.15688e-06
4.08839e-06
-1.40229e-05
1.09369e-05
-1.77923e-05
1.76317e-05
-1.97672e-05
2.19467e-05
-2.02216e-05
2.32463e-05
-1.99432e-05
2.26382e-05
-1.93247e-05
2.09433e-05
-1.86146e-05
1.86432e-05
-1.81515e-05
1.59407e-05
-1.78586e-05
1.31678e-05
1.03712e-05
-1.76714e-05
-4.95677e-06
3.63815e-06
-9.49677e-06
8.62972e-06
-1.28494e-05
1.42906e-05
-1.45069e-05
1.92901e-05
-1.45369e-05
2.19777e-05
-1.36485e-05
2.23583e-05
-1.24041e-05
2.13943e-05
-1.11391e-05
1.96784e-05
-1.00268e-05
1.75311e-05
-9.18956e-06
1.51034e-05
-8.5877e-06
1.2566e-05
9.95661e-06
-8.17321e-06
-4.8324e-06
8.47359e-06
-8.53339e-06
1.23327e-05
-1.04217e-05
1.61803e-05
-1.03499e-05
1.92197e-05
-8.93382e-06
2.05624e-05
-6.99379e-06
2.04192e-05
-4.99816e-06
1.93991e-05
-3.18278e-06
1.78635e-05
-1.65498e-06
1.60034e-05
-4.61973e-07
1.39106e-05
4.31579e-07
1.16725e-05
9.31589e-06
1.07239e-06
-4.64339e-06
1.3119e-05
-7.2705e-06
1.49613e-05
-7.61991e-06
1.6531e-05
-6.04111e-06
1.76418e-05
-3.43196e-06
1.79541e-05
-5.70704e-07
1.75586e-05
2.14273e-06
1.66862e-05
4.52403e-06
1.54826e-05
6.50577e-06
1.4022e-05
8.0781e-06
1.23385e-05
9.28359e-06
1.04671e-05
8.42523e-06
1.01743e-05
-4.05962e-06
1.71806e-05
-5.53604e-06
1.64389e-05
-4.217e-06
1.52129e-05
-1.24306e-06
1.46687e-05
2.43602e-06
1.42758e-05
6.13631e-06
1.38589e-05
9.51461e-06
1.33084e-05
1.24281e-05
1.25695e-05
1.48398e-05
1.16105e-05
1.67664e-05
1.04121e-05
1.82637e-05
8.96995e-06
7.29571e-06
1.93933e-05
-3.75979e-06
2.09408e-05
-2.61353e-06
1.52932e-05
1.19569e-06
1.14041e-05
5.67197e-06
1.01929e-05
1.02728e-05
9.67547e-06
1.45686e-05
9.56355e-06
1.83482e-05
9.52929e-06
2.15446e-05
9.37345e-06
2.41658e-05
8.98962e-06
2.62572e-05
8.32087e-06
2.78927e-05
7.33451e-06
6.04596e-06
2.91426e-05
5.14139e-07
2.04277e-05
6.19192e-06
9.61588e-06
1.2231e-05
5.36542e-06
1.77224e-05
4.702e-06
2.25533e-05
4.84504e-06
2.66977e-05
5.41967e-06
3.01899e-05
6.03743e-06
3.30768e-05
6.48693e-06
3.54163e-05
6.65039e-06
3.7272e-05
6.4654e-06
3.87271e-05
5.87961e-06
4.92487e-06
3.98483e-05
2.02969e-05
1.30579e-07
2.86482e-05
1.26454e-06
3.3855e-05
1.58686e-07
3.79006e-05
6.5652e-07
4.10503e-05
1.69555e-06
4.36355e-05
2.83471e-06
4.57983e-05
3.87495e-06
4.75828e-05
4.70261e-06
4.90217e-05
5.21168e-06
5.01481e-05
5.3391e-06
5.10295e-05
4.99838e-06
5.17118e-05
4.24267e-06
-5.48566e-05
5.39071e-06
-5.81934e-05
3.33668e-06
-5.96647e-05
1.47132e-06
-5.93369e-05
-3.27943e-07
-5.73341e-05
-2.00278e-06
-5.35936e-05
-3.74073e-06
-4.79722e-05
-5.62141e-06
-4.04018e-05
-7.57028e-06
-3.07293e-05
-9.67255e-06
-1.91504e-05
-1.15788e-05
-7.53815e-06
-1.16124e-05
-7.53814e-06
-4.81691e-05
6.80481e-06
-4.89847e-05
4.1522e-06
-4.91407e-05
1.62741e-06
-4.86704e-05
-7.98324e-07
-4.744e-05
-3.23307e-06
-4.53138e-05
-5.8671e-06
-4.21555e-05
-8.77953e-06
-3.76781e-05
-1.20475e-05
-3.16668e-05
-1.56837e-05
-2.38705e-05
-1.93751e-05
-1.33147e-05
-2.2168e-05
-2.08528e-05
-3.74857e-05
7.48857e-06
-3.79736e-05
4.64006e-06
-3.81747e-05
1.8286e-06
-3.79465e-05
-1.02667e-06
-3.71369e-05
-4.04258e-06
-3.56787e-05
-7.32537e-06
-3.34581e-05
-1.09999e-05
-3.03531e-05
-1.51524e-05
-2.62742e-05
-1.97625e-05
-2.0715e-05
-2.49343e-05
-1.27218e-05
-3.01611e-05
-3.35745e-05
-2.76593e-05
7.6154e-06
-2.77118e-05
4.69251e-06
-2.76185e-05
1.73527e-06
-2.72989e-05
-1.34636e-06
-2.66827e-05
-4.65879e-06
-2.57045e-05
-8.30353e-06
-2.4279e-05
-1.24253e-05
-2.22848e-05
-1.71465e-05
-1.95193e-05
-2.25278e-05
-1.55072e-05
-2.89463e-05
-9.46817e-06
-3.61999e-05
-4.30426e-05
-1.75789e-05
7.52281e-06
-1.75161e-05
4.62955e-06
-1.74216e-05
1.64075e-06
-1.72451e-05
-1.52288e-06
-1.69457e-05
-4.9583e-06
-1.64758e-05
-8.77334e-06
-1.57783e-05
-1.31228e-05
-1.47886e-05
-1.81361e-05
-1.33048e-05
-2.40115e-05
-1.11234e-05
-3.11277e-05
-7.38589e-06
-3.99374e-05
-5.04285e-05
-7.91448e-06
7.26408e-06
-7.76325e-06
4.47822e-06
-7.67776e-06
1.55524e-06
-7.62844e-06
-1.57227e-06
-7.59483e-06
-4.99191e-06
-7.55665e-06
-8.81151e-06
-7.50898e-06
-1.31703e-05
-7.4117e-06
-1.82333e-05
-7.15751e-06
-2.42659e-05
-6.56912e-06
-3.1716e-05
-4.85438e-06
-4.16521e-05
-5.5283e-05
1.49955e-06
6.83688e-06
1.7516e-06
4.22619e-06
1.85568e-06
1.45114e-06
1.82371e-06
-1.54028e-06
1.65333e-06
-4.82153e-06
1.33132e-06
-8.48944e-06
8.31639e-07
-1.26706e-05
1.39716e-07
-1.75415e-05
-7.21176e-07
-2.34048e-05
-1.63778e-06
-3.07997e-05
-2.16966e-06
-4.11204e-05
-5.74526e-05
1.07972e-05
6.21406e-06
1.1187e-05
3.8364e-06
1.13626e-05
1.27554e-06
1.13225e-05
-1.50013e-06
1.1045e-05
-4.54399e-06
1.04876e-05
-7.93202e-06
9.57946e-06
-1.17624e-05
8.23246e-06
-1.61943e-05
6.35383e-06
-2.15265e-05
3.91817e-06
-2.8364e-05
1.28565e-06
-3.8488e-05
-5.61671e-05
2.02138e-05
5.39366e-06
2.07612e-05
3.28901e-06
2.10523e-05
9.8447e-07
2.10771e-05
-1.52487e-06
2.07993e-05
-4.26606e-06
2.01522e-05
-7.28481e-06
1.90166e-05
-1.06268e-05
1.7222e-05
-1.43997e-05
1.45288e-05
-1.8833e-05
1.0679e-05
-2.45141e-05
5.74931e-06
-3.35583e-05
-5.04177e-05
3.00793e-05
4.45697e-06
3.07404e-05
2.628e-06
3.1145e-05
5.79926e-07
3.12796e-05
-1.65946e-06
3.10973e-05
-4.08368e-06
3.05135e-05
-6.70088e-06
2.93665e-05
-9.4796e-06
2.74097e-05
-1.24427e-05
2.42397e-05
-1.56629e-05
1.93535e-05
-1.96278e-05
1.19306e-05
-2.61351e-05
-3.84868e-05
4.07219e-05
3.58342e-06
4.13775e-05
1.97256e-06
4.18372e-05
1.20284e-07
4.20866e-05
-1.90876e-06
4.20721e-05
-4.06903e-06
4.16988e-05
-6.32739e-06
4.07778e-05
-8.55845e-06
3.90198e-05
-1.06845e-05
3.58764e-05
-1.25192e-05
3.06135e-05
-1.43645e-05
2.07225e-05
-1.62438e-05
-1.77638e-05
5.23e-05
2.99528e-06
5.28014e-05
1.47121e-06
5.32395e-05
-3.17763e-07
5.35941e-05
-2.26327e-06
5.38029e-05
-4.2777e-06
5.37638e-05
-6.28812e-06
5.32865e-05
-8.08098e-06
5.21061e-05
-9.50377e-06
4.96964e-05
-1.01091e-05
4.51083e-05
-9.77641e-06
3.46946e-05
-5.82952e-06
1.6931e-05
5.40104e-06
-5.39897e-06
9.00887e-06
-3.60941e-06
1.16606e-05
-2.65198e-06
1.29666e-05
-1.30754e-06
1.27073e-05
2.58308e-07
1.00789e-05
2.62955e-06
4.89009e-06
5.18772e-06
-4.1658e-06
9.05764e-06
-1.87005e-05
1.45342e-05
-3.19016e-05
1.32015e-05
-4.18358e-05
9.93401e-06
7.62043e-06
-4.94562e-05
1.61863e-06
-7.01567e-06
3.65954e-06
-5.6499e-06
3.44203e-06
-2.43441e-06
1.02472e-06
1.10876e-06
-4.34054e-06
5.6228e-06
-1.38024e-05
1.20915e-05
-2.59294e-05
1.73147e-05
-3.56841e-05
1.88126e-05
-3.97038e-05
1.85539e-05
-4.21413e-05
1.56391e-05
-4.46415e-05
1.24341e-05
9.73174e-06
-4.67529e-05
7.27038e-07
-7.74068e-06
-1.25667e-07
-4.79657e-06
-3.2061e-06
6.46148e-07
-9.65451e-06
7.55677e-06
-1.89614e-05
1.49295e-05
-2.6882e-05
2.00122e-05
-3.13503e-05
2.17829e-05
-3.37248e-05
2.11872e-05
-3.45592e-05
1.93882e-05
-3.52335e-05
1.63133e-05
-3.60985e-05
1.3299e-05
1.04347e-05
-3.68016e-05
-2.35646e-06
-5.38285e-06
-6.12574e-06
-1.02663e-06
-1.15354e-05
6.05598e-06
-1.78289e-05
1.38503e-05
-2.28671e-05
1.99677e-05
-2.56498e-05
2.2795e-05
-2.67893e-05
2.29223e-05
-2.71696e-05
2.15677e-05
-2.71414e-05
1.93597e-05
-2.72382e-05
1.641e-05
-2.74054e-05
1.34659e-05
1.05626e-05
-2.75334e-05
-4.05264e-06
-1.32834e-06
-9.1525e-06
4.0742e-06
-1.40202e-05
1.09244e-05
-1.77939e-05
1.76241e-05
-1.97721e-05
2.19466e-05
-2.02273e-05
2.32501e-05
-1.9948e-05
2.26434e-05
-1.93293e-05
2.09487e-05
-1.86179e-05
1.86486e-05
-1.81538e-05
1.59456e-05
-1.786e-05
1.3172e-05
1.03746e-05
-1.76723e-05
-4.95562e-06
3.63073e-06
-9.49804e-06
8.6181e-06
-1.28541e-05
1.42815e-05
-1.45142e-05
1.92858e-05
-1.45454e-05
2.1978e-05
-1.36555e-05
2.23614e-05
-1.24102e-05
2.1398e-05
-1.11435e-05
1.96826e-05
-1.00302e-05
1.7535e-05
-9.19153e-06
1.51072e-05
-8.589e-06
1.25692e-05
9.9593e-06
-8.17364e-06
-4.83446e-06
8.46737e-06
-8.53883e-06
1.23246e-05
-1.043e-05
1.61739e-05
-1.03596e-05
1.92166e-05
-8.94264e-06
2.05625e-05
-7.00134e-06
2.04207e-05
-5.00393e-06
1.94013e-05
-3.18717e-06
1.78661e-05
-1.65787e-06
1.60061e-05
-4.6381e-07
1.39131e-05
4.30707e-07
1.16748e-05
9.31781e-06
1.07211e-06
-4.64697e-06
1.31169e-05
-7.27782e-06
1.49566e-05
-7.62927e-06
1.65271e-05
-6.05091e-06
1.76393e-05
-3.4408e-06
1.79533e-05
-5.78014e-07
1.75587e-05
2.13703e-06
1.66868e-05
4.51988e-06
1.54836e-05
6.503e-06
1.40232e-05
8.07647e-06
1.23399e-05
9.28283e-06
1.04685e-05
8.42648e-06
1.01742e-05
-4.06396e-06
1.7182e-05
-5.54284e-06
1.6437e-05
-4.22555e-06
1.52102e-05
-1.25195e-06
1.46666e-05
2.42786e-06
1.42742e-05
6.12948e-06
1.38577e-05
9.50926e-06
1.33076e-05
1.24242e-05
1.25691e-05
1.48372e-05
1.16105e-05
1.67649e-05
1.04124e-05
1.8263e-05
8.97045e-06
7.2963e-06
1.93933e-05
-3.76176e-06
2.09455e-05
-2.61736e-06
1.5293e-05
1.19028e-06
1.14038e-05
5.66565e-06
1.01917e-05
1.02667e-05
9.67367e-06
1.45634e-05
9.56152e-06
1.83441e-05
9.52739e-06
2.15416e-05
9.37192e-06
2.41638e-05
8.98852e-06
2.62561e-05
8.32025e-06
2.78924e-05
7.33428e-06
6.04602e-06
2.91427e-05
5.15197e-07
2.04313e-05
6.19129e-06
9.618e-06
1.22286e-05
5.36623e-06
1.77194e-05
4.70146e-06
2.25503e-05
4.84329e-06
2.6695e-05
5.41725e-06
3.01879e-05
6.03496e-06
3.30754e-05
6.48475e-06
3.54155e-05
6.6487e-06
3.72717e-05
6.46423e-06
3.87271e-05
5.87895e-06
4.92463e-06
3.98486e-05
2.02976e-05
1.34375e-07
2.86484e-05
1.26712e-06
3.38549e-05
1.6061e-07
3.79002e-05
6.5635e-07
4.10497e-05
1.6939e-06
4.3635e-05
2.83222e-06
4.57979e-05
3.87228e-06
4.75826e-05
4.70021e-06
4.90217e-05
5.20978e-06
5.01483e-05
5.33776e-06
5.10297e-05
4.9976e-06
5.17121e-05
4.24234e-06
-5.48495e-05
5.39334e-06
-5.8189e-05
3.33944e-06
-5.9662e-05
1.47309e-06
-5.93358e-05
-3.26387e-07
-5.73338e-05
-2.00186e-06
-5.35942e-05
-3.73996e-06
-4.7973e-05
-5.62112e-06
-4.04029e-05
-7.57014e-06
-3.07302e-05
-9.67276e-06
-1.9151e-05
-1.15791e-05
-7.53828e-06
-1.16129e-05
-7.53832e-06
-4.81681e-05
6.80854e-06
-4.89842e-05
4.15534e-06
-4.91407e-05
1.62971e-06
-4.86707e-05
-7.96601e-07
-4.74407e-05
-3.23185e-06
-4.53145e-05
-5.86634e-06
-4.21563e-05
-8.7792e-06
-3.76789e-05
-1.20475e-05
-3.16676e-05
-1.5684e-05
-2.38711e-05
-1.93758e-05
-1.33153e-05
-2.21688e-05
-2.08536e-05
-3.74856e-05
7.49233e-06
-3.79736e-05
4.64314e-06
-3.81749e-05
1.83094e-06
-3.79467e-05
-1.02496e-06
-3.71372e-05
-4.04145e-06
-3.56789e-05
-7.32476e-06
-3.34584e-05
-1.09998e-05
-3.03534e-05
-1.51525e-05
-2.62745e-05
-1.97629e-05
-2.07153e-05
-2.4935e-05
-1.2722e-05
-3.01621e-05
-3.35756e-05
-2.766e-05
7.6187e-06
-2.77122e-05
4.6951e-06
-2.76185e-05
1.73716e-06
-2.72987e-05
-1.34497e-06
-2.66824e-05
-4.65786e-06
-2.57043e-05
-8.30301e-06
-2.42789e-05
-1.24252e-05
-2.22847e-05
-1.71467e-05
-1.95194e-05
-2.25283e-05
-1.55073e-05
-2.89471e-05
-9.46831e-06
-3.6201e-05
-4.3044e-05
-1.75792e-05
7.52553e-06
-1.7516e-05
4.63156e-06
-1.74212e-05
1.6423e-06
-1.72446e-05
-1.52179e-06
-1.6945e-05
-4.95751e-06
-1.64753e-05
-8.77291e-06
-1.57778e-05
-1.31227e-05
-1.47883e-05
-1.81363e-05
-1.33046e-05
-2.4012e-05
-1.11234e-05
-3.11284e-05
-7.38606e-06
-3.99386e-05
-5.04301e-05
-7.91454e-06
7.26612e-06
-7.76283e-06
4.47984e-06
-7.67718e-06
1.55642e-06
-7.62767e-06
-1.57135e-06
-7.59408e-06
-4.99128e-06
-7.5559e-06
-8.81111e-06
-7.50843e-06
-1.31702e-05
-7.41122e-06
-1.82334e-05
-7.15717e-06
-2.42662e-05
-6.56909e-06
-3.17168e-05
-4.85441e-06
-4.16532e-05
-5.52849e-05
1.4998e-06
6.83844e-06
1.75213e-06
4.22741e-06
1.85643e-06
1.45209e-06
1.82453e-06
-1.53954e-06
1.65417e-06
-4.82096e-06
1.33206e-06
-8.48905e-06
8.32265e-07
-1.26704e-05
1.40185e-07
-1.75415e-05
-7.20965e-07
-2.34052e-05
-1.63754e-06
-3.08002e-05
-2.16994e-06
-4.11217e-05
-5.74548e-05
1.07975e-05
6.21512e-06
1.11876e-05
3.83729e-06
1.13634e-05
1.27629e-06
1.13233e-05
-1.4995e-06
1.10458e-05
-4.54345e-06
1.04883e-05
-7.93157e-06
9.58005e-06
-1.17621e-05
8.23284e-06
-1.61942e-05
6.3542e-06
-2.15265e-05
3.9181e-06
-2.83646e-05
1.28565e-06
-3.84889e-05
-5.61694e-05
2.02142e-05
5.39428e-06
2.07619e-05
3.28959e-06
2.10531e-05
9.85045e-07
2.10779e-05
-1.52432e-06
2.08e-05
-4.26549e-06
2.01528e-05
-7.28428e-06
1.90172e-05
-1.06263e-05
1.72224e-05
-1.43994e-05
1.45289e-05
-1.8833e-05
1.06791e-05
-2.45143e-05
5.7491e-06
-3.35593e-05
-5.04201e-05
3.00798e-05
4.45721e-06
3.0741e-05
2.62837e-06
3.11457e-05
5.80387e-07
3.12803e-05
-1.65892e-06
3.1098e-05
-4.08308e-06
3.05141e-05
-6.70024e-06
2.9367e-05
-9.47901e-06
2.74101e-05
-1.24422e-05
2.42399e-05
-1.56626e-05
1.93536e-05
-1.96279e-05
1.19306e-05
-2.6136e-05
-3.84889e-05
4.07225e-05
3.58347e-06
4.13781e-05
1.97286e-06
4.18378e-05
1.20724e-07
4.20872e-05
-1.90819e-06
4.20726e-05
-4.06838e-06
4.16992e-05
-6.32668e-06
4.07782e-05
-8.55779e-06
3.90201e-05
-1.06839e-05
3.58766e-05
-1.25188e-05
3.06136e-05
-1.43645e-05
2.07227e-05
-1.62442e-05
-1.77662e-05
5.23003e-05
2.99534e-06
5.28017e-05
1.47154e-06
5.32398e-05
-3.17242e-07
5.35943e-05
-2.26264e-06
5.38031e-05
-4.277e-06
5.3764e-05
-6.28742e-06
5.32868e-05
-8.08033e-06
5.21064e-05
-9.50325e-06
4.96967e-05
-1.01088e-05
4.51089e-05
-9.77615e-06
3.46946e-05
-5.83013e-06
1.69295e-05
5.20133e-06
-5.19959e-06
8.83499e-06
-3.6343e-06
1.15618e-05
-2.72532e-06
1.29087e-05
-1.34633e-06
1.26674e-05
2.43261e-07
1.00432e-05
2.62844e-06
4.8596e-06
5.18533e-06
-4.19923e-06
9.06245e-06
-1.87283e-05
1.45294e-05
-3.19182e-05
1.31907e-05
-4.18468e-05
9.92837e-06
7.61477e-06
-4.94616e-05
1.52516e-06
-6.72311e-06
3.53701e-06
-5.64621e-06
3.34227e-06
-2.52907e-06
9.67887e-07
1.02939e-06
-4.37355e-06
5.58608e-06
-1.3832e-05
1.20882e-05
-2.59525e-05
1.73065e-05
-3.56928e-05
1.88034e-05
-3.97061e-05
1.85429e-05
-4.21426e-05
1.56274e-05
-4.46403e-05
1.24261e-05
9.72498e-06
-4.67507e-05
1.03584e-06
-7.75804e-06
8.9248e-08
-4.69939e-06
-3.11873e-06
6.79387e-07
-9.64388e-06
7.55494e-06
-1.89794e-05
1.4922e-05
-2.68907e-05
2e-05
-3.13516e-05
2.17676e-05
-3.37218e-05
2.11739e-05
-3.45544e-05
1.93756e-05
-3.52293e-05
1.63023e-05
-3.6094e-05
1.32907e-05
1.04282e-05
-3.67974e-05
-2.39922e-06
-5.35805e-06
-6.10833e-06
-9.90151e-07
-1.1515e-05
6.08631e-06
-1.78211e-05
1.38613e-05
-2.28612e-05
1.99625e-05
-2.56421e-05
2.27813e-05
-2.67816e-05
2.29075e-05
-2.71619e-05
2.15545e-05
-2.7134e-05
1.93479e-05
-2.72316e-05
1.64e-05
-2.73991e-05
1.34582e-05
1.05566e-05
-2.75276e-05
-4.06038e-06
-1.2968e-06
-9.15152e-06
4.10147e-06
-1.40103e-05
1.09455e-05
-1.77801e-05
1.76317e-05
-1.97577e-05
2.19406e-05
-2.02142e-05
2.32385e-05
-1.99373e-05
2.26309e-05
-1.93196e-05
2.09373e-05
-1.86099e-05
1.86385e-05
-1.8147e-05
1.59372e-05
-1.78541e-05
1.31653e-05
1.03696e-05
-1.76671e-05
-4.95427e-06
3.6589e-06
-9.49236e-06
8.64055e-06
-1.28419e-05
1.42961e-05
-1.44987e-05
1.92894e-05
-1.45299e-05
2.19729e-05
-1.36428e-05
2.23523e-05
-1.23995e-05
2.13885e-05
-1.11351e-05
1.96734e-05
-1.00231e-05
1.7527e-05
-9.18586e-06
1.51003e-05
-8.58401e-06
1.25638e-05
9.95515e-06
-8.16952e-06
-4.82924e-06
8.49046e-06
-8.52959e-06
1.23423e-05
-1.04167e-05
1.61845e-05
-1.03448e-05
1.92189e-05
-8.92962e-06
2.05587e-05
-6.99055e-06
2.04143e-05
-4.99545e-06
1.93942e-05
-3.1803e-06
1.78591e-05
-1.65249e-06
1.59997e-05
-4.59377e-07
1.39077e-05
4.34297e-07
1.16704e-05
9.31453e-06
1.07519e-06
-4.64141e-06
1.3133e-05
-7.26748e-06
1.49696e-05
-7.61652e-06
1.65344e-05
-6.03818e-06
1.76415e-05
-3.42992e-06
1.79513e-05
-5.693e-07
1.75545e-05
2.14382e-06
1.66817e-05
4.52514e-06
1.54784e-05
6.50705e-06
1.40183e-05
8.07962e-06
1.23355e-05
9.28534e-06
1.0465e-05
8.42387e-06
1.01762e-05
-4.0578e-06
1.71923e-05
-5.53295e-06
1.64456e-05
-4.21404e-06
1.52161e-05
-1.24093e-06
1.4669e-05
2.43726e-06
1.42736e-05
6.13695e-06
1.38553e-05
9.51501e-06
1.33041e-05
1.24285e-05
1.25653e-05
1.48404e-05
1.16068e-05
1.67673e-05
1.0409e-05
1.82648e-05
8.96773e-06
7.29433e-06
1.93946e-05
-3.75721e-06
2.095e-05
-2.60991e-06
1.52986e-05
1.19922e-06
1.14074e-05
5.67472e-06
1.01937e-05
1.02748e-05
9.67385e-06
1.457e-05
9.56026e-06
1.83492e-05
9.52522e-06
2.15455e-05
9.3693e-06
2.41667e-05
8.9859e-06
2.62581e-05
8.31788e-06
2.78937e-05
7.33237e-06
6.0447e-06
2.91435e-05
5.17326e-07
2.04334e-05
6.19613e-06
9.62014e-06
1.22354e-05
5.36837e-06
1.77265e-05
4.70277e-06
2.25569e-05
4.84359e-06
2.67007e-05
5.4166e-06
3.01925e-05
6.03362e-06
3.3079e-05
6.48304e-06
3.54182e-05
6.64697e-06
3.72735e-05
6.46275e-06
3.87282e-05
5.87785e-06
4.924e-06
3.98491e-05
2.02994e-05
1.3396e-07
2.86522e-05
1.26726e-06
3.38596e-05
1.60901e-07
3.79055e-05
6.56809e-07
4.10551e-05
1.69393e-06
4.364e-05
2.83175e-06
4.58022e-05
3.87141e-06
4.75861e-05
4.69917e-06
4.90243e-05
5.20882e-06
5.01501e-05
5.3371e-06
5.10307e-05
4.99731e-06
5.17124e-05
4.24248e-06
-5.4852e-05
5.39017e-06
-5.81887e-05
3.33649e-06
-5.96601e-05
1.47131e-06
-5.93325e-05
-3.27808e-07
-5.733e-05
-2.00257e-06
-5.359e-05
-3.74036e-06
-4.79691e-05
-5.62097e-06
-4.03994e-05
-7.56971e-06
-3.07276e-05
-9.6719e-06
-1.91496e-05
-1.15781e-05
-7.53807e-06
-1.16118e-05
-7.53813e-06
-4.81645e-05
6.80399e-06
-4.89801e-05
4.15183e-06
-4.91361e-05
1.62736e-06
-4.8666e-05
-7.98131e-07
-4.74359e-05
-3.23264e-06
-4.531e-05
-5.86645e-06
-4.21523e-05
-8.77869e-06
-3.76754e-05
-1.20465e-05
-3.16648e-05
-1.56825e-05
-2.38692e-05
-1.93738e-05
-1.33142e-05
-2.21668e-05
-2.08523e-05
-3.7481e-05
7.48754e-06
-3.79689e-05
4.63956e-06
-3.81701e-05
1.82856e-06
-3.79421e-05
-1.02631e-06
-3.71329e-05
-4.04186e-06
-3.56751e-05
-7.32434e-06
-3.34551e-05
-1.09986e-05
-3.03507e-05
-1.51509e-05
-2.62723e-05
-1.97608e-05
-2.07135e-05
-2.49325e-05
-1.27209e-05
-3.01594e-05
-3.35731e-05
-2.76545e-05
7.61439e-06
-2.77072e-05
4.69213e-06
-2.76142e-05
1.73542e-06
-2.72948e-05
-1.34574e-06
-2.6679e-05
-4.65775e-06
-2.57013e-05
-8.30213e-06
-2.42763e-05
-1.24236e-05
-2.22826e-05
-1.71446e-05
-1.95176e-05
-2.25257e-05
-1.5506e-05
-2.89441e-05
-9.46757e-06
-3.61977e-05
-4.30406e-05
-1.75747e-05
7.52193e-06
-1.75119e-05
4.62933e-06
-1.74177e-05
1.64111e-06
-1.72415e-05
-1.52202e-06
-1.69423e-05
-4.95698e-06
-1.64728e-05
-8.77161e-06
-1.57757e-05
-1.31207e-05
-1.47865e-05
-1.81337e-05
-1.33032e-05
-2.40089e-05
-1.11224e-05
-3.1125e-05
-7.38539e-06
-3.99347e-05
-5.0426e-05
-7.91084e-06
7.26335e-06
-7.7597e-06
4.47815e-06
-7.67436e-06
1.55578e-06
-7.62523e-06
-1.57119e-06
-7.59188e-06
-4.99035e-06
-7.55399e-06
-8.8095e-06
-7.50667e-06
-1.31679e-05
-7.40979e-06
-1.82306e-05
-7.15606e-06
-2.42628e-05
-6.56818e-06
-3.17129e-05
-4.85396e-06
-4.1649e-05
-5.52802e-05
1.50239e-06
6.83625e-06
1.75442e-06
4.22624e-06
1.85842e-06
1.45181e-06
1.82631e-06
-1.53904e-06
1.65575e-06
-4.81978e-06
1.3335e-06
-8.48721e-06
8.33542e-07
-1.2668e-05
1.41271e-07
-1.75384e-05
-7.19996e-07
-2.34015e-05
-1.63704e-06
-3.07962e-05
-2.16934e-06
-4.1117e-05
-5.74496e-05
1.07992e-05
6.21345e-06
1.1189e-05
3.8365e-06
1.13646e-05
1.2763e-06
1.13244e-05
-1.49877e-06
1.10468e-05
-4.54209e-06
1.04892e-05
-7.92963e-06
9.58085e-06
-1.17596e-05
8.2336e-06
-1.6191e-05
6.35466e-06
-2.15229e-05
3.91866e-06
-2.83602e-05
1.28584e-06
-3.84843e-05
-5.61639e-05
2.02151e-05
5.39308e-06
2.07625e-05
3.28917e-06
2.10536e-05
9.85326e-07
2.10783e-05
-1.52339e-06
2.08003e-05
-4.26403e-06
2.01531e-05
-7.28229e-06
1.90174e-05
-1.06238e-05
1.72226e-05
-1.43963e-05
1.45293e-05
-1.88292e-05
1.06792e-05
-2.45102e-05
5.7493e-06
-3.35546e-05
-5.04146e-05
3.00802e-05
4.45654e-06
3.07411e-05
2.62833e-06
3.11456e-05
5.80952e-07
3.12801e-05
-1.65782e-06
3.10977e-05
-4.0815e-06
3.05137e-05
-6.69824e-06
2.93666e-05
-9.47653e-06
2.74098e-05
-1.24392e-05
2.42397e-05
-1.56591e-05
1.93535e-05
-1.96238e-05
1.19305e-05
-2.61313e-05
-3.84839e-05
4.07225e-05
3.58336e-06
4.13777e-05
1.97323e-06
4.18372e-05
1.21601e-07
4.20864e-05
-1.90688e-06
4.20717e-05
-4.06668e-06
4.16982e-05
-6.32464e-06
4.07773e-05
-8.55534e-06
3.90192e-05
-1.0681e-05
3.58759e-05
-1.25155e-05
3.06131e-05
-1.43607e-05
2.07222e-05
-1.62401e-05
-1.77612e-05
5.23e-05
2.99582e-06
5.2801e-05
1.47239e-06
5.32387e-05
-3.16048e-07
5.35931e-05
-2.2611e-06
5.38017e-05
-4.27516e-06
5.37625e-05
-6.28527e-06
5.32852e-05
-8.07785e-06
5.21048e-05
-9.50034e-06
4.96953e-05
-1.01055e-05
4.51075e-05
-9.77291e-06
3.46942e-05
-5.82622e-06
1.69332e-05
5.40127e-06
-5.39914e-06
9.00922e-06
-3.60951e-06
1.1661e-05
-2.65202e-06
1.29671e-05
-1.30754e-06
1.27079e-05
2.58221e-07
1.00796e-05
2.62944e-06
4.89017e-06
5.18842e-06
-4.16726e-06
9.05919e-06
-1.87036e-05
1.4536e-05
-3.19056e-05
1.32023e-05
-4.18402e-05
9.93454e-06
7.62073e-06
-4.9461e-05
1.61892e-06
-7.01609e-06
3.66024e-06
-5.65038e-06
3.44302e-06
-2.43469e-06
1.02574e-06
1.10878e-06
-4.33996e-06
5.6232e-06
-1.38029e-05
1.20926e-05
-2.59311e-05
1.73166e-05
-3.56865e-05
1.88148e-05
-3.97062e-05
1.85556e-05
-4.21442e-05
1.56403e-05
-4.46446e-05
1.24349e-05
9.73219e-06
-4.67562e-05
7.27687e-07
-7.74175e-06
-1.24379e-07
-4.79769e-06
-3.2043e-06
6.45382e-07
-9.65254e-06
7.55662e-06
-1.89602e-05
1.49307e-05
-2.68825e-05
2.00149e-05
-3.13518e-05
2.17859e-05
-3.37268e-05
2.11899e-05
-3.45614e-05
1.93902e-05
-3.52359e-05
1.63147e-05
-3.61011e-05
1.33e-05
1.04353e-05
-3.68043e-05
-2.35559e-06
-5.38477e-06
-6.12397e-06
-1.02864e-06
-1.15333e-05
6.05492e-06
-1.78277e-05
1.3851e-05
-2.28675e-05
1.99704e-05
-2.5651e-05
2.27987e-05
-2.6791e-05
2.29257e-05
-2.71715e-05
2.15705e-05
-2.71434e-05
1.93619e-05
-2.72404e-05
1.64116e-05
-2.74075e-05
1.34669e-05
1.05632e-05
-2.75356e-05
-4.05179e-06
-1.33107e-06
-9.15135e-06
4.07195e-06
-1.40196e-05
1.09238e-05
-1.77942e-05
1.76259e-05
-1.97733e-05
2.19502e-05
-2.02287e-05
2.32541e-05
-1.99495e-05
2.26469e-05
-1.93307e-05
2.09515e-05
-1.86194e-05
1.86508e-05
-1.81553e-05
1.59471e-05
-1.78615e-05
1.31731e-05
1.03751e-05
-1.76738e-05
-4.95517e-06
3.62777e-06
-9.49789e-06
8.61617e-06
-1.28545e-05
1.42815e-05
-1.45152e-05
1.92881e-05
-1.45465e-05
2.19818e-05
-1.36566e-05
2.23653e-05
-1.24111e-05
2.14014e-05
-1.11443e-05
1.96854e-05
-1.00309e-05
1.75371e-05
-9.19224e-06
1.51087e-05
-8.58967e-06
1.25702e-05
9.95984e-06
-8.17431e-06
-4.83475e-06
8.46477e-06
-8.53951e-06
1.23231e-05
-1.04311e-05
1.61744e-05
-1.03606e-05
1.92189e-05
-8.94341e-06
2.05659e-05
-7.00175e-06
2.04243e-05
-5.00409e-06
1.94045e-05
-3.18717e-06
1.78687e-05
-1.65777e-06
1.60081e-05
-4.63653e-07
1.39146e-05
4.30891e-07
1.16758e-05
9.31835e-06
1.07231e-06
-4.6476e-06
1.31151e-05
-7.27902e-06
1.49558e-05
-7.63058e-06
1.65277e-05
-6.05178e-06
1.76412e-05
-3.44105e-06
1.79561e-05
-5.77768e-07
1.75617e-05
2.13761e-06
1.66897e-05
4.52066e-06
1.54861e-05
6.50389e-06
1.40252e-05
8.07742e-06
1.23413e-05
9.28381e-06
1.04695e-05
8.42702e-06
1.01752e-05
-4.0651e-06
1.71813e-05
-5.54434e-06
1.64366e-05
-4.22677e-06
1.52105e-05
-1.25254e-06
1.46679e-05
2.42795e-06
1.42763e-05
6.13011e-06
1.38602e-05
9.51026e-06
1.33101e-05
1.24254e-05
1.25713e-05
1.48386e-05
1.16123e-05
1.67664e-05
1.04137e-05
1.82646e-05
8.97137e-06
7.29683e-06
1.93948e-05
-3.76286e-06
2.09461e-05
-2.61849e-06
1.52926e-05
1.18946e-06
1.14038e-05
5.66531e-06
1.01925e-05
1.02669e-05
9.67527e-06
1.45641e-05
9.56355e-06
1.83451e-05
9.52952e-06
2.15429e-05
9.37388e-06
2.41653e-05
8.99014e-06
2.62577e-05
8.32146e-06
2.7894e-05
7.3351e-06
6.04649e-06
2.91444e-05
5.14905e-07
2.04321e-05
6.19088e-06
9.61776e-06
1.22283e-05
5.36623e-06
1.77193e-05
4.70213e-06
2.25504e-05
4.84467e-06
2.66953e-05
5.41905e-06
3.01884e-05
6.03684e-06
3.30761e-05
6.48647e-06
3.54164e-05
6.65009e-06
3.72729e-05
6.46524e-06
3.87285e-05
5.87959e-06
4.92495e-06
3.98502e-05
2.02977e-05
1.35016e-07
2.86482e-05
1.26721e-06
3.38543e-05
1.61033e-07
3.78992e-05
6.57353e-07
4.10487e-05
1.69536e-06
4.36341e-05
2.83391e-06
4.57972e-05
3.87395e-06
4.75822e-05
4.70164e-06
4.90216e-05
5.21085e-06
5.01485e-05
5.33843e-06
5.10303e-05
4.99792e-06
5.17129e-05
4.24239e-06
-5.48543e-05
5.39342e-06
-5.81938e-05
3.33936e-06
-5.96664e-05
1.47287e-06
-5.934e-05
-3.2669e-07
-5.73376e-05
-2.00223e-06
-5.35975e-05
-3.74038e-06
-4.79759e-05
-5.62154e-06
-4.04053e-05
-7.57058e-06
-3.07322e-05
-9.6732e-06
-1.91526e-05
-1.15796e-05
-7.53926e-06
-1.16135e-05
-7.53928e-06
-4.81714e-05
6.80867e-06
-4.89874e-05
4.15523e-06
-4.91439e-05
1.62939e-06
-4.86737e-05
-7.9707e-07
-4.74434e-05
-3.23246e-06
-4.53169e-05
-5.86705e-06
-4.21584e-05
-8.77997e-06
-3.76806e-05
-1.20484e-05
-3.16689e-05
-1.56849e-05
-2.38719e-05
-1.93766e-05
-1.33157e-05
-2.21697e-05
-2.08549e-05
-3.74883e-05
7.4925e-06
-3.79762e-05
4.64298e-06
-3.81774e-05
1.83052e-06
-3.79491e-05
-1.02561e-06
-3.71393e-05
-4.04229e-06
-3.56808e-05
-7.32576e-06
-3.34599e-05
-1.10009e-05
-3.03545e-05
-1.51537e-05
-2.62753e-05
-1.97641e-05
-2.07157e-05
-2.49362e-05
-1.27221e-05
-3.01633e-05
-3.3577e-05
-2.76622e-05
7.61885e-06
-2.77142e-05
4.69489e-06
-2.76205e-05
1.73664e-06
-2.73005e-05
-1.34577e-06
-2.6684e-05
-4.65889e-06
-2.57057e-05
-8.30425e-06
-2.42799e-05
-1.24266e-05
-2.22855e-05
-1.71481e-05
-1.95199e-05
-2.25297e-05
-1.55076e-05
-2.89484e-05
-9.46846e-06
-3.62024e-05
-4.30455e-05
-1.75806e-05
7.52565e-06
-1.75173e-05
4.63132e-06
-1.74225e-05
1.64171e-06
-1.72458e-05
-1.52267e-06
-1.69461e-05
-4.95868e-06
-1.64762e-05
-8.7743e-06
-1.57785e-05
-1.31242e-05
-1.47887e-05
-1.8138e-05
-1.33047e-05
-2.40136e-05
-1.11233e-05
-3.113e-05
-7.38585e-06
-3.994e-05
-5.04314e-05
-7.91517e-06
7.26625e-06
-7.76345e-06
4.47958e-06
-7.67776e-06
1.55582e-06
-7.6282e-06
-1.57228e-06
-7.59453e-06
-4.9925e-06
-7.55624e-06
-8.81257e-06
-7.50865e-06
-1.31719e-05
-7.41127e-06
-1.82352e-05
-7.15706e-06
-2.4268e-05
-6.56883e-06
-3.17184e-05
-4.85417e-06
-4.16546e-05
-5.52859e-05
1.5e-06
6.83857e-06
1.75233e-06
4.22716e-06
1.85661e-06
1.4515e-06
1.82472e-06
-1.54045e-06
1.65437e-06
-4.82217e-06
1.33228e-06
-8.49052e-06
8.32542e-07
-1.26721e-05
1.4054e-07
-1.75433e-05
-7.20504e-07
-2.3407e-05
-1.637e-06
-3.08018e-05
-2.16944e-06
-4.11228e-05
-5.74552e-05
1.07985e-05
6.21528e-06
1.11885e-05
3.83709e-06
1.13643e-05
1.27576e-06
1.13242e-05
-1.50034e-06
1.10466e-05
-4.54459e-06
1.04891e-05
-7.93298e-06
9.58077e-06
-1.17637e-05
8.23356e-06
-1.6196e-05
6.35494e-06
-2.15283e-05
3.91884e-06
-2.83661e-05
1.28624e-06
-3.84898e-05
-5.61691e-05
2.02157e-05
5.39446e-06
2.07633e-05
3.28945e-06
2.10545e-05
9.84596e-07
2.10793e-05
-1.52507e-06
2.08013e-05
-4.26652e-06
2.0154e-05
-7.28557e-06
1.90182e-05
-1.06278e-05
1.72234e-05
-1.4401e-05
1.45299e-05
-1.88347e-05
1.068e-05
-2.45157e-05
5.74986e-06
-3.35598e-05
-5.0419e-05
3.00815e-05
4.45738e-06
3.07428e-05
2.62826e-06
3.11474e-05
5.79999e-07
3.1282e-05
-1.65958e-06
3.10996e-05
-4.084e-06
3.05156e-05
-6.70139e-06
2.93683e-05
-9.48036e-06
2.74113e-05
-1.24437e-05
2.4241e-05
-1.56641e-05
1.93545e-05
-1.96291e-05
1.19314e-05
-2.61362e-05
-3.84869e-05
4.07241e-05
3.58355e-06
4.13797e-05
1.97271e-06
4.18395e-05
1.20339e-07
4.20889e-05
-1.90881e-06
4.20742e-05
-4.06921e-06
4.17007e-05
-6.32769e-06
4.07796e-05
-8.55895e-06
3.90213e-05
-1.06852e-05
3.58777e-05
-1.25201e-05
3.06145e-05
-1.43655e-05
2.07235e-05
-1.62442e-05
-1.7763e-05
5.23014e-05
2.99521e-06
5.28029e-05
1.47125e-06
5.32411e-05
-3.17718e-07
5.35957e-05
-2.26329e-06
5.38045e-05
-4.27779e-06
5.37653e-05
-6.28831e-06
5.32879e-05
-8.0813e-06
5.21074e-05
-9.50429e-06
4.96975e-05
-1.01098e-05
4.51094e-05
-9.77689e-06
3.46953e-05
-5.83e-06
1.69331e-05
6.61261e-05
3.88438e-06
-6.98793e-05
6.55443e-05
1.84636e-06
6.42678e-05
1.43511e-06
6.35997e-05
1.32467e-06
6.34467e-05
1.84869e-06
6.35913e-05
2.69023e-06
6.38556e-05
3.61079e-06
6.41146e-05
4.44383e-06
6.43008e-05
5.02564e-06
6.43922e-05
5.24786e-06
6.44359e-05
4.95473e-06
4.21598e-06
6.44628e-05
8.50769e-05
2.94056e-06
-8.41336e-05
8.48171e-05
2.10601e-06
8.42147e-05
2.0372e-06
8.34184e-05
2.12088e-06
8.26389e-05
2.62803e-06
8.18929e-05
3.43628e-06
8.11468e-05
4.35688e-06
8.03674e-05
5.22326e-06
7.95484e-05
5.84476e-06
7.87178e-05
6.07847e-06
7.79693e-05
5.70341e-06
4.80467e-06
7.73807e-05
9.83443e-05
1.93084e-06
-9.73345e-05
9.86885e-05
1.76155e-06
9.86799e-05
2.04561e-06
9.83173e-05
2.48328e-06
9.7682e-05
3.26328e-06
9.681e-05
4.30817e-06
9.57244e-05
5.44244e-06
9.44622e-05
6.48551e-06
9.30905e-05
7.21652e-06
9.17265e-05
7.44259e-06
9.05408e-05
6.88918e-06
5.60364e-06
8.97419e-05
0.000110325
-0.000109748
1.35329e-06
0.000110585
1.50128e-06
0.000110541
2.08894e-06
0.000110151
2.8734e-06
0.000109417
3.9969e-06
0.000108368
5.35724e-06
0.000107053
6.75731e-06
0.000105561
7.97676e-06
0.000104031
8.7471e-06
0.000102674
8.79938e-06
0.000101738
7.82507e-06
0.000101678
5.66372e-06
6.46285e-05
2.8297e-06
6.49043e-05
1.19552e-06
6.53132e-05
-7.26414e-07
6.58133e-05
-2.76325e-06
6.63184e-05
-4.78269e-06
6.67026e-05
-6.67207e-06
6.67895e-05
-8.16773e-06
6.63774e-05
-9.09135e-06
6.52407e-05
-8.97238e-06
6.31095e-05