/*--------------------------------*- C++ -*----------------------------------*\
  =========                 |
  \\      /  F ield         | OpenFOAM: The Open Source CFD Toolbox
   \\    /   O peration     | Website:  https://openfoam.org
    \\  /    A nd           | Version:  6
     \\/     M anipulation  |
\*---------------------------------------------------------------------------*/
FoamFile
{
    version     2.0;
    format      ascii;
    class       volVectorField;
    location    "350";
    object      U;
}
// * * * * * * * * * * * * * * * * * * * * * * * * * * * * * * * * * * * * * //

dimensions      [0 1 -1 0 0 0 0];

internalField   nonuniform List<vector> 
3072
(
(0.219772 2.19788 0)
(0.285667 1.92837 0)
(0.372148 1.76108 1.40553e-19)
(0.489866 1.66062 7.56138e-19)
(0.61146 1.58678 -1.27214e-18)
(0.735304 1.57058 8.64301e-19)
(0.92753 1.72387 3.97692e-19)
(1.44676 1.65031 7.37573e-19)
(2.46693 1.52481 -2.42606e-19)
(2.97374 1.95733 8.70664e-19)
(3.17891 2.19799 7.25204e-19)
(3.48836 2.35254 6.69004e-19)
(-0.402546 2.71779 -2.57397e-19)
(-0.212966 2.37952 -5.93766e-19)
(0.0484286 2.35364 5.23126e-19)
(0.337195 2.38076 0)
(0.702656 2.44579 1.00865e-18)
(1.34982 2.42691 -1.21359e-18)
(2.18725 2.65099 0)
(2.74711 2.82022 0)
(3.00119 2.82315 0)
(3.08969 2.89203 7.48348e-19)
(3.13692 2.88627 -2.70191e-18)
(3.25587 2.87392 3.67408e-19)
(-0.355698 3.00584 1.74315e-19)
(-0.081381 2.72694 0)
(0.373638 2.77238 0)
(0.949104 2.81762 -3.38281e-18)
(1.67583 2.95849 1.16822e-18)
(2.3252 3.0654 -1.97718e-18)
(2.74995 3.07989 1.81848e-18)
(2.99063 3.02096 0)
(3.13998 2.89075 0)
(3.19844 2.80921 -1.02533e-18)
(3.25981 2.7242 -1.07297e-18)
(3.33821 2.64013 3.73988e-18)
(-0.258162 3.32488 -1.34828e-18)
(0.172683 3.14945 -2.36691e-18)
(0.774015 3.264 1.94065e-18)
(1.4466 3.34285 -1.66668e-18)
(2.07075 3.3871 3.55969e-18)
(2.51598 3.32639 -3.67611e-18)
(2.78427 3.20928 -2.34204e-18)
(2.94816 3.06535 -5.69792e-18)
(3.0503 2.9272 -2.7966e-19)
(3.10412 2.81646 3.33701e-18)
(3.15991 2.71416 3.70524e-18)
(3.21999 2.61487 -2.96013e-18)
(-0.0416733 3.52377 0)
(0.444404 3.50202 1.18344e-18)
(1.05594 3.60831 -2.5713e-18)
(1.67737 3.62862 3.21226e-18)
(2.18365 3.55949 5.89576e-19)
(2.50865 3.4173 2.24176e-18)
(2.70941 3.25226 2.30143e-18)
(2.83382 3.08787 2.19645e-18)
(2.91594 2.93178 -4.64356e-18)
(2.97591 2.79554 3.95744e-18)
(3.03527 2.67224 -5.35786e-18)
(3.09551 2.55654 7.11355e-18)
(0.183524 3.69854 -4.27621e-18)
(0.677806 3.7726 1.6448e-18)
(1.23413 3.83928 4.74143e-18)
(1.76453 3.79191 0)
(2.16426 3.65495 -7.11859e-18)
(2.42017 3.47313 7.3248e-18)
(2.58658 3.282 0)
(2.70108 3.09701 -5.42855e-18)
(2.78577 2.92545 4.63386e-18)
(2.85392 2.7727 0)
(2.91807 2.63468 2.65015e-19)
(2.98082 2.50753 4.21251e-18)
(0.382997 3.86327 0)
(0.851231 4.0156 -3.82417e-18)
(1.33189 4.02565 3.51329e-18)
(1.76386 3.92618 0)
(2.08325 3.74535 -4.19384e-18)
(2.29973 3.53381 6.6233e-19)
(2.45229 3.31972 5.98994e-18)
(2.566 3.11633 5.51815e-18)
(2.65625 2.92918 -4.85811e-18)
(2.73276 2.7605 4.80519e-18)
(2.80323 2.6079 -4.15946e-18)
(2.87046 2.46855 -1.16548e-17)
(0.567937 4.05013 0)
(0.972833 4.2593 3.28851e-18)
(1.36249 4.20416 -4.83836e-18)
(1.70452 4.06264 4.82317e-18)
(1.9677 3.84745 0)
(2.16307 3.60854 -6.26936e-18)
(2.31225 3.37132 6.15867e-18)
(2.43087 3.14766 1.16372e-19)
(2.52919 2.94217 -1.02254e-17)
(2.61411 2.75621 -4.78382e-18)
(2.69097 2.58822 -2.63952e-19)
(2.76265 2.43577 8.58898e-18)
(0.70957 4.22426 0)
(1.04727 4.49665 -3.88136e-18)
(1.33743 4.36867 -5.42024e-18)
(1.60306 4.18497 -3.87114e-18)
(1.82626 3.93936 7.7957e-18)
(2.01006 3.67552 0)
(2.16151 3.41664 0)
(2.28807 3.1735 0)
(2.39581 2.95033 0)
(2.48957 2.74822 4.85441e-18)
(2.57322 2.56597 -4.87703e-18)
(2.64961 2.40131 4.66573e-18)
(0.823136 4.4917 0)
(1.03435 4.7062 2.72647e-18)
(1.22747 4.47387 -6.16344e-19)
(1.4445 4.23063 4.4621e-18)
(1.64456 3.95668 4.4298e-18)
(1.82392 3.67554 -7.10553e-18)
(1.98197 3.40504 0)
(2.11976 3.15257 -2.15002e-19)
(2.23971 2.92103 -1.75602e-17)
(2.34466 2.71104 0)
(2.43727 2.52151 1.08991e-17)
(2.52026 2.35024 -5.09977e-18)
(0.972642 4.56394 0)
(0.940289 4.6844 3.14488e-18)
(1.02632 4.36721 9.2878e-18)
(1.20894 4.06739 -7.93178e-18)
(1.39944 3.79101 -1.11185e-17)
(1.58455 3.52195 1.75874e-17)
(1.75617 3.26799 -1.9859e-19)
(1.91065 3.03153 -6.88899e-18)
(2.04729 2.81313 5.63403e-18)
(2.1675 2.61308 -1.19776e-17)
(2.27268 2.43082 -1.66003e-17)
(2.36553 2.26455 1.67733e-17)
(0.393792 4.17963 -1.8589e-18)
(0.56323 4.10595 -1.23716e-17)
(0.691079 3.79972 2.36471e-18)
(0.884907 3.54634 0)
(1.09628 3.34804 0)
(1.30281 3.15289 3.57415e-19)
(1.49446 2.96197 1.85913e-17)
(1.66841 2.7775 1.1483e-17)
(1.82356 2.60068 0)
(1.96095 2.43368 1.08195e-17)
(2.08072 2.27747 0)
(2.18574 2.1314 4.89796e-19)
(3.7369 2.32969 3.52879e-19)
(3.96408 2.28953 -4.40757e-19)
(4.10274 2.15818 -2.69493e-19)
(4.19397 2.02004 -5.56713e-19)
(4.19551 1.84296 -2.73286e-19)
(4.15195 1.6548 0)
(4.01338 1.45338 0)
(3.81212 1.25203 7.86642e-19)
(3.52111 1.04199 -9.23355e-19)
(3.1354 0.799747 0)
(2.70172 0.39246 0)
(2.56868 -0.175932 -5.88754e-20)
(3.34421 2.85368 1.59599e-18)
(3.451 2.79157 0)
(3.55204 2.69349 -8.98142e-19)
(3.64977 2.56017 4.71626e-19)
(3.72752 2.39668 2.81084e-19)
(3.76663 2.23062 2.62872e-18)
(3.75868 2.06792 -4.26924e-18)
(3.69951 1.91943 6.69371e-19)
(3.58542 1.80476 0)
(3.33063 1.69619 0)
(3.06002 1.56402 0)
(3.19592 1.07879 7.08627e-19)
(3.41154 2.55449 1.49101e-18)
(3.49071 2.46358 -4.08892e-18)
(3.56482 2.3649 1.12862e-18)
(3.62776 2.26276 2.72028e-18)
(3.67073 2.16095 -2.77489e-18)
(3.68737 2.06453 0)
(3.67276 1.98431 0)
(3.62719 1.93 -2.27712e-19)
(3.55852 1.90533 1.0817e-18)
(3.41985 1.89626 0)
(3.19583 1.88827 0)
(3.40573 1.77437 -4.61184e-19)
(3.27764 2.51957 3.31482e-19)
(3.33841 2.42469 4.06534e-18)
(3.39821 2.32882 2.85311e-18)
(3.45178 2.23411 -2.83664e-18)
(3.49393 2.14551 0)
(3.52085 2.06914 1.66127e-18)
(3.52901 2.01266 0)
(3.52177 1.98547 2.46695e-18)
(3.49605 1.98876 -7.54571e-19)
(3.42809 2.04587 0)
(3.24854 2.13253 -5.45051e-19)
(3.54771 2.19311 6.45273e-19)
(3.15567 2.44808 -2.90081e-18)
(3.21687 2.34478 0)
(3.27616 2.24631 0)
(3.33054 2.15493 0)
(3.37761 2.07466 0)
(3.41611 2.01048 -3.01282e-18)
(3.44461 1.97095 -1.35987e-19)
(3.46272 1.96257 -1.36387e-18)
(3.47729 1.99476 0)
(3.47215 2.08304 -1.16976e-18)
(3.35643 2.22867 4.85356e-19)
(3.76865 2.43101 -1.65363e-19)
(3.04284 2.39006 -2.3217e-19)
(3.10469 2.28079 -6.92959e-18)
(3.16514 2.17961 3.26682e-18)
(3.22294 2.08828 1.94999e-21)
(3.27732 2.01009 2.14227e-19)
(3.32818 1.94956 4.69352e-18)
(3.37654 1.91285 -1.5051e-19)
(3.42445 1.907 -5.26486e-18)
(3.47408 1.94284 -2.11941e-18)
(3.52822 2.03706 1.06837e-18)
(3.47458 2.22674 -1.32164e-18)
(3.93632 2.55112 -5.33374e-19)
(2.93572 2.34086 1.11242e-17)
(2.99987 2.22354 3.63674e-18)
(3.06293 2.11643 0)
(3.12505 2.02072 0)
(3.18686 1.93894 2.03464e-19)
(3.24975 1.87482 -3.42084e-18)
(3.31616 1.83348 5.36597e-18)
(3.38968 1.82152 -1.26708e-19)
(3.47383 1.84967 1.82011e-18)
(3.57529 1.93696 0)
(3.59709 2.12501 -2.3873e-19)
(4.09413 2.53231 -7.92667e-20)
(2.83086 2.29699 -4.11486e-18)
(2.897 2.17034 -3.78493e-18)
(2.96213 2.05529 4.05841e-18)
(3.02749 1.95236 -3.79927e-18)
(3.09488 1.86323 9.72262e-22)
(3.1669 1.79061 7.54612e-18)
(3.24755 1.73824 -3.46721e-18)
(3.34245 1.7118 1.95996e-18)
(3.45739 1.7211 0)
(3.60477 1.78631 1.18653e-18)
(3.70445 1.95965 6.04433e-19)
(4.2015 2.41114 -9.12099e-19)
(2.7207 2.25208 4.5187e-18)
(2.78849 2.11622 -4.3743e-18)
(2.85479 1.99272 -4.08416e-18)
(2.92169 1.88128 -8.50225e-18)
(2.99187 1.78268 8.18296e-18)
(3.06896 1.69852 -7.85435e-18)
(3.15836 1.63079 0)
(3.26804 1.58345 -1.87103e-18)
(3.40689 1.56386 0)
(3.59432 1.59132 0)
(3.77428 1.72812 0)
(4.25923 2.14856 4.35056e-19)
(2.59552 2.19506 4.93884e-18)
(2.66561 2.05326 -9.91279e-18)
(2.73282 1.92353 9.65818e-18)
(2.79977 1.80486 9.26299e-18)
(2.86967 1.69706 4.4709e-18)
(2.947 1.60067 0)
(3.03843 1.5156 0)
(3.1537 1.44332 4.3545e-18)
(3.30563 1.38713 0)
(3.5238 1.36277 -1.22286e-18)
(3.76613 1.42492 7.95947e-19)
(4.24649 1.73568 -1.26571e-18)
(2.44738 2.11272 -1.09915e-17)
(2.52129 1.97204 1.01378e-17)
(2.58976 1.84153 -9.89987e-18)
(2.65566 1.71959 -2.48646e-17)
(2.72237 1.60558 -2.45235e-19)
(2.79451 1.49907 1.34087e-19)
(2.88025 1.39778 -4.76863e-18)
(2.98956 1.30002 -4.36468e-18)
(3.13941 1.20281 0)
(3.3681 1.11632 3.69614e-18)
(3.64424 1.0505 9.02329e-19)
(4.11577 1.03528 -1.77865e-18)
(2.27572 1.99539 -4.87139e-19)
(2.3542 1.86526 0)
(2.42349 1.74159 0)
(2.48625 1.62248 4.77315e-18)
(2.54631 1.50728 1.45794e-17)
(2.60779 1.39525 -4.76155e-18)
(2.67997 1.28247 -2.19226e-19)
(2.77085 1.16421 -2.46939e-18)
(2.89979 1.02976 -2.29775e-18)
(3.0951 0.879455 -2.30892e-18)
(3.3813 0.656508 0)
(3.7142 -0.0293925 2.32696e-18)
(2.19787 -0.219797 2.76733e-22)
(1.92864 -0.285312 0)
(1.76119 -0.371886 -1.40469e-19)
(1.66059 -0.48968 0)
(1.58674 -0.611264 -6.37554e-19)
(1.57032 -0.735239 8.61574e-19)
(1.72339 -0.927179 0)
(1.65064 -1.44536 5.0388e-19)
(1.524 -2.4657 -2.26981e-19)
(1.95631 -2.97376 -7.83775e-20)
(2.19753 -3.17867 -7.64233e-19)
(2.35203 -3.48827 -6.6928e-19)
(2.71771 0.402566 -3.17908e-19)
(2.3794 0.213237 -1.74459e-19)
(2.35337 -0.0481999 5.85774e-19)
(2.38024 -0.336978 0)
(2.44545 -0.70209 -1.01051e-18)
(2.42647 -1.34828 5.21749e-19)
(2.64989 -2.18634 0)
(2.81986 -2.74693 8.69867e-19)
(2.82259 -3.00137 -2.89257e-18)
(2.89163 -3.09006 1.92625e-18)
(2.88597 -3.13715 1.43966e-18)
(2.87364 -3.25606 -3.63743e-18)
(3.00579 0.355872 -1.74474e-19)
(2.72674 0.0818509 0)
(2.77214 -0.37294 -1.71173e-18)
(2.81717 -0.948011 0)
(2.95769 -1.67458 0)
(3.06498 -2.32474 -8.02588e-19)
(3.07952 -2.74996 4.10636e-18)
(3.02088 -2.9909 -2.96327e-18)
(2.89058 -3.14031 1.02591e-18)
(2.80903 -3.19881 0)
(2.72401 -3.26007 2.63758e-18)
(2.63996 -3.33843 -1.58884e-18)
(3.32491 0.258693 8.69064e-19)
(3.14927 -0.171867 1.37022e-18)
(3.26371 -0.773062 1.42374e-18)
(3.34246 -1.44572 2.5139e-18)
(3.38689 -2.07034 -1.64392e-18)
(3.32638 -2.51612 -1.25972e-18)
(3.20923 -2.7846 0)
(3.06535 -2.94852 0)
(2.92712 -3.05068 2.17595e-18)
(2.81635 -3.10448 0)
(2.71404 -3.16019 4.57037e-19)
(2.61475 -3.22021 1.28762e-18)
(3.52389 0.0421945 1.44294e-18)
(3.50194 -0.443574 -9.49785e-19)
(3.60828 -1.0552 -2.57422e-18)
(3.62871 -1.6769 0)
(3.55968 -2.18363 0)
(3.41749 -2.50891 3.1021e-18)
(3.25238 -2.70973 0)
(3.08795 -2.83417 -5.23379e-18)
(2.93179 -2.91627 -2.21728e-18)
(2.7955 -2.97619 3.95972e-18)
(2.67217 -3.03549 -5.36076e-18)
(2.55646 -3.09568 3.38024e-18)
(3.69875 -0.182962 -2.39915e-18)
(3.77266 -0.677117 -1.42007e-18)
(3.8395 -1.23361 2.04042e-18)
(3.79224 -1.76431 3.62815e-19)
(3.6553 -2.16435 3.58765e-18)
(3.47342 -2.42041 -7.03135e-18)
(3.2822 -2.58686 6.28418e-18)
(3.09714 -2.70136 6.14305e-19)
(2.9255 -2.78603 0)
(2.7727 -2.85414 0)
(2.63464 -2.91824 8.19458e-18)
(2.50748 -2.98095 5.03807e-20)
(3.86351 -0.382551 -3.84738e-20)
(4.01578 -0.850753 -2.11694e-18)
(4.02601 -1.33157 0)
(3.92661 -1.76377 -4.24411e-18)
(3.74574 -2.08334 4.46022e-18)
(3.53412 -2.29992 1.07859e-17)
(3.31994 -2.4525 6.60442e-18)
(3.11648 -2.56621 8.20769e-19)
(2.92925 -2.65644 -1.02287e-17)
(2.76052 -2.73292 4.47747e-18)
(2.60789 -2.80335 4.77234e-18)
(2.46852 -2.87054 2.52821e-19)
(4.05035 -0.567661 2.09316e-19)
(4.25955 -0.972547 3.29038e-18)
(4.20455 -1.36231 0)
(4.06308 -1.70446 -4.82541e-18)
(3.84786 -1.96776 -3.53239e-18)
(3.60886 -2.16319 6.13451e-19)
(3.37156 -2.3124 -1.16591e-17)
(3.14782 -2.43102 4.0553e-19)
(2.94226 -2.52932 -2.63233e-19)
(2.75625 -2.61422 5.02879e-18)
(2.58822 -2.69105 -4.05829e-18)
(2.43576 -2.7627 2.13924e-19)
(4.22446 -0.709477 -3.45465e-18)
(4.4969 -1.04713 1.55663e-18)
(4.36903 -1.33733 -7.89116e-18)
(4.18537 -1.60303 3.87174e-18)
(3.93973 -1.82629 0)
(3.67584 -2.01012 0)
(3.41689 -2.16159 6.44063e-18)
(3.17368 -2.28816 1.17237e-17)
(2.95045 -2.39589 -5.34489e-18)
(2.74828 -2.48963 -4.85604e-18)
(2.56599 -2.57327 -4.64613e-18)
(2.4013 -2.64964 0)
(4.49183 -0.823224 7.18664e-20)
(4.70632 -1.03429 4.144e-18)
(4.47409 -1.22741 9.397e-18)
(4.23091 -1.44447 0)
(3.95696 -1.64455 7.74411e-18)
(3.6758 -1.82393 0)
(3.40525 -1.98199 3.31035e-19)
(3.15273 -2.11978 -5.70075e-18)
(2.92114 -2.23973 6.14934e-18)
(2.71111 -2.34469 0)
(2.52154 -2.43729 0)
(2.35025 -2.52027 -1.05255e-17)
(4.56392 -0.972708 -6.61257e-18)
(4.6844 -0.940287 3.14494e-18)
(4.36729 -1.02633 5.26475e-19)
(4.06753 -1.20892 -8.7418e-18)
(3.79116 -1.3994 -3.44179e-18)
(3.5221 -1.5845 -3.5169e-18)
(3.26813 -1.75613 -6.83946e-18)
(3.03164 -1.91062 -1.92815e-17)
(2.81321 -2.04727 -5.63443e-18)
(2.61314 -2.16749 -1.19789e-17)
(2.43085 -2.27267 1.16041e-17)
(2.26456 -2.36552 1.06528e-17)
(4.17963 -0.393867 3.55742e-18)
(4.10593 -0.563288 -1.41972e-18)
(3.79972 -0.691116 3.52083e-19)
(3.54636 -0.884892 7.38917e-18)
(3.34809 -1.09623 0)
(3.15295 -1.30274 -6.68488e-18)
(2.96203 -1.49439 5.98957e-18)
(2.77756 -1.66835 5.33688e-18)
(2.60073 -1.82351 -1.73461e-17)
(2.43371 -1.96092 1.08196e-17)
(2.27749 -2.08069 -1.05928e-17)
(2.13141 -2.18572 0)
(2.3294 -3.7368 -4.97906e-19)
(2.28923 -3.96405 1.21216e-18)
(2.15802 -4.10273 -9.97981e-19)
(2.01988 -4.194 -3.3676e-19)
(1.8429 -4.19554 -3.29746e-20)
(1.65474 -4.15199 6.76495e-20)
(1.45337 -4.01343 -1.23564e-19)
(1.25203 -3.81217 -3.04343e-19)
(1.04202 -3.52116 -9.23353e-19)
(0.799777 -3.13543 0)
(0.392503 -2.70174 0)
(-0.175908 -2.56869 -5.8871e-20)
(2.85352 -3.34433 -5.23224e-20)
(2.79145 -3.4511 2.10959e-18)
(2.69342 -3.5521 -8.9813e-19)
(2.56013 -3.64982 0)
(2.39665 -3.72757 1.68836e-18)
(2.2306 -3.76668 0)
(2.06792 -3.75873 1.27451e-18)
(1.91944 -3.69955 2.21226e-18)
(1.80479 -3.58545 -1.88799e-18)
(1.69623 -3.33065 0)
(1.56407 -3.06004 0)
(1.07883 -3.19596 -2.63398e-20)
(2.55434 -3.41171 1.06898e-18)
(2.46344 -3.49085 -1.0112e-18)
(2.36478 -3.56493 1.12928e-18)
(2.26267 -3.62785 0)
(2.16089 -3.67079 -1.22119e-18)
(2.0645 -3.68741 3.10515e-18)
(1.9843 -3.67278 -4.49632e-18)
(1.93002 -3.62721 -5.06687e-18)
(1.90537 -3.55853 3.04201e-18)
(1.89631 -3.41986 0)
(1.88833 -3.19582 5.99463e-19)
(1.77444 -3.40575 1.50022e-19)
(2.51947 -3.27781 1.24745e-18)
(2.4246 -3.33853 -2.83127e-18)
(2.32874 -3.39829 2.85459e-18)
(2.23405 -3.45183 -2.83806e-18)
(2.14547 -3.49395 0)
(2.06911 -3.52086 1.6618e-18)
(2.01266 -3.52901 1.14733e-18)
(1.98549 -3.52177 6.80163e-19)
(1.98879 -3.49604 -1.53207e-18)
(2.04592 -3.42809 0)
(2.13259 -3.24854 -3.51206e-19)
(2.19318 -3.54774 5.80496e-19)
(2.44801 -3.15579 3.24889e-18)
(2.34471 -3.21695 -1.68592e-18)
(2.24624 -3.2762 0)
(2.15488 -3.33056 0)
(2.07462 -3.37761 1.63476e-18)
(2.01046 -3.4161 -1.37785e-18)
(1.97094 -3.44459 -2.46641e-19)
(1.96258 -3.4627 0)
(1.99478 -3.47728 -8.11629e-19)
(2.08308 -3.47214 1.16985e-18)
(2.22873 -3.35641 -1.06245e-18)
(2.43109 -3.76869 -2.67158e-19)
(2.39001 -3.04292 -6.98011e-18)
(2.28073 -3.10474 3.34382e-18)
(2.17955 -3.16517 6.75473e-18)
(2.08824 -3.22294 1.94208e-21)
(2.01006 -3.27731 -8.08258e-18)
(1.94954 -3.32817 -3.43853e-18)
(1.91284 -3.37652 -2.37026e-19)
(1.907 -3.42443 0)
(1.94285 -3.47406 0)
(2.0371 -3.52821 -1.06844e-18)
(2.22679 -3.47456 -7.6938e-19)
(2.5512 -3.93634 2.33744e-19)
(2.34082 -2.93577 3.80097e-18)
(2.2235 -2.99989 -7.49693e-18)
(2.11639 -3.06294 -3.33178e-18)
(2.02068 -3.12504 -1.92907e-19)
(1.93891 -3.18685 3.21626e-18)
(1.87479 -3.24973 3.19048e-18)
(1.83347 -3.31614 1.80919e-18)
(1.82152 -3.38966 1.77126e-18)
(1.84968 -3.47381 -1.97468e-18)
(1.93699 -3.57528 0)
(2.12506 -3.59708 1.23922e-18)
(2.5324 -4.09416 -3.56752e-19)
(2.29696 -2.83089 0)
(2.17031 -2.89701 3.7863e-18)
(2.05526 -2.96213 0)
(1.95232 -3.02748 -1.93005e-19)
(1.8632 -3.09486 9.82242e-22)
(1.79058 -3.16688 7.54815e-18)
(1.73823 -3.24753 -7.31678e-18)
(1.71179 -3.34244 0)
(1.7211 -3.45737 -2.10581e-18)
(1.78633 -3.60476 1.18667e-18)
(1.9597 -3.70444 -2.31332e-18)
(2.41122 -4.2015 1.16366e-18)
(2.25207 -2.72072 4.52019e-18)
(2.1162 -2.7885 -4.37574e-18)
(1.99269 -2.85478 -4.42755e-18)
(1.88125 -2.92167 4.32969e-18)
(1.78265 -2.99185 4.0958e-18)
(1.69849 -3.06895 -1.20329e-17)
(1.63077 -3.15835 3.77141e-18)
(1.58343 -3.26802 0)
(1.56386 -3.40688 1.93504e-18)
(1.59133 -3.59432 0)
(1.72816 -3.77428 2.83049e-18)
(2.14865 -4.25924 -2.06923e-18)
(2.19505 -2.59552 0)
(2.05324 -2.6656 -9.91548e-18)
(1.92351 -2.73281 -5.14452e-18)
(1.80483 -2.79976 -8.9893e-18)
(1.69703 -2.86966 4.47199e-18)
(1.60064 -2.94698 4.22823e-18)
(1.51558 -3.03842 0)
(1.44331 -3.15369 0)
(1.38712 -3.30562 0)
(1.36277 -3.5238 0)
(1.42495 -3.76613 -7.98342e-19)
(1.73576 -4.24648 -1.03582e-19)
(2.11272 -2.44737 5.35796e-18)
(1.97202 -2.52128 4.91302e-18)
(1.84151 -2.58975 2.03747e-17)
(1.71957 -2.65565 5.23216e-18)
(1.60555 -2.72236 1.96756e-17)
(1.49905 -2.7945 -4.74412e-18)
(1.39776 -2.88024 -4.76942e-18)
(1.3 -2.98956 0)
(1.20279 -3.1394 -4.56301e-18)
(1.11632 -3.36809 -2.45821e-18)
(1.05052 -3.64423 -1.84877e-18)
(1.03534 -4.11575 -1.10528e-25)
(1.99539 -2.27571 0)
(1.86525 -2.35419 0)
(1.74158 -2.42349 -2.03763e-17)
(1.62247 -2.48626 -1.48491e-17)
(1.50726 -2.54631 -4.70362e-18)
(1.39523 -2.60779 0)
(1.28245 -2.67998 4.74339e-18)
(1.16419 -2.77085 0)
(1.02975 -2.89978 -2.00219e-19)
(0.879447 -3.09508 2.30902e-18)
(0.65652 -3.38127 6.68115e-19)
(-0.0293546 -3.71418 4.60733e-18)
(-0.208003 -2.21114 9.87088e-20)
(-0.278164 -1.94164 1.92989e-19)
(-0.371458 -1.76435 -1.83307e-19)
(-0.490107 -1.66121 2.58375e-20)
(-0.611617 -1.58692 0)
(-0.73531 -1.57062 5.76821e-20)
(-0.927477 -1.72379 0)
(-1.44667 -1.65053 4.58859e-19)
(-2.4667 -1.52484 1.18916e-18)
(-2.97355 -1.9572 1.56348e-20)
(-3.17874 -2.19789 3.85238e-19)
(-3.48816 -2.3524 8.41927e-19)
(0.376605 -2.66986 3.36914e-19)
(0.203092 -2.40358 -4.52513e-19)
(-0.048852 -2.3626 5.1927e-19)
(-0.335747 -2.38326 -4.28744e-20)
(-0.701321 -2.44572 -1.00525e-18)
(-1.34955 -2.42676 -2.06713e-19)
(-2.18704 -2.65096 -9.90685e-19)
(-2.74681 -2.82008 -1.50676e-18)
(-3.001 -2.82306 2.7268e-18)
(-3.08952 -2.89192 -6.24452e-19)
(-3.13677 -2.88614 7.65058e-19)
(-3.25573 -2.87377 4.58756e-19)
(0.357042 -2.99066 -3.75626e-19)
(0.0787019 -2.72286 0)
(-0.375686 -2.77116 0)
(-0.949677 -2.81737 -1.43961e-18)
(-1.67565 -2.95845 0)
(-2.32494 -3.06543 -1.17505e-18)
(-2.74965 -3.0799 6.92688e-19)
(-2.99035 -3.02092 2.54664e-18)
(-3.13975 -2.8907 -1.26818e-18)
(-3.19824 -2.80914 -1.83764e-18)
(-3.25962 -2.7241 -3.71042e-18)
(-3.33803 -2.64003 3.73969e-18)
(0.258735 -3.32644 -1.74417e-18)
(-0.172776 -3.14997 -1.36991e-18)
(-0.774444 -3.26386 2.51599e-18)
(-1.44669 -3.34278 8.45593e-19)
(-2.07051 -3.38708 0)
(-2.51565 -3.32638 -4.49274e-18)
(-2.78397 -3.20926 3.63316e-18)
(-2.94791 -3.06532 0)
(-3.05007 -2.92715 3.25325e-18)
(-3.10392 -2.81639 -4.7867e-18)
(-3.15973 -2.71407 3.24829e-18)
(-3.21982 -2.61476 4.38953e-19)
(0.0408156 -3.52378 2.17855e-18)
(-0.444785 -3.50216 2.89435e-18)
(-1.0562 -3.60833 8.34007e-19)
(-1.67731 -3.62858 0)
(-2.18339 -3.55946 -2.78734e-18)
(-2.50835 -3.41728 4.80119e-18)
(-2.70913 -3.25225 0)
(-2.83357 -3.08786 -2.85036e-18)
(-2.91574 -2.93175 -2.65031e-18)
(-2.97573 -2.79548 3.9573e-18)
(-3.03511 -2.67216 0)
(-3.09537 -2.55645 -3.05829e-18)
(-0.18396 -3.6985 1.88159e-18)
(-0.678052 -3.77264 6.61114e-19)
(-1.23424 -3.83929 -2.03936e-18)
(-1.76443 -3.7919 -8.82293e-18)
(-2.16403 -3.65496 -2.9023e-19)
(-2.41991 -3.47316 7.32741e-18)
(-2.58634 -3.28203 0)
(-2.70088 -3.09703 8.20594e-18)
(-2.7856 -2.92545 -4.79047e-18)
(-2.85377 -2.77267 4.2079e-18)
(-2.91793 -2.63463 2.65003e-19)
(-2.9807 -2.50747 -5.03399e-20)
(-0.383337 -3.86319 -1.70523e-18)
(-0.851433 -4.01562 -1.37575e-18)
(-1.33194 -4.02564 0)
(-1.76375 -3.92618 9.14941e-18)
(-2.08305 -3.74538 -1.25982e-17)
(-2.29952 -3.53387 -2.071e-19)
(-2.4521 -3.31978 -1.25893e-17)
(-2.56583 -3.11639 5.02447e-19)
(-2.65611 -2.92921 -4.85779e-18)
(-2.73264 -2.76051 -4.8048e-18)
(-2.80312 -2.60789 4.76972e-18)
(-2.87036 -2.46851 -3.95091e-18)
(-0.568236 -4.05006 -1.54815e-19)
(-0.97301 -4.2593 -1.76941e-18)
(-1.36252 -4.20413 0)
(-1.70442 -4.06266 4.82221e-18)
(-1.96754 -3.84751 3.32183e-18)
(-2.1629 -3.60863 2.95249e-18)
(-2.3121 -3.37142 -4.9223e-19)
(-2.43073 -3.14775 -1.16286e-19)
(-2.52907 -2.94224 -5.47575e-18)
(-2.61401 -2.75625 -5.74299e-19)
(-2.69089 -2.58823 2.26539e-19)
(-2.76258 -2.43576 0)
(-0.709836 -4.22419 2.14799e-18)
(-1.0474 -4.49661 0)
(-1.33745 -4.36863 0)
(-1.603 -4.18497 -3.87061e-18)
(-1.82614 -3.93941 3.42075e-18)
(-2.00991 -3.67561 -7.01901e-18)
(-2.16137 -3.41675 0)
(-2.28795 -3.17361 5.73853e-18)
(-2.3957 -2.95042 -2.39543e-19)
(-2.48948 -2.74828 4.85395e-18)
(-2.57315 -2.56601 -5.06476e-18)
(-2.64955 -2.40132 9.71731e-18)
(-0.823325 -4.49158 4.47211e-18)
(-1.03445 -4.70611 -1.41762e-18)
(-1.22749 -4.47378 -5.00646e-18)
(-1.44445 -4.23058 -8.57241e-18)
(-1.64445 -3.95667 0)
(-1.82378 -3.67558 6.43905e-18)
(-1.98182 -3.40511 -1.30028e-17)
(-2.11962 -3.15265 5.76756e-18)
(-2.23959 -2.9211 6.14742e-18)
(-2.34457 -2.7111 0)
(-2.4372 -2.52155 -5.82582e-18)
(-2.52021 -2.35026 -9.81263e-18)
(-0.972736 -4.56385 -6.56107e-18)
(-0.940363 -4.68428 1.42995e-18)
(-1.02636 -4.36708 4.38041e-18)
(-1.2089 -4.06728 3.71183e-18)
(-1.39933 -3.79093 -4.8977e-20)
(-1.58439 -3.52191 -1.08716e-17)
(-1.75601 -3.26799 1.29899e-17)
(-1.91049 -3.03155 2.53529e-17)
(-2.04715 -2.81316 -1.7718e-17)
(-2.1674 -2.61311 -1.19761e-17)
(-2.2726 -2.43084 1.09461e-17)
(-2.36549 -2.26456 0)
(-0.393782 -4.17955 5.49732e-18)
(-0.563253 -4.10585 1.87391e-18)
(-0.691093 -3.79958 2.01259e-18)
(-0.884855 -3.54619 7.9394e-18)
(-1.09617 -3.3479 0)
(-1.30265 -3.15278 6.32705e-18)
(-1.49428 -2.9619 -1.26005e-17)
(-1.66824 -2.77746 -5.58226e-18)
(-1.82342 -2.60066 -5.71043e-18)
(-1.96085 -2.43367 1.08186e-17)
(-2.08065 -2.27746 5.65408e-18)
(-2.18571 -2.1314 1.62371e-17)
(-3.73671 -2.32957 1.52717e-19)
(-3.96388 -2.2894 5.66243e-19)
(-4.10255 -2.15808 3.33777e-19)
(-4.19379 -2.01993 -8.04405e-19)
(-4.19535 -1.84287 2.40209e-19)
(-4.1518 -1.65471 0)
(-4.01325 -1.45331 -4.92731e-19)
(-3.81201 -1.25197 3.71606e-19)
(-3.52104 -1.04194 0)
(-3.13535 -0.799701 1.13545e-19)
(-2.7017 -0.392428 0)
(-2.56866 0.175941 -2.91529e-19)
(-3.34407 -2.85352 -4.1459e-18)
(-3.45086 -2.7914 2.98275e-18)
(-3.55189 -2.69333 2.24094e-18)
(-3.64962 -2.56003 -9.3325e-19)
(-3.72737 -2.39655 0)
(-3.76649 -2.2305 0)
(-3.75856 -2.06781 1.46294e-18)
(-3.69941 -1.91933 -1.58124e-18)
(-3.58533 -1.80467 0)
(-3.33056 -1.69611 5.92903e-19)
(-3.05999 -1.56395 -4.84061e-20)
(-3.19591 -1.07879 -1.07717e-18)
(-3.41137 -2.55438 1.54841e-18)
(-3.49055 -2.46346 -2.65775e-18)
(-3.56466 -2.36479 0)
(-3.62761 -2.26264 -2.74964e-18)
(-3.67059 -2.16083 -2.84684e-18)
(-3.68725 -2.06442 6.13554e-18)
(-3.67266 -1.9842 -5.48909e-18)
(-3.62711 -1.92989 0)
(-3.55845 -1.90523 0)
(-3.4198 -1.89616 0)
(-3.19579 -1.88817 -5.27335e-19)
(-3.40569 -1.77429 1.6115e-19)
(-3.27749 -2.51945 -1.24677e-18)
(-3.33826 -2.42456 -3.76276e-19)
(-3.39808 -2.32869 0)
(-3.45166 -2.23398 -3.52931e-19)
(-3.49382 -2.14538 0)
(-3.52076 -2.069 0)
(-3.52893 -2.01253 1.30219e-18)
(-3.5217 -1.98535 -1.57052e-18)
(-3.49599 -1.98863 1.68616e-18)
(-3.42805 -2.04575 0)
(-3.24853 -2.13241 -5.45098e-19)
(-3.54769 -2.19301 -6.4535e-19)
(-3.15554 -2.44798 6.76674e-18)
(-3.21675 -2.34466 -1.68496e-18)
(-3.27605 -2.24619 3.03199e-18)
(-3.33044 -2.15481 1.36739e-18)
(-3.37752 -2.07453 -4.64714e-18)
(-3.41603 -2.01035 0)
(-3.44454 -1.97081 -1.59056e-18)
(-3.46266 -1.96243 0)
(-3.47725 -1.99462 0)
(-3.47212 -2.0829 1.16984e-18)
(-3.35642 -2.22854 3.2268e-20)
(-3.76863 -2.43089 7.27878e-19)
(-3.04273 -2.38998 -3.25151e-18)
(-3.1046 -2.28069 -2.44726e-19)
(-3.16506 -2.1795 0)
(-3.22286 -2.08816 0)
(-3.27725 -2.00997 -5.11379e-18)
(-3.32812 -1.94943 3.2245e-18)
(-3.37649 -1.91271 3.29889e-18)
(-3.4244 -1.90685 1.72627e-18)
(-3.47405 -1.94269 -4.11087e-18)
(-3.5282 -2.03692 -1.06838e-18)
(-3.47457 -2.2266 0)
(-3.9363 -2.55099 8.33082e-19)
(-2.93564 -2.3408 -7.80278e-18)
(-2.99979 -2.22347 3.21079e-18)
(-3.06287 -2.11634 3.54945e-18)
(-3.12499 -2.02061 1.93545e-19)
(-3.18682 -1.93883 -3.99636e-19)
(-3.24972 -1.87469 -3.60947e-18)
(-3.31613 -1.83334 -5.26604e-18)
(-3.38965 -1.82138 -1.89938e-18)
(-3.47381 -1.84952 1.8199e-18)
(-3.57528 -1.93681 0)
(-3.5971 -2.12487 2.09545e-18)
(-4.09412 -2.53218 -5.33639e-19)
(-2.8308 -2.29696 8.04197e-18)
(-2.89696 -2.17029 -4.36817e-18)
(-2.96209 -2.05522 -4.05787e-18)
(-3.02746 -1.95227 -7.40453e-18)
(-3.09485 -1.86313 7.27491e-18)
(-3.16689 -1.79049 -1.88658e-19)
(-3.24754 -1.73812 1.09826e-17)
(-3.34245 -1.71166 1.75395e-18)
(-3.45739 -1.72095 2.10518e-18)
(-3.60477 -1.78616 0)
(-3.70446 -1.95951 -1.43878e-18)
(-4.20149 -2.41101 -6.87237e-19)
(-2.72066 -2.25207 0)
(-2.78847 -2.11619 4.19104e-18)
(-2.85477 -1.99266 4.08362e-18)
(-2.92168 -1.88121 -4.17324e-18)
(-2.99187 -1.78259 -1.59146e-19)
(-3.06897 -1.69842 -4.17479e-18)
(-3.15838 -1.63068 -3.7699e-18)
(-3.26805 -1.58332 0)
(-3.4069 -1.56372 -1.93446e-18)
(-3.59433 -1.59117 -1.20453e-18)
(-3.7743 -1.72798 4.6308e-18)
(-4.25923 -2.14844 -9.90936e-19)
(-2.5955 -2.19506 0)
(-2.6656 -2.05324 0)
(-2.73282 -1.9235 0)
(-2.79979 -1.8048 -1.40075e-17)
(-2.8697 -1.69699 8.91612e-18)
(-2.94703 -1.60058 8.60784e-18)
(-3.03847 -1.5155 0)
(-3.15374 -1.4432 -4.35368e-18)
(-3.30566 -1.387 0)
(-3.52383 -1.36263 -2.49754e-18)
(-3.76615 -1.42478 -7.98243e-19)
(-4.24649 -1.73557 -1.26578e-18)
(-2.44736 -2.11272 0)
(-2.5213 -1.97202 0)
(-2.58979 -1.8415 1.04694e-17)
(-2.6557 -1.71955 1.46449e-17)
(-2.72242 -1.60552 4.03196e-19)
(-2.79457 -1.499 4.87651e-18)
(-2.88031 -1.3977 -2.33716e-18)
(-2.98962 -1.29992 6.60781e-18)
(-3.13946 -1.20269 4.56156e-18)
(-3.36814 -1.1162 2.29416e-18)
(-3.64427 -1.05037 -1.84852e-18)
(-4.11579 -1.03519 -1.94972e-18)
(-2.27573 -1.99539 0)
(-2.35423 -1.86525 0)
(-2.42354 -1.74158 -9.9497e-18)
(-2.48633 -1.62245 5.23917e-18)
(-2.54639 -1.50724 -4.70291e-18)
(-2.60788 -1.39519 -4.76112e-18)
(-2.68006 -1.2824 4.96182e-18)
(-2.77094 -1.16412 0)
(-2.89987 -1.02966 -4.51691e-18)
(-3.09517 -0.879348 -2.40148e-18)
(-3.38133 -0.656398 2.29522e-18)
(-3.71422 0.0294657 -4.6262e-18)
(-2.19785 0.219798 1.10591e-19)
(-1.92863 0.285309 0)
(-1.76117 0.371878 0)
(-1.66056 0.489672 6.08908e-19)
(-1.58673 0.611247 -6.6594e-19)
(-1.5703 0.735216 0)
(-1.72339 0.927162 0)
(-1.65062 1.44543 4.59473e-19)
(-1.52401 2.46584 1.27204e-18)
(-1.95643 2.9739 9.79096e-19)
(-2.19762 3.1788 -3.77646e-19)
(-2.35216 3.48843 7.32875e-19)
(-2.7177 -0.40257 -5.98386e-19)
(-2.37938 -0.21324 0)
(-2.35333 0.0482097 0)
(-2.38018 0.336998 -9.90303e-19)
(-2.4454 0.702102 2.07435e-18)
(-2.42647 1.3483 -2.15604e-18)
(-2.64991 2.18643 8.43062e-19)
(-2.81989 2.74706 7.68275e-19)
(-2.82263 3.0015 -3.89103e-19)
(-2.89168 3.09017 7.48827e-19)
(-2.88604 3.13726 0)
(-2.87373 3.25616 -1.61445e-18)
(-3.00578 -0.355901 3.4884e-19)
(-2.7267 -0.0818961 0)
(-2.77208 0.372893 0)
(-2.81711 0.947958 -8.67021e-19)
(-2.9576 1.67456 6.10655e-19)
(-3.06493 2.32484 -1.49104e-18)
(-3.0795 2.75013 0)
(-3.02088 2.99107 -3.37325e-18)
(-2.89059 3.14045 3.96665e-18)
(-2.80906 3.19893 -1.02526e-18)
(-2.72406 3.26018 -2.6102e-18)
(-2.64002 3.33853 3.7418e-18)
(-3.32492 -0.258779 -8.68896e-19)
(-3.14922 0.17177 1.36991e-18)
(-3.26364 0.772983 0)
(-3.34238 1.44571 8.45766e-19)
(-3.38684 2.07045 -6.35859e-19)
(-3.32636 2.51631 1.25944e-18)
(-3.20922 2.78478 0)
(-3.06534 2.94868 -2.05332e-18)
(-2.92713 3.05082 -5.42858e-18)
(-2.81638 3.1046 3.33844e-18)
(-2.71408 3.16028 3.24993e-18)
(-2.6148 3.22029 -6.36226e-18)
(-3.52392 -0.0423006 1.08658e-18)
(-3.50191 0.443467 -1.18424e-18)
(-3.60824 1.05516 2.57412e-18)
(-3.62868 1.67696 0)
(-3.55967 2.1838 -5.88135e-18)
(-3.41748 2.50911 5.6584e-18)
(-3.25236 2.70992 3.07574e-18)
(-3.08793 2.83432 2.19754e-18)
(-2.93179 2.91639 0)
(-2.79551 2.97629 0)
(-2.67219 3.03557 0)
(-2.55649 3.09574 -6.76881e-19)
(-3.69879 0.182836 4.80033e-18)
(-3.77265 0.677024 0)
(-3.83951 1.2336 -2.04036e-18)
(-3.79225 1.76442 4.59438e-18)
(-3.6553 2.16453 3.55253e-18)
(-3.4734 2.4206 -6.99425e-18)
(-3.28217 2.58702 3.21657e-18)
(-3.09711 2.70149 -1.12475e-17)
(-2.92548 2.78613 -1.56967e-19)
(-2.77268 2.85422 -3.99073e-19)
(-2.63464 2.91829 2.65166e-19)
(-2.50749 2.98098 1.09848e-17)
(-3.86356 0.382437 -6.08987e-18)
(-4.0158 0.850687 3.82803e-18)
(-4.02604 1.33159 -5.88243e-18)
(-3.92663 1.76388 -4.24406e-18)
(-3.74573 2.0835 -7.87079e-18)
(-3.53409 2.30008 -4.19617e-18)
(-3.3199 2.45263 -6.23673e-18)
(-3.11643 2.56631 1.03742e-17)
(-2.9292 2.65651 0)
(-2.76048 2.73297 9.01269e-18)
(-2.60786 2.80338 -1.26326e-17)
(-2.4685 2.87055 4.22595e-18)
(-4.0504 0.567578 -3.04173e-18)
(-4.25958 0.972509 -5.21823e-18)
(-4.2046 1.36234 7.4404e-18)
(-4.06311 1.70456 0)
(-3.84784 1.96788 -4.13168e-18)
(-3.60882 2.16331 6.27261e-18)
(-3.3715 2.3125 -3.08936e-19)
(-3.14775 2.43109 1.16419e-19)
(-2.94219 2.52937 -5.0754e-18)
(-2.75619 2.61424 -9.53726e-18)
(-2.58817 2.69106 4.26495e-18)
(-2.43571 2.76269 -4.30899e-18)
(-4.22452 0.709425 2.14871e-18)
(-4.49695 1.04712 0)
(-4.36908 1.33735 0)
(-4.18539 1.60309 0)
(-3.93971 1.82638 3.42199e-18)
(-3.67579 2.01021 0)
(-3.41682 2.16167 -3.97532e-19)
(-3.1736 2.28821 1.1406e-17)
(-2.95037 2.39592 2.70116e-19)
(-2.74821 2.48964 4.85602e-18)
(-2.56593 2.57326 -4.87861e-18)
(-2.40125 2.64961 1.43887e-17)
(-4.49189 0.82323 7.18645e-20)
(-4.70636 1.03429 7.52791e-18)
(-4.47413 1.22742 -2.30514e-18)
(-4.23093 1.44451 0)
(-3.95695 1.64461 0)
(-3.67576 1.824 0)
(-3.40519 1.98205 0)
(-3.15266 2.11983 6.02439e-18)
(-2.92107 2.23976 -2.30454e-17)
(-2.71103 2.34469 -1.13397e-17)
(-2.52148 2.43727 1.09014e-17)
(-2.35019 2.52023 5.81006e-18)
(-4.56395 0.972736 -6.56059e-18)
(-4.68442 0.940273 -4.34967e-18)
(-4.36731 1.02632 -2.61418e-18)
(-4.06754 1.20894 0)
(-3.79115 1.39944 0)
(-3.52207 1.58456 7.30613e-18)
(-3.26809 1.75619 -1.34791e-17)
(-3.03159 1.91066 2.55771e-17)
(-2.81316 2.04729 1.80577e-17)
(-2.61308 2.16749 1.12849e-17)
(-2.4308 2.27265 -1.09482e-17)
(-2.26451 2.36549 6.26884e-19)
(-4.17964 0.393886 -1.85887e-18)
(-4.10593 0.563278 0)
(-3.79973 0.69112 3.85416e-18)
(-3.54639 0.884923 -1.18039e-17)
(-3.34812 1.09629 1.06968e-17)
(-3.15297 1.30281 3.5737e-19)
(-2.96204 1.49445 5.98913e-18)
(-2.77756 1.6684 -5.5823e-18)