/*--------------------------------*- C++ -*----------------------------------*\
| =========                 |                                                 |
| \\      /  F ield         | foam-extend: Open Source CFD                    |
|  \\    /   O peration     | Version:     4.0                                |
|   \\  /    A nd           | Web:         http://www.foam-extend.org         |
|    \\/     M anipulation  |                                                 |
\*---------------------------------------------------------------------------*/
FoamFile
{
    version     2.0;
    format      ascii;
    class       volScalarField;
    location    "2200";
    object      alphat;
}
// * * * * * * * * * * * * * * * * * * * * * * * * * * * * * * * * * * * * * //

dimensions      [1 -1 -1 0 0 0 0];

internalField   nonuniform List<scalar> 
34480
(
0.00188849
0.00188723
0.00188707
0.0018879
0.00189001
0.00189392
0.00190145
0.00191971
0.00195897
0.00203022
0.0159274
0.0151195
0.0148199
0.0145499
0.0129274
0.00824421
0.00340697
0.00134834
0.000984854
0.00145492
0.04427
0.042612
0.0409247
0.0374801
0.0286713
0.0146822
0.00511863
0.00182856
0.00124087
0.00181179
0.0484192
0.0462616
0.0443206
0.0402817
0.0297095
0.0141616
0.00479355
0.00177557
0.00128736
0.00197761
0.047742
0.0453223
0.0435575
0.0397166
0.0288507
0.0131901
0.00440879
0.00168458
0.00129889
0.00209657
0.0459928
0.0435085
0.0418479
0.0380617
0.026837
0.0116164
0.0038582
0.00155335
0.00130532
0.00222413
0.043863
0.0415399
0.04008
0.0364665
0.0252715
0.0105529
0.00349429
0.00146117
0.00131283
0.00233371
0.0364098
0.0347176
0.0336881
0.0309408
0.0214262
0.00863921
0.00281221
0.00123976
0.00123606
0.00234068
0.012429
0.0121092
0.0120061
0.0117294
0.00993108
0.00512551
0.00167726
0.00073673
0.000834305
0.00178638
0.00180094
0.00180085
0.00180252
0.00180579
0.00181057
0.00181669
0.00182472
0.00183596
0.00185253
0.00181383
0.00188852
0.00188665
0.00188606
0.00188657
0.00188843
0.00189188
0.00189738
0.00190684
0.00192454
0.00196537
0.0149594
0.0143245
0.0141325
0.0143157
0.0147265
0.014775
0.0129475
0.00764445
0.00249483
0.00204509
0.0407446
0.0395164
0.03885
0.0383121
0.0366985
0.0319872
0.0230056
0.0112949
0.00328121
0.00280221
0.0448211
0.0431519
0.0423481
0.041775
0.0399321
0.0344335
0.0242073
0.011439
0.00330053
0.00316939
0.0446554
0.0426982
0.0419522
0.0415936
0.0401102
0.0348394
0.0244546
0.011284
0.00323794
0.00345051
0.0434407
0.0413731
0.0406453
0.0404209
0.0392063
0.0342114
0.0239588
0.0108494
0.00316552
0.00378147
0.0418361
0.0398513
0.0392139
0.0390736
0.0380971
0.0334668
0.0235388
0.0105536
0.00312908
0.00409785
0.0351443
0.0336716
0.0332026
0.0331849
0.0326761
0.0293609
0.0210951
0.00938462
0.00285443
0.00417046
0.0123672
0.0120601
0.0119989
0.0120568
0.0121869
0.0120295
0.0106114
0.00545474
0.00170679
0.0028009
0.00179637
0.00179391
0.00179341
0.0017946
0.0017974
0.0018015
0.00180768
0.00181751
0.00184179
0.0018891
0.00188401
0.00188241
0.00188187
0.00188233
0.00188393
0.0018867
0.00189068
0.00189667
0.00190561
0.00191914
0.0140627
0.0136464
0.0135123
0.0136628
0.0141014
0.0147414
0.0151435
0.0142157
0.0101115
0.0058367
0.0372125
0.0362447
0.0359062
0.0360522
0.0363688
0.0359488
0.0330152
0.0253637
0.0133438
0.00709928
0.0410827
0.0397784
0.0393481
0.0395737
0.0400704
0.039718
0.0361978
0.0266181
0.0125401
0.00720395
0.0413115
0.0397955
0.0393794
0.039719
0.0405231
0.0406534
0.037362
0.0266932
0.0114198
0.00717598
0.0405699
0.0389617
0.0385256
0.0389293
0.0399581
0.040577
0.037698
0.0261773
0.0103053
0.00724754
0.0394636
0.0378965
0.0375034
0.0379115
0.0390431
0.0400218
0.0376515
0.0255314
0.00938144
0.00733122
0.0336222
0.0324586
0.0321492
0.0324664
0.0334076
0.0345689
0.0334148
0.022641
0.00796957
0.00704251
0.0122603
0.0120049
0.0119607
0.0120212
0.012217
0.012449
0.0126045
0.0106467
0.00448896
0.00445638
0.00178905
0.00178615
0.00178527
0.00178617
0.00178886
0.00179321
0.00180024
0.00181207
0.00183881
0.00189232
0.00187582
0.00187469
0.00187431
0.00187467
0.00187582
0.00187769
0.00188002
0.0018831
0.00188705
0.00189172
0.0134718
0.0132241
0.0131334
0.0132292
0.0135202
0.0139758
0.0144499
0.0148654
0.0145951
0.0128621
0.0340396
0.0333561
0.0331605
0.0333627
0.0339287
0.0346073
0.0346333
0.0324116
0.025687
0.0173827
0.0376449
0.0367034
0.0364349
0.0367261
0.0375346
0.038541
0.0385998
0.0352941
0.025793
0.0167225
0.0381915
0.0370987
0.0368302
0.0371868
0.0381998
0.0395804
0.0399753
0.0361451
0.0246343
0.0158809
0.03787
0.0366935
0.0363917
0.0367876
0.0379474
0.039691
0.0405402
0.0363518
0.0231432
0.0153344
0.0372096
0.036034
0.0357529
0.0361415
0.0373446
0.0392844
0.0405178
0.0360612
0.021525
0.0148456
0.0322061
0.0313244
0.0310942
0.0313814
0.0322893
0.0339203
0.0354079
0.032
0.0185293
0.0137232
0.0121943
0.011984
0.0119515
0.0119978
0.0121467
0.0123368
0.0125438
0.0126726
0.00958868
0.0083192
0.00178014
0.0017771
0.00177609
0.0017769
0.00177961
0.00178428
0.00179187
0.00180458
0.00183073
0.00187808
0.00186474
0.00186405
0.00186382
0.00186406
0.00186481
0.00186592
0.00186711
0.00186854
0.00187011
0.00187158
0.0131893
0.0130523
0.0129924
0.0130519
0.0132314
0.0134917
0.0137226
0.0140115
0.0142929
0.0144153
0.031506
0.0311051
0.0309987
0.0311236
0.0315071
0.0321212
0.0328085
0.0330908
0.0316398
0.0274615
0.0347726
0.0341702
0.034001
0.0341967
0.0347923
0.0357772
0.0368784
0.0371098
0.0340961
0.0274698
0.035515
0.0347913
0.034615
0.0348557
0.0355994
0.0368656
0.0383265
0.0385832
0.0342334
0.026305
0.0355131
0.0347023
0.0344872
0.0347634
0.0356239
0.0371644
0.0390485
0.0394576
0.0338286
0.0253955
0.0352035
0.0343595
0.0341516
0.0344282
0.0353317
0.0370033
0.0391547
0.0396399
0.0328221
0.0244435
0.0309615
0.030314
0.0301386
0.0303465
0.0310167
0.032322
0.0341944
0.0350293
0.0289292
0.0222935
0.012176
0.0120026
0.0119791
0.0120105
0.012112
0.0122296
0.0123004
0.0126958
0.012574
0.0122112
0.00176981
0.00176675
0.00176567
0.00176642
0.0017691
0.00177384
0.00178149
0.00179386
0.00181658
0.0018532
0.0018513
0.00185095
0.00185083
0.00185098
0.00185142
0.00185199
0.00185251
0.0018531
0.00185367
0.00185406
0.0131472
0.0130811
0.0130437
0.0130825
0.0131942
0.0133326
0.0134244
0.0135395
0.0136594
0.0137514
0.0297472
0.029554
0.0295063
0.0295662
0.0297596
0.0300881
0.0305435
0.0310948
0.0314185
0.0310579
0.0326053
0.0322645
0.0321657
0.0322728
0.0326186
0.0332415
0.034152
0.0351928
0.0354799
0.0339459
0.0333876
0.0329499
0.0328422
0.0329812
0.0334358
0.0342683
0.0355105
0.0369057
0.0369209
0.0340656
0.0335736
0.0330501
0.032904
0.0330758
0.0336309
0.0346845
0.0363077
0.038151
0.0378584
0.033849
0.0334982
0.0329226
0.0327758
0.0329546
0.0335607
0.0347316
0.0365769
0.0386898
0.0379496
0.0331012
0.0299086
0.0294533
0.0293258
0.0294663
0.0299201
0.0308156
0.0322744
0.0342162
0.0337663
0.029954
0.012209
0.0120668
0.0120517
0.0120717
0.0121352
0.0121876
0.0121401
0.012335
0.0127465
0.0136378
0.00175788
0.00175492
0.00175384
0.00175453
0.0017571
0.0017617
0.00176895
0.00178022
0.00179869
0.00182516
0.00183589
0.00183577
0.00183574
0.00183582
0.00183605
0.00183627
0.00183646
0.00183666
0.00183683
0.00183688
0.0132692
0.0132507
0.0132302
0.0132567
0.0133258
0.013389
0.0134287
0.0134712
0.0135021
0.0134923
0.0286858
0.028609
0.0285938
0.0286188
0.0287011
0.0288354
0.0290275
0.0292922
0.0295738
0.0297921
0.0311275
0.0309504
0.0308961
0.0309488
0.031127
0.0314518
0.0319523
0.032649
0.033349
0.0337451
0.0318256
0.0315797
0.0315189
0.0315916
0.0318421
0.0323054
0.033041
0.0340992
0.0350946
0.0353899
0.0320805
0.0317606
0.0316662
0.0317657
0.0320963
0.0327282
0.0337633
0.0353033
0.0366619
0.0367229
0.0321315
0.0317563
0.0316576
0.0317656
0.0321461
0.0328818
0.0341055
0.0359717
0.037481
0.0371051
0.0290744
0.0287676
0.0286793
0.0287689
0.0290576
0.029618
0.030542
0.0321143
0.0335573
0.0335471
0.0123017
0.0121844
0.0121768
0.012188
0.0122223
0.0122207
0.0120995
0.0121028
0.0122896
0.0129846
0.00174423
0.00174147
0.00174044
0.00174107
0.00174345
0.00174769
0.00175423
0.00176397
0.00177837
0.00179694
0.00181875
0.00181877
0.00181878
0.00181883
0.00181892
0.00181897
0.00181901
0.00181904
0.00181905
0.00181897
0.0134977
0.0135136
0.0135068
0.0135252
0.0135653
0.0135904
0.0136097
0.0136262
0.013627
0.0135851
0.028128
0.0281062
0.0281063
0.0281164
0.0281472
0.0281923
0.0282572
0.0283456
0.0284429
0.0285276
0.0302024
0.0301136
0.0300845
0.0301094
0.0301973
0.0303548
0.0305927
0.0309228
0.0312973
0.0316306
0.0307572
0.030626
0.030594
0.0306297
0.03076
0.030997
0.031368
0.0319152
0.0325573
0.0331293
0.0310011
0.0308139
0.0307554
0.0308104
0.0309982
0.0313512
0.0319234
0.0328124
0.0338829
0.0348216
0.0310982
0.0308625
0.0307991
0.030861
0.0310897
0.0315238
0.0322366
0.0333884
0.0347752
0.0359125
0.0284635
0.0282649
0.0282069
0.0282611
0.0284343
0.0287592
0.029274
0.0302064
0.0314647
0.0327008
0.0124604
0.0123622
0.0123608
0.0123657
0.0123783
0.0123349
0.012178
0.0120708
0.0120507
0.0123131
0.00172873
0.00172626
0.00172531
0.00172587
0.001728
0.00173175
0.00173739
0.00174542
0.00175629
0.00176909
0.00179997
0.00180007
0.00180012
0.00180014
0.00180016
0.00180014
0.00180011
0.00180008
0.00180004
0.00179993
0.0137984
0.0138415
0.0138463
0.013859
0.0138772
0.0138881
0.013899
0.0139056
0.0138957
0.013843
0.027888
0.0278901
0.0278967
0.0279011
0.0279104
0.0279226
0.0279409
0.0279645
0.0279876
0.0280025
0.0296645
0.0296193
0.0296034
0.0296154
0.0296594
0.0297365
0.0298483
0.0299943
0.0301542
0.0302895
0.0300719
0.0300035
0.0299874
0.0300045
0.030071
0.0301889
0.0303668
0.0306162
0.0309092
0.0311767
0.0302669
0.0301604
0.0301252
0.0301548
0.0302589
0.0304501
0.0307494
0.031196
0.0317554
0.0323086
0.0303622
0.0302179
0.0301786
0.0302128
0.0303467
0.0305946
0.0309871
0.0316012
0.0323925
0.03319
0.028062
0.0279381
0.0279022
0.0279332
0.0280306
0.0282037
0.0284625
0.0289334
0.0296367
0.030495
0.0126898
0.0126056
0.0126095
0.0126099
0.0126067
0.0125341
0.0123677
0.0122135
0.0120871
0.0121458
0.00171129
0.00170916
0.00170833
0.00170881
0.00171064
0.00171382
0.00171848
0.00172484
0.00173282
0.00174148
0.00177961
0.00177973
0.0017798
0.0017798
0.00177979
0.00177976
0.00177972
0.00177967
0.00177962
0.00177949
0.0141698
0.014223
0.014238
0.0142466
0.0142529
0.01426
0.0142668
0.0142687
0.014254
0.0141959
0.027836
0.0278455
0.0278544
0.0278567
0.0278585
0.0278609
0.0278646
0.0278687
0.0278701
0.0278658
0.0293733
0.0293489
0.0293397
0.0293459
0.0293692
0.0294093
0.0294651
0.0295333
0.0296031
0.0296558
0.029658
0.0296219
0.0296138
0.029622
0.0296565
0.0297164
0.029803
0.0299163
0.0300422
0.030147
0.0297963
0.0297364
0.0297156
0.0297316
0.029789
0.029892
0.0300474
0.0302649
0.0305286
0.0307763
0.0298694
0.0297819
0.029758
0.0297767
0.0298545
0.0299946
0.0302081
0.0305223
0.0309163
0.0312924
0.0278426
0.0277678
0.0277469
0.0277637
0.0278139
0.0278947
0.0280107
0.0282227
0.0285513
0.0289687
0.0129944
0.0129199
0.0129282
0.0129257
0.0129108
0.0128215
0.0126623
0.0125001
0.0123345
0.012333
0.00169186
0.00169008
0.00168939
0.00168979
0.0016913
0.00169388
0.0016976
0.00170245
0.00170815
0.00171391
0.00175764
0.00175776
0.00175783
0.00175782
0.00175781
0.00175778
0.00175774
0.0017577
0.00175765
0.00175753
0.0146082
0.0146653
0.0146834
0.0146903
0.0146953
0.0147003
0.0147046
0.0147038
0.014686
0.0146238
0.0278887
0.0278995
0.0279077
0.0279099
0.0279104
0.0279103
0.0279103
0.0279093
0.0279053
0.0278966
0.029228
0.0292137
0.0292081
0.0292115
0.0292248
0.0292472
0.0292774
0.0293125
0.0293464
0.0293693
0.0294222
0.0294021
0.0293976
0.029402
0.0294209
0.0294531
0.0294979
0.0295528
0.0296096
0.0296533
0.0295122
0.0294784
0.029466
0.0294748
0.029507
0.0295632
0.0296451
0.0297528
0.0298772
0.0299887
0.0295606
0.029507
0.0294924
0.0295029
0.0295487
0.0296287
0.0297465
0.0299092
0.0301021
0.0302717
0.0277707
0.0277267
0.0277158
0.0277241
0.0277465
0.0277753
0.0278181
0.0279008
0.0280357
0.0282297
0.013379
0.013311
0.0133233
0.0133186
0.0132945
0.0132008
0.0130588
0.0129097
0.0127421
0.0127409
0.00167038
0.00166897
0.00166841
0.00166873
0.00166993
0.00167195
0.0016748
0.00167837
0.00168234
0.00168611
0.001734
0.00173412
0.00173417
0.00173417
0.00173416
0.00173414
0.0017341
0.00173407
0.00173403
0.00173391
0.0151184
0.015179
0.0151985
0.0152052
0.0152094
0.0152131
0.0152156
0.0152129
0.0151929
0.0151268
0.0279981
0.0280089
0.0280161
0.0280183
0.0280187
0.0280183
0.0280175
0.0280156
0.0280108
0.0280011
0.0291633
0.0291544
0.0291508
0.0291529
0.0291608
0.029174
0.0291915
0.0292111
0.0292293
0.0292407
0.0292958
0.0292836
0.0292807
0.0292832
0.0292944
0.0293133
0.0293387
0.0293681
0.0293967
0.0294176
0.0293508
0.0293313
0.0293239
0.0293289
0.0293474
0.0293789
0.0294232
0.0294784
0.0295393
0.0295936
0.0293808
0.029347
0.029338
0.0293443
0.029372
0.0294192
0.0294865
0.0295741
0.0296718
0.0297537
0.0278106
0.0277853
0.0277807
0.0277842
0.0277908
0.0277943
0.0278027
0.0278262
0.0278714
0.0279693
0.01385
0.0137864
0.0138026
0.0137962
0.013764
0.0136784
0.0135586
0.0134325
0.0132809
0.0133027
0.00164684
0.00164576
0.00164534
0.00164558
0.00164649
0.00164801
0.00165012
0.00165267
0.00165536
0.00165779
0.00170862
0.00170873
0.00170877
0.00170877
0.00170877
0.00170875
0.00170872
0.00170869
0.00170866
0.00170855
0.0157116
0.0157761
0.0157966
0.0158033
0.0158069
0.0158095
0.0158108
0.0158067
0.0157851
0.015715
0.028138
0.0281484
0.0281547
0.0281569
0.0281573
0.0281571
0.0281565
0.0281548
0.0281502
0.0281404
0.0291402
0.0291347
0.0291324
0.0291337
0.0291384
0.0291462
0.0291565
0.0291679
0.0291785
0.0291846
0.0292324
0.0292243
0.029222
0.0292237
0.0292309
0.0292429
0.0292587
0.0292762
0.0292924
0.0293042
0.0292647
0.0292532
0.0292486
0.0292516
0.0292625
0.0292807
0.0293055
0.029335
0.0293662
0.0293951
0.0292848
0.0292627
0.0292569
0.0292611
0.0292786
0.0293078
0.029348
0.0293981
0.0294507
0.0294952
0.0279303
0.0279155
0.0279146
0.0279156
0.0279138
0.0279083
0.0279029
0.0279023
0.0279098
0.0279678
0.0144184
0.0143574
0.0143779
0.0143699
0.0143326
0.014265
0.0141692
0.0140689
0.0139401
0.0139908
0.00162123
0.00162044
0.00162013
0.00162031
0.00162097
0.00162208
0.00162359
0.00162535
0.00162713
0.00162867
0.00168141
0.00168151
0.00168154
0.00168155
0.00168154
0.00168153
0.00168151
0.00168149
0.00168146
0.00168136
0.016406
0.0164745
0.0164959
0.0165025
0.0165058
0.0165076
0.016508
0.016503
0.0164801
0.0164058
0.0282945
0.0283042
0.0283097
0.0283117
0.0283123
0.0283123
0.028312
0.0283106
0.0283066
0.028297
0.029137
0.0291337
0.0291324
0.0291331
0.0291358
0.0291403
0.0291461
0.0291527
0.029159
0.0291624
0.0292028
0.0291972
0.0291953
0.0291964
0.0292013
0.0292094
0.0292199
0.0292313
0.0292415
0.0292489
0.0292216
0.0292145
0.0292117
0.0292135
0.02922
0.0292308
0.0292451
0.0292615
0.0292784
0.029295
0.0292391
0.029224
0.0292202
0.0292232
0.0292348
0.0292537
0.029279
0.0293094
0.0293399
0.0293677
0.0281046
0.028093
0.0280943
0.0280939
0.0280897
0.0280829
0.0280741
0.0280659
0.0280598
0.0281011
0.0151138
0.0150441
0.0150666
0.0150569
0.0150279
0.0149776
0.0149052
0.0148298
0.0147247
0.014803
0.00159356
0.00159299
0.00159278
0.0015929
0.00159337
0.00159415
0.00159519
0.00159636
0.0015975
0.00159847
0.00165229
0.00165238
0.00165241
0.00165241
0.00165241
0.0016524
0.00165239
0.00165237
0.00165235
0.00165225
0.0172272
0.0173003
0.0173224
0.0173288
0.0173319
0.0173331
0.0173329
0.0173275
0.0173036
0.0172247
0.0284592
0.0284682
0.0284729
0.0284746
0.0284753
0.0284755
0.0284755
0.0284746
0.0284713
0.0284622
0.0291422
0.0291404
0.0291398
0.0291401
0.0291415
0.0291438
0.0291469
0.0291505
0.0291541
0.0291563
0.0291903
0.0291862
0.0291846
0.0291853
0.0291887
0.0291943
0.0292015
0.0292092
0.029216
0.0292211
0.0292011
0.0291966
0.0291947
0.0291958
0.0291998
0.0292064
0.0292148
0.0292243
0.0292338
0.0292438
0.0292205
0.0292098
0.0292072
0.0292095
0.0292174
0.0292302
0.0292467
0.029266
0.029285
0.0293045
0.0283108
0.0282999
0.028301
0.0283007
0.0282975
0.0282921
0.0282843
0.0282757
0.0282663
0.0283001
0.0159626
0.0158853
0.0159021
0.0158959
0.0158765
0.0158421
0.0157914
0.0157379
0.0156548
0.0157559
0.00156381
0.00156342
0.00156327
0.00156336
0.00156368
0.00156421
0.00156489
0.00156564
0.00156636
0.00156696
0.00162123
0.00162131
0.00162134
0.00162134
0.00162134
0.00162133
0.00162132
0.00162131
0.00162129
0.00162119
0.0182124
0.0182906
0.0183129
0.018319
0.0183221
0.018323
0.0183224
0.0183168
0.0182926
0.0182084
0.0286263
0.0286344
0.0286382
0.0286397
0.0286403
0.0286407
0.028641
0.0286405
0.0286381
0.0286299
0.02915
0.0291491
0.0291489
0.0291491
0.0291496
0.0291506
0.0291519
0.0291537
0.0291557
0.0291573
0.029185
0.029182
0.0291807
0.0291811
0.0291834
0.0291873
0.0291922
0.0291974
0.0292021
0.0292057
0.029191
0.029188
0.0291867
0.0291873
0.0291898
0.0291938
0.0291989
0.0292044
0.02921
0.0292164
0.0292136
0.029206
0.0292042
0.029206
0.0292115
0.0292202
0.0292311
0.0292437
0.0292559
0.0292707
0.0285298
0.0285195
0.0285202
0.0285201
0.0285184
0.0285151
0.0285098
0.0285035
0.0284949
0.0285241
0.0170031
0.0169202
0.0169311
0.0169281
0.0169173
0.0168973
0.0168663
0.0168311
0.0167676
0.0168853
0.00153201
0.00153175
0.00153165
0.00153171
0.00153192
0.00153226
0.0015327
0.00153316
0.0015336
0.00153396
0.00158829
0.00158835
0.00158838
0.00158838
0.00158838
0.00158837
0.00158836
0.00158835
0.00158833
0.00158824
0.0194158
0.0194997
0.0195221
0.0195278
0.0195303
0.0195308
0.01953
0.0195247
0.0195008
0.019411
0.0287896
0.0287966
0.0287994
0.0288004
0.028801
0.0288015
0.028802
0.028802
0.0288006
0.0287939
0.0291573
0.029157
0.029157
0.029157
0.0291572
0.0291574
0.0291577
0.0291584
0.0291594
0.0291608
0.0291817
0.0291796
0.0291785
0.0291787
0.0291802
0.0291827
0.0291859
0.0291894
0.0291927
0.0291953
0.0291845
0.0291825
0.0291816
0.0291819
0.0291834
0.0291858
0.0291888
0.0291921
0.0291954
0.0291994
0.0292089
0.0292036
0.0292023
0.0292036
0.0292073
0.0292131
0.0292202
0.0292282
0.029236
0.0292473
0.0287441
0.0287346
0.0287349
0.0287352
0.0287346
0.0287332
0.0287305
0.0287269
0.0287204
0.0287456
0.0182921
0.0182063
0.018211
0.0182108
0.0182077
0.0182007
0.0181881
0.0181679
0.0181228
0.0182486
0.00149824
0.00149808
0.00149801
0.00149805
0.00149818
0.00149839
0.00149866
0.00149894
0.0014992
0.00149941
0.00155368
0.00155374
0.00155375
0.00155376
0.00155376
0.00155375
0.00155374
0.00155373
0.00155371
0.00155363
0.0209197
0.0210091
0.0210315
0.0210366
0.0210377
0.0210378
0.021037
0.0210323
0.0210097
0.0209145
0.0289406
0.0289458
0.0289474
0.028948
0.0289484
0.028949
0.0289497
0.0289502
0.0289498
0.0289455
0.0291623
0.0291622
0.0291623
0.0291623
0.0291623
0.0291622
0.0291621
0.0291622
0.0291626
0.0291639
0.0291779
0.0291764
0.0291755
0.0291756
0.0291764
0.029178
0.02918
0.0291822
0.0291844
0.0291863
0.0291786
0.0291772
0.0291766
0.0291767
0.0291775
0.0291789
0.0291806
0.0291824
0.0291843
0.0291868
0.0291999
0.0291965
0.0291956
0.0291964
0.0291988
0.0292023
0.0292066
0.0292114
0.0292161
0.0292243
0.0289342
0.0289261
0.0289262
0.0289266
0.0289267
0.0289265
0.0289256
0.028924
0.0289198
0.0289405
0.0199133
0.0198279
0.0198253
0.0198274
0.0198314
0.0198369
0.0198423
0.0198355
0.0198102
0.0199326
0.0014627
0.00146261
0.00146256
0.00146258
0.00146266
0.00146279
0.00146295
0.00146312
0.00146328
0.00146339
0.00151761
0.00151765
0.00151765
0.00151765
0.00151765
0.00151765
0.00151765
0.00151764
0.00151763
0.00151758
0.0228572
0.0229491
0.0229689
0.022973
0.0229738
0.0229737
0.0229728
0.0229688
0.0229489
0.0228508
0.0290671
0.0290697
0.0290701
0.0290701
0.0290703
0.0290708
0.0290717
0.0290727
0.0290734
0.0290722
0.0291642
0.0291642
0.0291643
0.0291643
0.0291643
0.0291641
0.029164
0.0291639
0.029164
0.0291649
0.0291733
0.0291722
0.0291717
0.0291716
0.0291721
0.029173
0.0291741
0.0291755
0.0291769
0.0291783
0.0291728
0.0291719
0.0291715
0.0291716
0.029172
0.0291727
0.0291736
0.0291746
0.0291756
0.0291769
0.0291852
0.0291832
0.0291827
0.0291831
0.0291844
0.0291864
0.0291887
0.0291912
0.0291938
0.0291989
0.0290789
0.0290728
0.0290727
0.029073
0.0290732
0.0290733
0.0290731
0.0290727
0.0290707
0.0290862
0.0220128
0.0219344
0.0219324
0.0219341
0.0219372
0.0219414
0.0219456
0.0219485
0.0219495
0.0220526
0.00142552
0.00142546
0.00142543
0.00142544
0.00142549
0.00142557
0.00142567
0.00142577
0.00142589
0.00142595
0.00147921
0.00147921
0.00147919
0.00147919
0.00147918
0.00147919
0.0014792
0.00147921
0.00147924
0.00147926
0.0254656
0.0255461
0.0255599
0.0255627
0.0255633
0.025563
0.0255619
0.0255587
0.0255439
0.0254557
0.0291555
0.0291552
0.0291545
0.0291541
0.0291541
0.0291545
0.0291554
0.0291567
0.0291583
0.0291601
0.029164
0.029164
0.0291641
0.0291641
0.0291641
0.0291641
0.0291641
0.029164
0.029164
0.0291644
0.0291696
0.029169
0.0291686
0.0291686
0.0291689
0.0291694
0.0291701
0.0291709
0.0291717
0.0291726
0.0291691
0.0291685
0.0291683
0.0291683
0.0291686
0.0291691
0.0291696
0.0291702
0.0291708
0.0291714
0.0291712
0.0291703
0.0291699
0.0291702
0.0291709
0.029172
0.0291732
0.0291745
0.0291758
0.0291781
0.0291664
0.0291626
0.0291622
0.0291621
0.0291621
0.0291621
0.029162
0.0291621
0.0291623
0.0291721
0.0249072
0.0248484
0.0248473
0.0248485
0.0248506
0.0248533
0.0248561
0.0248579
0.0248582
0.0249351
0.00138593
0.00138588
0.00138586
0.00138587
0.00138591
0.00138597
0.00138605
0.00138613
0.00138621
0.00138625
0.00234421
0.00236508
0.00235486
0.00232094
0.00141083
0.00143385
0.00143121
0.00142636
0.00188739
0.00192948
0.00192034
0.00189565
0.00227435
0.00233252
0.00231299
0.00226675
0.00262181
0.00269297
0.00266097
0.00259649
0.00296329
0.0030456
0.00300535
0.00293186
0.00324542
0.0033359
0.00329357
0.00322026
0.0034132
0.00351003
0.00346998
0.00340134
0.003045
0.00313456
0.00309569
0.00304
0.00237484
0.00239149
0.0023566
0.00227533
0.00202755
0.00203327
0.00203438
0.00203137
0.00235363
0.00243396
0.00233394
0.00214209
0.00330817
0.00342269
0.00329223
0.00305436
0.00407172
0.00424017
0.00408153
0.00378359
0.00485354
0.00508953
0.00489499
0.00451933
0.00582845
0.00615455
0.00591307
0.00542851
0.00679485
0.00720869
0.00690714
0.00630934
0.00749293
0.00799118
0.00763307
0.00693828
0.00591738
0.00635425
0.00600138
0.00540477
0.00218167
0.00221402
0.00220715
0.00217137
0.0019332
0.00193526
0.00193541
0.00193415
0.00406631
0.00404185
0.00405223
0.00414326
0.00499139
0.00497276
0.00499288
0.00509716
0.0054961
0.00551578
0.00553564
0.00558543
0.00601096
0.00606507
0.0060684
0.00602685
0.00675396
0.00685078
0.00681121
0.00663342
0.0075121
0.00763567
0.00752216
0.00718439
0.0080506
0.00821128
0.00802407
0.00752536
0.00612457
0.0062645
0.00608855
0.00560757
0.00204802
0.00206512
0.00206321
0.00204545
0.00189446
0.00189469
0.00189481
0.00189485
0.0102406
0.00996197
0.0100979
0.0106125
0.0119477
0.0116136
0.0119165
0.0128099
0.0114406
0.0112595
0.0116317
0.0125266
0.0110901
0.011029
0.011426
0.0122563
0.011208
0.0112507
0.0116412
0.0123681
0.0114042
0.0115061
0.0118449
0.0124235
0.0113545
0.0115319
0.0118022
0.0121732
0.00801811
0.00820288
0.00832608
0.00836722
0.00195678
0.00196723
0.00196821
0.00196021
0.00187252
0.00187257
0.0018726
0.00187261
0.0144911
0.0144311
0.0144593
0.0145686
0.0238417
0.0235182
0.023706
0.0243331
0.0222458
0.0219538
0.0223065
0.0232333
0.0203812
0.0202017
0.0206816
0.0217891
0.019331
0.0193008
0.0198718
0.0210701
0.0185181
0.0185933
0.0191863
0.0203777
0.0173309
0.0175433
0.0180985
0.0191106
0.01088
0.0111154
0.0113569
0.0116702
0.00189355
0.00190003
0.0019015
0.00189809
0.00185448
0.00185446
0.00185445
0.00185444
0.0140868
0.0140132
0.0140037
0.0140586
0.0304039
0.0302972
0.0303232
0.0304703
0.0317978
0.0315591
0.0316497
0.0320267
0.0304324
0.0301453
0.0303659
0.0310245
0.0290254
0.0288077
0.0291969
0.0301264
0.0274493
0.0273219
0.0278367
0.0289648
0.024775
0.0248404
0.0253977
0.0264745
0.0131735
0.0134059
0.0135816
0.0137421
0.00184562
0.00184954
0.00185082
0.00184946
0.00183718
0.00183714
0.00183712
0.00183711
0.0137853
0.0136946
0.0136769
0.0137313
0.0299158
0.0299189
0.0299333
0.0299591
0.0336754
0.0336789
0.0337115
0.0337705
0.034825
0.0347789
0.0348401
0.0349964
0.0353464
0.0352618
0.0353983
0.0357256
0.0347084
0.0345952
0.0348275
0.0353616
0.031099
0.0311311
0.031443
0.0320078
0.0133159
0.0135933
0.0136545
0.0135467
0.00180728
0.00180967
0.00181062
0.0018101
0.00181925
0.0018192
0.00181917
0.00181916
0.0138649
0.0137678
0.0137476
0.0138032
0.0286249
0.0286182
0.0286212
0.0286341
0.0317589
0.0317852
0.0318027
0.0318117
0.0333167
0.0333622
0.0333952
0.0334168
0.0350526
0.0351259
0.0351873
0.0352386
0.0359193
0.035984
0.03607
0.036178
0.0326215
0.03278
0.0329065
0.0330046
0.0123923
0.012649
0.0126893
0.0125504
0.00177445
0.00177597
0.0017766
0.00177636
0.00180019
0.00180014
0.0018001
0.0018001
0.0141242
0.0140238
0.0140027
0.0140594
0.0280675
0.0280548
0.0280534
0.0280637
0.0303408
0.0303489
0.0303541
0.0303564
0.03128
0.0313015
0.0313144
0.0313191
0.0325576
0.0326146
0.0326461
0.0326533
0.0334934
0.0335722
0.0336158
0.0336289
0.0307736
0.0309416
0.0310099
0.0309864
0.0119572
0.012182
0.0122236
0.0121017
0.00174437
0.0017454
0.0017458
0.00174562
0.00177976
0.0017797
0.00177967
0.00177966
0.0144824
0.0143791
0.0143573
0.0144154
0.0279205
0.027907
0.0279048
0.0279141
0.0296735
0.0296746
0.0296756
0.0296765
0.0301785
0.0301838
0.0301872
0.0301886
0.0308809
0.0309039
0.0309162
0.0309181
0.031414
0.0314472
0.0314652
0.0314694
0.0290411
0.0291515
0.0291913
0.0291622
0.0120322
0.0122516
0.0122932
0.0121707
0.00171551
0.00171625
0.00171651
0.00171633
0.0017578
0.00175773
0.0017577
0.0017577
0.0149176
0.0148111
0.0147885
0.0148481
0.0279467
0.0279338
0.0279315
0.0279401
0.0293771
0.0293766
0.0293767
0.0293774
0.0296626
0.0296635
0.0296641
0.0296646
0.0300317
0.0300408
0.0300455
0.0300458
0.0302998
0.0303105
0.0303168
0.0303188
0.0281841
0.028259
0.0282835
0.0282568
0.0123974
0.0126282
0.0126709
0.012539
0.001687
0.00168758
0.00168774
0.00168755
0.0017342
0.00173412
0.00173409
0.00173409
0.0154295
0.0153193
0.0152957
0.0153572
0.0280475
0.0280353
0.028033
0.028041
0.0292451
0.0292444
0.0292443
0.0292449
0.029421
0.0294211
0.0294211
0.0294212
0.029615
0.0296193
0.0296215
0.0296214
0.0297541
0.0297579
0.0297601
0.0297609
0.0278875
0.0279465
0.027964
0.0279392
0.0129389
0.0131886
0.0132341
0.01309
0.00165829
0.00165876
0.00165887
0.00165867
0.00170885
0.00170876
0.00170873
0.00170874
0.0160283
0.0159137
0.015889
0.0159526
0.0281829
0.0281713
0.0281691
0.0281765
0.0291875
0.0291868
0.0291867
0.0291873
0.0293059
0.0293059
0.0293059
0.0293059
0.0294079
0.0294106
0.0294118
0.0294115
0.0294902
0.0294922
0.0294933
0.0294934
0.027881
0.0279318
0.0279461
0.0279232
0.0136126
0.0138852
0.0139345
0.0137769
0.00162893
0.00162934
0.0016294
0.0016292
0.00168166
0.00168157
0.00168153
0.00168155
0.0167317
0.0166117
0.0165856
0.0166517
0.0283352
0.0283244
0.0283223
0.0283289
0.0291645
0.0291639
0.0291639
0.0291644
0.02925
0.02925
0.02925
0.02925
0.0293037
0.0293055
0.0293062
0.029306
0.0293638
0.0293654
0.0293662
0.029366
0.0280199
0.0280654
0.0280777
0.0280568
0.0144105
0.014709
0.0147626
0.01459
0.00159858
0.00159894
0.00159899
0.00159879
0.00165257
0.00165247
0.00165243
0.00165245
0.0175656
0.017439
0.0174111
0.0174803
0.0284957
0.0284858
0.0284837
0.0284896
0.0291578
0.0291573
0.0291573
0.0291578
0.0292219
0.0292219
0.0292219
0.0292218
0.0292501
0.0292514
0.0292519
0.0292516
0.0293031
0.0293048
0.0293055
0.029305
0.0282291
0.0282699
0.0282807
0.0282615
0.0153472
0.0156745
0.0157328
0.0155435
0.00156699
0.00156731
0.00156734
0.00156715
0.00162153
0.00162142
0.00162138
0.00162141
0.0185672
0.0184322
0.018402
0.0184749
0.0286582
0.0286493
0.0286473
0.0286525
0.0291584
0.0291581
0.0291581
0.0291585
0.0292064
0.0292064
0.0292064
0.0292063
0.0292209
0.0292219
0.0292222
0.0292219
0.0292718
0.0292735
0.0292741
0.0292735
0.0284661
0.0285025
0.0285119
0.0284944
0.0164564
0.0168157
0.0168787
0.0166706
0.00153394
0.00153422
0.00153424
0.00153407
0.0015886
0.00158848
0.00158844
0.00158848
0.0197911
0.019645
0.0196117
0.0196893
0.0288165
0.0288087
0.0288069
0.0288114
0.0291617
0.0291615
0.0291615
0.0291618
0.0291959
0.029196
0.029196
0.029196
0.0292028
0.0292034
0.0292036
0.0292033
0.0292502
0.0292518
0.0292523
0.0292516
0.0287031
0.0287351
0.0287429
0.0287268
0.0177922
0.0181857
0.0182531
0.0180247
0.00149937
0.00149961
0.00149963
0.00149947
0.00155401
0.00155389
0.00155385
0.00155389
0.0213176
0.021156
0.0211183
0.0212023
0.0289638
0.0289578
0.0289563
0.0289597
0.0291645
0.0291645
0.0291645
0.0291646
0.0291871
0.0291872
0.0291873
0.0291873
0.0291891
0.0291895
0.0291896
0.0291894
0.0292279
0.0292294
0.0292298
0.029229
0.0289152
0.0289426
0.0289487
0.0289339
0.0194344
0.0198576
0.0199277
0.0196814
0.00146337
0.00146356
0.00146357
0.00146345
0.001518
0.00151788
0.00151784
0.00151789
0.0232721
0.0230879
0.0230444
0.0231383
0.0290873
0.0290835
0.0290825
0.0290847
0.0291653
0.0291653
0.0291653
0.0291652
0.0291791
0.0291792
0.0291793
0.0291794
0.0291782
0.0291784
0.0291785
0.0291784
0.0292021
0.0292031
0.0292034
0.0292028
0.0290777
0.0290993
0.0291034
0.0290908
0.021523
0.0219756
0.0220426
0.0217748
0.00142604
0.0014262
0.00142621
0.00142612
0.00147971
0.00147962
0.0014796
0.00147966
0.0258483
0.0256395
0.0255939
0.0257011
0.0291702
0.0291687
0.0291682
0.0291691
0.029164
0.029164
0.0291639
0.0291639
0.0291732
0.0291733
0.0291734
0.0291735
0.0291718
0.0291719
0.029172
0.0291719
0.0291796
0.02918
0.0291801
0.0291799
0.0291742
0.0291865
0.0291884
0.0291807
0.0244724
0.0248974
0.024947
0.0246873
0.00138662
0.00138675
0.00138676
0.00138666
0.00215549
0.00203894
0.00197452
0.00194197
0.00192285
0.00191047
0.00190229
0.0018971
0.00189376
0.00189148
0.00174744
0.00158315
0.00476544
0.00942407
0.0139349
0.0171229
0.0186338
0.0187851
0.0181539
0.0172139
0.00236374
0.00257406
0.0073249
0.0155534
0.0249588
0.0330808
0.0390662
0.0428695
0.044746
0.0451327
0.00276851
0.00359667
0.00828857
0.0178411
0.029169
0.0385217
0.0449967
0.0487272
0.0501647
0.0499561
0.00307707
0.00394178
0.0087161
0.0193459
0.0320856
0.0419671
0.0481517
0.0510051
0.0513209
0.0501093
0.00338879
0.00407078
0.00893773
0.0204181
0.0342686
0.0443137
0.049892
0.0516828
0.0509081
0.0488688
0.00363088
0.00408392
0.00896769
0.0211699
0.0358997
0.0457602
0.0504399
0.0510704
0.0493453
0.0468133