/*--------------------------------*- C++ -*----------------------------------*\
| =========                 |                                                 |
| \\      /  F ield         | foam-extend: Open Source CFD                    |
|  \\    /   O peration     | Version:     4.0                                |
|   \\  /    A nd           | Web:         http://www.foam-extend.org         |
|    \\/     M anipulation  |                                                 |
\*---------------------------------------------------------------------------*/
FoamFile
{
    version     2.0;
    format      ascii;
    class       volScalarField;
    location    "2200";
    object      epsilon;
}
// * * * * * * * * * * * * * * * * * * * * * * * * * * * * * * * * * * * * * //

dimensions      [0 2 -3 0 0 0 0];

internalField   nonuniform List<scalar> 
34480
(
4930.66
4928.63
4928.52
4930.02
4933.23
4938.39
4951.01
5004.67
5194.52
5725.84
655.453
602.15
601.231
653.205
838.753
1576.08
5099.58
22850.1
103711
382390
618.866
523.202
509.551
569.189
809.991
1829.16
7041.72
35119.2
172535
699241
524.883
439.471
427.433
485.136
733.86
1883.47
8219.43
44412.5
232218
1.01097e+06
456.717
384.837
377.401
433.169
684.873
1927.61
9178.06
52591.4
289183
1.33361e+06
392.537
332.857
326.624
378.497
628.408
1956.33
10121.5
61045.7
350634
1.69869e+06
353.295
302.803
298.407
346.432
591.516
1962.83
10725.8
67200
400352
2.02275e+06
321.385
282.126
277.725
317.52
534.222
1820.54
10350.5
66984.1
412653
2.16764e+06
460.066
435.984
433.375
458.785
597.113
1410.17
6841.03
43696.5
275991
1.49854e+06
5709.12
5709.35
5714.8
5726.75
5743.57
5763.65
5787.86
5823.81
5890.22
5958.88
4856.08
4853.56
4853.07
4854.56
4858.57
4865.57
4876.71
4902.83
4965.47
5186.01
512.078
479.204
473.568
487.689
532.096
648.543
1002.88
2354.58
11801.5
103650
447.089
384.014
370.314
389.72
458.515
645.794
1229.72
3567.19
21358.4
197645
399.682
338.739
325.28
344.989
416.46
620.214
1294.52
4289.63
30234.8
294759
365.901
311.168
300.631
319.842
390.798
598.949
1321.88
4812.31
38717.2
396503
326.369
278.988
269.181
286.469
352.255
554.17
1294.17
5180.54
47349
508565
302.56
260.866
252.689
267.954
328.952
521.486
1256.23
5361.2
54216.7
607813
283.124
249.977
242.302
253.922
301.579
456.666
1074.69
4828.09
54992.7
652023
432.86
410.972
405.869
413.334
443.457
531.7
848.16
2980.74
36400.3
467549
5591.65
5587.33
5587.84
5594.48
5606.16
5620.74
5640.1
5673.12
5740.78
5913.68
4770.94
4768.54
4767.79
4768.61
4771.23
4775.37
4780.19
4790.98
4815.05
4870.11
399.894
386.447
383.783
388.542
403.677
439.046
527.101
758.615
1516.88
5758.65
308.165
276.932
270.097
279.275
309.687
379.307
550.426
1030.18
2859.58
14988.7
290.296
256.472
248.799
259.376
294.536
378.458
597.251
1279.83
4409.26
28919.8
280.887
247.928
241.48
252.438
289.55
380.341
629.061
1481.38
6140.51
47809.8
261.356
231.103
224.613
235.013
270.713
361.686
625.261
1625.66
8150.88
73152.7
250.561
222.541
216.95
226.442
260.535
349.203
617.219
1724.58
10165.5
101598
243.082
220.115
214.703
222.329
249.668
322.201
549.969
1594.5
11043.4
122897
402.729
386.388
382.638
388.287
408.722
461.635
607.149
1235.59
7681.07
92097.4
5481.98
5474.88
5472.58
5476.16
5484.96
5496.95
5513.45
5544.23
5616.71
5802.12
4674.92
4673.42
4672.99
4673.62
4675.42
4677.71
4678.71
4681.52
4688.92
4705.04
328.462
324.339
323.519
324.615
328.697
339.053
365.065
421.61
541.223
940.394
219.326
206.071
203.221
207.264
220.656
248.947
309.084
445.248
772.153
2085.89
214.453
197.733
193.801
199.323
217.28
256.772
345.559
565.549
1169.56
4141.7
217.585
199.548
195.961
202.161
222.766
269.314
379.549
675.993
1611.23
7155.38
210.722
192.777
188.74
195.131
216.36
266.442
392.116
761.694
2117.72
11599.9
208.517
190.736
187.091
193.244
214.642
266.175
401.095
827.433
2633.59
17124
209.988
194.712
190.99
196.284
214.355
258.909
379.812
795.236
2860.93
21851
375.695
363.711
360.877
365.069
380.034
417.012
508.769
782.726
2181.19
16545.6
5359.99
5352.91
5350.35
5353.41
5361.68
5374.06
5391.19
5422.05
5488.86
5632.07
4569.52
4568.83
4568.69
4569.09
4570.06
4570.76
4569.45
4568.32
4568.26
4570.02
285.509
284.767
284.668
284.437
284.433
286.171
293.408
307.382
329.719
375.962
167.91
162.893
161.852
163.271
168.303
178.524
198.306
237.439
308.122
484.241
166.476
158.753
156.793
159.29
167.546
184.781
219.578
294.219
443.141
889.771
173.922
164.614
162.682
165.773
176.222
198.561
246.044
356.478
601.427
1498.01
173.621
163.429
160.938
164.484
176.219
202.449
261.471
410.928
783.89
2434.98
176.097
165.196
162.826
166.451
179.085
207.891
275.37
457.589
966.54
3640.75
183.356
173.478
170.909
174.289
185.616
212.185
276.692
463.609
1058.69
4746.64
351.364
342.764
340.581
343.469
354.013
379.268
438.194
581.563
1009.52
3814.38
5230.32
5223.39
5220.67
5223.25
5230.87
5242.95
5259.61
5288
5343.68
5446.03
4455.7
4455.64
4455.72
4455.94
4456.31
4455.97
4453.95
4451.86
4450.09
4449.02
259.798
259.878
259.96
259.441
258.449
258.051
259.948
263.301
268.033
275.307
139.447
137.801
137.532
137.917
139.532
142.775
148.677
159.188
175.184
203.05
137.541
134.161
133.237
134.284
137.835
144.903
157.842
182.37
222.508
303.006
145.049
140.518
139.568
140.996
145.965
156.019
175.329
215.182
286.341
458.041
147.364
141.844
140.392
142.256
148.415
161.445
187.872
247.29
364.054
701.809
151.784
145.384
143.937
145.964
153.091
168.455
200.816
278.317
444.175
1014.09
162.272
156.172
154.496
156.575
163.403
178.665
212.142
297.472
500.455
1320.59
329.485
323.59
321.983
323.935
331.276
348.558
387.065
467.625
640.006
1290.6
5092.36
5085.83
5083.13
5085.33
5092.25
5103.53
5119.02
5143.94
5187
5254.26
4334.19
4334.55
4334.78
4334.87
4334.85
4333.89
4332.02
4330.02
4328.2
4326.86
243.797
243.75
243.774
243.3
242.371
241.928
242.29
243.019
244.122
245.926
123.986
123.574
123.581
123.62
124.006
124.853
126.396
128.977
132.497
137.197
120.669
119.234
118.811
119.225
120.698
123.52
128.271
136.264
147.554
163.747
126.668
124.566
124.144
124.756
127.009
131.349
138.965
152.944
174.38
210.558
129.508
126.631
125.821
126.754
129.861
136.119
147.664
170.705
209.284
285.81
134.274
130.646
129.809
130.881
134.754
142.69
157.842
190.047
247.843
381.555
146.17
142.569
141.527
142.754
146.715
155.224
172.355
210.937
286.966
489.911
310.153
306.304
305.145
306.438
311.519
323.511
349.149
396.339
480.005
667.551
4945.89
4939.96
4937.42
4939.29
4945.41
4955.44
4969.2
4990.19
5022.65
5066.5
4205.49
4206.1
4206.42
4206.45
4206.2
4205.12
4203.63
4202.04
4200.6
4199.53
232.909
232.483
232.378
232.027
231.435
231.252
231.269
231.417
231.804
232.795
115.602
115.58
115.659
115.609
115.616
115.729
116
116.503
117.192
117.984
111.054
110.451
110.258
110.417
111.023
112.155
113.945
116.657
120.073
123.798
115.293
114.366
114.203
114.447
115.433
117.259
120.251
125.187
131.928
140.366
117.755
116.308
115.874
116.325
117.849
120.799
125.853
134.852
148.239
167.558
122.086
120.093
119.634
120.174
122.224
126.252
133.357
146.776
167.938
202.422
134.23
132.212
131.595
132.295
134.518
139.161
147.947
165.502
195.872
252.186
293.172
290.811
289.981
290.837
294.39
302.964
320.36
349.007
394.129
462.634
4790.75
4785.57
4783.29
4784.86
4790.1
4798.62
4810.31
4827.3
4851.17
4880.09
4069.94
4070.69
4071.06
4071.05
4070.68
4069.8
4068.7
4067.54
4066.51
4065.72
224.504
223.703
223.467
223.231
222.985
222.932
222.912
222.975
223.259
224.151
111.007
111.07
111.146
111.09
111.015
110.941
110.889
110.889
110.952
111.06
105.704
105.443
105.351
105.413
105.668
106.138
106.847
107.835
108.975
109.979
108.446
108.059
108.011
108.1
108.52
109.275
110.456
112.242
114.482
116.707
110.263
109.562
109.338
109.549
110.28
111.654
113.891
117.508
122.459
128.095
113.879
112.811
112.574
112.834
113.901
115.93
119.311
125.065
133.299
143.384
125.602
124.542
124.198
124.586
125.797
128.289
132.825
140.976
153.817
171.85
278.199
276.876
276.268
276.851
279.407
285.771
297.761
315.709
341.529
371.323
4626.91
4622.58
4620.64
4621.92
4626.26
4633.15
4642.68
4655.9
4672.98
4691.96
3927.95
3928.6
3929
3928.96
3928.61
3927.99
3927.22
3926.43
3925.73
3925.16
216.927
216.032
215.685
215.537
215.483
215.461
215.462
215.538
215.834
216.725
108.393
108.456
108.507
108.466
108.395
108.3
108.201
108.117
108.073
108.078
102.811
102.686
102.639
102.664
102.779
102.989
103.293
103.688
104.115
104.434
104.449
104.294
104.29
104.319
104.496
104.808
105.282
105.948
106.728
107.39
105.649
105.323
105.211
105.309
105.652
106.285
107.281
108.777
110.711
112.634
108.537
107.973
107.857
107.979
108.531
109.557
111.198
113.76
117.16
120.569
119.493
118.986
118.808
119.02
119.662
120.987
123.327
127.18
132.824
139.521
264.788
264.161
263.693
264.115
266.041
270.909
279.26
290.786
306.144
320.304
4454.52
4451.07
4449.49
4450.5
4453.94
4459.28
4466.73
4476.63
4488.52
4500.77
3779.62
3780.14
3780.47
3780.44
3780.21
3779.79
3779.28
3778.75
3778.29
3777.87
209.481
208.6
208.259
208.151
208.117
208.113
208.134
208.228
208.539
209.427
106.794
106.836
106.869
106.841
106.787
106.715
106.636
106.566
106.529
106.536
101.296
101.228
101.2
101.212
101.269
101.372
101.516
101.695
101.88
101.999
102.197
102.134
102.14
102.148
102.226
102.363
102.564
102.829
103.116
103.338
102.916
102.771
102.717
102.762
102.921
103.21
103.654
104.285
105.065
105.813
105.178
104.879
104.825
104.883
105.174
105.704
106.521
107.712
109.189
110.496
115.215
115.009
114.927
115.043
115.378
116.079
117.269
119.1
121.602
124.389
252.456
252.28
251.889
252.222
253.763
257.514
263.352
270.868
280.273
287.091
4273.85
4271.23
4270.02
4270.8
4273.38
4277.37
4282.97
4290.1
4298.14
4305.89
3625.1
3625.51
3625.77
3625.76
3625.62
3625.35
3625.01
3624.67
3624.37
3624.04
201.822
200.967
200.656
200.561
200.535
200.54
200.57
200.671
200.985
201.857
105.699
105.721
105.739
105.721
105.686
105.639
105.589
105.546
105.533
105.553
100.53
100.489
100.472
100.479
100.509
100.563
100.638
100.728
100.821
100.874
100.979
100.947
100.951
100.954
100.993
101.063
101.161
101.283
101.404
101.494
101.368
101.306
101.281
101.301
101.375
101.506
101.704
101.973
102.294
102.619
103.14
102.975
102.95
102.982
103.143
103.429
103.854
104.44
105.119
105.681
112.204
112.15
112.12
112.186
112.36
112.726
113.313
114.171
115.245
116.502
240.739
240.84
240.483
240.77
242.084
244.893
248.952
253.878
259.761
262.815
4085.33
4083.46
4082.59
4083.15
4084.99
4087.88
4091.92
4096.86
4102.13
4106.94
3464.59
3464.93
3465.13
3465.13
3465.04
3464.87
3464.66
3464.44
3464.25
3463.98
193.768
192.947
192.665
192.581
192.56
192.566
192.598
192.696
193.003
193.847
104.848
104.856
104.864
104.853
104.831
104.804
104.777
104.755
104.76
104.79
100.159
100.133
100.124
100.127
100.143
100.172
100.211
100.259
100.311
100.338
100.35
100.328
100.327
100.328
100.353
100.397
100.457
100.528
100.591
100.641
100.535
100.509
100.497
100.507
100.541
100.601
100.69
100.806
100.941
101.098
101.943
101.844
101.832
101.852
101.949
102.116
102.352
102.664
103.001
103.28
110.018
110.035
110.032
110.072
110.166
110.347
110.619
111.003
111.418
112.027
229.213
229.48
229.127
229.393
230.53
232.5
235.283
238.495
242.221
243.26
3889.54
3888.28
3887.71
3888.09
3889.32
3891.36
3894.16
3897.46
3900.79
3903.72
3298.38
3298.67
3298.82
3298.83
3298.78
3298.68
3298.54
3298.4
3298.28
3298.04
185.211
184.431
184.176
184.103
184.082
184.087
184.116
184.205
184.498
185.309
104.114
104.114
104.114
104.107
104.096
104.082
104.07
104.063
104.079
104.114
99.9895
99.9744
99.9704
99.9719
99.9794
99.9923
100.011
100.034
100.064
100.08
100.045
100.026
100.02
100.022
100.04
100.073
100.118
100.167
100.21
100.245
100.114
100.102
100.096
100.101
100.118
100.146
100.187
100.239
100.296
100.381
101.253
101.188
101.181
101.197
101.261
101.366
101.509
101.691
101.876
102.044
108.329
108.384
108.394
108.42
108.468
108.549
108.66
108.813
108.924
109.246
217.327
217.842
217.517
217.777
218.589
219.935
221.797
223.861
226.223
226.182
3687.22
3686.36
3686.02
3686.26
3687.09
3688.47
3690.33
3692.43
3694.44
3696.19
3126.88
3127.13
3127.24
3127.25
3127.23
3127.16
3127.08
3126.99
3126.91
3126.69
176.07
175.333
175.106
175.045
175.023
175.026
175.048
175.125
175.401
176.174
103.439
103.433
103.429
103.425
103.42
103.415
103.412
103.414
103.437
103.476
99.9214
99.9142
99.9137
99.9142
99.916
99.9192
99.9249
99.9341
99.9505
99.9613
99.9115
99.8932
99.8852
99.8868
99.9017
99.928
99.9626
100.001
100.034
100.062
99.9195
99.9129
99.9091
99.9116
99.9203
99.9351
99.955
99.9792
100.004
100.056
100.853
100.807
100.801
100.815
100.86
100.931
101.025
101.14
101.253
101.373
106.922
106.989
107.009
107.026
107.046
107.076
107.108
107.153
107.128
107.32
204.846
205.499
205.302
205.484
206.027
206.912
208.109
209.405
210.88
210.289
3479.13
3478.58
3478.36
3478.52
3479.06
3479.95
3481.12
3482.39
3483.54
3484.57
2950.62
2950.83
2950.91
2950.92
2950.91
2950.87
2950.82
2950.76
2950.7
2950.51
166.263
165.573
165.376
165.327
165.304
165.305
165.32
165.384
165.637
166.371
102.797
102.789
102.783
102.78
102.779
102.779
102.783
102.79
102.815
102.856
99.9046
99.9026
99.9041
99.9039
99.9024
99.9002
99.8985
99.8994
99.9073
99.9167
99.8649
99.8485
99.8402
99.8412
99.8526
99.873
99.8996
99.9287
99.9549
99.9786
99.845
99.8398
99.8368
99.8378
99.8429
99.8515
99.8622
99.8748
99.8866
99.9197
100.607
100.572
100.567
100.578
100.61
100.66
100.724
100.801
100.875
100.97
105.657
105.722
105.745
105.756
105.764
105.77
105.767
105.765
105.687
105.818
191.597
192.301
192.206
192.328
192.671
193.218
193.94
194.723
195.606
194.786
3266.15
3265.82
3265.69
3265.8
3266.13
3266.66
3267.35
3268.07
3268.68
3269.26
2770.32
2770.49
2770.55
2770.56
2770.56
2770.54
2770.5
2770.46
2770.42
2770.24
155.694
155.056
154.887
154.85
154.833
154.832
154.84
154.889
155.116
155.807
102.185
102.174
102.167
102.165
102.166
102.17
102.176
102.186
102.211
102.254
99.9137
99.914
99.916
99.9154
99.9126
99.9081
99.9032
99.9003
99.9033
99.913
99.8611
99.8475
99.8401
99.8404
99.8485
99.863
99.8821
99.9032
99.9231
99.9424
99.8324
99.8276
99.825
99.8253
99.8283
99.8334
99.8396
99.8464
99.8524
99.8736
100.43
100.403
100.399
100.407
100.429
100.464
100.506
100.557
100.607
100.683
104.458
104.51
104.532
104.54
104.542
104.539
104.524
104.506
104.416
104.516
177.437
178.121
178.105
178.184
178.38
178.681
179.061
179.503
179.977
179.136
3049.37
3049.19
3049.12
3049.18
3049.36
3049.66
3050.04
3050.4
3050.69
3051.01
2586.98
2587.12
2587.17
2587.18
2587.17
2587.16
2587.14
2587.11
2587.07
2586.91
144.231
143.654
143.513
143.489
143.484
143.482
143.484
143.517
143.706
144.352
101.609
101.596
101.588
101.586
101.588
101.593
101.601
101.611
101.633
101.677
99.9327
99.9326
99.934
99.9332
99.9303
99.926
99.9212
99.9177
99.9185
99.9291
99.8784
99.868
99.8624
99.8623
99.8673
99.8765
99.8888
99.9027
99.9167
99.9316
99.8521
99.8482
99.8461
99.8459
99.8474
99.8501
99.8531
99.8564
99.8592
99.8716
100.273
100.253
100.249
100.254
100.268
100.289
100.315
100.345
100.377
100.436
103.291
103.327
103.345
103.35
103.349
103.343
103.325
103.304
103.224
103.304
162.209
162.817
162.865
162.912
162.999
163.12
163.25
163.456
163.629
162.906
2830.08
2829.99
2829.95
2829.98
2830.08
2830.22
2830.4
2830.56
2830.68
2830.83
2401.73
2401.84
2401.87
2401.88
2401.88
2401.87
2401.85
2401.83
2401.8
2401.68
131.646
131.153
131.062
131.052
131.05
131.046
131.042
131.056
131.188
131.768
101.087
101.072
101.065
101.062
101.064
101.069
101.076
101.085
101.102
101.142
99.9496
99.9477
99.9479
99.9469
99.9449
99.9421
99.9391
99.9371
99.9375
99.948
99.9084
99.9015
99.8978
99.8976
99.9002
99.9053
99.9122
99.9203
99.9291
99.9393
99.89
99.8876
99.8863
99.8859
99.8862
99.887
99.8878
99.8885
99.8893
99.895
100.119
100.106
100.103
100.105
100.113
100.123
100.136
100.151
100.168
100.208
102.169
102.188
102.198
102.2
102.196
102.187
102.17
102.151
102.097
102.156
145.452
145.928
145.963
145.999
146.059
146.139
146.22
146.28
146.212
145.693
2609.71
2609.66
2609.65
2609.66
2609.69
2609.74
2609.79
2609.84
2609.87
2609.94
2215.03
2215.09
2215.1
2215.1
2215.1
2215.1
2215.09
2215.09
2215.09
2215.03
117.389
117.051
117.021
117.025
117.027
117.022
117.012
117.005
117.05
117.478
100.625
100.609
100.602
100.598
100.599
100.602
100.608
100.617
100.631
100.662
99.9659
99.9636
99.963
99.9623
99.9614
99.9603
99.9592
99.9586
99.9594
99.9664
99.9507
99.9469
99.9451
99.9449
99.9462
99.9485
99.9518
99.9557
99.9602
99.9658
99.9406
99.9395
99.9389
99.9386
99.9385
99.9383
99.938
99.9376
99.9373
99.9386
100.009
100.004
100.002
100.003
100.006
100.01
100.014
100.019
100.026
100.045
101.125
101.127
101.129
101.127
101.122
101.113
101.1
101.087
101.069
101.111
125.762
126.044
126.062
126.083
126.115
126.158
126.2
126.224
126.174
125.834
2388.98
2388.96
2388.97
2388.97
2388.97
2388.97
2388.97
2388.97
2388.95
2388.99
7183.98
7294.28
7250.54
7044.08
658917
683863
689426
697307
1.49737e+06
1.58407e+06
1.59159e+06
1.57169e+06
2.52522e+06
2.70351e+06
2.70097e+06
2.61946e+06
3.7609e+06
4.05601e+06
4.02968e+06
3.86812e+06
5.30798e+06
5.7513e+06
5.69976e+06
5.4869e+06
6.86849e+06
7.46745e+06
7.40365e+06
7.20694e+06
7.88294e+06
8.61087e+06
8.55619e+06
8.42816e+06
5.61982e+06
6.17928e+06
6.11521e+06
6.0814e+06
7903.65
8151.4
7989.04
7569.8
5749.33
5802.12
5804.64
5765.51
308554
324673
345346
377325
689319
780859
824920
861803
1.17796e+06
1.40287e+06
1.46608e+06
1.49201e+06
1.76355e+06
2.17756e+06
2.25147e+06
2.26495e+06
2.45883e+06
3.11243e+06
3.21167e+06
3.24758e+06
3.13175e+06
4.04028e+06
4.20107e+06
4.31991e+06
3.57332e+06
4.70406e+06
4.94535e+06
5.18025e+06
2.80681e+06
3.81862e+06
4.00722e+06
4.32039e+06
7126.37
7357.97
7287.01
7066.65
4937.9
4948.85
4948
4938.28
21661.3
25960.5
24597.2
19966.5
61569.9
73409.5
68678.3
55730.8
128748
152838
140886
114031
228359
270532
246266
199437
372376
441927
401377
326402
545325
648534
591603
485402
702803
839396
769571
636846
584460
696872
629358
524658
6344.35
6431.66
6409.34
6314.01
4716
4718.12
4718.68
4717.87
1594.32
1711.3
1679.87
1544.99
4698.16
5172.41
5012.56
4434.57
11230.5
12504.9
11926.2
10213.5
22554.5
25253.4
23699.2
19745.8
41691.1
46922.5
43527.4
35536.6
68294.9
76984.8
70795.9
57129
97160.3
109913
100444
80429.5
83358.5
93765.9
84199.6
67266.4
5904.02
5945.72
5942.83
5904.91
4568
4568.91
4569.12
4568.58
423.284
436.212
438.464
431.551
710.109
757.043
761.553
731.368
1595.02
1736.8
1729.28
1610.27
3203.58
3529.25
3458.46
3118.6
6140.05
6823.27
6583
5758.16
10498.2
11693.6
11109.1
9472.6
15692.1
17555.6
16463.7
13724.6
13860.4
15397.3
14113.9
11586.4
5578.72
5600.75
5602.23
5586.62
4444.95
4445.7
4445.78
4445.15
275.586
278.457
279.169
277.91
226.358
231.456
233.283
232.244
385.58
403.069
407.306
400.538
674.044
717.849
722.1
696.109
1215.15
1316.46
1312.63
1233.5
2023.63
2211.43
2175.74
1991.39
3046.97
3360.48
3261.94
2904.54
2929
3183.33
3023.45
2664.16
5318.17
5328.96
5331.09
5325.53
4322.61
4323.33
4323.39
4322.76
241.775
243.68
244.08
243.022
140.135
140.888
141.241
141.227
175.865
178.564
179.692
179.437
243.199
250.226
252.461
250.761
368.971
386.595
390.323
383.182
549.225
582.687
585.329
565.81
795.528
854.993
852.149
807.139
984.694
1029.74
1010.27
962.505
5095.78
5100.66
5102.51
5101.26
4195.5
4196.2
4196.25
4195.65
228.095
229.812
230.151
229.141
118.189
118.327
118.381
118.358
125.852
126.302
126.527
126.554
146.029
147.259
147.803
147.782
183.406
186.918
188.185
187.624
233.789
240.344
242.1
240.312
314.617
327.191
329.131
323.573
543.036
548.701
546.186
542.495
4893.67
4895.67
4896.96
4897.15
4061.95
4062.61
4062.67
4062.11
219.491
221.145
221.473
220.498
110.888
110.945
110.954
110.915
110.347
110.42
110.457
110.466
117.765
117.976
118.086
118.119
131.711
132.523
132.876
132.843
149.879
151.237
151.778
151.737
187.361
190.303
191.149
190.489
400.188
397.214
396.468
399.126
4698.46
4699.15
4699.92
4700.4
3921.66
3922.27
3922.32
3921.8
212.196
213.794
214.115
213.177
107.868
107.917
107.921
107.881
104.484
104.491
104.494
104.494
107.574
107.596
107.611
107.623
113.656
113.878
113.978
113.97
121.961
122.213
122.353
122.43
144.58
145.285
145.548
145.486
335.333
330.252
329.473
332.888
4503.81
4503.91
4504.34
4504.79
3774.64
3775.19
3775.24
3774.77
205.055
206.595
206.907
206.007
106.338
106.386
106.391
106.353
101.988
101.986
101.984
101.983
103.358
103.35
103.347
103.35
106.199
106.278
106.31
106.297
110.766
110.779
110.805
110.858
126.729
126.861
126.914
126.908
297.594
292.084
291.179
294.494
4307.11
4306.97
4307.2
4307.54
3621.09
3621.59
3621.62
3621.2
197.657
199.136
199.437
198.575
105.37
105.417
105.423
105.388
100.853
100.851
100.85
100.849
101.489
101.481
101.476
101.476
102.817
102.857
102.87
102.856
105.715
105.686
105.684
105.714
117.998
117.976
117.958
117.946
271.43
265.977
265.024
268.138
4107.12
4106.94
4107.05
4107.27
3461.3
3461.74
3461.77
3461.39
189.834
191.247
191.537
190.716
104.624
104.668
104.674
104.641
100.318
100.317
100.316
100.316
100.637
100.632
100.629
100.628
101.224
101.249
101.256
101.245
103.289
103.261
103.254
103.27
113.192
113.133
113.093
113.071
250.822
245.575
244.629
247.552
3903.26
3903.14
3903.19
3903.29
3295.66
3296.03
3296.04
3295.72
181.495
182.842
183.12
182.341
103.966
104.007
104.013
103.983
100.064
100.064
100.064
100.064
100.245
100.243
100.241
100.239
100.469
100.488
100.492
100.482
102.072
102.055
102.049
102.055
110.241
110.18
110.135
110.104
232.988
227.999
227.089
229.834
3695.34
3695.31
3695.33
3695.34
3124.61
3124.91
3124.92
3124.64
172.573
173.852
174.119
173.385
103.349
103.387
103.392
103.365
99.9513
99.9524
99.9525
99.9516
100.065
100.064
100.063
100.061
100.119
100.133
100.135
100.127
101.425
101.42
101.416
101.415
108.201
108.151
108.107
108.067
216.464
211.762
210.906
213.477
3483.46
3483.55
3483.55
3483.47
2948.76
2948.99
2948.97
2948.75
163
164.211
164.468
163.78
102.757
102.792
102.798
102.772
99.9134
99.9155
99.9158
99.9143
99.9828
99.9829
99.9822
99.981
99.9646
99.9738
99.9751
99.9685
101.04
101.044
101.042
101.036
106.605
106.574
106.534
106.484
200.396
196.014
195.226
197.616
3268
3268.19
3268.2
3268.04
2768.85
2769.01
2768.98
2768.8
152.691
153.837
154.086
153.445
102.191
102.224
102.229
102.205
99.9168
99.92
99.9204
99.918
99.9477
99.9483
99.948
99.9472
99.9035
99.9096
99.91
99.905
100.762
100.771
100.771
100.761
105.208
105.199
105.166
105.106
184.226
180.219
179.516
181.702
3049.65
3049.93
3049.94
3049.73
2585.93
2586
2585.96
2585.83
141.543
142.634
142.878
142.282
101.648
101.68
101.685
101.662
99.9388
99.9429
99.9433
99.9402
99.9375
99.9386
99.9387
99.9382
99.889
99.8924
99.8924
99.8891
100.511
100.524
100.525
100.514
103.876
103.891
103.866
103.8
167.525
164.011
163.417
165.337
2829.47
2829.79
2829.81
2829.58
2401.16
2401.14
2401.08
2401.02
129.373
130.425
130.665
130.103
101.141
101.169
101.172
101.151
99.9599
99.9642
99.9646
99.9613
99.9449
99.9461
99.9465
99.9463
99.9026
99.904
99.9038
99.9024
100.268
100.28
100.281
100.272
102.554
102.58
102.565
102.506
149.616
146.671
146.229
147.866
2608.74
2609.11
2609.12
2608.88
2215.02
2214.86
2214.81
2214.85
115.752
116.733
116.939
116.406
100.666
100.683
100.684
100.67
99.9739
99.9766
99.9768
99.9747
99.9698
99.9707
99.9712
99.9713
99.9404
99.9405
99.9404
99.9402
100.077
100.084
100.085
100.08
101.287
101.295
101.288
101.264
128.331
126.31
126.074
127.231
2388.2
2388.59
2388.6
2388.34
6105.84
5442.91
5173.15
5077.02
5022.21
4983.68
4958.08
4943.7
4935.72
4930.98
798389
193282
33403.4
11732.4
5300.81
2836.4
1749.4
1212.58
928.348
765.15
1.42405e+06
247044
44253.6
15129.3
6776.54
3637.53
2200.63
1460.55
1048.35
803.092
1.99545e+06
239530
46767.8
15018.1
6483.3
3391.26
2000.63
1297.58
912.992
688.645
2.45862e+06
252609
48934.5
14561.1
6098.38
3102.32
1792.12
1144.5
795.549
596.754
2.93037e+06
276397
51142.9
13974.8
5638.68
2768.67
1561.6
981.247
677.428
508.316
3.3126e+06
294972
52002.1
13162.5
5158.77
2467.92
1375.82
861.577
595.659
450.431
3.39659e+06
287390
47701.8
11002.3
4164.29
1946.77
1093.06
700.34
502.964
394.82
2.34168e+06
182156
27372.2
5711.39
2275.27
1237.94
858.045
671.637
568.207
506.596
6016.18
5992.95
5847.18
5822.77
5779.37
5755.07
5735.8
5725.55
5718.63
5712.68
5443.29
5175.2
5045.27
4972.69
4927.14
4897.13
4877.68
4866.13
4859.91
4855.98
180237
44894.9
13613.5
5322.8
2635.51
1567.24
1065.15
802.51
656.275
572.313
375672
86408.4
23467.1
8290.88
3889.13
2187.85
1383.93
956.258
710.839
565.793
595026
126243
30701.1
9651.57
4228.09
2261.62
1372.65
915.899
661.637
515.534
830491
165010
36427.1
10417.5
4317.62
2219.99
1310.41
857.667
610.434
472.037
1.10979e+06
207209
41753
10864
4247.19
2091.48
1198.78
768.923
542.109
418.502
1.3889e+06
244451
45355.6
10850.7
4055.84
1939.28
1095.72
699.613
493.25
382.967
1.56428e+06
258683
43998.6
9553.31
3395.83
1585.34
900.75
587.811
429.952
345.83
1.18226e+06
178731
26853.4
5249.88
1966.85
1091.43
771.681
615.226
526.619
476.303
6252.83
5952.89
5792.77
5733.94
5683.07
5652.3
5630.01
5616.4
5606.83
5598.53
4904
4869.17
4841.7
4818.89
4801.07
4788.16
4779.55
4774.39
4771.52
4769.47
9199.58
4175.85
2298.87
1432.79
985.421
735.881
591.235
504.98
452.264
420.45
23997.7
9564.62
4650.2
2546.87
1542.09
1010.27
712.709
538.376
431.143
364.782
45437.2
15961.7
6937.99
3411.12
1898.34
1159.06
771.559
555.718
428.558
352.764
73592.6
22902.1
9011.64
4056.06
2119.72
1232.37
791.823
556.679
421.561
343.301
112047
31041.1
11040.5
4548.36
2235.28
1237.04
767.205
526.304
393.531
319.003
156044
38868.7
12577.3
4795.05
2251.77
1206.02
734.785
500.603
373.484
303.549
191502
42870.9
12521.2
4385.58
1974.92
1036.74
636.278
443.071
341.777
286.191
141664
27755.7
7304.39
2547.38
1307.86
842.966
642.731
536.59
473.016
436.306
6018.32
5835.84
5711.22
5637.37
5584.27
5551.15
5528.13
5512.46
5500.87
5490.91
4712.98
4704.61
4695.44
4687.2
4680.95
4676.69
4674.04
4672.68
4672.35
4671.97
1208.05
906.5
708.879
570.483
479.269
420.782
383.201
358.489
341.804
331.529
3028.75
1919.51
1270.4
860.771
612.402
460.966
367.195
307.629
268.185
242.318
6220.92
3481.18
2057.51
1252.18
812.896
564.719
420.266
333.154
278.351
243.997
10746.9
5351.16
2878.27
1610.54
978.851
644.295
460.278
354.616
289.93
250.468
17346.2
7666.64
3761.46
1939.09
1105.23
689.176
472.663
353.789
284.449
243.63
25221.8
9947.62
4496.83
2165.89
1178.88
709.704
476.413
352.877
281.944
240.953
32103.5
11242.2
4659.27
2095.16
1100.68
652.779
441.614
333.008
272.803
238.108
23544
7367.15
2961.79
1443.41
906.148
663.6
542.637
472.685
427.925
401.461
5789.06
5660.53
5561.78
5497.89
5453.8
5424.92
5404.2
5389.34
5378.14
5368.66
4567.56
4566.34
4565.09
4564.13
4563.55
4563.3
4563.33
4563.7
4564.61
4565.46
412.73
382.969
356.673
334.889
318.461
306.417
297.568
290.939
285.86
282.611
637.766
512.553
411.731
334.52
279.765
241.966
216.083
198.182
185.244
176.188
1287.28
926.083
666.272
486.302
369.855
294.976
246.646
214.947
193.474
179.274
2276.12
1481.72
973.392
652.89
462.867
348.846
279.645
236.712
208.355
189.984
3814.27
2240.96
1346.89
830.643
548.857
390.263
299.442
245.703
212.125
191.245
5703.62
3044.3
1696.29
978.317
614.788
420.824
314.961
254.784
217.685
194.946
7460.47
3599.78
1861.17
1012.34
616.765
417.072
313.395
255.929
221.791
201.024
5662.25
2637
1436.16
904.144
665.895
539.392
466.871
421.221
389.982
371.111
5535.67
5459.62
5394.35
5347.95
5314.04
5289.78
5271.52
5257.82
5247.24
5238.43
4444.77
4444.89
4445.19
4445.66
4446.26
4446.9
4447.55
4448.36
4449.57
4451
277.887
274.89
271.418
267.993
264.975
262.416
260.262
258.415
256.792
255.487
225.926
210.879
194.964
180.654
169.148
160.38
153.855
148.968
145.04
142.079
373.137
321.831
273.239
233.345
203.64
182.285
167.104
156.247
148.283
142.757
613.193
488.033
382.07
302.91
248.82
212.621
188.489
172.252
160.539
152.459
1013.13
737.739
529.278
386.596
296.646
240.223
204.684
181.853
166.428
156.309
1522.11
1022.68
681.293
465.935
339.921
265.2
220.361
192.773
174.285
162.242
2045.48
1266.97
790.189
514.293
364.934
280.922
232.641
203.529
184.884
172.961
1814.36
1182.35
824.904
628.735
519.814
452.699
409.133
379.527
357.944
344.663
5303.33
5261.68
5221.85
5189.96
5164.53
5144.79
5129.22
5117.07
5107.46
5099.58
4322.5
4322.77
4323.22
4323.83
4324.52
4325.2
4325.86
4326.62
4327.76
4329.21
244.176
244.015
243.668
243.198
242.684
242.15
241.602
241.017
240.376
239.618
140.671
138.604
136.042
133.466
131.203
129.35
127.885
126.702
125.587
124.656
176.557
168.271
158.709
149.715
142.178
136.163
131.446
127.755
124.827
122.73
241.578
220.115
197.592
178.253
163.324
152.234
144.106
138.163
133.437
129.975
355.625
303.663
254.572
215.796
187.999
168.572
155.053
145.575
138.637
133.884
503.849
404.34
318.112
255.349
213.452
185.773
167.409
155.12
146.114
139.902
681.121
513.39
382.528
294.839
240.144
205.646
183.591
169.093
159.113
152.473
826.658
675.194
559.132
481.202
428.735
391.956
365.452
346.2
331.337
322.031
5091.77
5069.9
5046.1
5024.51
5005.81
4990.28
4977.47
4967.12
4958.74
4951.97
4195.41
4195.62
4195.95
4196.41
4196.93
4197.43
4197.9
4198.46
4199.39
4200.65
230.442
230.67
230.774
230.787
230.728
230.604
230.41
230.125
229.722
229.085
118.339
118.071
117.707
117.306
116.937
116.635
116.405
116.209
115.927
115.639
126.158
124.612
122.561
120.39
118.366
116.583
115.051
113.752
112.653
111.859
146.603
142.548
137.535
132.672
128.478
125.038
122.288
120.124
118.22
116.743
183.562
172.776
160.743
149.913
141.153
134.338
129.116
125.145
122.025
119.834
231.573
210.501
188.326
169.881
155.901
145.595
138.05
132.59
128.226
125.061
302.86
263.975
227.245
198.86
178.536
164.16
153.999
146.78
141.495
137.891
515.489
472.595
430.217
396.144
369.334
348.459
332.075
319.476
309.24
302.749
4892.53
4880.77
4866.39
4851.93
4838.51
4826.71
4816.58
4808.12
4801.1
4795.51
4061.87
4062.01
4062.22
4062.52
4062.86
4063.18
4063.45
4063.8
4064.5
4065.55
221.791
222.057
222.206
222.276
222.282
222.225
222.094
221.865
221.5
220.867
110.951
110.94
110.928
110.914
110.911
110.929
110.97
111.006
110.953
110.857
110.388
110.046
109.543
108.952
108.349
107.773
107.24
106.756
106.328
106.023
117.935
117.078
115.871
114.565
113.325
112.221
111.278
110.493
109.72
109.081
132.023
129.423
126.186
122.906
119.953
117.43
115.337
113.635
112.222
111.226
150.423
145.529
139.433
133.686
128.788
124.801
121.628
119.18