/*--------------------------------*- C++ -*----------------------------------*\
| =========                 |                                                 |
| \\      /  F ield         | foam-extend: Open Source CFD                    |
|  \\    /   O peration     | Version:     4.0                                |
|   \\  /    A nd           | Web:         http://www.foam-extend.org         |
|    \\/     M anipulation  |                                                 |
\*---------------------------------------------------------------------------*/
FoamFile
{
    version     2.0;
    format      ascii;
    class       volScalarField;
    location    "2200";
    object      k;
}
// * * * * * * * * * * * * * * * * * * * * * * * * * * * * * * * * * * * * * //

dimensions      [0 2 -2 0 0 0 0];

internalField   nonuniform List<scalar> 
34480
(
8.7672
8.7648
8.76467
8.76645
8.77025
8.77637
8.79132
8.85471
9.07726
9.68614
9.28002
8.6683
8.5756
8.85524
9.45434
10.3412
11.9398
15.8521
28.738
67.0248
15.0403
13.5709
13.1248
13.2731
13.8435
14.8764
17.2099
22.9055
41.6359
101.407
14.4919
12.9644
12.5143
12.7085
13.419
14.8335
18.0056
25.4065
49.2501
127.781
13.4288
12.013
11.6621
11.9291
12.7806
14.4907
18.2602
26.9563
55.2701
151.575
12.2199
10.9464
10.6341
10.9159
11.8076
13.7011
17.9426
27.9028
61.0605
176.656
11.3269
10.2067
9.9522
10.2272
11.1224
13.0881
17.59
28.4203
65.5182
198.014
9.83994
9.00371
8.79891
9.01467
9.72726
11.3975
15.4918
26.1251
64.5443
205.594
6.88249
6.61395
6.56531
6.67535
7.00479
7.72941
9.73003
16.2737
43.4118
149.669
9.23848
9.23872
9.2446
9.25749
9.27561
9.29721
9.32322
9.36179
9.43282
9.50599
8.67857
8.67557
8.67499
8.67676
8.68154
8.68988
8.70313
8.73418
8.80842
9.06735
7.93008
7.51019
7.41686
7.57457
8.02158
8.86395
10.3054
12.1079
15.4277
41.174
12.2357
11.173
10.8807
11.084
11.7626
13.0237
15.2215
18.1225
23.7879
66.4136
12.1397
10.9715
10.6527
10.8959
11.701
13.2515
16.0322
20.0145
28.3904
86.1796
11.599
10.4652
10.1984
10.4745
11.3673
13.1087
16.2974
21.0756
31.842
104.294
10.8054
9.75514
9.49979
9.77365
10.672
12.4989
15.9685
21.4562
34.8376
123.7
10.215
9.26289
9.04575
9.29938
10.1729
12.0013
15.6084
21.5524
37.1093
140.952
9.0543
8.33246
8.14835
8.33994
9.01773
10.5154
13.6626
19.2853
35.7044
147.363
6.64492
6.39759
6.34341
6.41759
6.68232
7.26734
8.61424
11.5619
22.4917
102.418
9.11131
9.10662
9.10718
9.11439
9.12707
9.14288
9.16387
9.1996
9.2726
9.45786
8.57684
8.57396
8.57306
8.57404
8.57719
8.58214
8.58792
8.60084
8.62962
8.69528
6.78274
6.57113
6.51708
6.59299
6.82441
7.2714
8.06593
9.3599
11.1354
16.437
9.69168
9.07157
8.91825
9.08584
9.60552
10.5605
12.1755
14.57
17.5473
29.1793
9.8893
9.15134
8.966
9.1799
9.83931
11.0951
13.2875
16.6421
21.1139
40.7612
9.75985
9.00471
8.84193
9.07869
9.81722
11.2609
13.8641
17.9408
23.778
52.2521
9.33119
8.60382
8.43635
8.67429
9.4287
10.9746
13.8892
18.6191
26.0239
64.9003
9.01615
8.33181
8.18563
8.40827
9.14983
10.718
13.8029
18.9566
27.7477
76.9241
8.19538
7.66709
7.53786
7.70828
8.28335
9.56587
12.2716
17.1627
26.652
82.8775
6.37364
6.18142
6.1416
6.20256
6.41351
6.87627
7.9252
10.3686
16.6987
57.1061
8.99178
8.98402
8.9815
8.98542
8.99504
9.00814
9.02617
9.05973
9.13852
9.33853
8.46137
8.45955
8.45904
8.45981
8.46197
8.46473
8.46594
8.46933
8.47826
8.49767
6.00871
5.9179
5.89081
5.92164
6.02187
6.21447
6.55118
7.1326
7.99611
9.88112
7.80892
7.49627
7.42341
7.51884
7.82032
8.38316
9.3342
10.8211
12.6578
17.0739
8.12498
7.70756
7.60383
7.74131
8.16745
8.98976
10.4234
12.7268
15.5983
23.5541
8.24762
7.78904
7.69221
7.85004
8.3483
9.33589
11.1227
14.0848
17.8846
30.1248
8.08404
7.61566
7.50606
7.67304
8.20265
9.30183
11.3879
14.9955
19.8641
37.6351
7.976
7.51174
7.4123
7.57383
8.11083
9.25651
11.523
15.5773
21.3677
44.9589
7.44539
7.07513
6.9831
7.11157
7.5355
8.48157
10.4801
14.3821
20.6524
48.7677
6.13167
5.98471
5.95482
6.0008
6.15821
6.49621
7.22489
8.98549
12.9806
33.0373
8.85789
8.85008
8.84726
8.85064
8.85975
8.87338
8.89223
8.92613
8.99931
9.15517
8.3337
8.33287
8.3327
8.33318
8.33436
8.33522
8.33362
8.33225
8.33217
8.33432
5.53768
5.50324
5.49015
5.50003
5.53621
5.60496
5.72022
5.91167
6.17871
6.62121
6.56618
6.4285
6.39772
6.43799
6.57436
6.83265
7.27165
7.98216
8.87914
10.3568
6.8722
6.65556
6.59896
6.66971
6.89694
7.33957
8.11426
9.40828
11.0453
14.0196
7.1022
6.84249
6.78616
6.87347
7.15898
7.72713
8.7594
10.56
12.8858
17.7758
7.09742
6.81084
6.73914
6.83965
7.16347
7.83594
9.1157
11.4645
14.6136
22.2336
7.12093
6.81817
6.75009
6.85205
7.19697
7.92896
9.37355
12.1315
15.9825
26.6473
6.8135
6.56191
6.49583
6.58192
6.86403
7.48534
8.77865
11.4748
15.6917
29.0128
5.91847
5.8076
5.78486
5.81668
5.92769
6.16001
6.63036
7.74144
10.1054
19.2391
8.71444
8.70674
8.70372
8.70659
8.71505
8.72847
8.74695
8.77839
8.83991
8.95243
8.19474
8.19467
8.19476
8.19504
8.19549
8.19507
8.1926
8.19003
8.18786
8.18654
5.27038
5.25899
5.25265
5.25491
5.26621
5.28804
5.3235
5.37808
5.44752
5.53735
5.80951
5.75809
5.74839
5.7618
5.81281
5.90965
6.07219
6.33477
6.67425
7.13898
6.0431
5.93943
5.91066
5.94314
6.05136
6.25984
6.61654
7.21174
7.98784
9.1067
6.2824
6.14577
6.11594
6.15958
6.30784
6.59759
7.11215
8.02118
9.23788
11.2029
6.35116
6.18561
6.14142
6.19763
6.38066
6.75316
7.4445
8.74055
10.5396
13.8037
6.44221
6.25427
6.21051
6.27066
6.47799
6.90729
7.72916
9.34068
11.6533
16.3937
6.29326
6.13038
6.08558
6.14055
6.31833
6.69929
7.46021
9.07712
11.6574
17.7684
5.73297
5.65183
5.6356
5.65694
5.7332
5.88848
6.18405
6.83626
8.10062
11.8448
8.56053
8.5532
8.55018
8.55265
8.5604
8.57304
8.59037
8.61823
8.66626
8.74102
8.04506
8.04551
8.04579
8.04592
8.04589
8.0447
8.04239
8.03991
8.03765
8.036
5.12663
5.12323
5.11977
5.11971
5.1226
5.12899
5.13909
5.15345
5.1696
5.18567
5.37599
5.36106
5.3602
5.36307
5.37808
5.40727
5.45626
5.53392
5.63285
5.75056
5.52661
5.47971
5.46578
5.47955
5.52765
5.61841
5.76712
6.00383
6.30875
6.68037
5.72725
5.65985
5.64557
5.66555
5.73725
5.87337
6.10456
6.4991
7.03137
7.75013
5.81511
5.72407
5.69819
5.72778
5.82552
6.01865
6.36068
6.98395
7.86722
9.1869
5.92902
5.81728
5.79069
5.82401
5.94252
6.18009
6.61223
7.43973
8.65429
10.6616
5.88361
5.78316
5.75433
5.78773
5.89437
6.11625
6.53642
7.40184
8.80321
11.4703
5.57816
5.5202
5.50923
5.52297
5.57401
5.67526
5.85875
6.23089
6.8904
8.32512
8.39558
8.38886
8.38598
8.3881
8.39503
8.40638
8.42193
8.44564
8.48222
8.53151
7.88501
7.88577
7.88617
7.8862
7.8859
7.88455
7.88268
7.88069
7.8789
7.87756
5.05201
5.05079
5.04854
5.04802
5.04865
5.05068
5.05364
5.05745
5.06101
5.06341
5.13791
5.13626
5.13831
5.1379
5.14016
5.14561
5.15605
5.17357
5.19604
5.22004
5.21965
5.19902
5.19241
5.19802
5.2188
5.25721
5.31724
5.40616
5.51475
5.6268
5.36813
5.33683
5.33084
5.33929
5.37224
5.43293
5.53113
5.68809
5.89269
6.12696
5.44711
5.39927
5.38484
5.39972
5.44981
5.5459
5.70758
5.98378
6.36783
6.85607
5.55777
5.49384
5.47861
5.49607
5.56131
5.68798
5.90598
6.29795
6.8648
7.64805
5.57429
5.5156
5.4981
5.51751
5.57858
5.70237
5.92568
6.35731
7.04565
8.13528
5.45384
5.41326
5.40628
5.41487
5.44846
5.51346
5.62687
5.8378
6.18542
6.75851
8.21908
8.21315
8.21055
8.21234
8.21834
8.22808
8.24144
8.26083
8.28804
8.32095
7.71465
7.71561
7.71608
7.71605
7.71559
7.71447
7.71308
7.71162
7.71032
7.70932
5.01366
5.01276
5.01109
5.01066
5.01095
5.01194
5.01318
5.01456
5.01551
5.01565
5.01147
5.01364
5.01612
5.01511
5.01378
5.01246
5.01197
5.01304
5.01554
5.01857
5.04478
5.03557
5.03236
5.03463
5.04373
5.06027
5.08503
5.11907
5.15789
5.19174
5.14543
5.13168
5.12963
5.13292
5.14753
5.17377
5.21454
5.27518
5.34996
5.42253
5.20534
5.18125
5.17353
5.18075
5.20565
5.2522
5.32731
5.44637
5.60502
5.7783
5.30065
5.26522
5.25698
5.26569
5.30068
5.36672
5.47514
5.65554
5.90509
6.19338
5.35057
5.31838
5.30845
5.31928
5.35261
5.41882
5.53422
5.74205
6.06224
6.49179
5.35791
5.32982
5.32568
5.33098
5.35297
5.39454
5.46463
5.58463
5.76939
6.02088
8.0306
8.0256
8.02334
8.02483
8.02985
8.03783
8.04884
8.06411
8.08383
8.1057
7.53416
7.535
7.53551
7.53546
7.535
7.53421
7.53323
7.53221
7.53132
7.53059
4.99323
4.9924
4.9911
4.99083
4.99117
4.99193
4.99284
4.99376
4.99433
4.99423
4.94618
4.94881
4.9509
4.95008
4.9483
4.94588
4.94334
4.94114
4.93966
4.93898
4.9493
4.94485
4.94316
4.94415
4.94837
4.95595
4.96688
4.98093
4.99593
5.00714
5.01297
5.00714
5.00668
5.00787
5.01428
5.0256
5.0426
5.06625
5.09364
5.11683
5.05338
5.04171
5.03774
5.04117
5.05328
5.07545
5.11012
5.16147
5.2269
5.29109
5.13024
5.11099
5.10675
5.11097
5.1295
5.16366
5.21767
5.30113
5.41037
5.51825
5.1957
5.17944
5.17429
5.18013
5.19736
5.23113
5.28883
5.38657
5.53152
5.70577
5.28671
5.26731
5.26507
5.2684
5.28295
5.3098
5.35337
5.42233
5.52055
5.64045
7.82987
7.82583
7.82397
7.82516
7.82919
7.83545
7.84418
7.85576
7.86967
7.88398
7.34328
7.34395
7.34437
7.34433
7.34403
7.3435
7.34283
7.34215
7.34155
7.341
4.98135
4.98064
4.97968
4.97953
4.97987
4.98055
4.98136
4.98216
4.98272
4.98262
4.91317
4.91534
4.9169
4.91638
4.915
4.91303
4.91084
4.90875
4.90721
4.90635
4.89945
4.89702
4.89605
4.89653
4.89868
4.90248
4.9078
4.91429
4.92088
4.92515
4.93749
4.93494
4.93494
4.93536
4.9383
4.94344
4.95093
4.96068
4.97118
4.97929
4.96219
4.95672
4.95473
4.95636
4.96218
4.97265
4.98863
5.011
5.03836
5.06424
5.02227
5.01177
5.00967
5.01174
5.02166
5.03954
5.06689
5.10651
5.15534
5.19847
5.09317
5.08592
5.08362
5.08668
5.09502
5.11122
5.13866
5.18313
5.24649
5.32167
5.23576
5.22224
5.22118
5.22341
5.23334
5.2511
5.27854
5.31884
5.37094
5.4318
7.6167
7.61359
7.61215
7.61307
7.61615
7.62088
7.62753
7.63599
7.64553
7.65472
7.14174
7.14229
7.14263
7.14261
7.14242
7.14207
7.14163
7.14118
7.14079
7.14036
4.97347
4.97292
4.97227
4.97219
4.9725
4.97307
4.97377
4.97446
4.97501
4.97486
4.89667
4.89829
4.89939
4.89912
4.89822
4.89692
4.89547
4.89408
4.89314
4.89263
4.87472
4.87324
4.87266
4.87292
4.8741
4.87615
4.87897
4.88231
4.88565
4.88753
4.89637
4.89505
4.89506
4.89524
4.89677
4.89945
4.90321
4.90781
4.91235
4.91573
4.91008
4.90758
4.90658
4.90738
4.91018
4.91515
4.92254
4.93243
4.94408
4.95557
4.9569
4.95096
4.94992
4.95105
4.95658
4.96632
4.98069
5.00041
5.02319
5.04215
5.02816
5.02567
5.02497
5.02656
5.03021
5.03731
5.04927
5.06827
5.09393
5.1288
5.20039
5.19078
5.19043
5.19209
5.19918
5.21132
5.22899
5.25311
5.28071
5.31356
7.39105
7.38879
7.38774
7.38842
7.39063
7.39411
7.39899
7.40494
7.41129
7.41709
6.92934
6.9298
6.93007
6.93007
6.92995
6.92973
6.92944
6.92915
6.92889
6.92853
4.96746
4.96711
4.96671
4.96668
4.96693
4.96738
4.96793
4.96849
4.96899
4.96874
4.88843
4.8896
4.89036
4.89026
4.88973
4.88898
4.88814
4.88737
4.88696
4.88674
4.86323
4.86231
4.86198
4.86213
4.86277
4.86389
4.86541
4.86721
4.86908
4.87002
4.87504
4.87414
4.87403
4.87414
4.87511
4.87679
4.87908
4.88173
4.88416
4.88599
4.88185
4.88069
4.88018
4.88058
4.88197
4.88437
4.88784
4.8923
4.89739
4.90306
4.91902
4.91541
4.91486
4.91559
4.91891
4.92459
4.93264
4.94319
4.95461
4.96418
4.98843
4.98821
4.98835
4.98917
4.99053
4.99313
4.99747
5.00457
5.01309
5.03086
5.17625
5.16925
5.16929
5.17068
5.17601
5.1846
5.19635
5.21126
5.22582
5.24496
7.15296
7.15142
7.15072
7.15119
7.15269
7.1552
7.15863
7.16267
7.16675
7.17034
6.70592
6.70631
6.70652
6.70653
6.70646
6.70632
6.70614
6.70595
6.70578
6.70546
4.96236
4.96222
4.96203
4.96204
4.96223
4.96254
4.96294
4.96335
4.96382
4.96346
4.88423
4.8851
4.88561
4.8856
4.88534
4.88496
4.88457
4.88422
4.88419
4.88417
4.85845
4.85792
4.85777
4.85784
4.85816
4.8587
4.85946
4.86039
4.86147
4.862
4.8646
4.86385
4.86363
4.86372
4.86442
4.86566
4.86729
4.86911
4.87071
4.87198
4.86744
4.86686
4.86658
4.86679
4.8675
4.86871
4.8704
4.87249
4.87478
4.8779
4.89784
4.89544
4.8951
4.89566
4.89784
4.90144
4.90632
4.91248
4.91882
4.92461
4.96448
4.96519
4.96573
4.96618
4.96649
4.96704
4.96787
4.96965
4.97065
4.98098
5.15955
5.15442
5.15468
5.15595
5.16007
5.16641
5.17454
5.18411
5.19165
5.20394
6.90271
6.90165
6.90122
6.90152
6.90256
6.90428
6.9066
6.90922
6.91173
6.91391
6.47141
6.47175
6.4719
6.47192
6.47188
6.4718
6.47168
6.47156
6.47144
6.47115
4.95775
4.95784
4.9578
4.95785
4.95798
4.95817
4.95843
4.95872
4.95918
4.95871
4.88199
4.88265
4.88297
4.88301
4.88292
4.88279
4.88269
4.88262
4.88284
4.88298
4.85696
4.85671
4.85667
4.8567
4.85681
4.85699
4.85727
4.85768
4.85828
4.85863
4.85989
4.85922
4.85894
4.85901
4.85956
4.86051
4.86176
4.86312
4.86432
4.86531
4.86061
4.86027
4.86009
4.8602
4.8606
4.86125
4.86212
4.86316
4.86424
4.86613
4.88612
4.88439
4.88414
4.88461
4.88614
4.88858
4.89177
4.89568
4.89957
4.90373
4.94944
4.95038
4.95107
4.95134
4.95125
4.951
4.95044
4.95008
4.94803
4.95503
5.14741
5.14362
5.14403
5.14522
5.14851
5.15338
5.15923
5.16564
5.1693
5.17804
6.6405
6.63981
6.63953
6.63973
6.64042
6.64155
6.64304
6.64465
6.64612
6.64742
6.22587
6.22616
6.22627
6.22629
6.22628
6.22622
6.22615
6.22607
6.22598
6.22571
4.95347
4.95378
4.95385
4.95394
4.95402
4.95412
4.95425
4.95443
4.95492
4.95441
4.88063
4.88113
4.88131
4.88136
4.88137
4.8814
4.88148
4.8816
4.88199
4.88229
4.85703
4.85695
4.85699
4.85699
4.85697
4.85694
4.85694
4.85704
4.85735
4.85764
4.85805
4.85748
4.85719
4.85723
4.85764
4.85836
4.8593
4.86032
4.86124
4.86205
4.85775
4.85749
4.85736
4.85742
4.85765
4.85803
4.85851
4.85907
4.85962
4.86082
4.87924
4.87794
4.87773
4.8781
4.87921
4.88092
4.88309
4.8857
4.88826
4.89156
4.93853
4.93935
4.94005
4.94025
4.94008
4.93964
4.93871
4.93771
4.93472
4.9401
5.13761
5.13483
5.13532
5.13645
5.13914
5.143
5.14738
5.15183
5.15326
5.16002
6.36666
6.36624
6.36607
6.3662
6.36663
6.36732
6.36822
6.36915
6.36994
6.37071
5.96959
5.96984
5.96992
5.96994
5.96994
5.9699
5.96985
5.96979
5.96973
5.96947
4.94939
4.9499
4.95004
4.95018
4.95023
4.95025
4.95028
4.95036
4.95092
4.95047
4.87957
4.8799
4.87996
4.87999
4.88005
4.88018
4.88036
4.88059
4.88107
4.88157
4.85776
4.85776
4.85782
4.8578
4.85772
4.8576
4.85748
4.85742
4.85756
4.85786
4.85756
4.8571
4.85685
4.85687
4.85715
4.85765
4.85831
4.85904
4.85973
4.86037
4.85687
4.85666
4.85656
4.85657
4.85671
4.85693
4.85721
4.85752
4.85781
4.85858
4.87435
4.87336
4.87318
4.87345
4.87422
4.87539
4.87685
4.87856
4.88028
4.88294
4.92851
4.92907
4.92969
4.92986
4.92974
4.92935
4.92849
4.9275
4.92454
4.92896
5.12818
5.12621
5.12671
5.12777
5.13
5.1331
5.13646
5.13961
5.1397
5.14513
6.08174
6.08149
6.0814
6.08148
6.08173
6.08212
6.08262
6.08311
6.08349
6.08391
5.70321
5.70342
5.70349
5.7035
5.7035
5.70348
5.70344
5.7034
5.70334
5.70311
4.94522
4.94586
4.94608
4.94626
4.9463
4.94626
4.9462
4.94618
4.94677
4.94657
4.8784
4.87852
4.87849
4.87849
4.87857
4.87873
4.87896
4.87924
4.87972
4.88043
4.85859
4.85858
4.85862
4.8586
4.85851
4.85838
4.85824
4.85815
4.8582
4.85854
4.85769
4.85734
4.85715
4.85715
4.85732
4.85764
4.85806
4.85853
4.85901
4.8595
4.85697
4.85682
4.85674
4.85673
4.8568
4.85691
4.85705
4.8572
4.85734
4.85779
4.8697
4.86899
4.86884
4.869
4.86948
4.8702
4.87108
4.87211
4.87321
4.87525
4.91724
4.91752
4.918
4.91814
4.91805
4.91774
4.91707
4.91626
4.9138
4.91737
5.11635
5.11507
5.11553
5.1165
5.1183
5.12074
5.12329
5.12543
5.12471
5.12894
5.78656
5.78643
5.78638
5.78642
5.78655
5.78674
5.787
5.78721
5.78737
5.78758
5.42759
5.42776
5.4278
5.42781
5.42781
5.4278
5.42778
5.42775
5.4277
5.42751
4.93954
4.94018
4.94056
4.94079
4.94084
4.94076
4.94058
4.94043
4.94079
4.94109
4.87679
4.87667
4.87656
4.87652
4.87658
4.87673
4.87695
4.87724
4.87765
4.8785
4.8591
4.85904
4.85905
4.85901
4.85895
4.85886
4.85877
4.85871
4.85874
4.85908
4.85815
4.85791
4.85779
4.85778
4.85787
4.85804
4.85828
4.85855
4.85885
4.85918
4.8576
4.85751
4.85746
4.85745
4.85747
4.8575
4.85754
4.85758
4.85763
4.85783
4.86473
4.86428
4.86417
4.86424
4.86448
4.86484
4.86528
4.86578
4.86638
4.86774
4.90353
4.90357
4.90385
4.90391
4.90378
4.90347
4.90293
4.90229
4.90068
4.9033
5.09507
5.09436
5.09475
5.09555
5.09689
5.09866
5.10045
5.10171
5.10055
5.10336
5.48212
5.48206
5.48205
5.48206
5.4821
5.48216
5.48224
5.4823
5.48235
5.48245
5.14253
5.14263
5.14264
5.14265
5.14264
5.14264
5.14264
5.14263
5.14263
5.14254
4.92471
4.92528
4.9259
4.92622
4.92631
4.92619
4.9259
4.92549
4.92509
4.92572
4.87368
4.87333
4.87313
4.87303
4.87305
4.87316
4.87336
4.87364
4.87404
4.87487
4.85937
4.8593
4.85928
4.85925
4.85922
4.85919
4.85915
4.85914
4.85916
4.85939
4.85895
4.85883
4.85877
4.85876
4.8588
4.85888
4.85899
4.85912
4.85927
4.85945
4.85863
4.85859
4.85857
4.85856
4.85856
4.85855
4.85855
4.85853
4.85853
4.85857
4.86083
4.86064
4.86059
4.86061
4.8607
4.86083
4.86098
4.86115
4.86139
4.86202
4.88685
4.88668
4.88674
4.88669
4.88651
4.8862
4.88578
4.88536
4.88479
4.88649
5.04092
5.04063
5.04088
5.04138
5.04217
5.04321
5.04423
5.04479
5.04378
5.04483
5.16848
5.16845
5.16846
5.16846
5.16846
5.16847
5.16846
5.16846
5.16843
5.16849
11.269
11.3841
11.3385
11.1222
82.8104
84.8876
85.3473
85.9965
143.136
148.61
149.08
147.835
202.798
212.235
212.102
207.813
264.48
278.14
276.935
269.483
332.775
351.055
348.954
340.211
395.159
417.81
415.427
408.036
433.168
459.44
457.493
452.918
345.684
368.261
365.712
364.362
11.4769
11.7155
11.5594
11.1514
9.71377
9.77314
9.77597
9.73198
76.0782
79.3217
80.081
80.2021
133.884
144.804
145.905
143.74
192.904
214.532
215.067
209.171
256.137
290.979
290.032
280.082
329.508
380.27
378.496
365.621
399.599
466.619
465.652
452.623
446.087
527.575
528.617
517.427
350.524
422.884
420.975
416.14
10.7115
10.9424
10.8719
10.6516
8.77683
8.7898
8.78879
8.77728
26.5383
28.955
28.2177
25.7086
49.3569
53.7628
52.0986
47.425
74.5821
81.3412
78.2217
70.7065
103.455
112.995
107.816
96.7347
139.441
152.803
145.176
129.284
177.309
194.673
184.514
163.492
207.529
228.705
216.445
190.909
164.729
181.622
170.14
149.303
9.91282
10.0036
9.9804
9.88119
8.51188
8.51443
8.5151
8.51413
11.473
11.7226
11.693
11.4959
21.2127
21.9399
21.8764
21.3343
31.997
33.4836
33.2317
31.9161
44.5101
46.9434
46.2792
43.7574
60.6334
64.4018
63.0821
58.7661
78.0549
83.1677
80.901
74.4573
92.5751
99.1256
95.8389
87.147
71.9349
77.0752
73.5635
65.9622
9.44868
9.49312
9.49004
9.44963
8.33285
8.33395
8.33421
8.33356
7.04188
7.13341
7.15861
7.12876
11.6779
11.9741
12.0571
11.9711
16.871
17.4855
17.5859
17.3193
22.8364
23.8563
23.8921
23.2883
30.7127
32.3377
32.2251
31.0364
39.2228
41.4576
41.04
39.0608
46.2612
49.1974
48.3805
45.4005
34.4009
36.6196
35.4294
32.5494
9.09834
9.12228
9.12389
9.10693
8.18253
8.18345
8.18355
8.18278
5.6067
5.62097
5.62619
5.62446
7.45586
7.52578
7.55849
7.55986
9.93736
10.1211
10.1883
10.1632
12.8335
13.1793
13.2656
13.1651
16.796
17.4125
17.5024
17.2347
21.0456
21.9424
21.9658
21.4367
24.4782
25.7302
25.6288
24.6925
17.4808
18.3749
18.0205
17.0168
8.8128
8.82471
8.82707
8.82093
8.03169
8.03259
8.03265
8.03187
5.19693
5.20011
5.20099
5.2
5.82311
5.83892
5.84756
5.84976
6.91425
6.96714
6.99231
6.9934
8.25891
8.37116
8.4155
8.40579
10.2336
10.4612
10.5312
10.4824
12.3586
12.7064
12.7767
12.6576
14.0531
14.5728
14.6195
14.3553
10.2218
10.5581
10.4796
10.1884
8.56538
8.57085
8.57292
8.57152
7.87346
7.87433
7.8744
7.87364
5.06322
5.06438
5.06439
5.06345
5.23313
5.2355
5.23694
5.23759
5.68404
5.69641
5.70295
5.70433
6.26558
6.29594
6.31049
6.31202
7.1941
7.26972
7.30039
7.29468
8.21564
8.33664
8.37651
8.35784
9.06874
9.26928
9.31388
9.24847
7.33894
7.4517
7.44565
7.37955
8.33737
8.33965
8.34111
8.34132
7.70547
7.70631
7.70638
7.70567
5.01329
5.01422
5.01416
5.01323
5.02033
5.02044
5.0205
5.02054
5.20442
5.20676
5.20804
5.20841
5.45536
5.46198
5.46558
5.46669
5.88059
5.90359
5.91416
5.91402
6.35903
6.39488
6.41021
6.41049
6.80643
6.87776
6.90028
6.8856
6.19853
6.23248
6.23682
6.2263
8.11414
8.11494
8.11583
8.11639
7.52701
7.52779
7.52786
7.5272
4.99134
4.99219
4.99214
4.99126
4.93893
4.93883
4.93873
4.93864
5.0096
5.00983
5.00995
5.01001
5.12349
5.12439
5.12497
5.12536
5.3234
5.33043
5.33375
5.33368
5.55979
5.56826
5.57289
5.57495
5.8141
5.83899
5.84807
5.84382
5.69867
5.70624
5.70891
5.70968
7.88847
7.88858
7.88909
7.88961
7.33769
7.33842
7.33847
7.33787
4.97959
4.98037
4.98032
4.97948
4.90613
4.9061
4.90602
4.9059
4.92538
4.92528
4.92522
4.92523
4.9803
4.98016
4.98011
4.98019
5.07669
5.07927
5.08038
5.08007
5.20668
5.20778
5.20886
5.21023
5.36633
5.37606
5.37939
5.37669
5.45417
5.45324
5.45382
5.45611
7.65708
7.65692
7.65718
7.65759
7.13733
7.13798
7.13803
7.13748
4.97183
4.97253
4.97246
4.97167
4.89242
4.89243
4.89237
4.89225
4.8873
4.88718
4.88713
4.88715
4.91575
4.91554
4.91542
4.9154
4.96187
4.96315
4.96361
4.96326
5.04268
5.04222
5.04231
5.04306
5.15356
5.15842
5.15958
5.15699
5.32497
5.32166
5.32117
5.3231
7.41818
7.41797
7.4181
7.41837
6.92579
6.92637
6.9264
6.92591
4.9658
4.9664
4.9663
4.96555
4.88654
4.88656
4.88651
4.88638
4.86973
4.86964
4.86961
4.86964
4.88596
4.88583
4.88574
4.8857
4.907
4.90781
4.90805
4.90774
4.96377
4.96323
4.96313
4.96349
5.04879
5.05201
5.05236
5.04978
5.25297
5.24943
5.24852
5.24982
7.17064
7.17048
7.17054
7.17068
6.70303
6.70352
6.70355
6.70311
4.96066
4.96114
4.96102
4.96031
4.88397
4.884
4.88395
4.88382
4.86175
4.8617
4.86169
4.86171
4.87203
4.87197
4.87191
4.87187
4.88064
4.88121
4.88136
4.8811
4.92485
4.92457
4.92447
4.92459
4.99617
4.9988
4.99885
4.99627
5.21091
5.20787
5.20689
5.20754
6.91368
6.91364
6.91367
6.91367
6.46905
6.46946
6.46947
6.46908
4.95611
4.95647
4.95631
4.95566
4.88285
4.88289
4.88284
4.8827
4.85849
4.85848
4.85848
4.85849
4.86542
4.8654
4.86536
4.86532
4.8681
4.86851
4.8686
4.86838
4.90485
4.90484
4.90479
4.90472
4.96894
4.97136
4.97128
4.96868
5.18478
5.18252
5.18161
5.18162
6.64681
6.64692
6.64693
6.64682
6.22399
6.22431
6.2243
6.22397
4.95205
4.95231
4.95212
4.95151
4.88233
4.88241
4.88236
4.88221
4.85766
4.85768
4.85768
4.85767
4.86219
4.8622
4.86218
4.86214
4.86223
4.86252
4.86257
4.86238
4.89337
4.89359
4.89359
4.89338
4.95328
4.9557
4.95558
4.95289
5.16681
5.16547
5.1647
5.16408
6.36982
6.37007
6.37008
6.36987
5.96819
5.96841
5.96837
5.96811
4.94847
4.94864
4.94844
4.94788
4.88193
4.88208
4.88205
4.88185
4.85805
4.85812
4.85813
4.85808
4.86054
4.86056
4.86056
4.86053
4.85952
4.85971
4.85973
4.85959
4.88513
4.88551
4.88554
4.88524
4.94148
4.94401
4.94389
4.9411
5.15204
5.15172
5.15116
5.1499
6.08284
6.08321
6.08322
6.08294
5.70235
5.70246
5.70239
5.7022
4.94521
4.94538
4.9452
4.94467
4.88123
4.88148
4.88147
4.8812
4.85888
4.85898
4.85899
4.85892
4.85969
4.85972
4.85973
4.85971
4.85835
4.85846
4.85846
4.85837
4.87746
4.8779
4.87795
4.87763
4.92867
4.93133
4.93126
4.92843
5.13574
5.13663
5.13635
5.1344
5.78641
5.78685
5.78687
5.78656
5.42738
5.42735
5.42726
5.42716
4.94101
4.94139
4.94128
4.94066
4.8796
4.87994
4.87994
4.8796
4.85947
4.85959
4.8596
4.85952
4.85936
4.8594
4.85941
4.85941
4.85808
4.85813
4.85813
4.85808
4.86956
4.86996
4.87002
4.86974
4.91187
4.91428
4.91426
4.91178
5.10927
5.11167
5.11174
5.10893
5.48142
5.48193
5.48196
5.48162
5.14313
5.14289
5.1428
5.14287
4.92733
4.92822
4.9282
4.92724
4.87564
4.87587
4.87584
4.87558
4.85963
4.8597
4.85971
4.85965
4.85958
4.85961
4.85963
4.85963
4.85863
4.85864
4.85863
4.85863
4.86301
4.86323
4.86327
4.86314
4.89063
4.89179
4.89177
4.89055
5.04766
5.05119
5.05151
5.04807
5.16797
5.16853
5.16854
5.16817
10.1126
9.36667
9.05458
8.94205
8.87757
8.83212
8.80184
8.78482
8.77536
8.76974
103.674
49.118
35.7477
29.9537
24.5568
19.9494
16.3634
13.6896
11.7817
10.4196
160.951
70.8597
51.0932
43.7431
37.192
31.4262
26.5936
22.7129
19.6693
17.2947
206.424
82.5927
55.9821
46.7286
39.3627
32.7673
27.2294
22.8359
19.4444
16.8566
242.062
88.9513
58.8263
47.9659
40.078
32.7369
26.6774
21.955
18.3684
15.723
278.036
94.6909
60.9746
48.3028
39.8459
31.7875
25.3529
20.4652
16.8824
14.3312
307.095
98.1593
61.691
47.7814
39.0461
30.5198
23.9436
19.0743
15.5948
13.2107
315.21
93.7531
56.6286
42.228
33.9175
25.7869
19.9242
15.797
13.0461
11.2293
224.475
56.1346
30.5435
21.1162
16.2834
12.2241
9.95516
8.61309
7.80414
7.27999
9.56918
9.54453
9.38913
9.36298
9.3164
9.29027
9.26951
9.25847
9.25101
9.24459
9.36711
9.05696
8.90473
8.81913
8.76519
8.72957
8.70643
8.69268
8.68528
8.68059
53.1032
28.671
22.5568
19.4497
16.669
14.1981
12.1634
10.6008
9.4611
8.66895
89.9987
46.2746
35.8008
31.0213
27.1818
23.5096
20.2912
17.6322
15.5042
13.8852
122.265
58.6119
42.865
35.6347
30.551
25.7673
21.6968
18.4236
15.8736
13.987
152.563
68.7676
47.8566
38.5208
32.3852
26.6789
21.978
18.2987
15.4862
13.476
186.437
78.8756
52.1453
40.4761
33.2585
26.6701
21.4546
17.4963
14.5918
12.5917
217.206
86.475
54.7137
41.2504
33.3537
26.1779
20.6983
16.6612
13.7711
11.8536
233.198
86.7506
51.9183
37.4845
29.5784
22.5776
17.5744
14.0836
11.7636
10.2832
167.409
54.7561
29.0625
19.3796
14.6948
11.2265
9.27458
8.12955
7.43363
7.00279
9.81851
9.50196
9.33079
9.26751
9.21261
9.17933
9.15518
9.14043
9.13003
9.12102
8.73772
8.6963
8.66356
8.63634
8.61503
8.59957
8.58926
8.58308
8.57965
8.57719
19.9485
16.5767
14.503
12.6847
11.115
9.81201
8.79772
8.04883
7.51008
7.13748
35.9208
28.7125
24.9256
21.6898
18.9142
16.5061
14.511
12.9067
11.6313
10.6695
51.0377
37.9364
31.5411
26.3507
22.2598
18.8403
16.0971
13.9479
12.2885
11.0747
66.1286
45.6925
36.6302
29.594
24.3796
20.1259
16.8139
14.2908
12.3794
11.0262
83.2261
53.344
41.1443
32.0846
25.7356
20.6618
16.8424
14.0204
11.9744
10.5809
99.1245
59.1908
44.1506
33.4584
26.3365
20.7055
16.5978
13.6545
11.5707
10.1995
108.42
59.7583
42.5998
31.0006
23.7645
18.218
14.4246
11.8569
10.1704
9.09762
75.9442
36.6493
23.8684
16.2728
12.2256
9.68239
8.28971
7.47149
6.9627
6.64331
9.57146
9.37698
9.24302
9.16316
9.10553
9.06949
9.0444
9.0273
9.01465
9.00376
8.50932
8.49925
8.4882
8.47826
8.47072
8.46559
8.46239
8.46075
8.46035
8.45989
10.9416
10.1336
9.28442
8.44
7.73283
7.19013
6.79133
6.50331
6.29476
6.14969
19.868
18.0288
16.1769
14.304
12.6883
11.3601
10.2987
9.46297
8.80374
8.3092
28.478
24.6334
21.1905
17.9887
15.4008
13.3287
11.7052
10.4523
9.49379
8.79861
37.2434
30.6669
25.4313
20.8637
17.3676
14.6402
12.5635
11.0096
9.84194
9.01765
47.4702
36.9711
29.5246
23.36
18.8649
15.44
12.9155
11.0864
9.77453
8.8837
57.0691
42.0768
32.5531
25.0134
19.7597
15.8315
13.0269
11.0614
9.68099
8.76944
62.7989
43.2649
32.0888
23.7124
18.2354
14.3064
11.6798
9.94106
8.80282
8.06979
42.7458
26.204
17.9724
12.7915
10.0235
8.39133
7.47312
6.91841
6.55963
6.329
9.3268
9.18824
9.08107
9.01138
8.96314
8.93147
8.90872
8.89238
8.88005
8.86962
8.33338
8.33189
8.33037
8.3292
8.32849
8.3282
8.32822
8.32868
8.32979
8.33082
6.99882
6.75864
6.50567
6.26727
6.06895
5.91255
5.7922
5.70056
5.63122
5.58325
11.6112
10.9253
10.1514
9.37383
8.68708
8.11482
7.65563
7.29406
7.0056
6.78768
16.4401
14.9574
13.3756
11.8596
10.5721
9.5218
8.69363
8.05545
7.56718
7.21439
21.5364
18.9347
16.3582
14.0119
12.1132
10.6149
9.47273
8.62385
7.98369
7.52922
27.7678
23.4441
19.5086
16.0871
13.4438
11.422
9.93342
8.86354
8.09581
7.57186
33.7357
27.3828
22.0657
17.6421
14.3794
11.9551
10.2305
9.03393
8.18817
7.6215
37.3942
28.7908
22.2623
17.1543
13.6362
11.1586
9.50875
8.42155
7.70021
7.22518
24.5286
17.3346
12.8093
9.95713
8.36364
7.40492
6.83003
6.46705
6.22053
6.05876
9.05263
8.96953
8.89789
8.8468
8.80935
8.78253
8.76231
8.74711
8.73537
8.72559
8.18335
8.1835
8.18386
8.18444
8.18517
8.18596
8.18676
8.18775
8.18923
8.191
5.60802
5.5648
5.51344
5.46126
5.41407
5.37361
5.34011
5.31316
5.29259
5.27963
7.50458
7.31352
7.06511
6.80574
6.57053
6.37237
6.2123
6.08449
5.97788
5.89493
9.97772
9.47191
8.85066
8.22743
7.67867
7.22435
6.86239
6.58004
6.36012
6.2004
12.7361
11.7742
10.6615
9.59962
8.70701
7.99567
7.45058
7.04311
6.72816
6.50025
16.3273
14.6097
12.7533
11.0609
9.69836
8.64824
7.87074
7.30846
6.89765
6.61336
19.8648
17.2465
14.5834
12.2678
10.4873
9.16068
8.21199
7.55019
7.06996
6.74004
22.1185
18.4202
14.9977
12.2241
10.2382
8.84208
7.90161
7.27199
6.84166
6.55064
14.3941
11.5383
9.42789
8.05195
7.2159
6.68
6.33283
6.10285
5.9385
5.8292
8.79752
8.7514
8.70717
8.67169
8.64334
8.6213
8.6039
8.5903
8.57955
8.57072
8.03258
8.03291
8.03347
8.03422
8.03507
8.03592
8.03673
8.03767
8.03908
8.04088
5.19671
5.18854
5.17888
5.16822
5.15758
5.14756
5.13864
5.13125
5.1262
5.12431
5.83876
5.79281
5.73042
5.66329
5.60093
5.54741
5.50341
5.46699
5.43317
5.40499
6.95006
6.79203
6.58424
6.36811
6.17125
6.0032
5.86455
5.75211
5.66105
5.59421
8.2979
7.96322
7.54437
7.13201
6.77524
6.4849
6.25689
6.08153
5.93871
5.83186
10.2207
9.55373
8.76941
8.03159
7.41932
6.93867
6.57425
6.303
6.09727
5.95217
12.1904
11.1261
9.92508
8.84931
7.99553
7.34972
6.87718
6.53875
6.28125
6.09837
13.5196
11.9506
10.3398
8.99915
8.00461
7.29199
6.79593
6.45177
6.20677
6.03687
9.42625
8.38629
7.5073
6.88476
6.46191
6.16836
5.96314
5.82085
5.71384
5.64231
8.56197
8.53743
8.51069
8.4864
8.46533
8.44781
8.43335
8.42166
8.41218
8.40452
7.87435
7.8746
7.87502
7.8756
7.87624
7.87687
7.87746
7.87815
7.87932
7.8809
5.06296
5.06119
5.05922
5.05687
5.05425
5.05149
5.0489
5.04684
5.0461
5.04701
5.23564
5.22718
5.21544
5.2023
5.1899
5.1794
5.17108
5.16394
5.155
5.14626
5.69443
5.65146
5.59145
5.52542
5.4618
5.40435
5.35416
5.31112
5.27464
5.24777
6.28733
6.1874
6.05371
5.91586
5.79087
5.68443
5.5969
5.52649
5.46472
5.41645
7.22115
6.98848
6.69975
6.41671
6.17133
5.97027
5.81046
5.68576
5.58661
5.51566
8.22908
7.83669
7.36134
6.91975
6.55428
6.26682
6.04675
5.88216
5.74899
5.65089
8.9851
8.369
7.69619
7.11396
6.66032
6.32044
6.07147
5.89052
5.75609
5.66118
7.18611
6.82355
6.46918
6.18826
5.97537
5.81564
5.69604
5.60964
5.54128
5.49574
8.33713
8.32377
8.30741
8.29095
8.27565
8.26219
8.25063
8.24097
8.23293
8.22655
7.70635
7.70652
7.7068
7.70718
7.7076
7.708
7.70835
7.70879
7.70967
7.71101
5.01329
5.01254
5.0118
5.01097
5.00997
5.00886
5.00782
5.00712
5.00735
5.00861
5.02003
5.01896
5.01783
5.01665
5.01586
5.01579
5.01647
5.01713
5.01561
5.01308
5.20583
5.19452
5.17768
5.15773
5.13714
5.1173
5.09887
5.08213
5.06737
5.05659
5.4613
5.43457
5.39596
5.35329
5.31201
5.27474
5.24249
5.21529
5.18908
5.16743
5.89254
5.81797
5.72102
5.61961
5.52587
5.44425
5.37554
5.31909
5.27215
5.23844
6.38044
6.25266
6.08404
5.9175
5.77047
5.64772
5.54825
5.47019
5.40263
5.35088
6.80414
6.5812
6.32447
6.08761
5.89036
5.73347
5.61195
5.51944
5.44804
5.39727
6.17812
6.04684
5.90092
5.77168
5.664
5.57728
5.50822
5.45651
5.41341
5.38506
8.11413
8.10661
8.09655
8.08557