/*--------------------------------*- C++ -*----------------------------------*\
| =========                 |                                                 |
| \\      /  F ield         | foam-extend: Open Source CFD                    |
|  \\    /   O peration     | Version:     4.0                                |
|   \\  /    A nd           | Web:         http://www.foam-extend.org         |
|    \\/     M anipulation  |                                                 |
\*---------------------------------------------------------------------------*/
FoamFile
{
    version     2.0;
    format      ascii;
    class       volScalarField;
    location    "2200";
    object      MaU;
}
// * * * * * * * * * * * * * * * * * * * * * * * * * * * * * * * * * * * * * //

dimensions      [0 0 0 0 0 0 0];

internalField   nonuniform List<scalar> 
34480
(
0.623806
0.624803
0.625338
0.625451
0.625144
0.624345
0.622912
0.620165
0.614069
0.608272
0.627229
0.628055
0.628516
0.628547
0.627988
0.626693
0.624688
0.621723
0.614703
0.609148
0.629417
0.630175
0.630548
0.630454
0.629718
0.62837
0.626594
0.624299
0.617261
0.612141
0.629413
0.630192
0.630634
0.630672
0.63016
0.629215
0.627939
0.626358
0.619709
0.615062
0.629876
0.63076
0.631341
0.631598
0.631409
0.630942
0.630213
0.629402
0.623538
0.619376
0.629474
0.630415
0.631081
0.631468
0.631517
0.631455
0.631261
0.631273
0.626591
0.623249
0.629679
0.630763
0.631537
0.632064
0.632323
0.632602
0.632904
0.633734
0.630499
0.627958
0.629091
0.630216
0.630946
0.631359
0.631502
0.631736
0.63219
0.633559
0.63184
0.630486
0.628842
0.630124
0.630968
0.631516
0.631835
0.63223
0.632933
0.634798
0.63435
0.632903
0.625039
0.626064
0.626102
0.625225
0.623604
0.621617
0.619717
0.619171
0.61837
0.619155
0.613907
0.615369
0.615942
0.615693
0.614549
0.612233
0.608118
0.600849
0.590137
0.576281
0.618524
0.619832
0.620357
0.620095
0.618852
0.616256
0.611714
0.603866
0.591206
0.575047
0.621597
0.62282
0.623292
0.622996
0.62168
0.619038
0.614566
0.606879
0.593375
0.576037
0.622407
0.623641
0.624179
0.624017
0.622909
0.62061
0.616537
0.60928
0.595384
0.577625
0.623551
0.624861
0.625516
0.62556
0.624751
0.622906
0.619355
0.61274
0.59894
0.581336
0.623688
0.625042
0.625777
0.625957
0.625384
0.623954
0.620948
0.615121
0.601871
0.585057
0.624343
0.625804
0.626634
0.626959
0.626603
0.625545
0.623076
0.618103
0.60578
0.590039
0.624076
0.625567
0.626365
0.626607
0.626196
0.625202
0.623024
0.618768
0.607633
0.593581
0.624075
0.625672
0.626562
0.626918
0.626687
0.625925
0.624139
0.62063
0.610754
0.597502
0.620464
0.621877
0.622211
0.621548
0.619945
0.61755
0.614092
0.609283
0.599881
0.589753
0.606278
0.607845
0.60841
0.608089
0.606848
0.604528
0.600833
0.595265
0.587192
0.577002
0.61118
0.612714
0.613272
0.612895
0.611463
0.608712
0.604137
0.596878
0.585489
0.570331
0.614526
0.616059
0.616611
0.61623
0.614735
0.611804
0.606821
0.598656
0.584638
0.564816
0.61583
0.617424
0.618054
0.617786
0.616419
0.613629
0.60864
0.600048
0.583879
0.559951
0.617451
0.619135
0.619874
0.619788
0.618651
0.616168
0.611417
0.602807
0.585137
0.557921
0.618008
0.619749
0.620573
0.620619
0.619684
0.617523
0.613116
0.604785
0.586228
0.556643
0.619025
0.62086
0.621775
0.621966
0.621232
0.619398
0.615399
0.607543
0.588674
0.557423
0.619059
0.620919
0.621818
0.621955
0.621194
0.619446
0.615719
0.60839
0.589735
0.557642
0.619316
0.62124
0.622209
0.622436
0.621806
0.62025
0.616884
0.61022
0.592209
0.558715
0.615947
0.617702
0.618258
0.617726
0.616086
0.613342
0.608829
0.601395
0.583939
0.55086
0.600719
0.602093
0.602565
0.602256
0.601165
0.599233
0.596362
0.592458
0.587498
0.581968
0.605355
0.60682
0.607329
0.60692
0.60552
0.602983
0.599059
0.593405
0.585579
0.576654
0.608549
0.610134
0.610678
0.610238
0.608686
0.605796
0.601143
0.5941
0.583506
0.57057
0.610051
0.611773
0.612407
0.612031
0.610485
0.607496
0.602447
0.594401
0.581148
0.563934
0.61194
0.61379
0.614528
0.614286
0.612863
0.609976
0.604818
0.596182
0.580677
0.559467
0.612788
0.614721
0.615545
0.615412
0.614119
0.611399
0.606296
0.597401
0.580101
0.555413
0.614078
0.616107
0.617014
0.617009
0.615872
0.613372
0.608453
0.599558
0.580979
0.553345
0.614368
0.616424
0.617326
0.617285
0.616128
0.61368
0.608894
0.600169
0.580898
0.551005
0.614848
0.616939
0.617894
0.617927
0.616877
0.614565
0.609966
0.601576
0.582278
0.549848
0.611727
0.613664
0.614331
0.613823
0.612068
0.608941
0.603578
0.594582
0.575476
0.541846
0.596856
0.597939
0.598299
0.598062
0.597247
0.595864
0.593927
0.591507
0.588753
0.586035
0.600936
0.602177
0.602608
0.602252
0.601077
0.599031
0.596046
0.5921
0.587251
0.582465
0.603677
0.60515
0.605655
0.605236
0.60382
0.601283
0.597413
0.591995
0.584749
0.577129
0.605108
0.606803
0.607414
0.60701
0.605481
0.60264
0.598098
0.591399
0.581614
0.570565
0.607039
0.608918
0.609637
0.609317
0.607799
0.604855
0.599904
0.592242
0.580065
0.565428
0.608014
0.610022
0.610834
0.61059
0.609117
0.606167
0.60099
0.592659
0.578337
0.560217
0.609453
0.61158
0.612473
0.612333
0.610953
0.608092
0.602853
0.59412
0.578015
0.556634
0.60992
0.612087
0.61299
0.612825
0.611417
0.608547
0.603268
0.594349
0.576972
0.552746
0.610572
0.612765
0.613708
0.613602
0.612269
0.609486
0.604262
0.595309
0.577301
0.550001
0.607679
0.609731
0.610477
0.609992
0.608173
0.604827
0.599078
0.589602
0.571368
0.541988
0.594214
0.595018
0.595275
0.595113
0.594559
0.593649
0.592429
0.590994
0.589478
0.588026
0.597697
0.598655
0.598992
0.598715
0.597818
0.596304
0.594198
0.591595
0.588699
0.586121
0.599867
0.601119
0.601553
0.601195
0.60001
0.597955
0.594973
0.591082
0.586394
0.581969
0.60106
0.602595
0.603148
0.602766
0.601382
0.598895
0.595122
0.589939
0.583158
0.57632
0.602854
0.604631
0.605297
0.604952
0.603479
0.600729
0.596357
0.590059
0.581135
0.571551
0.603817
0.605771
0.606539
0.606235
0.604722
0.601812
0.596997
0.589789
0.578784
0.566314
0.60529
0.607398
0.608249
0.608019
0.606529
0.603573
0.598486
0.590594
0.577706
0.562328
0.605846
0.608019
0.608894
0.608641
0.607102
0.604065
0.598776
0.590414
0.576019
0.557899
0.606615
0.608819
0.609728
0.609519
0.608021
0.605011
0.599654
0.590994
0.575621
0.554507
0.603916
0.605993
0.606775
0.606305
0.604474
0.601071
0.595326
0.58617
0.570295
0.546968
0.592398
0.592986
0.593162
0.59306
0.592709
0.592146
0.591416
0.590595
0.589764
0.588933
0.595363
0.596053
0.5963
0.596103
0.595466
0.594417
0.593013
0.591366
0.589666
0.588269
0.596966
0.597956
0.598305
0.598025
0.597102
0.595541
0.593371
0.590699
0.587751
0.585188
0.597847
0.599148
0.59962
0.599291
0.598125
0.596088
0.593136
0.589322
0.584787
0.580594
0.599392
0.600971
0.60156
0.601231
0.599907
0.597511
0.593882
0.588974
0.582697
0.57653
0.600236
0.602034
0.602731
0.602411
0.600976
0.598307
0.594111
0.588216
0.580131
0.571762
0.601651
0.603638
0.604422
0.604147
0.602669
0.59984
0.595225
0.588501
0.578677
0.567963
0.602211
0.604291
0.605113
0.604812
0.603257
0.600278
0.595337
0.587973
0.576656
0.563614
0.603046
0.605174
0.606027
0.605755
0.604207
0.601193
0.596088
0.588267
0.575863
0.560274
0.600498
0.602516
0.603294
0.602845
0.601067
0.597766
0.592344
0.584042
0.570996
0.553479
0.59112
0.591556
0.591675
0.591616
0.591404
0.591071
0.590647
0.590184
0.589719
0.589188
0.593688
0.594158
0.59433
0.594198
0.593771
0.59308
0.592181
0.591169
0.590176
0.589402
0.594791
0.59553
0.595795
0.595589
0.594911
0.593787
0.592276
0.590502
0.58867
0.587175
0.595363
0.596404
0.596788
0.596523
0.595598
0.594018
0.591815
0.58911
0.586134
0.583568
0.596605
0.597935
0.598432
0.598145
0.597025
0.595052
0.592187
0.588516
0.584209
0.580273
0.597267
0.59884
0.599448
0.599144
0.597868
0.595559
0.592089
0.587473
0.581708
0.576166
0.598561
0.60035
0.601048
0.600763
0.599391
0.596844
0.592879
0.587412
0.580171
0.572842
0.599053
0.60096
0.601706
0.60139
0.599915
0.597162
0.5928
0.586629
0.578059
0.568896
0.599913
0.601889
0.602667
0.602368
0.600867
0.598027
0.59343
0.586734
0.577125
0.565985
0.597475
0.599358
0.600098
0.599678
0.598013
0.594951
0.590075
0.582922
0.572651
0.560019
0.590187
0.590526
0.590607
0.590575
0.590451
0.590259
0.590018
0.589759
0.589492
0.589114
0.592473
0.592781
0.592897
0.592813
0.592539
0.592101
0.591543
0.590933
0.590354
0.589918
0.59317
0.593694
0.593886
0.593743
0.593267
0.592492
0.591479
0.590331
0.589204
0.588326
0.593482
0.594275
0.594572
0.594372
0.593674
0.592503
0.590921
0.589059
0.587131
0.585558
0.594414
0.595483
0.595884
0.595649
0.59475
0.593201
0.591032
0.588375
0.58547
0.582969
0.594871
0.596185
0.596693
0.596426
0.595349
0.593449
0.590702
0.587217
0.58319
0.579555
0.596012
0.597555
0.598154
0.597886
0.596681
0.594502
0.591248
0.586971
0.581762
0.576817
0.596378
0.598055
0.59871
0.598405
0.597079
0.594662
0.590987
0.586028
0.579718
0.573402
0.597239
0.599006
0.599694
0.599396
0.598018
0.595474
0.591525
0.586041
0.578827
0.571064
0.594871
0.59656
0.597236
0.596855
0.595355
0.592631
0.588429
0.582526
0.574709
0.565882
0.58948
0.589757
0.589814
0.589798
0.589727
0.589619
0.589483
0.589338
0.589179
0.588882
0.591575
0.591772
0.591848
0.591797
0.591627
0.591357
0.591019
0.590656
0.590318
0.590066
0.591953
0.592311
0.592443
0.592347
0.592028
0.591512
0.590852
0.590126
0.589439
0.588921
0.592078
0.592657
0.592879
0.592735
0.592229
0.591395
0.590296
0.589045
0.587808
0.586842
0.592724
0.593546
0.593858
0.593675
0.592985
0.591819
0.590234
0.588365
0.586433
0.584848
0.592981
0.594034
0.594443
0.594222
0.593354
0.591856
0.589763
0.587213
0.584447
0.582079
0.593966
0.595245
0.595741
0.595506
0.594498
0.592714
0.590147
0.586913
0.583239
0.579939
0.594168
0.595585
0.596138
0.595864
0.594726
0.592698
0.589725
0.585883
0.581345
0.57706
0.595022
0.596544
0.597132
0.596858
0.595651
0.593475
0.59022
0.585896
0.580619
0.575321
0.592693
0.594149
0.594742
0.594408
0.593106
0.590777
0.587296
0.582607
0.576826
0.570817
0.588925
0.589163
0.589205
0.589198
0.589158
0.589097
0.589021
0.588939
0.588839
0.588588
0.590897
0.591021
0.591072
0.591042
0.590939
0.590776
0.590574
0.590359
0.59016
0.59001
0.591025
0.59126
0.591348
0.591287
0.591078
0.590746
0.590327
0.589877
0.589461
0.589154
0.591042
0.59145
0.591609
0.59151
0.591158
0.590583
0.589841
0.589017
0.58823
0.587635
0.591439
0.592048
0.59228
0.592144
0.591635
0.590789
0.589667
0.588385
0.587115
0.586115
0.591524
0.592333
0.59265
0.592476
0.591806
0.59067
0.589127
0.587312
0.585441
0.583909
0.592367
0.593388
0.593784
0.593591
0.592782
0.591381
0.589426
0.587053
0.584506
0.582326
0.592382
0.593533
0.593983
0.59375
0.592814
0.591181
0.588863
0.585984
0.582786
0.579922
0.593239
0.594503
0.594989
0.594751
0.59374
0.591954
0.589371
0.586076
0.582303
0.57875
0.590924
0.592128
0.592629
0.592348
0.591259
0.589343
0.586562
0.582966
0.578798
0.574801
0.588479
0.588691
0.588722
0.58872
0.588697
0.588664
0.588621
0.588574
0.588508
0.588286
0.590377
0.590456
0.59049
0.590473
0.590412
0.590315
0.590195
0.590068
0.589948
0.589855
0.590299
0.590448
0.590505
0.590466
0.590334
0.590125
0.589866
0.589591
0.589343
0.589162
0.590284
0.590563
0.590674
0.590609
0.590371
0.589987
0.589497
0.588964
0.588466
0.588098
0.590471
0.590905
0.591072
0.590975
0.590613
0.590018
0.589246
0.588387
0.587564
0.586935
0.59042
0.591019
0.591257
0.591126
0.590628
0.589796
0.588693
0.587433
0.586185
0.585202
0.591152
0.591937
0.592243
0.592091
0.591469
0.590409
0.588968
0.587273
0.585537
0.584109
0.590964
0.591863
0.592217
0.592027
0.591288
0.590023
0.588277
0.586184
0.583975
0.582087
0.591852
0.592865
0.593252
0.593057
0.592244
0.590835
0.588857
0.586423
0.583783
0.581433
0.589528
0.590484
0.590892
0.590663
0.589786
0.588268
0.586123
0.583453
0.580519
0.577917
0.588114
0.588307
0.58833
0.588331
0.588318
0.5883
0.588275
0.588248
0.588202
0.588001
0.589977
0.590029
0.590053
0.590044
0.590008
0.58995
0.58988
0.589803
0.589728
0.589665
0.589711
0.589803
0.589837
0.589813
0.589731
0.589603
0.589446
0.589282
0.589136
0.589031
0.589734
0.58992
0.589997
0.589956
0.5898
0.589549
0.589232
0.588892
0.58858
0.588351
0.589745
0.590044
0.590159
0.590092
0.589842
0.589437
0.58892
0.588357
0.587831
0.587439
0.589597
0.590026
0.590198
0.590103
0.589746
0.589157
0.58839
0.587537
0.586716
0.58609
0.590252
0.590835
0.591063
0.59095
0.590489
0.589714
0.588685
0.587506
0.586342
0.585414
0.589853
0.590528
0.590795
0.590648
0.590087
0.589142
0.587868
0.58639
0.584893
0.583668
0.590813
0.591597
0.591894
0.591742
0.591114
0.590044
0.58858
0.586835
0.585024
0.58349
0.588458
0.589185
0.589505
0.589325
0.588645
0.587486
0.585887
0.583965
0.581946
0.580289
0.587812
0.587988
0.588006
0.588008
0.588001
0.58799
0.587977
0.58796
0.587927
0.587744
0.589679
0.589715
0.589733
0.589729
0.589708
0.589674
0.589631
0.589583
0.589533
0.589486
0.589217
0.58927
0.589289
0.589274
0.589224
0.589148
0.589055
0.58896
0.588877
0.588818
0.589341
0.589464
0.589516
0.589491
0.589393
0.589232
0.589031
0.588817
0.588621
0.588478
0.589201
0.5894
0.589477
0.589431
0.589265
0.588997
0.588659
0.588298
0.587967
0.587727
0.588996
0.589293
0.589413
0.589347
0.589099
0.588695
0.588177
0.587611
0.587079
0.586685
0.589603
0.590022
0.590186
0.590104
0.589775
0.589228
0.588515
0.587716
0.58695
0.586351
0.588983
0.589471
0.589666
0.589555
0.589145
0.588463
0.587564
0.586549
0.585554
0.584772
0.590071
0.590659
0.59088
0.590766
0.5903
0.589517
0.588468
0.587252
0.586036
0.585044
0.587656
0.588185
0.588426
0.588291
0.587783
0.58693
0.585777
0.584435
0.583077
0.582047
0.587552
0.587713
0.587725
0.587728
0.587724
0.587718
0.587711
0.587701
0.587677
0.587511
0.589476
0.589505
0.589519
0.589518
0.589505
0.589484
0.589457
0.589426
0.589389
0.589349
0.588783
0.588811
0.58882
0.588809
0.58878
0.588735
0.588682
0.58863
0.588586
0.588556
0.589071
0.589151
0.589186
0.589172
0.589111
0.589011
0.588885
0.588751
0.588629
0.588538
0.588798
0.588925
0.588975
0.588945
0.588837
0.588664
0.588449
0.588223
0.588019
0.587874
0.588569
0.588769
0.58885
0.588806
0.58864
0.58837
0.588029
0.587662
0.587323
0.587077
0.589149
0.589439
0.589553
0.589496
0.589269
0.588896
0.588416
0.587889
0.587396
0.587013
0.588297
0.588634
0.588772
0.588692
0.588403
0.587928
0.587311
0.586634
0.585985
0.585497
0.589582
0.590009
0.590167
0.590085
0.589753
0.5892
0.588474
0.58765
0.586851
0.586214
0.587055
0.587422
0.587599
0.5875
0.587135
0.586529
0.585724
0.584817
0.583922
0.583302
0.587297
0.58744
0.587448
0.587451
0.587449
0.587446
0.587442
0.587436
0.587419
0.587273
0.589376
0.589401
0.589413
0.589413
0.589406
0.589392
0.589374
0.589351
0.58932
0.58928
0.588387
0.5884
0.588402
0.588394
0.588376
0.588351
0.588322
0.588296
0.588275
0.588264
0.588897
0.588949
0.588972
0.588964
0.588927
0.588865
0.588789
0.588706
0.588631
0.588572
0.58851
0.588589
0.588621
0.588602
0.588534
0.588425
0.588292
0.588153
0.58803
0.587945
0.588288
0.588419
0.588474
0.588445
0.588337
0.588162
0.587943
0.58771
0.587496
0.587344
0.588844
0.589036
0.589112
0.589073
0.588922
0.588675
0.588364
0.588026
0.587717
0.587476
0.587748
0.587974
0.588068
0.588013
0.587816
0.587495
0.587084
0.586643
0.586226
0.585932
0.589311
0.589612
0.589721
0.589665
0.589436
0.58906
0.588573
0.588031
0.587519
0.58711
0.58657
0.586812
0.586937
0.586868
0.586616
0.5862
0.585656
0.58506
0.584482
0.584125
0.586947
0.587069
0.587073
0.587075
0.587074
0.587073
0.587072
0.587069
0.58706
0.586936
0.589402
0.589427
0.589438
0.58944
0.589435
0.589425
0.589411
0.589392
0.589364
0.589319
0.588029
0.588031
0.588031
0.588025
0.588014
0.588
0.587985
0.587973
0.587965
0.587967
0.588802
0.588834
0.588847
0.588842
0.58882
0.588783
0.588738
0.58869
0.588646
0.588608
0.588331
0.58838
0.5884
0.588388
0.588347
0.58828
0.588199
0.588114
0.58804
0.587991
0.588142
0.588226
0.588262
0.588245
0.588176
0.588066
0.587928
0.587782
0.587647
0.587553
0.588658
0.588779
0.588826
0.5888
0.588702
0.588544
0.588348
0.588139
0.587954
0.587808
0.587335
0.587482
0.587546
0.587511
0.587381
0.58717
0.586903
0.586619
0.586351
0.586179
0.589251
0.589457
0.58953
0.589492
0.58934
0.589092
0.588777
0.58843
0.588112
0.587846
0.586063
0.586215
0.586303
0.586256
0.586088
0.585812
0.585454
0.585074
0.584703
0.584511
0.58628
0.586375
0.586377
0.586378
0.586379
0.586379
0.58638
0.58638
0.586378
0.586282
0.589624
0.589651
0.589659
0.58966
0.589656
0.589649
0.589638
0.589623
0.589597
0.589544
0.587753
0.587754
0.587756
0.587755
0.58775
0.587741
0.587731
0.587722
0.587716
0.587721
0.588769
0.588785
0.58879
0.588785
0.588771
0.58875
0.588726
0.5887
0.588679
0.588658
0.588259
0.58829
0.588303
0.588298
0.588273
0.588233
0.588183
0.588131
0.588085
0.588054
0.588121
0.588176
0.5882
0.58819
0.588148
0.588079
0.587993
0.587902
0.587817
0.587756
0.588578
0.588648
0.588674
0.588655
0.588593
0.588495
0.588375
0.588251
0.588146
0.588064
0.587134
0.587233
0.587278
0.587258
0.587175
0.587039
0.586865
0.586682
0.586501
0.586396
0.589455
0.589589
0.589635
0.589608
0.589509
0.589351
0.589152
0.588938
0.588749
0.588575
0.585306
0.585399
0.585461
0.585431
0.585321
0.585141
0.58491
0.58467
0.584427
0.584334
0.584985
0.58505
0.585054
0.585056
0.585058
0.585058
0.585058
0.585057
0.585057
0.584989
0.590181
0.590199
0.590196
0.59019
0.590185
0.590182
0.590179
0.590175
0.590165
0.590114
0.587675
0.587688
0.587701
0.587706
0.587705
0.587699
0.587687
0.587672
0.587654
0.587643
0.588769
0.588772
0.588769
0.588763
0.588754
0.588742
0.58873
0.58872
0.588716
0.588713
0.588276
0.588298
0.588309
0.588307
0.588292
0.588266
0.588235
0.588201
0.58817
0.588147
0.588198
0.588235
0.58825
0.588244
0.588218
0.588174
0.58812
0.588061
0.588006
0.587964
0.588579
0.588617
0.588631
0.588617
0.588576
0.588514
0.58844
0.588365
0.588309
0.58827
0.587298
0.587375
0.587411
0.587401
0.587347
0.587257
0.587141
0.587015
0.586883
0.586796
0.590048
0.590123
0.590148
0.590127
0.590061
0.589958
0.589832
0.589704
0.589603
0.589506
0.584023
0.584086
0.584131
0.584111
0.584038
0.583919
0.583767
0.58361
0.58344
0.583394
0.583163
0.583203
0.583216
0.583223
0.583225
0.583223
0.583216
0.583203
0.583186
0.583131
0.591107
0.591078
0.591049
0.591029
0.59102
0.591021
0.591033
0.591056
0.591089
0.591099
0.587859
0.587895
0.587918
0.58793
0.587933
0.587926
0.587911
0.587887
0.58785
0.587806
0.58876
0.588751
0.588744
0.588737
0.58873
0.588723
0.588717
0.588715
0.588721
0.588734
0.588332
0.58835
0.588358
0.588357
0.588347
0.588329
0.588306
0.588281
0.588257
0.588237
0.588295
0.588321
0.588333
0.588328
0.588309
0.588278
0.588239
0.588197
0.588158
0.588126
0.5886
0.588623
0.588631
0.588621
0.588591
0.588545
0.588492
0.588441
0.588406
0.588392
0.587819
0.58789
0.587921
0.587914
0.587875
0.587808
0.587723
0.587626
0.587518
0.587419
0.591006
0.591034
0.591045
0.591026
0.590976
0.5909
0.590811
0.590727
0.59068
0.590678
0.582337
0.582394
0.582427
0.582413
0.582357
0.582269
0.582157
0.582041
0.581913
0.581871
0.439204
0.418452
0.425358
0.466316
0.391429
0.36819
0.379231
0.436467
0.348239
0.321092
0.33843
0.417354
0.310169
0.280772
0.305106
0.406434
0.278691
0.248625
0.280193
0.404021
0.251587
0.22207
0.261906
0.401214
0.22987
0.202226
0.250851
0.398579
0.209484
0.185368
0.242831
0.396485
0.191541
0.17352
0.239248
0.398118
0.17208
0.16221
0.234936
0.393621
0.499285
0.489087
0.489412
0.499126
0.468794
0.456179
0.457324
0.470002
0.437917
0.421197
0.423407
0.44098
0.408896
0.38793
0.391524
0.414245
0.384235
0.35877
0.364028
0.392095
0.362189
0.33184
0.337892
0.371221
0.344307
0.30897
0.314857
0.353283
0.327865
0.28773
0.293168
0.336585
0.314321
0.270152
0.275138
0.322949
0.298959
0.252366
0.254966
0.305307
0.566688
0.564473
0.563943
0.565076
0.548929
0.545232
0.544537
0.546839
0.528942
0.523047
0.522239
0.526574
0.506703
0.498435
0.497635
0.50447
0.485705
0.474983
0.474356
0.48409
0.464629
0.451322
0.450913
0.463658
0.445691
0.429717
0.429485
0.445177
0.427056
0.408536
0.408448
0.426906
0.410794
0.390594
0.390552
0.410934
0.391878
0.372166
0.371402
0.39131
0.579154
0.57807
0.577722
0.578072
0.569524
0.568112
0.567622
0.567986
0.557664
0.555179
0.554462
0.555362
0.542891
0.5391
0.538195
0.53992
0.528455
0.523215
0.522197
0.525051
0.51289
0.506076
0.505001
0.509248
0.498288
0.489827
0.488735
0.494575
0.482975
0.472943
0.471891
0.479401
0.468751
0.457774
0.456771
0.465581
0.45091
0.440979
0.439717
0.448067
0.586022
0.585432
0.585232
0.58542
0.580195
0.579714
0.579485
0.579494
0.572715
0.571775
0.571352
0.571424
0.562612
0.560976
0.560323
0.560591
0.552654
0.550149
0.549277
0.549909
0.541359
0.537844
0.536777
0.537956
0.530628
0.526014
0.524796
0.526708
0.518845
0.513156
0.511856
0.514646
0.507674
0.501332
0.50003
0.503604
0.492922
0.487721
0.486292
0.489313
0.588601
0.588125
0.587979
0.588164
0.585156
0.584945
0.584836
0.584828
0.580071
0.57965
0.579433
0.579416
0.572847
0.572085
0.571708
0.571701
0.565793
0.564561
0.563993
0.564049
0.557475
0.555649
0.554875
0.555073
0.549647
0.547131
0.546165
0.546613
0.54075
0.537527
0.53642
0.537239
0.532327
0.528656
0.527511
0.528738
0.520415
0.517863
0.516642
0.517201
0.589726
0.589295
0.589172
0.589359
0.587845
0.587752
0.587701
0.587692
0.584308
0.584112
0.584005
0.583986
0.578938
0.578568
0.578366
0.57833
0.573735
0.573114
0.572785
0.572737
0.567384
0.566427
0.565942
0.565901
0.561542
0.560175
0.559522
0.559533
0.554744
0.552937
0.552142
0.552274
0.548584
0.546466
0.545613
0.545934
0.53891
0.537907
0.537008
0.536566
0.590057
0.589641
0.589527
0.589716
0.589187
0.58914
0.589113
0.589108
0.586726
0.586628
0.586573
0.586562
0.582709
0.582518
0.582409
0.582382
0.578811
0.578481
0.578296
0.578251
0.57385
0.573329
0.573041
0.572976
0.569412
0.568652
0.568244
0.568171
0.564134
0.563111
0.562592
0.562543
0.559725
0.558499
0.557914
0.557934
0.551682
0.551589
0.550992
0.55021
0.590012
0.589601
0.589491
0.589681
0.589803
0.589777
0.589762
0.589758
0.588084
0.588033
0.588003
0.587997
0.585087
0.584983
0.584922
0.584905
0.582165
0.581985
0.581879
0.581848
0.578273
0.577982
0.577813
0.577762
0.574908
0.574476
0.574228
0.57416
0.570763
0.570175
0.569851
0.569778
0.567618
0.566904
0.566525
0.566468
0.560799
0.561227
0.560862
0.560006
0.589786
0.589376
0.589267
0.589458
0.589999
0.589984
0.589974
0.589971
0.588783
0.588755
0.588739
0.588735
0.586567
0.586508
0.586472
0.586462
0.584383
0.584281
0.584219
0.5842
0.581338
0.58117
0.581069
0.581035
0.578834
0.578581
0.578431
0.578382
0.575552
0.575209
0.575009
0.57495
0.573346
0.572924
0.572685
0.572626
0.567469
0.568181
0.567974
0.567138
0.589487
0.589076
0.588967
0.589159
0.589969
0.589959
0.589952
0.58995
0.589076
0.58906
0.589051
0.589049
0.587468
0.587432
0.587411
0.587404
0.585837
0.585777
0.58574
0.585728
0.583465
0.583365
0.583304
0.583282
0.58166
0.581508
0.581416
0.581383
0.579033
0.578829
0.578707
0.578665
0.577565
0.577311
0.577163
0.577119
0.572419
0.573273
0.573165
0.572377
0.589171
0.588758
0.588649
0.588842
0.589827
0.589819
0.589814
0.589811
0.589117
0.589109
0.589104
0.589103
0.587994
0.587971
0.587958
0.587953
0.586766
0.58673
0.586708
0.586701
0.584929
0.584868
0.58483
0.584816
0.583694
0.5836
0.583543
0.583521
0.581551
0.581427
0.581352
0.581324
0.58069
0.580534
0.580442
0.580414
0.576111
0.577018
0.576969
0.576237
0.588866
0.58845
0.588341
0.588537
0.589644
0.589637
0.589632
0.58963
0.589008
0.589004
0.589001
0.589001
0.588283
0.588269
0.58826
0.588256
0.587336
0.587315
0.587302
0.587297
0.58592
0.585882
0.585859
0.585849
0.585149
0.58509
0.585053
0.58504
0.583341
0.583265
0.583218
0.5832
0.583003
0.582905
0.582848
0.582831
0.578857
0.579762
0.579746
0.579071
0.588582
0.588164
0.588056
0.588254
0.589466
0.58946
0.589455
0.589452
0.588808
0.588807
0.588806
0.588807
0.588432
0.588422
0.588416
0.588413
0.587664
0.587652
0.587645
0.587642
0.586578
0.586555
0.58654
0.586534
0.586179
0.586141
0.586118
0.58611
0.584574
0.584528
0.584499
0.584487
0.584711
0.584648
0.584613
0.584605
0.580881
0.581746
0.581747
0.581134
0.588316
0.587894
0.587789
0.58799
0.589327
0.58932
0.589315
0.589311
0.588555
0.588555
0.588556
0.588557
0.588505
0.588498
0.588493
0.588491
0.587838
0.587832
0.587828
0.587826
0.58701
0.586995
0.586985
0.586981
0.586901
0.586877
0.586863
0.586858
0.58538
0.585352
0.585334
0.585326
0.585975
0.585932
0.585911
0.58591
0.582345
0.583142
0.58315
0.582603
0.588034
0.587612
0.587511
0.587717
0.589254
0.589246
0.589239
0.589235
0.58827
0.588272
0.588273
0.588275
0.588549
0.588544
0.58854
0.588538
0.587924
0.587921
0.587919
0.587918
0.5873
0.587291
0.587284
0.587281
0.587405
0.587392
0.587384
0.587381
0.585864
0.585847
0.585836
0.58583
0.586929
0.586898
0.586886
0.58689
0.583348
0.584053
0.584064
0.583589
0.587641
0.587223
0.58713
0.58734
0.589284
0.589274
0.589267
0.589262
0.587976
0.587979
0.587981
0.587982
0.588593
0.588589
0.588587
0.588586
0.587978
0.587977
0.587976
0.587975
0.587522
0.587515
0.587511
0.587509
0.587768
0.587762
0.587758
0.587757
0.586137
0.586126
0.586118
0.586113
0.587701
0.587678
0.587671
0.587679
0.583904
0.584495
0.584504
0.58411
0.58691
0.586508
0.586429
0.586641
0.589498
0.589485
0.589476
0.589472
0.587727
0.587729
0.58773
0.58773
0.588653
0.588652
0.588652
0.588652
0.588043
0.588042
0.588041
0.58804
0.58773
0.587724
0.58772
0.587719
0.58805
0.58805
0.58805
0.58805
0.586352
0.586339
0.586332
0.586329
0.588455
0.588436
0.588433
0.588445
0.583889
0.584345
0.584349
0.584046
0.585496
0.585143
0.585087
0.585282
0.590057
0.590042
0.590035
0.590035
0.587629
0.587625
0.587622
0.587619
0.588721
0.588723
0.588725
0.588727
0.588134
0.588132
0.588131
0.58813
0.587939
0.587933
0.58793
0.58793
0.588281
0.588285
0.588287
0.588287
0.586708
0.586687
0.586678
0.58668
0.58943
0.589416
0.589416
0.589432
0.583076
0.583365
0.583363
0.583169
0.583426
0.583206
0.58318
0.583304
0.591074
0.591069
0.591073
0.591086
0.587745
0.587732
0.587722
0.587716
0.58876
0.588765
0.58877
0.588773
0.588221
0.588218
0.588216
0.588216
0.588102
0.588097
0.588095
0.588096
0.588424
0.588432
0.588434
0.588433
0.587255
0.587218
0.587207
0.587219
0.59075
0.590761
0.590768
0.590772
0.581595
0.581668
0.581664
0.58162
0.595277
0.603734
0.607736
0.610839
0.613964
0.616721
0.618959
0.620707
0.622074
0.62322
0.596208
0.599544
0.606967
0.612017
0.616483
0.61987
0.622335
0.6241
0.625344
0.626287
0.600068
0.596426
0.60741
0.613126
0.61841
0.622007
0.624576
0.626399
0.627652
0.628544
0.603483
0.592552
0.607166
0.612739
0.6186
0.622149
0.624705
0.626484
0.6277
0.628564
0.607975
0.590541
0.607914
0.613214
0.619518
0.622919
0.625446
0.62714
0.628268
0.629051
0.611062
0.587885
0.607655
0.612481
0.619237
0.622453
0.624994
0.626639
0.627772
0.628597
0.615063
0.586622
0.608479
0.612589
0.61975
0.622701
0.625258
0.626846
0.627952
0.628752
0.616632
0.583571
0.607485
0.610825
0.618494
0.621247
0.623966
0.625639
0.626945
0.627981
0.618296
0.582087
0.607933
0.60994
0.617752
0.620039
0.622986
0.624807
0.626315
0.627543
0.60275
0.566221
0.594713
0.597066
0.606751
0.610619
0.615267
0.618379
0.62094
0.62296
0.537858
0.559926
0.576273
0.5879
0.595864
0.601408
0.605415
0.608406
0.610715
0.612634
0.524148
0.554693
0.576779
0.590728
0.599581
0.605573
0.609816
0.612892
0.615134
0.616797
0.513883
0.551563
0.577885
0.592903
0.602357
0.608621
0.61301
0.616152
0.618389
0.619984
0.505496
0.548532
0.578059
0.593398
0.603257
0.609598
0.613996
0.617102
0.619293
0.620845
0.501039
0.547714
0.579324
0.594714
0.604862
0.611154
0.615495
0.618503
0.620591
0.622054
0.497843
0.546642
0.579737
0.594892
0.605281
0.611451
0.615735
0.618657
0.620706
0.622171
0.497445
0.547074
0.581241
0.595872
0.606424
0.612372
0.61658
0.619403
0.621392
0.622817
0.496649
0.546125
0.581196
0.595127
0.605871
0.611605
0.615839
0.61868
0.620792
0.62239
0.49714
0.546446
0.582374
0.595049
0.605589
0.610851
0.615181
0.618141
0.620421
0.622205
0.488056
0.536411
0.57309
0.585278
0.596839
0.60312
0.608641
0.612531
0.615572
0.61784
0.568977
0.575251
0.581328
0.586704
0.591289
0.595122
0.598296
0.600917
0.603109
0.605
0.555741
0.567134
0.577321
0.585647
0.592315
0.597564
0.601659
0.604842
0.607304
0.609178
0.542655
0.559831
0.574201
0.58509
0.593401
0.599652
0.604359
0.607909
0.610563
0.612509
0.5295
0.552407
0.570761
0.583757
0.593341
0.600253
0.605313
0.609045
0.611795
0.613785
0.519576
0.547552
0.569337
0.583915
0.594417
0.601715
0.606944
0.610723
0.61347
0.615433
0.510731
0.543021
0.567746
0.58345
0.594625
0.602127
0.607436
0.611218
0.613969
0.615953
0.504704
0.540497
0.567675
0.584063
0.595694
0.60323
0.608542
0.61228
0.615003
0.616967
0.499012
0.537462
0.566706
0.583407
0.595355
0.602841
0.608183
0.611948
0.614763
0.616861
0.495304
0.536123
0.567102
0.58347
0.595305
0.602507
0.607907
0.611771
0.614717
0.616964
0.485213
0.52723
0.559416
0.575728
0.588262
0.596188
0.602404
0.606933
0.610411
0.612935
0.578791
0.5812
0.584105
0.587052
0.58983
0.592343
0.594564
0.596507
0.598221
0.59978
0.570018
0.574784
0.580199
0.585341
0.589878
0.593738
0.596959
0.599614
0.60177
0.603473
0.559498
0.567576
0.575987
0.58341
0.589632
0.594701
0.598776
0.602015
0.60455
0.60648
0.547182
0.559285
0.57103
0.580713
0.588469
0.594534
0.599255
0.602913
0.605723
0.607826
0.53649
0.552885
0.567913
0.579603
0.588638
0.595449
0.600612
0.604521
0.607477
0.609654
0.525873
0.546577
0.564727
0.578121
0.588202
0.595559
0.601024
0.605094
0.608155
0.610415
0.517341
0.542169
0.563168
0.577912
0.588795
0.596496
0.60214
0.606288
0.609395
0.611678
0.508965
0.537552
0.561092
0.576821
0.588299
0.5962
0.601982
0.60622
0.609434
0.611838
0.50245
0.534667
0.560408
0.576541
0.58822
0.596102
0.601996
0.606342
0.609663
0.612186
0.491551
0.526365
0.553556
0.570077
0.582394
0.590842
0.59731
0.602128
0.605819
0.608468
0.585286
0.586047
0.587211
0.588576
0.590011
0.591428
0.592774
0.594028
0.595207
0.59636
0.579953
0.581808
0.584326
0.58705
0.589721
0.592203
0.59443
0.596376
0.598032
0.599389
0.572416
0.575818
0.580127
0.584515
0.588607
0.592233
0.595348
0.597961
0.600101
0.601796
0.562599
0.568211
0.574779
0.581038
0.58659
0.591305
0.595216
0.598404
0.600958
0.602941
0.553478
0.561768
0.570827
0.578961
0.585877
0.591528
0.596075
0.599688
0.602533
0.604701
0.543682
0.554975
0.566632
0.576551
0.584691
0.591122
0.596171
0.60011
0.603179
0.605512
0.535232
0.549711
0.563941
0.575454
0.584631
0.591662
0.597078
0.601236
0.604451
0.606872
0.526538
0.544228
0.560905
0.573752
0.583763
0.591232
0.59693
0.601275