/*--------------------------------*- C++ -*----------------------------------*\
| =========                 |                                                 |
| \\      /  F ield         | foam-extend: Open Source CFD                    |
|  \\    /   O peration     | Version:     4.0                                |
|   \\  /    A nd           | Web:         http://www.foam-extend.org         |
|    \\/     M anipulation  |                                                 |
\*---------------------------------------------------------------------------*/
FoamFile
{
    version     2.0;
    format      ascii;
    class       surfaceScalarField;
    location    "2200";
    object      phi;
}
// * * * * * * * * * * * * * * * * * * * * * * * * * * * * * * * * * * * * * //

dimensions      [1 0 -1 0 0 0 0];

internalField   nonuniform List<scalar> 
97302
(
-0.000109786
9.51611e-07
-0.000869495
0.000878771
-0.0001196
1.14094e-06
-0.000870498
0.000879171
-0.000129523
1.20005e-06
-0.000871023
0.000879746
-0.000140125
1.13808e-06
-0.000871062
0.000880526
-0.000152233
9.45973e-07
-0.00087061
0.000881772
-0.000167326
6.13603e-07
-0.000869443
0.000883923
-0.000188496
1.14495e-07
-0.000866956
0.000888012
-0.000222748
-5.95652e-07
-0.00086133
0.000896177
-0.000271326
-1.6392e-06
-0.000851541
0.000901758
-4.39606e-06
-0.000824041
-0.000352997
0.000910109
-0.000150902
1.60291e-06
-0.00116596
0.00117606
-0.000161174
1.96516e-06
-0.00116691
0.00117636
-0.000171519
2.0837e-06
-0.0011675
0.00117696
-0.000182474
1.99174e-06
-0.00116753
0.00117763
-0.000194834
1.67429e-06
-0.00116673
0.00117836
-0.000210315
1.12009e-06
-0.00116472
0.0011797
-0.000232767
2.71551e-07
-0.00116113
0.00118342
-0.000271569
-9.66486e-07
-0.00115433
0.00119351
-0.00032835
-2.89696e-06
-0.00114203
0.00120007
-7.45972e-06
-0.00110414
-0.00043277
0.00121162
-0.000191208
1.89604e-06
-0.00146133
0.00147218
-0.000201778
2.39222e-06
-0.00146234
0.00147248
-0.000212298
2.57377e-06
-0.00146296
0.00147299
-0.000223274
2.49739e-06
-0.00146275
0.00147323
-0.000235634
2.14495e-06
-0.00146141
0.0014733
-0.000251511
1.50587e-06
-0.00145874
0.00147423
-0.000275388
5.0091e-07
-0.00145486
0.00147851
-0.000318359
-9.68353e-07
-0.00144829
0.00149126
-0.000381693
-3.35365e-06
-0.00143513
0.00149892
-9.13513e-06
-0.00138641
-0.000500692
0.00150708
-0.000231437
2.08524e-06
-0.00175271
0.00176397
-0.0002423
2.72117e-06
-0.00175394
0.00176447
-0.000253115
2.98152e-06
-0.00175481
0.00176522
-0.000264406
2.94603e-06
-0.00175481
0.00176566
-0.000277164
2.58596e-06
-0.00175363
0.00176595
-0.000293712
1.89253e-06
-0.0017512
0.00176737
-0.000318864
7.63418e-07
-0.00174764
0.00177253
-0.000364969
-8.9295e-07
-0.00174142
0.00178745
-0.000432991
-3.68019e-06
-0.00172781
0.00179615
-1.06293e-05
-0.00166795
-0.000560754
0.00179721
-0.000271567
2.31775e-06
-0.00204523
0.00205668
-0.000282601
3.02303e-06
-0.00204684
0.00205757
-0.000293584
3.32118e-06
-0.00204822
0.00205886
-0.00030507
3.30198e-06
-0.00204869
0.00205982
-0.000318117
2.93444e-06
-0.00204804
0.00206074
-0.000335168
2.20943e-06
-0.00204624
0.00206297
-0.000361325
1.01036e-06
-0.00204332
0.00206923
-0.000409967
-7.46631e-07
-0.00203778
0.00208628
-0.000481931
-3.81518e-06
-0.00202453
0.00209663
-1.18638e-05
-0.00195287
-0.000615167
0.00208734
-0.000312269
2.40344e-06
-0.00233636
0.00234811
-0.000323406
3.13433e-06
-0.00233842
0.00234944
-0.000334457
3.42033e-06
-0.00234019
0.00235114
-0.000346001
3.37347e-06
-0.00234108
0.00235255
-0.000359148
2.97165e-06
-0.00234095
0.00235406
-0.000376426
2.21464e-06
-0.0023399
0.00235717
-0.00040321
9.84546e-07
-0.0023379
0.00236471
-0.000453746
-7.84824e-07
-0.00233347
0.00238405
-0.000529015
-3.91284e-06
-0.00232172
0.00239709
-1.28334e-05
-0.00223796
-0.000665771
0.00237569
-0.000352793
2.383e-06
-0.00262731
0.00263918
-0.000363873
3.02162e-06
-0.00262997
0.00264116
-0.000374848
3.23675e-06
-0.0026323
0.00264346
-0.000386301
3.10391e-06
-0.00263366
0.00264538
-0.000399397
2.62796e-06
-0.00263411
0.00264755
-0.000416694
1.8015e-06
-0.00263387
0.00265158
-0.000443816
5.60703e-07
-0.00263301
0.00266055
-0.000495692
-1.10999e-06
-0.00263018
0.00268238
-0.000573746
-3.86157e-06
-0.00262108
0.00269909
-1.29898e-05
-0.00252499
-0.000712507
0.00266391
-0.000394589
2.02446e-06
-0.00291883
0.00293114
-0.00040572
2.4738e-06
-0.00292209
0.00293377
-0.000416694
2.50249e-06
-0.00292454
0.00293625
-0.000428098
2.16373e-06
-0.00292584
0.00293818
-0.000441059
1.49365e-06
-0.00292618
0.00294028
-0.00045808
4.90363e-07
-0.0029261
0.00294444
-0.000484929
-8.17907e-07
-0.00292594
0.00295417
-0.000536995
-2.36033e-06
-0.00292455
0.00297787
-0.000616517
-4.14975e-06
-0.00291881
0.00299862
-1.21413e-05
-0.00281222
-0.000755677
0.00295053
-0.000435785
1.06827e-06
-0.00320671
0.00321915
-0.00044649
1.13575e-06
-0.00321082
0.00322286
-0.000457069
8.44841e-07
-0.00321389
0.00322613
-0.00046817
1.11259e-07
-0.0032158
0.00322895
-0.00048096
-9.4821e-07
-0.00321693
0.00323217
-0.000497825
-2.3083e-06
-0.00321786
0.00323753
-0.000524527
-3.78335e-06
-0.00321912
0.00324878
-0.00057632
-5.09827e-06
-0.00322002
0.00327455
-0.000655773
-5.50576e-06
-0.00321666
0.00329747
-1.01951e-05
-0.0030993
-0.000792422
0.003234
-0.000477196
-0.00347529
0.0034883
-0.000488541
-0.00347889
0.00349138
-0.00049973
-0.0034796
0.00349164
-0.000511443
-0.00347705
0.00348887
-0.000524718
-0.00347189
0.00348422
-0.000541685
-0.00346519
0.00347985
-0.000567577
-0.00345813
0.00348024
-0.000616581
-0.00345219
0.0034961
-0.000689672
-0.00344858
0.00351616
-0.00333959
-0.000818671
0.0034584
1.4396e-05
8.88919e-07
-0.000861039
5.31278e-06
1.11355e-06
-0.000862528
-3.79128e-06
1.19427e-06
-0.000863113
-1.30998e-05
1.1366e-06
-0.00086289
-2.28121e-05
9.30597e-07
-0.000861828
-3.31463e-05
5.57922e-07
-0.000859667
-4.42495e-05
-1.55719e-08
-0.000855837
-5.55407e-05
-8.6867e-07
-0.00084917
-6.62357e-05
-2.19726e-06
-0.000838649
-3.96823e-06
-0.000822396
-6.39133e-05
1.54091e-05
1.51361e-06
-0.00115611
5.39075e-06
1.92982e-06
-0.00115771
-4.61721e-06
2.08352e-06
-0.00115838
-1.49321e-05
2.0043e-06
-0.00115808
-2.58191e-05
1.67028e-06
-0.00115658
-3.76408e-05
1.05916e-06
-0.0011534
-5.12337e-05
1.09205e-07
-0.00114766
-6.76412e-05
-1.29576e-06
-0.0011375
-8.82617e-05
-3.54278e-06
-0.00112007
-6.60875e-06
-0.00109112
-9.86427e-05
1.67382e-05
1.82419e-06
-0.00145028
6.00738e-06
2.38818e-06
-0.00145207
-4.63082e-06
2.61172e-06
-0.00145285
-1.55083e-05
2.54949e-06
-0.00145242
-2.69628e-05
2.16838e-06
-0.00145045
-3.97281e-05
1.44474e-06
-0.00144636
-5.55497e-05
2.86611e-07
-0.00143922
-7.71566e-05
-1.42795e-06
-0.00142655
-0.000108636
-4.28374e-06
-0.00140291
-8.39593e-06
-0.00135938
-0.000133882
1.7955e-05
2.03214e-06
-0.00174096
6.74058e-06
2.75348e-06
-0.00174309
-4.38292e-06
3.06453e-06
-0.00174414
-1.5811e-05
3.04849e-06
-0.00174389
-2.79992e-05
2.65795e-06
-0.00174194
-4.19395e-05
1.87135e-06
-0.00173769
-5.99422e-05
5.56016e-07
-0.00172991
-8.61299e-05
-1.40164e-06
-0.00171526
-0.000128053
-4.7948e-06
-0.00168537
-9.90594e-06
-0.0016255
-0.000168998
1.90702e-05
2.27823e-06
-0.00203309
7.56946e-06
3.07828e-06
-0.00203566
-3.83453e-06
3.43321e-06
-0.00203718
-1.55981e-05
3.43947e-06
-0.00203732
-2.83149e-05
3.0456e-06
-0.00203571
-4.31625e-05
2.22945e-06
-0.00203175
-6.2917e-05
8.19315e-07
-0.00202383
-9.29966e-05
-1.2887e-06
-0.00200781
-0.000144892
-5.07652e-06
-0.00197235
-1.10642e-05
-0.00189521
-0.000201392
1.97747e-05
2.3966e-06
-0.0023238
8.09678e-06
3.23133e-06
-0.00232689
-3.43791e-06
3.58182e-06
-0.00232881
-1.53443e-05
3.57074e-06
-0.0023293
-2.83359e-05
3.15367e-06
-0.00232807
-4.37539e-05
2.3184e-06
-0.00232457
-6.48026e-05
8.73323e-07
-0.00231691
-9.80691e-05
-1.27543e-06
-0.00230022
-0.000159356
-5.20905e-06
-0.0022603
-1.18831e-05
-0.0021657
-0.000230799
2.01873e-05
2.36793e-06
-0.00261448
8.53217e-06
3.10883e-06
-0.00261819
-2.95229e-06
3.39376e-06
-0.00262063
-1.47977e-05
3.30947e-06
-0.00262155
-2.78474e-05
2.851e-06
-0.00262075
-4.35531e-05
1.989e-06
-0.00261783
-6.54977e-05
5.48012e-07
-0.00261074
-0.000101307
-1.56568e-06
-0.00259408
-0.000171275
-5.24629e-06
-0.00255108
-1.22486e-05
-0.0024391
-0.000256801
1.99292e-05
2.03347e-06
-0.00290558
8.2723e-06
2.58883e-06
-0.00290991
-3.10567e-06
2.71766e-06
-0.00291248
-1.47841e-05
2.48019e-06
-0.00291333
-2.76617e-05
1.9073e-06
-0.00291236
-4.32639e-05
9.65997e-07
-0.00290948
-6.54733e-05
-4.36024e-07
-0.00290275
-0.00010275
-2.40776e-06
-0.00288644
-0.000180118
-5.22092e-06
-0.00284147
-1.18991e-05
-0.00271327
-0.000279418
1.93988e-05
1.07379e-06
-0.00319319
8.21186e-06
1.21869e-06
-0.00319826
-2.66154e-06
1.05869e-06
-0.00320136
-1.38319e-05
4.7412e-07
-0.00320262
-2.63521e-05
-4.04052e-07
-0.0032021
-4.18584e-05
-1.58516e-06
-0.00319981
-6.44376e-05
-3.01077e-06
-0.00319396
-0.00010304
-4.67534e-06
-0.00317915
-0.000186368
-6.14906e-06
-0.0031324
-1.00752e-05
-0.00298563
-0.000301859
1.82433e-05
-0.00346149
6.80491e-06
-0.00346624
-4.11766e-06
-0.00346762
-1.52126e-05
-0.00346548
-2.74201e-05
-0.00346009
-4.23444e-05
-0.00345185
-6.39058e-05
-0.00343958
-0.000101288
-0.00341948
-0.000186015
-0.00337
-0.00321568
-0.000320005
1.20261e-05
7.77528e-07
-0.000854367
4.4234e-06
1.01756e-06
-0.000855943
-3.29453e-06
1.10557e-06
-0.000856501
-1.10376e-05
1.04112e-06
-0.000856188
-1.86827e-05
8.17625e-07
-0.000855001
-2.59846e-05
4.19297e-07
-0.000852784
-3.23915e-05
-1.75882e-07
-0.000849254
-3.65995e-05
-1.00582e-06
-0.000843956
-3.67277e-05
-2.15426e-06
-0.000836366
-3.43242e-06
-0.00082672
-2.89706e-05
1.38782e-05
1.36177e-06
-0.0011476
4.85263e-06
1.80189e-06
-0.00114947
-4.23398e-06
1.96495e-06
-0.00115016
-1.34725e-05
1.87431e-06
-0.00114967
-2.28691e-05
1.50842e-06
-0.00114788
-3.22729e-05
8.42759e-07
-0.00114442
-4.1283e-05
-1.76129e-07
-0.00113865
-4.87475e-05
-1.62074e-06
-0.00112942
-5.22015e-05
-3.70611e-06
-0.00111506
-6.12811e-06
-0.00109587
-4.47549e-05
1.59828e-05
1.70767e-06
-0.00144012
5.78054e-06
2.30275e-06
-0.00144236
-4.41619e-06
2.53633e-06
-0.00144322
-1.48028e-05
2.45613e-06
-0.00144262
-2.54746e-05
2.02415e-06
-0.00144029
-3.64946e-05
1.20515e-06
-0.0014357
-4.79769e-05
-9.57182e-08
-0.00142781
-5.94529e-05
-1.97625e-06
-0.00141471
-6.85121e-05
-4.8463e-06
-0.00139271
-8.36603e-06
-0.00136071
-6.49453e-05
1.76328e-05
1.96624e-06
-0.00172976
6.64143e-06
2.72974e-06
-0.00173252
-4.34139e-06
3.05293e-06
-0.00173368
-1.56265e-05
3.01432e-06
-0.00173316
-2.74597e-05
2.55979e-06
-0.00173064
-4.01706e-05
1.65168e-06
-0.00172543
-5.43201e-05
1.41977e-07
-0.001716
-7.01001e-05
-2.08995e-06
-0.00169936
-8.58012e-05
-5.70652e-06
-0.00166881
-1.0335e-05
-0.0016211
-8.82326e-05
1.90381e-05
2.25756e-06
-0.00202121
7.53798e-06
3.10656e-06
-0.00202454
-3.93311e-06
3.47764e-06
-0.00202614
-1.57939e-05
3.46252e-06
-0.0020259
-2.84694e-05
3.00227e-06
-0.00202348
-4.25419e-05
2.05496e-06
-0.00201808
-5.90243e-05
4.17459e-07
-0.00200762
-7.89059e-05
-2.05906e-06
-0.00198796
-0.000101937
-6.30233e-06
-0.00194872
-1.19705e-05
-0.00188339
-0.000112117
1.99763e-05
2.42493e-06
-0.00231131
8.13943e-06
3.31299e-06
-0.00231526
-3.6147e-06
3.68424e-06
-0.00231726
-1.57988e-05
3.65922e-06
-0.00231732
-2.89958e-05
3.18151e-06
-0.00231505
-4.40377e-05
2.21773e-06
-0.00230969
-6.2424e-05
5.3462e-07
-0.00229864
-8.60488e-05
-2.04002e-06
-0.00227661
-0.000116871
-6.63875e-06
-0.00222915
-1.31804e-05
-0.00214514
-0.000136227
2.05286e-05
2.41962e-06
-0.00260157
8.61113e-06
3.21378e-06
-0.00260617
-3.18541e-06
3.5254e-06
-0.00260868
-1.54196e-05
3.44054e-06
-0.0026091
-2.88405e-05
2.94599e-06
-0.0026071
-4.44902e-05
1.99558e-06
-0.00260196
-6.43526e-05
3.53751e-07
-0.00259069
-9.12581e-05
-2.20219e-06
-0.00256701
-0.000129976
-6.76655e-06
-0.00251223
-1.39493e-05
-0.00240903
-0.000159274
2.03524e-05
2.09643e-06
-0.00289219
8.40468e-06
2.70125e-06
-0.00289745
-3.3083e-06
2.87351e-06
-0.00290012
-1.54079e-05
2.67643e-06
-0.00290046
-2.87381e-05
2.12587e-06
-0.00289821
-4.45302e-05
1.17516e-06
-0.00289287
-6.52367e-05
-3.27617e-07
-0.00288136
-9.45833e-05
-2.64785e-06
-0.00285664
-0.000140685
-6.4025e-06
-0.00279573
-1.37381e-05
-0.00267359
-0.000180578
1.97392e-05
1.15057e-06
-0.00317948
8.24428e-06
1.32793e-06
-0.0031854
-2.96851e-06
1.24779e-06
-0.00318852
-1.45253e-05
7.72535e-07
-0.00318916
-2.74278e-05
2.57236e-08
-0.0031871
-4.31501e-05
-1.01363e-06
-0.00318189
-6.46501e-05
-2.33697e-06
-0.00317045
-9.64402e-05
-4.09068e-06
-0.00314592
-0.000148897
-6.37125e-06
-0.00307998
-1.15128e-05
-0.00293618
-0.000200578
1.85771e-05
-0.00344762
7.00006e-06
-0.00345333
-4.10453e-06
-0.00345527
-1.54465e-05
-0.00345336
-2.79178e-05
-0.00344759
-4.30029e-05
-0.00343778
-6.37002e-05
-0.00342122
-9.5411e-05
-0.00339186
-0.00015068
-0.0033211
-0.00316252
-0.000215349
9.33382e-06
6.08589e-07
-0.000849536
3.4636e-06
8.52113e-07
-0.000850925
-2.58775e-06
9.44231e-07
-0.000851394
-8.5469e-06
8.78163e-07
-0.000851107
-1.41071e-05
6.52505e-07
-0.000850093
-1.88456e-05
2.58372e-07
-0.000848304
-2.21202e-05
-3.11176e-07
-0.000845669
-2.28923e-05
-1.05832e-06
-0.000842125
-1.95795e-05
-1.97952e-06
-0.000837699
-2.86314e-06
-0.000832854
-1.05825e-05
1.1725e-05
1.11564e-06
-0.00114077
4.10712e-06
1.566e-06
-0.00114257
-3.63945e-06
1.73426e-06
-0.0011432
-1.13771e-05
1.63615e-06
-0.00114269
-1.88895e-05
1.25449e-06
-0.00114097
-2.57878e-05
5.71242e-07
-0.00113784
-3.13125e-05
-4.45073e-07
-0.00113299
-3.3946e-05
-1.8166e-06
-0.00112603
-3.08495e-05
-3.60337e-06
-0.00111653
-5.4183e-06
-0.00110601
-1.81519e-05
1.44344e-05
1.4865e-06
-0.00143135
5.25772e-06
2.09801e-06
-0.00143372
-3.98565e-06
2.33445e-06
-0.00143458
-1.32962e-05
2.2337e-06
-0.0014339
-2.25675e-05
1.75944e-06
-0.00143153
-3.15048e-05
8.76984e-07
-0.00142707
-3.94303e-05
-4.91109e-07
-0.00141984
-4.47345e-05
-2.3976e-06
-0.00140883
-4.34912e-05
-5.03655e-06
-0.00139252
-7.89356e-06
-0.00137301
-2.87081e-05
1.65217e-05
1.79765e-06
-0.00171966
6.22634e-06
2.5902e-06
-0.00172272
-4.1323e-06
2.91717e-06
-0.0017239
-1.46916e-05
2.84805e-06
-0.00172321
-2.54965e-05
2.32919e-06
-0.0017204
-3.64582e-05
1.31862e-06
-0.00171491
-4.71093e-05
-3.19695e-07
-0.00170552
-5.58657e-05
-2.67814e-06
-0.00169033
-5.78756e-05
-6.17887e-06
-0.00166566
-1.01739e-05
-0.00163381
-4.28848e-05
1.82726e-05
2.13999e-06
-0.00201013
7.19163e-06
3.02735e-06
-0.0020139
-3.9217e-06
3.40606e-06
-0.00201551
-1.53436e-05
3.3576e-06
-0.00201499
-2.7311e-05
2.82144e-06
-0.002012
-3.99854e-05
1.74634e-06
-0.00200583
-5.32039e-05
-6.84379e-08
-0.00199465
-6.55998e-05
-2.76873e-06
-0.00197548
-7.1927e-05
-7.05549e-06
-0.00194152
-1.21929e-05
-0.00189467
-5.86289e-05
1.95054e-05
2.36756e-06
-0.00229939
7.87428e-06
3.30008e-06
-0.0023039
-3.73169e-06
3.68376e-06
-0.00230593
-1.57147e-05
3.63142e-06
-0.00230561
-2.84885e-05
3.08018e-06
-0.00230254
-4.24899e-05
1.98234e-06
-0.00229592
-5.79587e-05
9.36173e-08
-0.00228333
-7.39574e-05
-2.78403e-06
-0.0022606
-8.55263e-05
-7.60775e-06
-0.00221703
-1.37671e-05
-0.00215329
-7.58011e-05
2.02621e-05
2.4063e-06
-0.00258901
8.39545e-06
3.24645e-06
-0.00259425
-3.40015e-06
3.57586e-06
-0.00259677
-1.56052e-05
3.47485e-06
-0.00259674
-2.88209e-05
2.92096e-06
-0.00259372
-4.37442e-05
1.8564e-06
-0.00258691
-6.10756e-05
2.14221e-08
-0.00257329
-8.04483e-05
-2.86735e-06
-0.00254755
-9.78697e-05
-7.85573e-06
-0.00249456
-1.48969e-05
-0.00241264
-9.31313e-05
2.02423e-05
2.11138e-06
-0.00287904
8.27286e-06
2.7589e-06
-0.00288499
-3.5139e-06
2.9613e-06
-0.00288772
-1.56836e-05
2.78341e-06
-0.0028876
-2.89502e-05
2.22317e-06
-0.00288424
-4.42597e-05
1.22592e-06
-0.00287693
-6.28395e-05
-4.01787e-07
-0.00286236
-8.5038e-05
-3.02105e-06
-0.00283429
-0.000108508
-7.33096e-06
-0.00277279
-1.48308e-05
-0.00267207
-0.000110091
1.96945e-05
1.19948e-06
-0.00316591
8.11982e-06
1.40465e-06
-0.00317247
-3.22812e-06
1.38942e-06
-0.0031756
-1.49154e-05
9.99151e-07
-0.00317569
-2.7795e-05
3.45728e-07
-0.00317234
-4.3046e-05
-6.07744e-07
-0.00316481
-6.2518e-05
-1.89529e-06
-0.00314949
-8.76697e-05
-3.75213e-06
-0.00312004
-0.000117052
-6.49586e-06
-0.00305143
-1.22158e-05
-0.0029292
-0.000126646
1.86071e-05
-0.00343396
7.07187e-06
-0.00344039
-4.05697e-06
-0.00344275
-1.54494e-05
-0.00344097
-2.78749e-05
-0.00343482
-4.25526e-05
-0.00342371
-6.14328e-05
-0.00340423
-8.7067e-05
-0.00336998
-0.000119681
-0.00329498
-0.00315502
-0.000139403
6.84926e-06
4.23544e-07
-0.00084619
2.5748e-06
6.54123e-07
-0.000847305
-1.89878e-06
7.44816e-07
-0.000847665
-6.24108e-06
6.82486e-07
-0.000847447
-1.01074e-05
4.7066e-07
-0.000846697
-1.30929e-05
1.08436e-07
-0.000845427
-1.47038e-05
-3.95765e-07
-0.000843662
-1.43362e-05
-1.02064e-06
-0.000841472
-1.13197e-05
-1.72049e-06
-0.000838996
-2.32881e-06
-0.000836481
-5.36414e-06
9.38731e-06
8.21249e-07
-0.00113556
3.29738e-06
1.26088e-06
-0.00113708
-2.96862e-06
1.42757e-06
-0.00113762
-9.13073e-06
1.32846e-06
-0.00113718
-1.48464e-05
9.52123e-07
-0.00113573
-1.96462e-05
2.91885e-07
-0.00113322
-2.28143e-05
-6.57324e-07
-0.00112956
-2.32475e-05
-1.87364e-06
-0.00112474
-1.92825e-05
-3.31393e-06
-0.0011189
-4.63266e-06
-0.00111323
-9.76448e-06
1.24562e-05
1.18677e-06
-0.00142417
4.59148e-06
1.79487e-06
-0.00142639
-3.40628e-06
2.02786e-06
-0.00142718
-1.13541e-05
1.91155e-06
-0.00142654
-1.8977e-05
1.41494e-06
-0.00142437
-2.58026e-05
5.13494e-07
-0.00142047
-3.09547e-05
-8.39113e-07
-0.00141451
-3.28546e-05
-2.64514e-06
-0.00140616
-2.86147e-05
-4.92463e-06
-0.00139515
-7.14085e-06
-0.00138373
-1.53861e-05
1.48911e-05
1.53228e-06
-0.00171097
5.63949e-06
2.33778e-06
-0.00171401
-3.75123e-06
2.66306e-06
-0.00171515
-1.32148e-05
2.56558e-06
-0.0017144
-2.2587e-05
1.99665e-06
-0.00171161
-3.15023e-05
9.20785e-07
-0.0017064
-3.90682e-05
-7.64615e-07
-0.00169802
-4.33525e-05
-3.1017e-06
-0.00168559
-4.00338e-05
-6.2704e-06
-0.00166763
-9.53762e-06
-0.0016476
-2.38433e-05
1.69735e-05
1.91764e-06
-0.0020002
6.66725e-06
2.83127e-06
-0.00200408
-3.74417e-06
3.21276e-06
-0.00200565
-1.4338e-05
3.12967e-06
-0.00200496
-2.51205e-05
2.52417e-06
-0.00200175
-3.59142e-05
1.34553e-06
-0.00199546
-4.59411e-05
-5.7706e-07
-0.00198481
-5.30693e-05
-3.34648e-06
-0.0019681
-5.16613e-05
-7.37688e-06
-0.00194182
-1.17709e-05
-0.00191046
-3.36393e-05
1.85169e-05
2.2057e-06
-0.00228842
7.43103e-06
3.17467e-06
-0.00229316
-3.7024e-06
3.56668e-06
-0.00229515
-1.51046e-05
3.48318e-06
-0.00229456
-2.69527e-05
2.85885e-06
-0.00229102
-3.93129e-05
1.63967e-06
-0.00228386
-5.16589e-05
-3.99842e-07
-0.00227117
-6.1872e-05
-3.43241e-06
-0.0022503
-6.33685e-05
-8.1224e-06
-0.00221478
-1.35883e-05
-0.00216983
-4.50076e-05
1.95105e-05
2.30161e-06
-0.00257719
8.00764e-06
3.18398e-06
-0.00258276
-3.49204e-06
3.52841e-06
-0.00258523
-1.53147e-05
3.40683e-06
-0.00258484
-2.7831e-05
2.78906e-06
-0.00258114
-4.1365e-05
1.60856e-06
-0.00257334
-5.57435e-05
-3.89655e-07
-0.00255892
-6.90373e-05
-3.48001e-06
-0.00253421
-7.42169e-05
-8.48704e-06
-0.00248902
-1.49516e-05
-0.00242864
-5.68558e-05
1.96934e-05
2.046e-06
-0.00286649
7.98255e-06
2.737e-06
-0.00287283
-3.61755e-06
2.96529e-06
-0.00287555
-1.55453e-05
2.79821e-06
-0.00287507
-2.82972e-05
2.21702e-06
-0.00287092
-4.24514e-05
1.15848e-06
-0.00286232
-5.83082e-05
-5.89384e-07
-0.0028463
-7.43919e-05
-3.40872e-06
-0.00281828
-8.38715e-05
-7.91096e-06
-0.00276388
-1.50077e-05
-0.00268684
-6.90459e-05
1.92708e-05
1.19947e-06
-0.00315282
7.86765e-06
1.43321e-06
-0.00315976
-3.38582e-06
1.47485e-06
-0.00316286
-1.49368e-05
1.15364e-06
-0.0031625
-2.74295e-05
5.70468e-07
-0.0031582
-4.16488e-05
-3.2739e-07
-0.0031491
-5.83926e-05
-1.6068e-06
-0.00313173
-7.72891e-05
-3.53838e-06
-0.00310101
-9.15606e-05
-6.47542e-06
-0.0030386
-1.2078e-05
-0.0029422
-8.14831e-05
1.82924e-05
-0.00342078
7.00267e-06
-0.00342767
-3.96537e-06
-0.00343031
-1.51885e-05
-0.00342859
-2.72606e-05
-0.00342218
-4.10518e-05
-0.00341025
-5.75072e-05
-0.00338938
-7.70923e-05
-0.00335394
-9.41522e-05
-0.0032844
-0.00317039
-9.0853e-05
4.81649e-06
2.50549e-07
-0.00084393
1.84263e-06
4.55223e-07
-0.000844786
-1.3146e-06
5.39578e-07
-0.000845048
-4.34624e-06
4.85048e-07
-0.000844901
-6.94561e-06
2.99035e-07
-0.000844397
-8.79005e-06
-1.34613e-08
-0.000843569
-9.55039e-06
-4.34149e-07
-0.000842467
-8.91212e-06
-9.31049e-07
-0.00084118
-6.64599e-06
-1.44775e-06
-0.000839814
-1.86621e-06
-0.000838415
-2.84604e-06
7.16942e-06
5.20042e-07
-0.00113173
2.51934e-06
9.28247e-07
-0.00113291
-2.32256e-06
1.08626e-06
-0.00113332
-7.02487e-06
9.9302e-07
-0.00113298
-1.12149e-05
6.42692e-07
-0.00113189
-1.44513e-05
3.97724e-08
-0.00113004
-1.61746e-05
-7.99198e-07
-0.00112747
-1.57044e-05
-1.82587e-06
-0.00112432
-1.22593e-05
-2.95183e-06
-0.00112085
-3.90797e-06
-0.00111779
-5.65215e-06
1.03347e-05
8.47496e-07
-0.00141854
3.86918e-06
1.4286e-06
-0.00142042
-2.77453e-06
1.65078e-06
-0.0014211
-9.29125e-06
1.52728e-06
-0.00142056
-1.53072e-05
1.03399e-06
-0.00141874
-2.03022e-05
1.60775e-07
-0.00141559
-2.3479e-05
-1.10447e-06
-0.00141103
-2.36625e-05
-2.72217e-06
-0.00140508
-1.91473e-05
-4.61304e-06
-0.001398
-6.3134e-06
-0.00139138
-9.09087e-06
1.29538e-05
1.19866e-06
-0.0017038
4.94891e-06
1.99483e-06
-0.00170657
-3.26058e-06
2.31175e-06
-0.0017076
-1.14348e-05
2.1934e-06
-0.0017069
-1.92467e-05
1.59932e-06
-0.00170437
-2.61813e-05
5.079e-07
-0.00169981
-3.12795e-05
-1.13931e-06
-0.00169289
-3.2888e-05
-3.33135e-06
-0.00168337
-2.80249e-05
-6.07448e-06
-0.00167103
-8.68587e-06
-0.00165871
-1.45459e-05
1.52836e-05
1.60835e-06
-0.00199165
6.01623e-06
2.52896e-06
-0.00199535
-3.42865e-06
2.90709e-06
-0.0019968
-1.29314e-05
2.79431e-06
-0.00199606
-2.22877e-05
2.13957e-06
-0.00199293
-3.10797e-05
9.01769e-07
-0.00198706
-3.82935e-05
-1.04231e-06
-0.0019777
-4.18772e-05
-3.73573e-06
-0.00196411
-3.73987e-05
-7.34595e-06
-0.00194503
-1.09857e-05
-0.00192469
-2.08742e-05
1.71011e-05
1.94685e-06
-0.00227866
6.84871e-06
2.93745e-06
-0.00228332
-3.52968e-06
3.3325e-06
-0.0022852
-1.40546e-05
3.21958e-06
-0.00228446
-2.46639e-05
2.53576e-06
-0.00228081
-3.51114e-05
1.23017e-06
-0.00227374
-4.44662e-05
-8.80316e-07
-0.00226197
-5.0442e-05
-3.91305e-06
-0.00224415
-4.72138e-05
-8.23877e-06
-0.00221712
-1.29086e-05
-0.0021866
-2.85183e-05
1.83257e-05
2.10507e-06
-0.00256641
7.47712e-06
3.02034e-06
-0.00257199
-3.44697e-06
3.3761e-06
-0.00257435
-1.45834e-05
3.23424e-06
-0.00257372
-2.60507e-05
2.56084e-06
-0.00256969
-3.78165e-05
1.28827e-06
-0.00256164
-4.91488e-05
-8.08908e-07
-0.00254766
-5.76872e-05
-3.952e-06
-0.00252563
-5.64455e-05
-8.68975e-06
-0.00248981
-1.43511e-05
-0.00244716
-3.64864e-05
1.87308e-05
1.89475e-06
-0.00285484
7.55294e-06
2.62605e-06
-0.00286126
-3.59865e-06
2.87566e-06
-0.0028639
-1.49943e-05
2.71418e-06
-0.00286315
-2.68827e-05
2.1098e-06
-0.00285858
-3.94574e-05
9.97648e-07
-0.00284946
-5.23273e-05
-8.27279e-07
-0.00283341
-6.33403e-05
-3.71045e-06
-0.00280751
-6.48624e-05
-8.09838e-06
-0.00276295
-1.44354e-05
-0.00270664
-4.49771e-05
1.84657e-05
1.14373e-06
-0.00314052
7.49028e-06
1.40447e-06
-0.00314756
-3.42609e-06
1.49448e-06
-0.00315056
-1.457e-05
1.22774e-06
-0.00314987
-2.63516e-05
6.95999e-07
-0.00314501
-3.91564e-05
-1.64645e-07
-0.00313514
-5.29369e-05
-1.43848e-06
-0.00311733
-6.63028e-05
-3.37893e-06
-0.00308798
-7.12613e-05
-6.28904e-06
-0.00303545
-1.12878e-05
-0.002963
-5.36133e-05
1.76248e-05
-0.00340839
6.79216e-06
-0.00341543
-3.81437e-06
-0.00341821
-1.46382e-05
-0.00341654
-2.60682e-05
-0.00341005
-3.8606e-05
-0.00339788
-5.23915e-05
-0.00337704
-6.65666e-05
-0.00334314
-7.36969e-05
-0.00328356
-0.0031958
-5.95787e-05
3.29103e-06
1.06635e-07
-0.000842406
1.28809e-06
2.78384e-07
-0.000843061
-8.66442e-07
3.53235e-07
-0.000843246
-2.92016e-06
3.08557e-07
-0.000843156
-4.63258e-06
1.54378e-07
-0.000842839
-5.77057e-06
-1.01271e-07
-0.00084233
-6.12988e-06
-4.35799e-07
-0.000841672
-5.55925e-06
-8.15912e-07
-0.000840934
-4.01137e-06
-1.18958e-06
-0.000840172
-1.47585e-06
-0.000839304
-1.64572e-06
5.24922e-06
2.43926e-07
-0.00112897
1.83134e-06
6.05107e-07
-0.00112981
-1.76716e-06
7.48609e-07
-0.00113012
-5.22951e-06
6.66595e-07
-0.00112988
-8.21493e-06
3.57695e-07
-0.0011291
-1.03601e-05
-1.65286e-07
-0.00112783
-1.12715e-05
-8.72271e-07
-0.00112612
-1.05668e-05
-1.70359e-06
-0.00112413
-7.94666e-06
-2.56249e-06
-0.00112209
-3.25309e-06
-0.00112042
-3.53714e-06
8.28541e-06
5.06252e-07
-0.00141423
3.15619e-06
1.03778e-06
-0.00141573
-2.16803e-06
1.24179e-06
-0.00141627
-7.33222e-06
1.11987e-06
-0.00141585
-1.19357e-05
6.54575e-07
-0.00141444
-1.54921e-05
-1.50202e-07
-0.00141205
-1.73731e-05
-1.27854e-06
-0.00140874
-1.68208e-05
-2.6624e-06
-0.00140467
-1.29828e-05
-4.17856e-06
-0.00140022
-5.47016e-06
-0.00139637
-5.77726e-06
1.09006e-05
8.3197e-07
-0.00169809
4.20998e-06
1.59344e-06
-0.00170044
-2.72823e-06
1.89415e-06
-0.00170131
-9.5613e-06
1.76477e-06
-0.00170071
-1.58695e-05
1.17449e-06
-0.00169858
-2.10948e-05
1.18491e-07
-0.00169485
-2.43883e-05
-1.41832e-06
-0.00168946
-2.45464e-05
-3.38004e-06
-0.00168249
-1.9815e-05
-5.66868e-06
-0.00167427
-7.72386e-06
-0.00166673
-9.54097e-06
1.33492e-05
1.24081e-06
-0.00198453
5.28063e-06
2.14313e-06
-0.00198783
-3.0236e-06
2.50994e-06
-0.00198911
-1.12879e-05
2.37613e-06
-0.00198841
-1.91564e-05
1.70036e-06
-0.00198559
-2.60806e-05
4.57431e-07
-0.00198048
-3.10472e-05
-1.42241e-06
-0.00197273
-3.24062e-05
-3.92186e-06
-0.00196221
-2.72139e-05
-7.03079e-06
-0.00194886
-9.98262e-06
-0.00193582
-1.38209e-05
1.53607e-05
1.61125e-06
-0.00227026
6.15758e-06
2.60138e-06
-0.00227457
-3.24293e-06
2.99204e-06
-0.00227628
-1.26802e-05
2.8555e-06
-0.0022755
-2.18959e-05
2.13549e-06
-0.00227203
-3.04297e-05
7.92962e-07
-0.00226554
-3.72139e-05
-1.29947e-06
-0.00225531
-4.02441e-05
-4.19187e-06
-0.00224085
-3.52507e-05
-8.01346e-06
-0.00222113
-1.18952e-05
-0.00220079
-1.9156e-05
1.67733e-05
1.82842e-06
-0.0025569
6.82394e-06
2.75995e-06
-0.0025622
-3.27924e-06
3.12104e-06
-0.00256438
-1.34841e-05
2.96235e-06
-0.00256362
-2.36831e-05
2.25066e-06
-0.00255961
-3.35635e-05
9.2618e-07
-0.00255189
-4.21058e-05
-1.18904e-06
-0.00253923
-4.70698e-05
-4.23799e-06
-0.00252062
-4.28706e-05
-8.50925e-06
-0.00249351
-1.32804e-05
-0.00246408
-2.45673e-05
1.73938e-05
1.66281e-06
-0.00284434
6.99601e-06
2.42491e-06
-0.00285053
-3.46262e-06
2.68957e-06
-0.00285301
-1.40719e-05
2.53102e-06
-0.00285211
-2.4845e-05
1.90868e-06
-0.00284747
-3.56487e-05
7.6383e-07
-0.00283849
-4.56547e-05
-1.08055e-06
-0.00282352
-5.26163e-05
-3.89009e-06
-0.00280089
-4.99896e-05
-7.91789e-06
-0.00276617
-1.32846e-05
-0.00272613
-3.04929e-05
1.72983e-05
1.03227e-06
-0.0031293
6.99159e-06
1.3147e-06
-0.00313615
-3.35106e-06
1.44387e-06
-0.00313897
-1.38365e-05
1.21918e-06
-0.00313807
-2.46457e-05
7.25918e-07
-0.00313302
-3.5816e-05
-1.04413e-07
-0.0031231
-4.67383e-05
-1.35925e-06
-0.00310613
-5.55504e-05
-3.23946e-06
-0.00307981
-5.51168e-05
-5.95541e-06
-0.00303784
-1.01072e-05
-0.00298516
-3.61386e-05
1.66157e-05
-0.00339706
6.44427e-06
-0.00340395
-3.59944e-06
-0.00340672
-1.38033e-05
-0.00340512
-2.43474e-05
-0.00339878
-3.53954e-05
-0.00338693
-4.65284e-05
-0.00336726
-5.61806e-05
-0.00333673
-5.73761e-05
-0.00328832
-0.0032236
-3.96882e-05
2.21191e-06
-1.86981e-09
-0.000841363
8.93592e-07
1.35957e-07
-0.000841879
-5.42944e-07
2.00193e-07
-0.00084201
-1.90621e-06
1.65597e-07
-0.000841958
-3.02093e-06
4.37977e-08
-0.000841768
-3.72704e-06
-1.56522e-07
-0.000841467
-3.90067e-06
-4.12694e-07
-0.000841086
-3.47116e-06
-6.95188e-07
-0.000840669
-2.4494e-06
-9.61524e-07
-0.000840232
-1.15676e-06
-0.000839628
-9.69452e-07
3.69436e-06
1.22039e-08
-0.00112698
1.26109e-06
3.18322e-07
-0.00112756
-1.32592e-06
4.43815e-07
-0.00112778
-3.79923e-06
3.7602e-07
-0.00112762
-5.87773e-06
1.16657e-07
-0.0011271
-7.28503e-06
-3.17041e-07
-0.00112626
-7.7594e-06
-8.89375e-07
-0.00112517
-7.09746e-06
-1.54019e-06
-0.00112395
-5.21311e-06
-2.18184e-06
-0.00112276
-2.67503e-06
-0.00112183
-2.29054e-06
6.45003e-06
1.92649e-07
-0.00141101
2.50262e-06
6.57363e-07
-0.00141212
-1.63103e-06
8.37144e-07
-0.00141253
-5.60395e-06
7.23958e-07
-0.00141222
-9.04154e-06
3.05647e-07
-0.00141119
-1.15316e-05
-4.03643e-07
-0.00140947
-1.26148e-05
-1.36946e-06
-0.00140718
-1.18353e-05
-2.51086e-06
-0.00140448
-8.82566e-06
-3.69519e-06
-0.00140172
-4.6607e-06
-0.00139947
-3.74711e-06
8.89324e-06
4.66307e-07
-0.00169365
3.47533e-06
1.16905e-06
-0.00169553
-2.2059e-06
1.44578e-06
-0.00169624
-7.74941e-06
1.31515e-06
-0.00169576
-1.27102e-05
7.55791e-07
-0.00169407
-1.6561e-05
-2.21502e-07
-0.00169119
-1.86215e-05
-1.59784e-06
-0.00168717
-1.80882e-05
-3.28698e-06
-0.00168225
-1.40473e-05
-5.14078e-06
-0.00167687
-6.72665e-06
-0.00167226
-6.45231e-06
1.13198e-05
8.47551e-07
-0.00197876
4.50765e-06
1.70412e-06
-0.00198155
-2.57501e-06
2.05068e-06
-0.00198264
-9.55464e-06
1.90613e-06
-0.00198202
-1.59935e-05
1.23992e-06
-0.00197964
-2.13085e-05
4.49663e-08
-0.00197543
-2.461e-05
-1.69977e-06
-0.00196932
-2.46924e-05
-3.9276e-06
-0.00196149
-1.98192e-05
-6.51837e-06
-0.00195235
-8.85921e-06
-0.00194405
-9.45679e-06
1.34196e-05
1.22648e-06
-0.00226325
5.3965e-06
2.18917e-06
-0.00226703
-2.87722e-06
2.56635e-06
-0.00226852
-1.11037e-05
2.4146e-06
-0.00226778
-1.88928e-05
1.6872e-06
-0.00226469
-2.56754e-05
3.62164e-07
-0.00225907
-3.04248e-05
-1.63015e-06
-0.00225063
-3.15589e-05
-4.27579e-06
-0.00223936
-2.63104e-05
-7.5307e-06
-0.00222537
-1.06719e-05
-0.00221195
-1.33386e-05
1.49481e-05
1.49151e-06
-0.00254876
6.07773e-06
2.41652e-06
-0.00255356
-3.01277e-06
2.77485e-06
-0.0025555
-1.211e-05
2.60525e-06
-0.00255471
-2.09335e-05
1.87897e-06
-0.00255098
-2.89925e-05
5.51134e-07
-0.00254402
-3.51951e-05
-1.50099e-06
-0.00253316
-3.76507e-05
-4.33645e-06
-0.00251811
-3.24417e-05
-8.03417e-06
-0.00249822
-1.19124e-05
-0.0024782
-1.70774e-05
1.5753e-05
1.36306e-06
-0.00283512
6.33408e-06
2.14028e-06
-0.00284083
-3.22466e-06
2.4122e-06
-0.00284309
-1.28455e-05
2.2565e-06
-0.00284214
-2.23465e-05
1.62819e-06
-0.00283771
-3.13613e-05
4.81484e-07
-0.00282941
-3.88668e-05
-1.32022e-06
-0.00281619
-4.28118e-05
-3.94755e-06
-0.00279734
-3.83397e-05
-7.47167e-06
-0.0027712
-1.18002e-05
-0.00274327
-2.13106e-05
1.58182e-05
8.70662e-07
-0.00311934