/*--------------------------------*- C++ -*----------------------------------*\
| =========                 |                                                 |
| \\      /  F ield         | foam-extend: Open Source CFD                    |
|  \\    /   O peration     | Version:     4.0                                |
|   \\  /    A nd           | Web:         http://www.foam-extend.org         |
|    \\/     M anipulation  |                                                 |
\*---------------------------------------------------------------------------*/
FoamFile
{
    version     2.0;
    format      ascii;
    class       volVectorField;
    location    "2200";
    object      Urel;
}
// * * * * * * * * * * * * * * * * * * * * * * * * * * * * * * * * * * * * * //

dimensions      [0 1 -1 0 0 0 0];

internalField   nonuniform List<vector> 
34480
(
(209.005 -9.79388 -19.0912)
(209.325 -9.29356 -21.5538)
(209.482 -8.56824 -23.9804)
(209.488 -7.64376 -26.4139)
(209.339 -6.55893 -28.9927)
(208.997 -5.31654 -31.8923)
(208.381 -3.8969 -35.5129)
(207.215 -2.18379 -40.1991)
(204.544 0.0514387 -48.1214)
(197.606 4.25579 -75.2919)
(209.938 -12.8027 -26.81)
(210.197 -11.6754 -29.594)
(210.324 -10.3938 -32.2538)
(210.297 -8.97176 -34.857)
(210.062 -7.44602 -37.5206)
(209.559 -5.83638 -40.4522)
(208.752 -4.16177 -44.1114)
(207.459 -2.36821 -49.2402)
(204.323 -0.29422 -58.0612)
(196.164 3.65908 -88.6314)
(210.627 -17.1002 -33.7469)
(210.862 -15.549 -36.8321)
(210.956 -13.8207 -39.7793)
(210.885 -11.9091 -42.6021)
(210.59 -9.87034 -45.4279)
(210.062 -7.73836 -48.5135)
(209.31 -5.54073 -52.3872)
(208.166 -3.20776 -58.0779)
(204.866 -0.572503 -67.7764)
(195.655 4.13216 -101.291)
(210.634 -20.4955 -41.1591)
(210.87 -18.4135 -44.5388)
(210.979 -16.1559 -47.7255)
(210.941 -13.7043 -50.7504)
(210.707 -11.1155 -53.7483)
(210.293 -8.42665 -57.0048)
(209.676 -5.67034 -61.0514)
(208.697 -2.76769 -67.1364)
(205.37 0.45428 -77.4583)
(195.357 5.84582 -112.879)
(210.794 -24.9724 -48.0208)
(211.058 -22.4808 -51.6779)
(211.205 -19.7757 -55.1512)
(211.23 -16.8387 -58.426)
(211.087 -13.7456 -61.6618)
(210.808 -10.5337 -65.1566)
(210.34 -7.22983 -69.4382)
(209.544 -3.74454 -75.9424)
(206.316 0.102264 -86.932)
(195.66 6.19687 -123.872)
(210.679 -28.227 -55.6171)
(210.954 -25.2353 -59.511)
(211.122 -22.0158 -63.1528)
(211.18 -18.5476 -66.5712)
(211.105 -14.8978 -69.9182)
(210.943 -11.1095 -73.5161)
(210.628 -7.2112 -77.877)
(210.046 -3.11609 -84.6083)
(207.066 1.37612 -96.0829)
(196.01 8.1081 -134.171)
(210.76 -33.009 -62.4753)
(211.076 -29.6282 -66.6094)
(211.272 -25.9842 -70.5008)
(211.369 -22.0661 -74.1258)
(211.353 -17.9489 -77.6657)
(211.288 -13.6691 -81.4437)
(211.113 -9.23143 -85.9757)
(210.748 -4.53254 -92.9911)
(208.099 0.6988 -105.044)
(196.748 8.26164 -144.125)
(210.588 -36.1792 -70.3223)
(210.908 -32.3265 -74.6636)
(211.084 -28.1647 -78.683)
(211.139 -23.7086 -82.4172)
(211.083 -19.0117 -86.0102)
(210.999 -14.1315 -89.7903)
(210.87 -9.06522 -94.2569)
(210.662 -3.70541 -101.229)
(208.421 2.37065 -113.47)
(197.104 10.8376 -153.055)
(210.533 -41.4426 -77.1517)
(210.897 -37.2228 -81.679)
(211.104 -32.6855 -85.8815)
(211.198 -27.8697 -89.7667)
(211.192 -22.8305 -93.52)
(211.153 -17.5978 -97.4457)
(211.092 -12.1154 -102.078)
(211.024 -6.23079 -109.204)
(209.111 0.774823 -121.818)
(197.68 10.7322 -161.342)
(209.568 -44.6438 -85.1136)
(209.843 -40.0417 -89.9221)
(209.789 -35.0028 -94.327)
(209.431 -29.6475 -98.3964)
(208.813 -23.9893 -102.257)
(208.027 -18.0692 -106.188)
(207.157 -11.8217 -110.662)
(206.371 -5.05624 -117.278)
(204.433 2.95958 -129.04)
(194.247 14.3052 -166.631)
(205.89 1.91218 3.00063)
(206.368 1.10965 1.54398)
(206.555 0.426545 -0.0098986)
(206.472 -0.117414 -1.61)
(206.094 -0.546534 -3.31976)
(205.332 -0.861347 -5.15154)
(203.985 -1.06595 -7.15906)
(201.619 -1.17182 -9.3173)
(198.153 -1.25691 -11.245)
(193.578 -1.15905 -14.3935)
(207.189 2.86846 2.79801)
(207.62 2.16412 1.1619)
(207.792 1.51926 -0.492165)
(207.703 0.943746 -2.18903)
(207.292 0.416367 -3.99626)
(206.436 -0.0689253 -5.97177)
(204.943 -0.527247 -8.20868)
(202.358 -0.993515 -10.9581)
(198.189 -1.58392 -14.0068)
(192.504 -1.82413 -20.5815)
(208.138 2.57735 3.30731)
(208.547 1.77127 1.54493)
(208.705 1.04459 -0.256612)
(208.605 0.422445 -2.0901)
(208.169 -0.133752 -4.02974)
(207.294 -0.636525 -6.15928)
(205.81 -1.11518 -8.66765)
(203.232 -1.58642 -12.0868)
(198.688 -2.15724 -16.3331)
(192.069 -2.07121 -26.7166)
(208.381 3.17765 3.30385)
(208.797 2.40312 1.45645)
(208.976 1.6941 -0.403158)
(208.917 1.08794 -2.29682)
(208.544 0.546128 -4.3099)
(207.772 0.0569636 -6.56881)
(206.4 -0.412677 -9.29936)
(203.916 -0.85564 -13.2586)
(199.142 -1.36375 -18.4765)
(191.709 -0.933667 -32.4541)
(208.735 2.66807 3.83876)
(209.177 1.80867 1.93616)
(209.395 1.04182 -0.0200398)
(209.402 0.40827 -2.0084)
(209.12 -0.147221 -4.14596)
(208.485 -0.635946 -6.58654)
(207.263 -1.09278 -9.57234)
(204.941 -1.48889 -14.0629)
(200.089 -1.90248 -20.2309)
(191.948 -1.07311 -37.6932)
(208.77 3.39277 3.63472)
(209.227 2.54091 1.72036)
(209.471 1.78331 -0.206421)
(209.52 1.16345 -2.17529)
(209.313 0.634636 -4.29747)
(208.805 0.182448 -6.7729)
(207.749 -0.224367 -9.84336)
(205.648 -0.548247 -14.6622)
(200.883 -0.830325 -21.5476)
(192.218 0.36452 -42.2101)
(208.975 2.56664 4.16048)
(209.468 1.61588 2.238)
(209.743 0.786224 0.259498)
(209.838 0.114026 -1.74923)
(209.698 -0.450893 -3.93558)
(209.305 -0.920123 -6.51557)
(208.412 -1.31018 -9.74433)
(206.555 -1.56842 -14.9177)
(201.998 -1.65637 -22.5677)
(192.908 0.0009883 -46.2451)
(208.89 3.37377 3.69611)
(209.391 2.40952 1.80391)
(209.655 1.59807 -0.0878471)
(209.725 0.950706 -2.02405)
(209.569 0.441085 -4.12014)
(209.197 0.0371202 -6.62265)
(208.397 -0.26411 -9.78119)
(206.761 -0.418549 -15.0053)
(202.532 -0.20825 -23.0527)
(193.316 1.83436 -49.2175)
(208.902 2.05548 4.24542)
(209.436 0.977412 2.4023)
(209.727 0.0661716 0.526296)
(209.833 -0.688931 -1.37744)
(209.734 -1.31845 -3.48049)
(209.437 -1.8348 -6.03033)
(208.758 -2.19012 -9.33531)
(207.35 -2.3217 -14.7936)
(203.46 -1.74193 -23.4885)
(193.992 1.0029 -51.498)
(207.98 2.86388 3.63718)
(208.457 1.69319 1.78985)
(208.574 0.796393 -0.0344191)
(208.361 0.0678463 -1.90524)
(207.833 -0.474169 -3.92971)
(207.026 -0.855627 -6.35375)
(205.826 -1.01331 -9.46969)
(204.023 -0.832126 -14.564)
(200.282 0.222235 -23.0379)
(191.635 4.0374 -51.3446)
(203.516 1.42786 2.33443)
(204.019 0.83352 1.21636)
(204.201 0.302486 -0.013212)
(204.097 -0.131797 -1.26336)
(203.696 -0.482406 -2.55458)
(202.949 -0.746762 -3.83241)
(201.764 -0.934643 -5.04904)
(199.988 -1.07157 -6.05479)
(197.433 -1.24293 -6.49852)
(194.217 -1.43228 -6.51694)
(204.912 2.41414 2.31335)
(205.407 1.8718 0.946243)
(205.586 1.3455 -0.448703)
(205.463 0.854858 -1.8657)
(204.999 0.389766 -3.33129)
(204.111 -0.0551196 -4.8481)
(202.638 -0.493108 -6.37971)
(200.31 -0.955824 -7.86297)
(196.686 -1.55464 -8.80245)
(191.846 -2.13666 -9.81075)
(205.946 2.21179 2.94828)
(206.446 1.52858 1.39563)
(206.627 0.890367 -0.2086)
(206.502 0.326913 -1.83795)
(206.014 -0.193837 -3.53874)
(205.061 -0.681805 -5.32768)
(203.444 -1.16174 -7.2146)
(200.8 -1.66382 -9.29201)
(196.298 -2.33236 -11.0028)
(189.856 -2.9113 -13.584)
(206.343 2.89662 2.9945)
(206.865 2.21998 1.31839)
(207.071 1.57922 -0.380629)
(206.981 1.01413 -2.11217)
(206.531 0.49122 -3.94018)
(205.615 0.000730957 -5.92297)
(203.983 -0.489228 -8.10644)
(201.169 -0.996081 -10.7405)
(195.93 -1.68117 -13.2006)
(187.994 -2.1664 -17.5587)
(206.845 2.42607 3.56918)
(207.4 1.64963 1.80582)
(207.642 0.940402 -0.0192596)
(207.608 0.340212 -1.87718)
(207.227 -0.201414 -3.86932)
(206.4 -0.692972 -6.08619)
(204.827 -1.16995 -8.60254)
(201.969 -1.63835 -11.8317)
(196.183 -2.28635 -15.1302)
(186.926 -2.57786 -21.5718)
(207.011 3.19988 3.39014)
(207.585 2.41709 1.59426)
(207.854 1.70753 -0.222144)
(207.862 1.11464 -2.08414)
(207.544 0.593844 -4.09206)
(206.814 0.132816 -6.38738)
(205.341 -0.303887 -9.06294)
(202.541 -0.715816 -12.7146)
(196.409 -1.27683 -16.715)
(186.061 -1.34016 -25.3331)
(207.329 2.39027 3.93919)
(207.934 1.50269 2.11706)
(208.233 0.719995 0.231642)
(208.287 0.0783759 -1.68917)
(208.031 -0.470582 -3.78512)
(207.401 -0.935184 -6.22091)
(206.046 -1.33786 -9.1216)
(203.366 -1.66943 -13.232)
(197.059 -2.06882 -18.0275)
(185.782 -1.79933 -28.9563)
(207.336 3.23546 3.47918)
(207.949 2.33238 1.68389)
(208.243 1.56573 -0.117291)
(208.279 0.948537 -1.96984)
(208.016 0.454237 -3.9845)
(207.414 0.0565458 -6.36718)
(206.144 -0.257363 -9.26047)
(203.617 -0.488011 -13.5543)
(197.325 -0.620688 -18.8722)
(185.386 -0.0697414 -31.8727)
(207.428 1.90361 4.03303)
(208.06 0.887478 2.2753)
(208.375 0.0349345 0.472966)
(208.441 -0.66068 -1.36136)
(208.219 -1.23125 -3.38766)
(207.679 -1.68702 -5.81508)
(206.52 -1.99269 -8.87644)
(204.187 -2.12676 -13.5149)
(198.029 -1.86078 -19.6421)
(185.306 -0.799303 -34.2638)
(206.572 2.76966 3.39246)
(207.152 1.67676 1.66398)
(207.337 0.850715 -0.0524188)
(207.165 0.187397 -1.82438)
(206.628 -0.293634 -3.74838)
(205.717 -0.615372 -6.03813)
(204.2 -0.726518 -8.92235)
(201.63 -0.54717 -13.3057)
(195.609 0.21759 -19.5469)
(182.827 2.30024 -34.6945)
(201.78 0.949045 1.70184)
(202.217 0.547645 0.911467)
(202.368 0.165577 0.00795219)
(202.269 -0.15793 -0.896369)
(201.921 -0.428653 -1.80004)
(201.306 -0.641232 -2.62146)
(200.394 -0.807889 -3.29565)
(199.16 -0.952136 -3.68718)
(197.601 -1.12936 -3.5805)
(195.87 -1.36494 -2.7529)
(203.102 1.90733 1.7915)
(203.57 1.53185 0.718242)
(203.732 1.13467 -0.387621)
(203.601 0.741646 -1.49703)
(203.153 0.353962 -2.60163)
(202.344 -0.0311674 -3.6709)
(201.095 -0.424397 -4.6288)
(199.302 -0.848187 -5.347)
(196.837 -1.37072 -5.40304)
(194.039 -1.93801 -4.61972)
(204.091 1.75964 2.50373)
(204.601 1.21975 1.20625)
(204.777 0.689924 -0.150672)
(204.635 0.204363 -1.51787)
(204.136 -0.26041 -2.91207)
(203.207 -0.712721 -4.31336)
(201.716 -1.17199 -5.65528)
(199.467 -1.66449 -6.84635)
(196.113 -2.2959 -7.3)
(192.033 -2.99167 -6.92407)
(204.551 2.52625 2.58738)
(205.107 1.97185 1.13205)
(205.312 1.42048 -0.354349)
(205.19 0.915791 -1.86101)
(204.689 0.432565 -3.42358)
(203.722 -0.0385013 -5.05629)
(202.095 -0.526483 -6.71332)
(199.508 -1.05382 -8.37936)
(195.291 -1.75961 -9.29355)
(189.826 -2.52587 -9.54037)
(205.136 2.10067 3.20308)
(205.737 1.43165 1.62567)
(205.977 0.799906 -0.0196943)
(205.896 0.249611 -1.68719)
(205.431 -0.261752 -3.4515)
(204.488 -0.742123 -5.35615)
(202.811 -1.22446 -7.3818)
(200.007 -1.72802 -9.61124)
(195.039 -2.4423 -11.1402)
(188.235 -3.18141 -12.368)
(205.393 2.92907 3.05304)
(206.022 2.23901 1.41874)
(206.289 1.59596 -0.243521)
(206.242 1.04539 -1.94357)
(205.817 0.548495 -3.75845)
(204.922 0.0928088 -5.77995)
(203.253 -0.359363 -8.01107)
(200.343 -0.826612 -10.6685)
(194.769 -1.50704 -12.7414)
(186.758 -2.16668 -15.1351)
(205.795 2.14585 3.63121)
(206.457 1.34299 1.94792)
(206.752 0.623167 0.194729)
(206.746 0.0240395 -1.58872)
(206.367 -0.498395 -3.52085)
(205.537 -0.951926 -5.71752)
(203.915 -1.36308 -8.22162)
(200.976 -1.74487 -11.3675)
(194.944 -2.30063 -14.1236)
(185.842 -2.77413 -17.9495)
(205.882 3.04174 3.18214)
(206.552 2.21927 1.51826)
(206.845 1.51081 -0.159057)
(206.827 0.933754 -1.8864)
(206.443 0.46319 -3.75571)
(205.63 0.0768735 -5.92602)
(204.047 -0.247142 -8.46751)
(201.146 -0.536121 -11.8565)
(194.856 -0.880847 -15.1101)
(184.868 -1.19399 -20.3183)
(206.043 1.70842 3.76472)
(206.723 0.770892 2.1238)
(207.033 -0.0164384 0.424111)
(207.038 -0.652883 -1.30778)
(206.688 -1.16976 -3.21014)
(205.919 -1.57422 -5.43799)
(204.393 -1.84581 -8.14329)
(201.582 -1.99548 -11.8891)
(195.22 -1.94759 -15.9862)
(184.257 -1.89923 -22.3806)
(205.255 2.64808 3.10275)
(205.888 1.64527 1.5149)
(206.106 0.893112 -0.0757198)
(205.942 0.293668 -1.72657)
(205.372 -0.131722 -3.51632)
(204.348 -0.403134 -5.6127)
(202.582 -0.481762 -8.16702)
(199.581 -0.316646 -11.7256)
(193.24 0.228205 -16.0577)
(181.785 1.20166 -22.8631)
(200.57 0.551043 1.19399)
(200.913 0.294843 0.666159)
(201.027 0.0339805 0.0358046)
(200.952 -0.195357 -0.58305)
(200.693 -0.396732 -1.1874)
(200.255 -0.562474 -1.69749)
(199.643 -0.702144 -2.0666)
(198.88 -0.830879 -2.20479)
(198.015 -0.975157 -2.02034)
(197.163 -1.14166 -1.42914)
(201.727 1.43435 1.31147)
(202.12 1.19985 0.510363)
(202.257 0.920562 -0.321144)
(202.144 0.621993 -1.14554)
(201.77 0.313341 -1.93585)
(201.122 -0.00414224 -2.64893)
(200.178 -0.334968 -3.21064)
(198.933 -0.688937 -3.5126)
(197.411 -1.0943 -3.32758)
(195.913 -1.51141 -2.51766)
(202.576 1.29246 2.05061)
(203.047 0.890353 1.01582)
(203.209 0.470539 -0.0831451)
(203.075 0.0687246 -1.18026)
(202.623 -0.329871 -2.26749)
(201.813 -0.729887 -3.30336)
(200.582 -1.14454 -4.20333)
(198.865 -1.59132 -4.83742)
(196.582 -2.12551 -4.8133)
(194.192 -2.69439 -3.92701)
(203.016 2.11704 2.14861)
(203.559 1.69078 0.935726)
(203.755 1.23724 -0.315274)
(203.625 0.802942 -1.57403)
(203.135 0.372593 -2.84697)
(202.225 -0.060334 -4.11439)
(200.774 -0.519972 -5.29411)
(198.641 -1.02552 -6.27062)
(195.551 -1.6649 -6.46647)
(192.082 -2.36926 -5.60761)
(203.615 1.72844 2.79453)
(204.22 1.17863 1.43123)
(204.452 0.635464 -0.00631997)
(204.348 0.145626 -1.45367)
(203.857 -0.323177 -2.95341)
(202.908 -0.776908 -4.50643)
(201.316 -1.24408 -6.04459)
(198.859 -1.74702 -7.49226)
(194.995 -2.42658 -8.08619)
(190.378 -3.19402 -7.53446)
(203.912 2.60685 2.66988)
(204.56 2.02427 1.22717)
(204.821 1.45987 -0.25159)
(204.741 0.961986 -1.7575)
(204.263 0.50053 -3.33651)
(203.307 0.0643368 -5.02963)
(201.636 -0.383978 -6.78402)
(198.951 -0.87069 -8.60572)
(194.392 -1.55948 -9.55984)
(188.651 -2.35324 -9.45959)
(204.361 1.85318 3.2759)
(205.049 1.1509 1.76139)
(205.337 0.505619 0.169339)
(205.289 -0.0421293 -1.44462)
(204.839 -0.529229 -3.16815)
(203.906 -0.962633 -5.06293)
(202.204 -1.37114 -7.11176)
(199.369 -1.77976 -9.39675)
(194.213 -2.37985 -10.8782)
(187.389 -3.09967 -11.5022)
(204.503 2.80586 2.83953)
(205.203 2.07968 1.33416)
(205.494 1.44058 -0.193304)
(205.438 0.912078 -1.76624)
(204.979 0.473419 -3.44885)
(204.043 0.10601 -5.34429)
(202.326 -0.218728 -7.45833)
(199.419 -0.54328 -9.99068)
(193.838 -0.991332 -11.8664)
(186.054 -1.6566 -13.2456)
(204.716 1.47464 3.45746)
(205.424 0.630499 1.95881)
(205.728 -0.0843228 0.386606)
(205.691 -0.659612 -1.21493)
(205.256 -1.1242 -2.95736)
(204.347 -1.48268 -4.93707)
(202.644 -1.72722 -7.22508)
(199.714 -1.89034 -10.0745)
(193.888 -1.98186 -12.6837)
(185.056 -2.39471 -14.8186)
(203.989 2.50151 2.77485)
(204.655 1.59938 1.34484)
(204.896 0.925179 -0.10359)
(204.74 0.389891 -1.61311)
(204.153 0.0174659 -3.24018)
(203.068 -0.209337 -5.10194)
(201.199 -0.264037 -7.27263)
(198.102 -0.119005 -10.0004)
(192.174 0.260004 -12.811)
(182.633 0.640341 -15.1309)
(199.739 0.251604 0.824929)
(199.992 0.0930515 0.488456)
(200.074 -0.079629 0.063642)
(200.022 -0.236569 -0.342677)
(199.847 -0.382157 -0.735368)
(199.56 -0.507404 -1.04648)
(199.175 -0.618557 -1.25086)
(198.723 -0.723089 -1.29412)
(198.246 -0.83173 -1.14384)
(197.791 -0.943276 -0.777514)
(200.716 1.04028 0.910978)
(201.019 0.910903 0.336842)
(201.125 0.728043 -0.260056)
(201.038 0.512295 -0.845091)
(200.754 0.277065 -1.38642)
(200.276 0.0265779 -1.84328)
(199.612 -0.237916 -2.15826)
(198.793 -0.516981 -2.25868)
(197.884 -0.815535 -2.03779)
(197.078 -1.10379 -1.43096)
(201.39 0.861344 1.6362)
(201.787 0.574795 0.842407)
(201.926 0.254563 -0.0151303)
(201.812 -0.0663073 -0.863663)
(201.435 -0.396001 -1.6808)
(200.783 -0.73501 -2.4179)
(199.838 -1.08992 -2.99862)
(198.609 -1.46939 -3.31461)
(197.135 -1.89549 -3.14391)
(195.748 -2.32545 -2.34652)
(201.757 1.71178 1.72062)
(202.246 1.4036 0.746449)
(202.422 1.04597 -0.26906)
(202.3 0.685187 -1.28301)
(201.859 0.31489 -2.28023)
(201.068 -0.0672866 -3.22102)
(199.87 -0.478008 -4.01847)
(198.229 -0.929757 -4.54532)
(196.095 -1.46877 -4.43731)
(193.954 -2.04093 -3.43914)
(202.315 1.34285 2.37776)
(202.883 0.910616 1.2369)
(203.096 0.459172 0.0182023)
(202.986 0.0357215 -1.20001)
(202.514 -0.381795 -2.43253)
(201.633 -0.796001 -3.64936)
(200.238 -1.22864 -4.76368)
(198.234 -1.69922 -5.647)
(195.415 -2.2974 -5.77448)
(192.408 -2.96225 -4.76578)
(202.609 2.25802 2.26811)
(203.235 1.78703 1.03213)
(203.481 1.30739 -0.246335)
(203.382 0.869206 -1.54171)
(202.896 0.451834 -2.87067)
(201.963 0.0470708 -4.23235)
(200.422 -0.377885 -5.54361)
(198.121 -0.84947 -6.71202)
(194.64 -1.48335 -7.04648)
(190.723 -2.22655 -6.09548)
(203.069 1.53053 2.8948)
(203.745 0.936576 1.568)
(204.019 0.37319 0.157041)
(203.944 -0.116499 -1.26696)
(203.463 -0.560984 -2.76042)
(202.51 -0.965305 -4.33675)
(200.874 -1.35713 -5.9376)
(198.34 -1.76613 -7.50453)
(194.245 -2.34333 -8.22485)
(189.395 -3.0748 -7.5587)
(203.238 2.5405 2.46848)
(203.936 1.92013 1.14042)
(204.217 1.35834 -0.217713)
(204.134 0.885078 -1.61512)
(203.638 0.485091 -3.0869)
(202.658 0.143884 -4.6842)
(200.956 -0.169016 -6.3613)
(198.266 -0.501357 -8.14045)
(193.684 -0.973438 -9.1345)
(187.953 -1.717 -8.79348)
(203.487 1.21047 3.12327)
(204.195 0.469746 1.78572)
(204.486 -0.167035 0.360974)
(204.417 -0.679469 -1.0879)
(203.934 -1.09258 -2.64465)
(202.962 -1.4084 -4.35242)
(201.235 -1.62846 -6.21892)
(198.441 -1.79482 -8.27891)
(193.522 -1.95814 -9.83225)
(186.815 -2.51403 -9.91454)
(202.811 2.3362 2.41859)
(203.48 1.54223 1.1589)
(203.732 0.949097 -0.133875)
(203.581 0.47824 -1.48534)
(202.993 0.156482 -2.92826)
(201.897 -0.0308393 -4.53206)
(200.047 -0.0680848 -6.30671)
(197.092 0.0555877 -8.29694)
(191.995 0.313707 -9.9837)
(184.567 0.412607 -10.0825)
(199.164 0.042046 0.576405)
(199.35 -0.0566544 0.369803)
(199.405 -0.170496 0.087668)
(199.373 -0.275885 -0.172414)
(199.262 -0.379343 -0.425512)
(199.085 -0.471478 -0.616448)
(198.854 -0.556145 -0.7364)
(198.596 -0.635611 -0.752734)
(198.334 -0.712885 -0.658281)
(198.073 -0.78411 -0.451639)
(199.987 0.740542 0.599137)
(200.204 0.682212 0.20034)
(200.282 0.571897 -0.211123)
(200.219 0.423404 -0.609748)
(200.019 0.251539 -0.966762)
(199.688 0.0619906 -1.25026)
(199.246 -0.1399 -1.42132)
(198.729 -0.34977 -1.43692)
(198.195 -0.562479 -1.25229)
(197.758 -0.754426 -0.850839)
(200.484 0.495309 1.28439)
(200.798 0.296197 0.694489)
(200.908 0.0588406 0.0458795)
(200.82 -0.189576 -0.590971)
(200.527 -0.453309 -1.18884)
(200.033 -0.729629 -1.70216)
(199.348 -1.0198 -2.07146)
(198.505 -1.32503 -2.22263)
(197.578 -1.64878 -2.04291)
(196.774 -1.9578 -1.47328)
(200.756 1.34183 1.33086)
(201.168 1.13229 0.574152)
(201.318 0.861281 -0.222565)
(201.214 0.571584 -1.0122)
(200.844 0.263427 -1.76775)
(200.199 -0.061598 -2.44281)
(199.265 -0.412071 -2.96162)
(198.061 -0.792952 -3.22042)
(196.636 -1.22243 -3.0138)
(195.323 -1.6582 -2.1931)
(201.237 0.972433 1.97841)
(201.74 0.646178 1.052)
(201.927 0.282793 0.0482835)
(201.823 -0.0728224 -0.947889)
(201.4 -0.433977 -1.93181)
(200.637 -0.799582 -2.85714)
(199.485 -1.18373 -3.63814)
(197.93 -1.59973 -4.14868)
(195.952 -2.09714 -4.06612)
(194.018 -2.62802 -3.11861)
(201.496 1.90604 1.87018)
(202.069 1.54152 0.842225)
(202.291 1.14691 -0.231515)
(202.188 0.77194 -1.31374)
(201.73 0.404626 -2.39848)
(200.879 0.0404704 -3.45742)
(199.545 -0.345734 -4.39851)
(197.674 -0.775308 -5.09979)
(195.126 -1.32015 -5.10534)
(192.503 -1.94588 -4.03117)
(201.937 1.19679 2.50663)
(202.572 0.710925 1.37502)
(202.823 0.232062 0.155332)
(202.734 -0.195512 -1.06947)
(202.261 -0.591904 -2.32897)
(201.355 -0.959475 -3.60155)
(199.881 -1.32183 -4.80833)
(197.739 -1.70696 -5.82719)
(194.63 -2.22188 -6.0993)
(191.265 -2.86469 -5.07354)
(202.109 2.25987 2.08473)
(202.773 1.74807 0.943579)
(203.036 1.26767 -0.233465)
(202.939 0.854034 -1.44306)
(202.441 0.497762 -2.69418)
(201.487 0.188494 -3.99741)
(199.909 -0.102133 -5.27594)
(197.56 -0.417749 -6.45332)
(193.977 -0.857935 -6.88321)
(189.879 -1.53919 -5.92344)
(202.377 0.926435 2.77529)
(203.057 0.293473 1.60972)
(203.33 -0.262323 0.346033)
(203.242 -0.711201 -0.935344)
(202.745 -1.0737 -2.29237)
(201.779 -1.34945 -3.72564)
(200.146 -1.54601 -5.20097)
(197.645 -1.70593 -6.629)
(193.703 -1.88957 -7.46379)
(188.79 -2.41859 -6.70019)
(201.739 2.16029 2.04536)
(202.386 1.47797 0.962411)
(202.635 0.967449 -0.165579)
(202.491 0.56077 -1.34754)
(201.923 0.287424 -2.59376)
(200.866 0.134965 -3.93387)
(199.13 0.110284 -5.33121)
(196.474 0.213093 -6.7145)
(192.318 0.384833 -7.61554)
(186.786 0.372416 -6.78117)
(198.758 -0.0985852 0.417822)
(198.895 -0.162808 0.295599)
(198.933 -0.23977 0.107065)
(198.914 -0.310403 -0.0578154)
(198.847 -0.383559 -0.222963)
(198.742 -0.450083 -0.343331)
(198.608 -0.512534 -0.420354)
(198.463 -0.570494 -0.432977)
(198.316 -0.623773 -0.383272)
(198.149 -0.668331 -0.273341)
(199.462 0.530541 0.367364)
(199.61 0.516772 0.0968154)
(199.664 0.457688 -0.176496)
(199.622 0.36063 -0.43792)
(199.488 0.240206 -0.66486)
(199.27 0.102412 -0.835083)
(198.988 -0.0455475 -0.924314)
(198.67 -0.197347 -0.908717)
(198.358 -0.344978 -0.771837)
(198.116 -0.470783 -0.513406)
(199.804 0.204702 1.0022)
(200.038 0.0665084 0.5747)
(200.121 -0.106245 0.0962172)
(200.056 -0.293675 -0.370686)
(199.842 -0.498338 -0.8001)
(199.487 -0.715873 -1.15459)
(199.01 -0.944167 -1.39157)
(198.451 -1.17969 -1.46534)
(197.875 -1.41733 -1.32183)
(197.405 -1.63231 -0.946368)
(199.981 1.02622 0.994752)
(200.31 0.892676 0.424617)
(200.431 0.694861 -0.180526)
(200.348 0.469751 -0.77617)
(200.055 0.221564 -1.33168)
(199.556 -0.0453115 -1.80316)
(198.861 -0.332704 -2.13148)
(198.009 -0.639719 -2.24272)
(197.074 -0.968042 -2.02965)
(196.27 -1.28585 -1.42359)
(200.368 0.638936 1.61522)
(200.79 0.401286 0.883467)
(200.948 0.117302 0.0791526)
(200.857 -0.173041 -0.713729)
(200.501 -0.476474 -1.47939)
(199.875 -0.788743 -2.16736)
(198.968 -1.11725 -2.70373)
(197.808 -1.46826 -2.98663)
(196.452 -1.86422 -2.83151)
(195.217 -2.26698 -2.08466)
(200.571 1.57147 1.49536)
(201.071 1.30138 0.664908)
(201.264 0.987021 -0.210874)
(201.167 0.675257 -1.08901)
(200.761 0.361056 -1.9489)
(200.028 0.0434543 -2.74874)
(198.929 -0.294269 -3.40235)
(197.47 -0.666256 -3.79559)
(195.656 -1.11022 -3.64705)
(193.92 -1.60354 -2.71234)
(200.975 0.870505 2.12922)
(201.545 0.485566 1.18934)
(201.768 0.0892992 0.161186)
(201.676 -0.275014 -0.86583)
(201.239 -0.620043 -1.90106)
(200.427 -0.945279 -2.90236)
(199.167 -1.26887 -3.78743)
(197.433 -1.61301 -4.42106)
(195.148 -2.04673 -4.44753)
(192.848 -2.56768 -3.45702)
(201.126 1.97905 1.70451)
(201.733 1.57208 0.750404)
(201.97 1.17308 -0.242246)
(201.869 0.820875 -1.26099)
(201.399 0.511422 -2.29421)
(200.523 0.238185 -3.32545)
(199.137 -0.0226457 -4.26583)
(197.179 -0.305935 -5.00179)
(194.476 -0.683706 -5.08979)
(191.603 -1.24171 -4.02946)
(201.401 0.634398 2.42798)
(202.031 0.107744 1.43679)
(202.279 -0.367138 0.340405)
(202.183 -0.75318 -0.76697)
(201.704 -1.06639 -1.92169)
(200.798 -1.30422 -3.09457)
(199.334 -1.47738 -4.22892)
(197.206 -1.62398 -5.18397)
(194.166 -1.79834 -5.56512)
(190.665 -2.23199 -4.57265)
(200.788 1.9833 1.66788)
(201.389 1.41183 0.76146)
(201.625 0.983341 -0.198037)
(201.492 0.639605 -1.20536)
(200.961 0.412115 -2.25172)
(199.985 0.290273 -3.33733)
(198.432 0.274567 -4.39689)
(196.156 0.35829 -5.31039)
(192.9 0.468951 -5.69503)
(188.925 0.424348 -4.59125)
(198.459 -0.191839 0.321321)
(198.566 -0.237064 0.252254)
(198.592 -0.292043 0.122522)
(198.581 -0.340208 0.0170513)
(198.542 -0.392449 -0.0945418)
(198.482 -0.440155 -0.1744)
(198.406 -0.485372 -0.22968)
(198.324 -0.526619 -0.245343)
(198.24 -0.56267 -0.226324)
(198.121 -0.590096 -0.173614)
(199.081 0.396154 0.19953)
(199.178 0.408817 0.0191401)
(199.214 0.384227 -0.15572)
(199.188 0.324706 -0.320329)
(199.101 0.243985 -0.45855)
(198.964 0.147732 -0.556164)
(198.789 0.0432112 -0.598972)
(198.597 -0.0630542 -0.57409)
(198.415 -0.163326 -0.477351)
(198.279 -0.244624 -0.311659)
(199.296 -0.0131157 0.785572)
(199.462 -0.111708 0.4815)
(199.522 -0.236665 0.134856)
(199.477 -0.375327 -0.201996)
(199.327 -0.529955 -0.507296)
(199.082 -0.696066 -0.752815)
(198.763 -0.869805 -0.909795)
(198.401 -1.04559 -0.952096)
(198.046 -1.21563 -0.854363)
(197.77 -1.36196 -0.621864)
(199.393 0.772522 0.717248)
(199.643 0.693607 0.299742)
(199.737 0.554314 -0.145787)
(199.674 0.38487 -0.581516)
(199.453 0.191315 -0.978543)
(199.084 -0.0204247 -1.30016)
(198.586 -0.247826 -1.50354)
(198 -0.486474 -1.54018)
(197.394 -0.730173 -1.35779)
(196.901 -0.955265 -0.931636)
(199.684 0.355907 1.29905)
(200.022 0.187747 0.735368)
(200.149 -0.0283594 0.107102)
(200.075 -0.25909 -0.508438)
(199.79 -0.506789 -1.09104)
(199.3 -0.765126 -1.594)
(198.614 -1.03665 -1.95891)
(197.776 -1.32169 -2.11248)
(196.861 -1.62696 -1.95428)
(196.076 -1.92123 -1.41137)
(199.824 1.2696 1.15786)
(200.24 1.07803 0.505855)
(200.401 0.835426 -0.187703)
(200.317 0.583692 -0.879708)
(199.975 0.322717 -1.54223)
(199.374 0.0542867 -2.13052)
(198.506 -0.230487 -2.57194)
(197.407 -0.539362 -2.7756)
(196.141 -0.8869 -2.57477)
(195.002 -1.2574 -1.84141)
(200.181 0.567597 1.77741)
(200.671 0.271564 1.01671)
(200.861 -0.0478559 0.171462)
(200.776 -0.350615 -0.668369)
(200.393 -0.643423 -1.49876)
(199.701 -0.923217 -2.26924)
(198.669 -1.20281 -2.90498)
(197.317 -1.49714 -3.2853)
(195.675 -1.84715 -3.19667)
(194.124 -2.24551 -2.37616)
(200.293 1.71211 1.34273)
(200.825 1.40088 0.567186)
(201.032 1.07955 -0.245984)
(200.935 0.787937 -1.0796)
(200.514 0.526335 -1.9079)
(199.748 0.291436 -2.69973)
(198.584 0.0651378 -3.3678)
(197.017 -0.178183 -3.80031)
(195.031 -0.485435 -3.70303)
(193.051 -0.910428 -2.75657)
(200.567 0.34608 2.0954)
(201.128 -0.0809002 1.27286)
(201.347 -0.477992 0.34252)
(201.252 -0.80359 -0.59266)
(200.814 -1.06956 -1.55265)
(200.006 -1.27155 -2.49081)
(198.753 -1.42131 -3.34286)
(197.016 -1.55014 -3.96246)
(194.74 -1.70152 -4.08207)
(192.303 -2.03017 -3.14726)
(199.967 1.81518 1.29878)
(200.505 1.34964 0.562134)
(200.719 1.00026 -0.231043)
(200.598 0.71697 -1.06531)
(200.122 0.53228 -1.91744)
(199.256 0.437117 -2.76893)
(197.923 0.427777 -3.54126)
(196.052 0.494861 -4.1095)
(193.582 0.562937 -4.17927)
(190.808 0.519247 -3.11551)
(198.231 -0.255878 0.265882)
(198.318 -0.290816 0.229576)
(198.336 -0.333271 0.135499)
(198.331 -0.367403 0.0658239)
(198.309 -0.405729 -0.013989)
(198.275 -0.440217 -0.071127)
(198.232 -0.472832 -0.115474)
(198.186 -0.501867 -0.135259)
(198.136 -0.525961 -0.135995)
(198.042 -0.542406 -0.116926)
(198.799 0.320789 0.0783172)
(198.861 0.348618 -0.0402095)
(198.885 0.346519 -0.14703)
(198.869 0.313464 -0.245192)
(198.815 0.262219 -0.324118)
(198.73 0.197763 -0.375311)
(198.624 0.126465 -0.390984)
(198.51 0.0541678 -0.364006)
(198.404 -0.0127705 -0.295301)
(198.325 -0.0647922 -0.185977)
(198.915 -0.168136 0.625048)
(199.027 -0.242405 0.411188)
(199.069 -0.333433 0.162584)
(199.039 -0.434758 -0.0786734)
(198.938 -0.549022 -0.295561)
(198.776 -0.672597 -0.468004)
(198.568 -0.801033 -0.577349)
(198.339 -0.928557 -0.609534)
(198.122 -1.04765 -0.552252)
(197.959 -1.14568 -0.417735)
(198.953 0.579663 0.495959)
(199.136 0.537632 0.198547)
(199.206 0.442982 -0.119533)
(199.16 0.319375 -0.428713)
(199.001 0.173148 -0.704584)
(198.738 0.0107715 -0.91885)
(198.392 -0.163248 -1.04216)
(197.999 -0.342969 -1.04432)
(197.61 -0.519712 -0.902122)
(197.307 -0.676417 -0.609793)
(199.155 0.129257 1.03368)
(199.415 0.0126677 0.609046)
(199.513 -0.148001 0.129608)
(199.456 -0.326748 -0.337641)
(199.237 -0.523335 -0.772427)
(198.869 -0.730675 -1.13571)
(198.369 -0.948068 -1.38416)
(197.779 -1.1721 -1.46915)
(197.171 -1.40184 -1.3383)
(196.673 -1.61155 -0.963769)
(199.234 1.00958 0.866286)
(199.566 0.879517 0.368616)
(199.696 0.698011 -0.164528)
(199.626 0.500663 -0.694061)
(199.352 0.290357 -1.19036)
(198.879 0.0706919 -1.6123)
(198.218 -0.161109 -1.90292)
(197.415 -0.4082 -1.9971)
(196.546 -0.671762 -1.79865)
(195.804 -0.940848 -1.25436)
(199.542 0.300036 1.46177)
(199.947 0.0783504 0.861225)
(200.104 -0.172686 0.183229)
(200.03 -0.418058 -0.486984)
(199.71 -0.660142 -1.13794)
(199.145 -0.893976 -1.71952)
(198.333 -1.12812 -2.16946)
(197.312 -1.37051 -2.39233)
(196.155 -1.64428 -2.26747)
(195.119 -1.93664 -1.6387)
(199.603 1.47053 1.01144)
(200.052 1.24239 0.399162)
(200.227 0.99195 -0.246576)
(200.14 0.75766 -0.908151)
(199.779 0.542888 -1.55191)
(199.138 0.346763 -2.14154)
(198.199 0.157144 -2.5994)
(196.988 -0.0439205 -2.83418)
(195.561 -0.284761 -2.65428)
(194.218 -0.59486 -1.88864)
(199.875 0.0716826 1.78976)
(200.357 -0.266227 1.12331)
(200.544 -0.591369 0.35082)
(200.456 -0.860593 -0.421419)
(200.074 -1.08229 -1.20229)
(199.384 -1.25082 -1.93798)
(198.354 -1.3776 -2.56667)
(196.988 -1.48636 -2.96001)
(195.326 -1.60999 -2.94813)
(193.662 -1.84766 -2.17781)
(199.278 1.66539 0.949224)
(199.739 1.2974 0.369926)
(199.927 1.02194 -0.264779)
(199.822 0.795286 -0.933877)
(199.409 0.649778 -1.60479)
(198.671 0.577628 -2.24963)
(197.569 0.572792 -2.78834)
(196.087 0.625847 -3.11461)
(194.264 0.664524 -3.01093)
(192.376 0.633187 -2.10698)
(198.05 -0.304445 0.237587)
(198.125 -0.333822 0.221026)
(198.138 -0.369518 0.147752)
(198.136 -0.395218 0.0987699)
(198.124 -0.424612 0.0372869)
(198.104 -0.450182 -0.00768707)
(198.08 -0.473987 -0.04689)
(198.054 -0.494436 -0.0705259)
(198.023 -0.510369 -0.0840007)
(197.944 -0.519708 -0.0851186)
(198.586 0.289299 -0.0111797)
(198.625 0.325977 -0.0877528)
(198.641 0.338252 -0.14829)
(198.631 0.323485 -0.201419)
(198.599 0.293506 -0.240921)
(198.548 0.252443 -0.261985)
(198.484 0.205526 -0.260766)
(198.417 0.157603 -0.233)
(198.354 0.113493 -0.181772)
(198.307 0.0804125 -0.105193)
(198.623 -0.273249 0.509562)
(198.697 -0.333215 0.359444)
(198.725 -0.400883 0.181227)
(198.706 -0.474689 0.00785976)
(198.64 -0.557874 -0.147764)
(198.535 -0.647793 -0.272092)
(198.403 -0.740357 -0.353221)
(198.261 -0.830526 -0.384084)
(198.13 -0.912149 -0.35775)
(198.034 -0.976617 -0.288331)
(198.629 0.440988 0.324129)
(198.757 0.422395 0.118305)
(198.807 0.36047 -0.101666)
(198.776 0.273143 -0.31413)
(198.665 0.16621 -0.500127)
(198.484 0.0458223 -0.638954)
(198.251 -0.0831143 -0.711388)
(197.992 -0.214529 -0.699123)
(197.744 -0.340004 -0.593786)
(197.558 -0.447759 -0.395174)
(198.753 -0.0412051 0.81744)