/*--------------------------------*- C++ -*----------------------------------*\
| =========                 |                                                 |
| \\      /  F ield         | foam-extend: Open Source CFD                    |
|  \\    /   O peration     | Version:     4.0                                |
|   \\  /    A nd           | Web:         http://www.foam-extend.org         |
|    \\/     M anipulation  |                                                 |
\*---------------------------------------------------------------------------*/
FoamFile
{
    version     2.0;
    format      ascii;
    class       volScalarField;
    location    "350";
    object      alphat;
}
// * * * * * * * * * * * * * * * * * * * * * * * * * * * * * * * * * * * * * //

dimensions      [1 -1 -1 0 0 0 0];

internalField   nonuniform List<scalar> 
34480
(
0.00193732
0.00193497
0.00193379
0.00193352
0.00193449
0.00193798
0.00194872
0.00198027
0.00205284
0.00217225
0.0163043
0.0150506
0.0144014
0.0137674
0.0114763
0.00658085
0.00289517
0.00164788
0.00172048
0.00251739
0.04471
0.0424607
0.0403141
0.0361128
0.0260114
0.0123536
0.00462882
0.00222475
0.00202693
0.00286097
0.0490618
0.0467975
0.0447215
0.0400198
0.0281112
0.0126497
0.00450461
0.00208305
0.00193379
0.00287874
0.0481168
0.0460043
0.0443614
0.0400514
0.028016
0.0122953
0.00427672
0.00193436
0.00184604
0.00289147
0.0464224
0.0444611
0.0430189
0.0388356
0.0265773
0.0112558
0.00390691
0.00180019
0.00180593
0.00295993
0.0442566
0.0425809
0.04139
0.03744
0.0253426
0.0105326
0.00367932
0.00172204
0.00178785
0.00302684
0.0365498
0.0354868
0.0347475
0.0318396
0.0217366
0.00890647
0.00311785
0.00151858
0.00167675
0.00297354
0.012119
0.0121031
0.0121719
0.0119449
0.0100349
0.00515852
0.00181831
0.000894514
0.00109047
0.00218188
0.00186952
0.00187109
0.00187199
0.00187162
0.00187075
0.00186959
0.00186917
0.00187062
0.0018764
0.00182233
0.00192874
0.00192624
0.00192501
0.00192472
0.00192554
0.0019281
0.00193474
0.00195138
0.00199102
0.00207539
0.0156598
0.014606
0.0141027
0.014104
0.0144094
0.0143896
0.0124675
0.00783165
0.00392889
0.00434566
0.0420385
0.0401814
0.0391367
0.0383631
0.0364324
0.0311306
0.0219397
0.0115276
0.00490917
0.00522191
0.0462707
0.0443874
0.0434959
0.0427992
0.0405379
0.0341511
0.0233154
0.0112914
0.0044882
0.00525327
0.0457211
0.0439158
0.0432998
0.0429581
0.0411344
0.0349749
0.0238144
0.0108827
0.00411076
0.00528881
0.0444506
0.0427266
0.0422078
0.0420489
0.0405364
0.0346884
0.023664
0.0104511
0.00390036
0.00550191
0.0426823
0.0411767
0.0408014
0.0407704
0.0395615
0.0341878
0.023599
0.0102744
0.00380159
0.00573575
0.035555
0.0345828
0.0343863
0.0345227
0.033959
0.0302321
0.0215789
0.00941533
0.00349762
0.00567371
0.0120284
0.0120057
0.0121165
0.0122719
0.0124947
0.0125472
0.011232
0.00559326
0.0020478
0.00366645
0.00186324
0.00186237
0.0018609
0.00185839
0.00185542
0.00185216
0.0018498
0.00184939
0.00186174
0.00189723
0.00191773
0.00191577
0.00191488
0.0019148
0.0019156
0.00191766
0.00192257
0.00193438
0.00195965
0.00199836
0.0148452
0.0140762
0.0136776
0.0136877
0.0140916
0.0148796
0.015776
0.0155091
0.0126361
0.00963907
0.0389385
0.0373706
0.036651
0.0366533
0.0369718
0.036499
0.0332555
0.025851
0.0160292
0.0111777
0.0429858
0.0413957
0.0408124
0.0409963
0.0414488
0.0407824
0.0363851
0.0261426
0.0140588
0.0105219
0.0428274
0.041312
0.0409222
0.0413275
0.0421427
0.0419465
0.0375726
0.025468
0.012024
0.00982995
0.0419924
0.0405258
0.0401783
0.0406807
0.041759
0.04208
0.0380488
0.0245959
0.0105027
0.00950766
0.0406646
0.0393607
0.0391094
0.0396502
0.040883
0.0416622
0.0382328
0.0239116
0.00944319
0.00934536
0.034284
0.0334395
0.0333022
0.0337671
0.0348721
0.0360979
0.0343873
0.0215468
0.00813359
0.00883901
0.0119493
0.0119353
0.012043
0.0121917
0.0124679
0.0129494
0.0135112
0.0107781
0.00456705
0.00543155
0.00185245
0.00185068
0.0018486
0.0018459
0.00184313
0.0018406
0.0018398
0.00184246
0.00185878
0.00190309
0.00190465
0.00190328
0.00190273
0.00190273
0.00190329
0.00190463
0.00190773
0.00191533
0.00193229
0.00195589
0.0142065
0.0136725
0.0133763
0.0133612
0.0136223
0.0142314
0.0154485
0.0173505
0.0189091
0.0184651
0.0359431
0.0346991
0.034132
0.0342153
0.0348719
0.035822
0.0361687
0.0344831
0.0296631
0.0235911
0.0397445
0.0384704
0.0379982
0.0382452
0.0391108
0.0401603
0.0399664
0.0361941
0.0279167
0.0214819
0.0399414
0.0387308
0.0384046
0.0387991
0.0398972
0.0412659
0.0411571
0.0360203
0.0250044
0.0192432
0.0395147
0.0383169
0.0380075
0.0384635
0.0397306
0.0414674
0.0417038
0.0355878
0.0224739
0.0178038
0.0386094
0.0375163
0.0372801
0.0377579
0.0391031
0.0411012
0.0417778
0.035025
0.0203594
0.0167569
0.0330149
0.0323006
0.0321658
0.0325583
0.0336277
0.0354655
0.0368541
0.0314179
0.0175137
0.0152992
0.0119001
0.0118933
0.0119965
0.0121206
0.0123352
0.0127067
0.0133221
0.013297
0.00932617
0.00909255
0.00183962
0.00183729
0.00183492
0.00183234
0.00183005
0.00182848
0.00182915
0.00183402
0.00185185
0.00189271
0.00189005
0.00188912
0.00188877
0.00188879
0.00188913
0.00188991
0.00189175
0.00189664
0.00190849
0.00192521
0.0138108
0.0134348
0.0132148
0.0131854
0.0133322
0.013731
0.014664
0.0165814
0.0193319
0.0211209
0.033398
0.0324785
0.0320278
0.0320477
0.0325375
0.0335637
0.0351293
0.0367713
0.037328
0.0350755
0.0368781
0.0359189
0.0355228
0.0356609
0.0363251
0.0375207
0.0389966
0.0397223
0.0379113
0.0335913
0.0373307
0.0364112
0.0361252
0.0363715
0.0371932
0.0385824
0.040117
0.0401002
0.0359029
0.030429
0.0372315
0.0362897
0.0360046
0.0363019
0.0372509
0.0388969
0.0407159
0.0402689
0.0339376
0.028094
0.0366828
0.0357944
0.0355658
0.0358895
0.0369051
0.0387154
0.0408096
0.0400918
0.0319394
0.026182
0.0318437
0.0312549
0.0311221
0.0313996
0.0321911
0.0337009
0.0357926
0.0357109
0.0279818
0.0235278
0.0118939
0.0118933
0.0119918
0.012092
0.0122454
0.012487
0.0128809
0.0134342
0.0128484
0.0128552
0.0018253
0.00182262
0.00182016
0.00181781
0.00181604
0.00181531
0.00181704
0.00182294
0.00183936
0.00187163
0.00187422
0.0018736
0.00187337
0.00187337
0.00187354
0.00187395
0.00187504
0.0018784
0.00188743
0.00190081
0.0136441
0.0133729
0.0131998
0.0131654
0.013254
0.0135242
0.0142098
0.0157504
0.0182424
0.0202028
0.0314813
0.03083
0.0304787
0.0304441
0.0307263
0.0314545
0.0329511
0.0354176
0.0382511
0.0393628
0.0345755
0.0338838
0.0335595
0.0335994
0.0339914
0.0348395
0.0364002
0.0387681
0.0409739
0.0411063
0.0351445
0.0344737
0.0342318
0.0343517
0.0348542
0.0358226
0.0374162
0.0394707
0.0404409
0.0391264
0.0352578
0.0345419
0.034291
0.0344547
0.0350625
0.0362299
0.038071
0.0400818
0.039819
0.037185
0.0349723
0.0342734
0.0340644
0.0342569
0.0349332
0.036235
0.0382781
0.0402653
0.0388033
0.0351504
0.0308171
0.0303468
0.0302253
0.0304071
0.0309419
0.0319945
0.0337622
0.0357046
0.0343268
0.0313516
0.0119377
0.0119421
0.0120365
0.0121165
0.0122206
0.0123591
0.012545
0.0129115
0.0133794
0.0145576
0.00180947
0.00180665
0.00180424
0.00180218
0.0018009
0.00180085
0.00180322
0.00180935
0.0018232
0.00184689
0.00185733
0.0018569
0.00185673
0.00185671
0.00185678
0.00185697
0.00185765
0.00186018
0.00186759
0.00187909
0.0136599
0.0134586
0.0133178
0.0132834
0.0133418
0.0135403
0.0140751
0.0153389
0.0174985
0.0193067
0.030186
0.0297265
0.0294539
0.0293952
0.0295418
0.030004
0.0311224
0.0332945
0.0362715
0.0381563
0.0328786
0.0323842
0.0321232
0.0321063
0.0323044
0.0328
0.0339108
0.0361479
0.0393418
0.0415409
0.0334418
0.0329609
0.0327629
0.0328024
0.0330714
0.0336291
0.0347184
0.0367776
0.0395698
0.041432
0.0336556
0.0331229
0.0329116
0.0329852
0.0333367
0.0340452
0.0353312
0.0375126
0.0399409
0.0411411
0.033537
0.0330016
0.0328205
0.0329198
0.033334
0.0341576
0.03561
0.037899
0.0398602
0.0401776
0.0299715
0.0296068
0.0295026
0.0296135
0.029951
0.030615
0.0317976
0.0337375
0.0353818
0.0358251
0.0120401
0.012047
0.012137
0.0122004
0.0122665
0.012329
0.01237
0.0124866
0.0128139
0.0139395
0.00179209
0.00178931
0.00178706
0.00178533
0.00178447
0.0017849
0.00178754
0.00179336
0.00180452
0.00182143
0.00183942
0.00183909
0.00183896
0.00183892
0.00183894
0.00183901
0.00183948
0.00184152
0.0018479
0.00185805
0.013812
0.0136583
0.0135404
0.0135078
0.0135495
0.0137056
0.0141469
0.0152322
0.0171663
0.0188827
0.0293908
0.0290597
0.0288464
0.028784
0.0288604
0.0291616
0.0299819
0.0317324
0.034349
0.0362422
0.031712
0.0313521
0.0311435
0.0311031
0.0311933
0.0314652
0.0321746
0.0338462
0.0366764
0.0390712
0.032195
0.0318498
0.0316915
0.0316893
0.0318185
0.0321062
0.0327339
0.0341679
0.0367379
0.0392287
0.0324257
0.0320337
0.0318626
0.0318842
0.0320714
0.0324615
0.0332135
0.0347351
0.037245
0.0397557
0.0323946
0.0319933
0.0318438
0.0318846
0.0321211
0.0325995
0.0334741
0.0351098
0.0375204
0.0398208
0.029322
0.0290466
0.0289625
0.0290256
0.0292246
0.0296104
0.0302981
0.0315949
0.033537
0.0356771
0.0122083
0.0122143
0.0122991
0.0123493
0.0123874
0.0123978
0.0123519
0.0123092
0.0123949
0.0130019
0.00177315
0.00177055
0.00176853
0.00176712
0.0017666
0.00176732
0.00176996
0.00177511
0.00178381
0.00179578
0.00182044
0.00182016
0.00182005
0.00182001
0.00182
0.00182003
0.00182038
0.00182211
0.00182772
0.00183677
0.0140668
0.0139461
0.0138448
0.0138143
0.0138454
0.0139731
0.0143495
0.0153079
0.0170796
0.0187342
0.0289506
0.0287046
0.0285351
0.028478
0.0285207
0.028732
0.0293609
0.0307994
0.0330997
0.0349596
0.0309522
0.0306821
0.0305154
0.0304704
0.0305081
0.0306605
0.0311224
0.0323456
0.0346638
0.0368923
0.0313283
0.0310775
0.0309534
0.0309342
0.0309896
0.0311295
0.0314766
0.0323955
0.034335
0.036511
0.0315284
0.0312415
0.0311078
0.0311039
0.0311961
0.0313977
0.0318054
0.032722
0.0345504
0.0367333
0.0315309
0.0312355
0.0311175
0.0311263
0.0312527
0.0315143
0.0319983
0.0329724
0.0347415
0.0368819
0.0288664
0.0286632
0.0285995
0.0286327
0.0287413
0.0289472
0.0293091
0.0300353
0.0313984
0.0333025
0.0124491
0.0124505
0.0125288
0.0125683
0.0125867
0.0125648
0.0124743
0.0123542
0.0123021
0.0126137
0.00175262
0.0017503
0.00174856
0.00174745
0.00174718
0.00174804
0.00175046
0.00175478
0.00176136
0.00176976
0.0018003
0.00180006
0.00179995
0.00179991
0.0017999
0.00179991
0.0018002
0.0018017
0.00180667
0.00181475
0.0144044
0.014307
0.0142181
0.0141893
0.0142128
0.0143191
0.014645
0.0155025
0.0171418
0.0187433
0.0287444
0.0285558
0.0284187
0.0283692
0.0283955
0.0285528
0.0290535
0.0302675
0.0323307
0.0341709
0.0304767
0.030268
0.0301348
0.0300934
0.0301078
0.0301987
0.0305169
0.0314448
0.033372
0.0354566
0.0307507
0.0305662
0.0304707
0.0304478
0.030468
0.0305342
0.0307317
0.031338
0.0327943
0.0346428
0.0309027
0.0306937
0.0305927
0.0305794
0.0306209
0.03072
0.0309366
0.031481
0.0327406
0.0344293
0.0309097
0.0306959
0.0306068
0.030601
0.030664
0.0308003
0.031058
0.0316089
0.0327642
0.0343215
0.0285887
0.0284415
0.0283961
0.0284123
0.0284657
0.0285639
0.028736
0.0291086
0.0299504
0.0312742
0.0127692
0.0127624
0.0128324
0.0128631
0.0128687
0.0128298
0.0127231
0.0125779
0.0124676
0.0126681
0.00173049
0.00172851
0.00172707
0.00172621
0.00172612
0.00172699
0.00172908
0.00173253
0.00173737
0.00174319
0.00177888
0.00177867
0.00177857
0.00177853
0.00177852
0.00177852
0.00177877
0.00178008
0.00178449
0.00179169
0.0148172
0.0147362
0.0146568
0.0146295
0.0146471
0.0147359
0.0150192
0.0157887
0.0173087
0.018858
0.0286863
0.0285372
0.0284246
0.0283826
0.0283997
0.0285205
0.0289259
0.0299624
0.0318296
0.033642
0.030188
0.0300228
0.0299165
0.0298816
0.0298859
0.0299437
0.0301734
0.0308996
0.0325319
0.0344894
0.0303781
0.0302417
0.0301697
0.0301491
0.0301539
0.0301849
0.030304
0.0307263
0.0318581
0.0334677
0.0304832
0.0303321
0.0302584
0.0302439
0.03026
0.0303063
0.0304217
0.0307575
0.0316547
0.0330125
0.0304839
0.0303322
0.0302676
0.0302572
0.0302862
0.0303541
0.0304887
0.030803
0.0315666
0.0327286
0.0284633
0.0283581
0.0283277
0.0283349
0.028357
0.0283953
0.0284652
0.0286457
0.0291648
0.0301151
0.0131754
0.0131574
0.0132178
0.0132411
0.0132391
0.0131947
0.0130898
0.0129491
0.0128257
0.0129974
0.00170674
0.00170513
0.00170398
0.00170334
0.00170336
0.00170414
0.00170585
0.0017085
0.00171196
0.00171595
0.00175606
0.00175588
0.00175578
0.00175575
0.00175575
0.00175575
0.00175596
0.0017571
0.00176098
0.00176737
0.0153064
0.0152374
0.0151658
0.01514
0.0151528
0.0152266
0.0154721
0.0161601
0.0175648
0.0190591
0.0287206
0.0285993
0.0285059
0.0284706
0.0284818
0.028575
0.0289033
0.0297866
0.0314726
0.0332391
0.0300167
0.0298837
0.0297993
0.0297711
0.0297712
0.0298096
0.0299795
0.0305559
0.0319477
0.0337715
0.0301437
0.0300432
0.0299901
0.0299738
0.0299726
0.0299874
0.0300635
0.0303705
0.0312746
0.0326953
0.0302113
0.0301036
0.0300516
0.0300393
0.0300437
0.0300635
0.0301257
0.0303427
0.0310104
0.0321543
0.0302053
0.0301002
0.0300554
0.0300453
0.0300572
0.0300894
0.030159
0.0303437
0.0308706
0.0318005
0.0284608
0.0283857
0.0283666
0.0283695
0.0283753
0.0283834
0.0284022
0.0284847
0.0288181
0.0295615
0.0136765
0.0136452
0.0136948
0.0137118
0.0137062
0.0136641
0.0135717
0.0134507
0.0133375
0.013512
0.00168136
0.00168011
0.00167922
0.00167877
0.00167883
0.00167949
0.00168082
0.00168277
0.00168518
0.00168788
0.0017317
0.00173155
0.00173147
0.00173145
0.00173145
0.00173145
0.00173163
0.0017326
0.00173597
0.0017416
0.0158807
0.0158215
0.0157571
0.0157331
0.015742
0.0158028
0.0160133
0.0166225
0.0179105
0.0193438
0.0288124
0.0287118
0.0286342
0.0286049
0.0286118
0.028683
0.0289456
0.0296892
0.0311947
0.0328922
0.0299173
0.0298094
0.029743
0.0297209
0.0297193
0.0297452
0.0298716
0.0303288
0.0315109
0.0331879
0.029999
0.0299261
0.0298879
0.0298758
0.029873
0.0298802
0.0299314
0.0301601
0.0308921
0.0321517
0.0300405
0.0299651
0.0299297
0.0299203
0.0299197
0.029927
0.029961
0.0301068
0.0306198
0.0316127
0.0300316
0.0299609
0.0299312
0.0299232
0.0299272
0.0299417
0.0299775
0.0300896
0.030467
0.031249
0.0285514
0.0284973
0.0284859
0.0284868
0.0284853
0.0284802
0.0284766
0.0285117
0.0287367
0.0293562
0.0142841
0.0142388
0.0142768
0.0142886
0.0142824
0.0142474
0.014173
0.0140778
0.0139854
0.0141717
0.00165433
0.0016534
0.00165275
0.00165243
0.00165251
0.00165304
0.00165403
0.0016554
0.00165703
0.00165882
0.0017057
0.00170559
0.00170552
0.00170551
0.00170551
0.00170551
0.00170565
0.00170646
0.00170932
0.00171425
0.0165569
0.0165071
0.0164503
0.0164287
0.0164348
0.0164839
0.0166612
0.0171916
0.0183574
0.0197206
0.0289399
0.0288561
0.0287925
0.0287686
0.0287727
0.0288259
0.0290313
0.0296436
0.0309633
0.0325649
0.0298614
0.0297742
0.029723
0.0297062
0.029704
0.0297214
0.0298144
0.0301723
0.0311635
0.0326833
0.029912
0.0298603
0.0298336
0.0298249
0.0298221
0.029826
0.0298616
0.0300331
0.0306262
0.0317433
0.0299369
0.0298853
0.0298618
0.029855
0.0298528
0.0298546
0.0298736
0.0299742
0.030374
0.0312487
0.029929
0.0298833
0.0298644
0.0298587
0.0298596
0.0298659
0.0298846
0.0299544
0.0302299
0.0309024
0.0287084
0.0286686
0.0286618
0.0286617
0.0286577
0.0286488
0.028638
0.0286518
0.0288102
0.0293422
0.0150152
0.0149564
0.0149828
0.0149903
0.0149853
0.01496
0.0149055
0.0148374
0.0147688
0.0149654
0.00162563
0.00162497
0.00162451
0.0016243
0.00162437
0.00162476
0.00162546
0.00162639
0.00162746
0.00162862
0.00167796
0.00167787
0.00167782
0.00167782
0.00167782
0.00167782
0.00167793
0.00167857
0.00168093
0.00168517
0.0173607
0.0173222
0.0172744
0.0172561
0.0172601
0.0172988
0.017444
0.017894
0.0189281
0.020209
0.0290892
0.0290208
0.0289702
0.0289514
0.0289535
0.0289922
0.0291478
0.0296364
0.0307624
0.0322406
0.0298324
0.0297632
0.0297251
0.0297127
0.0297106
0.0297221
0.0297888
0.0300616
0.0308742
0.0322307
0.0298621
0.0298267
0.0298084
0.0298022
0.0298
0.0298026
0.0298278
0.0299551
0.0304295
0.0314163
0.0298774
0.0298429
0.0298275
0.0298227
0.0298203
0.0298202
0.0298314
0.0299014
0.0302113
0.0309818
0.0298728
0.0298446
0.0298329
0.0298292
0.029829
0.029832
0.0298423
0.0298865
0.0300869
0.0306627
0.028909
0.0288783
0.0288739
0.0288733
0.0288692
0.0288611
0.0288504
0.0288561
0.0289703
0.0294281
0.0158947
0.0158243
0.0158394
0.0158437
0.0158409
0.015826
0.0157914
0.0157485
0.0157027
0.0159027
0.00159521
0.00159476
0.00159445
0.00159432
0.00159438
0.00159466
0.00159513
0.00159573
0.0015964
0.00159713
0.00164841
0.00164834
0.00164831
0.00164831
0.00164831
0.00164831
0.00164838
0.00164886
0.00165072
0.00165429
0.0183316
0.0183084
0.0182716
0.0182574
0.0182601
0.0182894
0.0184031
0.0187699
0.019659
0.0208414
0.0292509
0.029198
0.0291597
0.0291454
0.0291464
0.0291737
0.0292867
0.0296597
0.0305856
0.0319149
0.0298208
0.0297683
0.0297413
0.0297326
0.0297309
0.0297384
0.0297845
0.0299834
0.0306255
0.0318136
0.0298369
0.0298135
0.0298009
0.0297965
0.029795
0.0297973
0.0298155
0.0299073
0.0302751
0.0311343
0.029847
0.0298243
0.029814
0.0298104
0.0298086
0.0298084
0.0298157
0.0298639
0.0300974
0.0307619
0.0298456
0.029829
0.0298219
0.0298195
0.0298193
0.0298213
0.0298277
0.0298557
0.029997
0.0304742
0.0291332
0.0291083
0.0291046
0.0291037
0.0291006
0.029095
0.0290876
0.0290913
0.0291736
0.0295589
0.0169591
0.0168802
0.0168851
0.016887
0.0168868
0.0168817
0.0168658
0.0168451
0.0168189
0.0170122
0.00156304
0.00156275
0.00156255
0.00156247
0.00156252
0.0015627
0.00156301
0.00156338
0.00156378
0.00156421
0.00161707
0.00161704
0.00161703
0.00161703
0.00161703
0.00161702
0.00161706
0.00161739
0.00161875
0.00162161
0.0195301
0.0195279
0.0195044
0.019495
0.019497
0.0195177
0.0196007
0.0198812
0.0206075
0.0216681
0.0294189
0.0293812
0.0293534
0.0293427
0.029343
0.0293619
0.0294399
0.029708
0.0304304
0.031589
0.0298223
0.0297852
0.0297672
0.0297613
0.0297602
0.0297653
0.0297957
0.0299313
0.0304088
0.0314156
0.0298292
0.0298138
0.0298049
0.0298014
0.0298007
0.0298031
0.0298165
0.0298797
0.0301492
0.0308696
0.029836
0.0298209
0.0298137
0.0298109
0.0298098
0.0298102
0.0298157
0.0298482
0.0300143
0.0305586
0.0298356
0.0298262
0.0298216
0.02982
0.0298201
0.029822
0.0298267
0.0298443
0.029938
0.0303074
0.0293618
0.0293407
0.0293372
0.0293359
0.0293341
0.0293313
0.0293278
0.029332
0.0293898
0.0296997
0.0182625
0.0181793
0.0181763
0.0181768
0.0181786
0.0181811
0.018183
0.0181811
0.0181705
0.0183442
0.00152913
0.00152895
0.00152882
0.00152877
0.00152881
0.00152893
0.00152913
0.00152936
0.00152959
0.00152982
0.00158416
0.00158417
0.00158417
0.00158418
0.00158418
0.00158417
0.00158418
0.00158437
0.00158525
0.00158735
0.0210531
0.0210778
0.0210685
0.0210641
0.0210658
0.021079
0.021133
0.0213257
0.0218672
0.0227657
0.0295873
0.0295617
0.0295413
0.0295328
0.0295329
0.029546
0.0295971
0.0297746
0.0302951
0.0312587
0.0298357
0.0298115
0.0297999
0.0297959
0.0297954
0.0297995
0.0298189
0.0299031
0.030224
0.0310193
0.0298351
0.0298243
0.0298173
0.0298144
0.0298142
0.0298171
0.0298273
0.0298683
0.0300481
0.0306043
0.0298389
0.0298284
0.0298228
0.0298204
0.0298199
0.0298212
0.0298263
0.0298476
0.0299553
0.0303591
0.0298353
0.0298297
0.0298264
0.0298251
0.0298255
0.0298275
0.0298316
0.0298427
0.0298994
0.0301538
0.0295747
0.0295567
0.029553
0.0295516
0.0295508
0.0295502
0.0295499
0.029555
0.0295937
0.0298257
0.0199174
0.0198359
0.0198335
0.0198343
0.0198359
0.0198381
0.0198398
0.0198393
0.0198398
0.0199771
0.00149363
0.00149352
0.00149343
0.0014934
0.00149342
0.0014935
0.00149363
0.00149378
0.00149394
0.00149405
0.00154987
0.00154996
0.00154996
0.00154997
0.00154997
0.00154997
0.00154998
0.00155007
0.00155054
0.00155185
0.0230625
0.0231158
0.0231192
0.023119
0.0231206
0.0231277
0.0231564
0.0232648
0.023601
0.0242614
0.0297472
0.0297271
0.0297103
0.0297027
0.0297027
0.0297122
0.029744
0.0298487
0.0301769
0.0309035
0.0298606
0.0298452
0.0298371
0.0298339
0.0298339
0.0298378
0.0298506
0.0298972
0.0300798
0.0306198
0.0298536
0.0298447
0.0298385
0.0298358
0.029836
0.0298392
0.0298475
0.0298727
0.0299762
0.0303416
0.029854
0.0298458
0.0298409
0.0298388
0.0298387
0.0298408
0.0298459
0.0298601
0.0299212
0.0301731
0.0298434
0.0298393
0.0298364
0.0298352
0.0298356
0.0298377
0.0298416
0.0298494
0.0298802
0.0300254
0.0297516
0.029737
0.0297334
0.0297319
0.0297316
0.0297321
0.0297336
0.029739
0.0297636
0.0299186
0.0221209
0.0220448
0.022043
0.0220437
0.0220451
0.022047
0.0220485
0.0220476
0.0220448
0.0221527
0.00145672
0.00145663
0.00145656
0.00145654
0.00145656
0.00145662
0.00145672
0.00145683
0.00145697
0.00145705
0.00151357
0.00151352
0.00151349
0.00151347
0.00151347
0.00151349
0.00151352
0.0015136
0.00151383
0.00151447
0.0258518
0.0259185
0.025927
0.0259287
0.02593
0.0259328
0.025943
0.0259821
0.0261159
0.0264279
0.0298837
0.0298622
0.029848
0.0298415
0.0298413
0.0298476
0.0298653
0.0299149
0.0300718
0.0305006
0.029895
0.0298833
0.0298767
0.0298738
0.0298739
0.0298772
0.0298857
0.0299079
0.0299857
0.0302543
0.0298846
0.0298758
0.0298705
0.0298682
0.0298684
0.0298712
0.0298774
0.0298916
0.0299382
0.0301181
0.0298816
0.0298743
0.0298701
0.0298682
0.0298684
0.0298705
0.029875
0.0298845
0.0299131
0.0300327
0.0298668
0.0298625
0.0298598
0.0298586
0.029859
0.0298609
0.0298645
0.0298705
0.0298857
0.0299501
0.0298784
0.0298675
0.029864
0.0298626
0.0298625
0.0298636
0.0298662
0.0298718
0.0298874
0.0299732
0.0252184
0.0251593
0.0251581
0.0251584
0.0251594
0.025161
0.0251624
0.0251621
0.0251594
0.0252324
0.00141776
0.00141767
0.0014176
0.00141758
0.0014176
0.00141766
0.00141775
0.00141786
0.001418
0.00141811
0.00249466
0.00251205
0.00249894
0.00246164
0.0016982
0.0017039
0.00169111
0.00168123
0.00210786
0.00212887
0.00210827
0.00207193
0.00243609
0.00247291
0.00244624
0.00238885
0.00274901
0.00279832
0.00276794
0.00269667
0.00306579
0.00312574
0.00309399
0.00301242
0.00331936
0.00338646
0.0033552
0.00326833
0.00345387
0.0035262
0.0034982
0.00341092
0.00305282
0.00311848
0.00309159
0.00301464
0.00236388
0.00237968
0.00235334
0.00227887
0.00214804
0.00214879
0.00214573
0.00213939
0.00396548
0.00389377
0.0036596
0.00335852
0.00480487
0.00473311
0.00444109
0.00407637
0.00537129
0.00536812
0.00506138
0.00463768
0.00610166
0.00617705
0.00584322
0.00532024
0.00710514
0.0072697
0.00689401
0.006235
0.00805849
0.0082969
0.00786643
0.00706714
0.00865313
0.00895803
0.00848283
0.00756834
0.00666567
0.00692665
0.00648907
0.00570544
0.00219087
0.00222142
0.00221376
0.00217629
0.00200994
0.00200886
0.00200641
0.00200355
0.006879
0.00658274
0.00635353
0.00634132
0.00748226
0.00711835
0.00686153
0.00689365
0.0074443
0.00718463
0.00696381
0.00697151
0.00767794
0.00750764
0.00726457
0.00714941
0.00834094
0.00824248
0.00793276
0.00764147
0.00904212
0.00897181
0.00855809
0.00806496
0.0094604
0.00941883
0.00891012
0.0082288
0.00696854
0.00693752
0.00648295
0.00587419
0.00205776
0.00207344
0.00206953
0.00205076
0.00195339
0.00195105
0.00194946
0.00194881
0.0152622
0.0145813
0.0144178
0.0148324
0.0169517
0.0159736
0.0158872
0.0167811
0.0150066
0.0143387
0.0144305
0.0154029
0.0136932
0.0132931
0.013437
0.0143225
0.013326
0.0131244
0.013254
0.014006
0.013203
0.0130991
0.0131415
0.0137148
0.0128786
0.0128648
0.0128064
0.0131641
0.00879388
0.00883921
0.0086928
0.00875549
0.0019705
0.00198
0.00198015
0.00197248
0.00192181
0.00191993
0.00191867
0.00191807
0.0204342
0.0201052
0.019893
0.0198315
0.0312199
0.0303695
0.0301371
0.030559
0.0281467
0.0273475
0.027355
0.028191
0.0245012
0.0239634
0.0241949
0.0252613
0.0223432
0.0220912
0.0224768
0.0236497
0.0207661
0.0206865
0.0211017
0.0222659
0.0190409
0.0191283
0.0195018
0.0205068
0.0115746
0.0117219
0.0118225
0.0121386
0.00191163
0.00191759
0.00191896
0.0019162
0.00189747
0.00189584
0.00189477
0.00189424
0.0198388
0.0195443
0.019311
0.0191773
0.0378357
0.0372909
0.0369483
0.0368688
0.0385535
0.0378912
0.0376167
0.0377737
0.035524
0.0349044
0.0348276
0.0353012
0.0327554
0.0323247
0.0325049
0.0332949
0.0300659
0.0298018
0.0301634
0.031185
0.0266451
0.0266171
0.0270632
0.0280737
0.0138426
0.0139744
0.014049
0.0141462
0.00186742
0.00187108
0.00187253
0.00187188
0.00187593
0.00187447
0.00187353
0.00187306
0.0189751
0.0186908
0.0184775
0.0183673
0.0371777
0.0367418
0.0363949
0.0361937
0.0404261
0.0399751
0.0396377
0.0394759
0.0401824
0.0397702
0.0395127
0.0394557
0.0394505
0.0391055
0.0389914
0.0391267
0.0376086
0.0372989
0.0373379
0.0377203
0.0331802
0.033062
0.033232
0.0336857
0.0140253
0.0141535
0.0140763
0.0138713
0.00183202
0.00183429
0.00183546
0.00183561
0.00185497
0.0018536
0.00185275
0.00185234
0.0185804
0.0183054
0.0181121
0.018028
0.0353895
0.0349896
0.0346685
0.0344759
0.0382184
0.0378253
0.0374954
0.0372876
0.0386145
0.0382961
0.0380099
0.0378126
0.0393537
0.0391266
0.0389113
0.0387576
0.0392003
0.0389934
0.0388369
0.0387696
0.0350498
0.0349788
0.0348991
0.0348433
0.0129426
0.0130664
0.0129809
0.0127625
0.0018014
0.00180284
0.00180369
0.00180404
0.00183368
0.00183236
0.00183157
0.00183122
0.0184598
0.0181914
0.0180127
0.0179481
0.0342243
0.0338653
0.0335844
0.0334245
0.0362097
0.0358774
0.0355922
0.0354012
0.036037
0.0357702
0.0355113
0.0353073
0.0364713
0.0362719
0.0360511
0.0358579
0.0366131
0.0364339
0.0362373
0.0360747
0.0331051
0.0330475
0.0329027
0.0327232
0.0123132
0.012437
0.0123876
0.0122174
0.00177287
0.0017738
0.00177438
0.0017747
0.00181159
0.0018103
0.00180955
0.00180926
0.0184953
0.0182314
0.018063
0.0180119
0.0335422
0.0332209
0.0329762
0.0328446
0.0349517
0.034683
0.0344466
0.0342785
0.0343021
0.034094
0.0338803
0.0336957
0.034169
0.0339951
0.0338014
0.0336267
0.0339703
0.0337893
0.0336053
0.0334627
0.0309419
0.0308607
0.0307226
0.0305736
0.012273
0.0124142
0.0123897
0.0122381
0.00174495
0.00174558
0.00174596
0.00174619
0.00178842
0.00178714
0.00178642
0.0017862
0.0186382
0.018378
0.0182171
0.0181747
0.0331058
0.0328177
0.0326023
0.0324902
0.034126
0.033909
0.0337115
0.0335606
0.0332302
0.0330689
0.0328954
0.0327346
0.0327794
0.0326346
0.0324752
0.0323299
0.0323566
0.0321914
0.0320365
0.0319268
0.0297216
0.0296382
0.0295226
0.0294115
0.0125795
0.0127484
0.012742
0.0125925
0.00171692
0.00171736
0.00171761
0.00171776
0.00176397
0.00176269
0.00176202
0.00176188
0.0188699
0.0186129
0.0184573
0.0184203
0.0327845
0.0325267
0.032335
0.0322345
0.033501
0.0333209
0.0331516
0.0330135
0.0325066
0.0323736
0.0322301
0.0320944
0.0319393
0.0318148
0.0316851
0.0315722
0.031456
0.0313118
0.0311873
0.0311095
0.0291906
0.0291195
0.0290288
0.0289477
0.0130923
0.0132926
0.0133016
0.0131483
0.00168837
0.00168869
0.00168885
0.00168894
0.00173812
0.00173684
0.0017362
0.00173615
0.0191857
0.0189308
0.018779
0.0187454
0.0325078
0.0322778
0.0321056
0.0320108
0.032962
0.0328051
0.0326557
0.0325296
0.0319644
0.0318437
0.0317217
0.0316133
0.0313988
0.0312849
0.0311789
0.0310988
0.0309448
0.0308193
0.0307213
0.0306726
0.0290382
0.0289823
0.0289144
0.0288582
0.0137514
0.0139841
0.0140068
0.013847
0.00165902
0.00165925
0.00165935
0.00165939
0.00171074
0.00170947
0.00170888
0.00170893
0.0195908
0.0193358
0.0191864
0.019156
0.0322333
0.0320274
0.0318712
0.0317794
0.0324581
0.032312
0.0321772
0.0320668
0.0315287
0.0314093
0.0313039
0.0312256
0.0310301
0.030921
0.0308342
0.0307859
0.0306434
0.0305336
0.0304577
0.0304344
0.0290853
0.0290434
0.0289949
0.0289592
0.0145381
0.0148029
0.0148377
0.0146695
0.00162862
0.00162881
0.00162886
0.00162887
0.00168176
0.00168052
0.00167999
0.00168013
0.0201011
0.0198422
0.0196944
0.0196699
0.0319352
0.0317474
0.0316046
0.0315176
0.0319739
0.0318287
0.0317064
0.031619
0.0311686
0.0310459
0.0309551
0.0309091
0.0307671
0.0306616
0.0305915
0.0305723
0.0304549
0.0303598
0.0303027
0.0303
0.0292343
0.0292044
0.0291716
0.0291519
0.0154576
0.0157541
0.0157992
0.0156208
0.00159701
0.00159716
0.00159719
0.00159717
0.00165114
0.00164997
0.00164951
0.00164974
0.0207489
0.0204812
0.0203352
0.0203229
0.0316037
0.0314261
0.0312956
0.0312207
0.0315155
0.0313669
0.0312581
0.0312022
0.0308719
0.0307479
0.0306717
0.0306575
0.030571
0.0304723
0.0304176
0.0304222
0.0303236
0.0302437
0.0302026
0.030215
0.0294284
0.0294092
0.0293884
0.0293794
0.0165343
0.0168613
0.0169144
0.0167244
0.00156403
0.00156415
0.00156417
0.00156414
0.00161894
0.00161788
0.00161749
0.00161779
0.0215932
0.0213123
0.0211699
0.0211795
0.03125
0.0310758
0.0309589
0.0309077
0.0310999
0.0309516
0.0308605
0.0308414
0.030629
0.0305115
0.0304514
0.0304637
0.0304144
0.030328
0.0302877
0.0303082
0.0302153
0.0301517
0.0301242
0.0301449
0.0296306
0.0296211
0.0296087
0.0296041
0.0178126
0.0181659
0.0182245
0.0180225
0.00152963
0.00152972
0.00152973
0.0015297
0.00158536
0.00158446
0.00158417
0.0015845
0.0227349
0.0224394
0.0223054
0.0223486
0.0309059
0.0307363
0.0306372
0.0306192
0.0307403
0.0306057
0.0305374
0.0305513
0.0304257
0.0303258
0.0302824
0.0303099
0.0302751
0.0302069
0.0301792
0.030205
0.0301112
0.0300644
0.0300471
0.030069
0.0298108
0.0298103
0.0298023
0.0297959
0.019402
0.0197946
0.0198579
0.0196329
0.00149389
0.00149398
0.00149398
0.00149395
0.00155069
0.00155001
0.00154982
0.00155013
0.0243363
0.0240331
0.0239157
0.024001
0.0306034
0.0304543
0.0303777
0.0303876
0.0304352
0.0303327
0.0302888
0.0303184
0.0302436
0.0301715
0.0301424
0.0301691
0.0301402
0.0300935
0.0300748
0.0300947
0.0300104
0.0299791
0.0299679
0.0299842
0.0299392
0.0299444
0.0299372
0.0299264
0.0215594
0.0219915
0.0220545
0.0218025
0.00145706
0.00145714
0.00145715
0.00145712
0.00151418
0.00151379
0.00151371
0.00151395
0.0266462
0.0263572
0.0262695
0.0263909
0.0303333
0.0302295
0.0301737
0.0301843
0.0301769
0.0301165
0.0300895
0.0301093
0.0300816
0.0300386
0.0300174
0.0300303
0.0300233
0.0299953
0.0299807
0.0299894
0.0299415
0.029922
0.0299131
0.0299215
0.0299968
0.0299985
0.0299905
0.0299815
0.0247105
0.0251298
0.0251784
0.0249255
0.00141846
0.00141857
0.00141858
0.00141852
0.00229907
0.00214903
0.00205856
0.00201248
0.00198457
0.00196662
0.00195512
0.00194794
0.00194358
0.0019408
0.00244173
0.00268192
0.00635331
0.0111193
0.0155305
0.0185095
0.0197687
0.0196875
0.0188793
0.0177871
0.00298477
0.0042962
0.0094251
0.0176542
0.0267847
0.03478
0.0408105
0.0446225
0.0462729
0.046204
0.00336661
0.0050176
0.0104192
0.0198933
0.0305687
0.0396007
0.0461169
0.0499276
0.051278
0.0508519
0.00368175
0.00508253
0.0106561
0.0209783
0.0326738
0.0420603
0.0482357
0.0511637
0.0514964
0.0503246
0.00402381
0.0051454
0.0108256
0.0217724
0.0342852
0.0437186
0.0492589
0.0511783
0.0505961
0.048855
0.00426241
0.00505494
0.0107614
0.0222249
0.0353318
0.0444435
0.0490388
0.0499016
0.048601
0.046592
0.00428914