/*--------------------------------*- C++ -*----------------------------------*\
| =========                 |                                                 |
| \\      /  F ield         | foam-extend: Open Source CFD                    |
|  \\    /   O peration     | Version:     4.0                                |
|   \\  /    A nd           | Web:         http://www.foam-extend.org         |
|    \\/     M anipulation  |                                                 |
\*---------------------------------------------------------------------------*/
FoamFile
{
    version     2.0;
    format      ascii;
    class       volScalarField;
    location    "350";
    object      divFlux;
}
// * * * * * * * * * * * * * * * * * * * * * * * * * * * * * * * * * * * * * //

dimensions      [1 -3 -1 0 0 0 0];

internalField   nonuniform List<scalar> 
34480
(
0.00623478
0.00231459
0.00232139
0.00214739
0.00199236
0.00186879
0.00177192
6.67257
39.9747
0.00156382
0.0019733
0.00114119
0.00101176
0.000943714
0.000882799
0.000853733
0.000844898
0.367403
27.0936
0.000791695
0.000805627
0.000556191
0.000399258
0.000380353
0.000353618
0.000348722
0.000355215
0.000355972
14.9303
0.000332342
0.000369201
0.000230106
0.000167421
0.000162211
0.000147917
0.000146228
0.000148472
0.000148611
6.34556
0.000137054
0.000160334
9.0171e-05
7.41256e-05
7.0061e-05
6.42147e-05
6.39582e-05
6.43811e-05
6.35317e-05
1.14863
6.04182e-05
7.69998e-05
4.20331e-05
3.62087e-05
3.30969e-05
3.05071e-05
2.99226e-05
2.94879e-05
2.89517e-05
2.87026e-05
2.74659e-05
4.22749e-05
2.27371e-05
1.9565e-05
1.72274e-05
1.56353e-05
1.48093e-05
1.41953e-05
1.39654e-05
1.40541e-05
1.34111e-05
2.33746e-05
1.31242e-05
1.12951e-05
9.66018e-06
8.51804e-06
7.78305e-06
7.31776e-06
7.32051e-06
7.5628e-06
7.40573e-06
1.46608e-05
8.62661e-06
7.4658e-06
6.2847e-06
5.31087e-06
4.60659e-06
4.29381e-06
4.42144e-06
4.69044e-06
4.73363e-06
9.02967e-06
6.05636e-06
5.21492e-06
4.41408e-06
3.71736e-06
3.22354e-06
3.05882e-06
3.19055e-06
3.43462e-06
3.59506e-06
0.00862197
0.00288442
0.00294776
0.0027739
0.00260624
0.00247609
0.00238698
0.00233661
0.00233215
6.59671
0.00289923
0.0014255
0.00142728
0.00135565
0.00130109
0.00127444
0.00126684
0.00127741
1.96178
7.30714
0.000811854
0.000561464
0.000548309
0.00053697
0.0005364
0.000555641
0.000579568
0.000601724
1.65345
4.68059
0.000401578
0.00030253
0.000281847
0.000265828
0.000260396
0.000267501
0.000278789
0.000290427
0.0734835
0.996711
0.000203418
0.000165655
0.000148855
0.000136331
0.000131651
0.000132631
0.000135684
0.000142617
0.00014516
0.000147216
0.000112647
9.18992e-05
8.08208e-05
7.30236e-05
6.92748e-05
6.86168e-05
6.90057e-05
7.24853e-05
7.52332e-05
7.41217e-05
7.22154e-05
5.50042e-05
4.69538e-05
4.1493e-05
3.79589e-05
3.67796e-05
3.69429e-05
3.92815e-05
4.15389e-05
4.11965e-05
4.8007e-05
3.43795e-05
2.88478e-05
2.51216e-05
2.21742e-05
2.1196e-05
2.17009e-05
2.38874e-05
2.60145e-05
2.61111e-05
3.53413e-05
2.64432e-05
2.16664e-05
1.84765e-05
1.57135e-05
1.47003e-05
1.52987e-05
1.69639e-05
1.89782e-05
1.9713e-05
2.71944e-05
2.04861e-05
1.93123e-05
1.64862e-05
1.46353e-05
1.36235e-05
1.3991e-05
1.54647e-05
1.63372e-05
1.55626e-05
0.00791451
0.00214938
0.00226031
0.00214531
0.00202503
0.00193629
0.00188504
0.00187255
2.17146
4.958
0.00234732
0.000951647
0.000988817
0.000940632
0.000896308
0.000866528
0.000855942
0.000871512
2.21948
3.28427
0.000445154
0.000175404
0.00023928
0.000262167
0.000275901
0.000290487
0.000310237
0.000338482
1.51804
0.984297
4.28378e-05
3.9935e-06
4.85505e-05
7.83832e-05
9.59125e-05
0.00011025
0.000125373
0.000141668
0.523057
0.00021409
5.88871e-06
8.33414e-06
1.40097e-05
2.95888e-05
3.93143e-05
4.71487e-05
5.52576e-05
6.38412e-05
7.27959e-05
9.73617e-05
1.73095e-05
1.0675e-05
6.35054e-08
9.58278e-06
1.62326e-05
2.14106e-05
2.57217e-05
3.01356e-05
3.46462e-05
4.65503e-05
2.96605e-05
1.40355e-05
6.14227e-06
1.07254e-06
6.52145e-06
1.03928e-05
1.28069e-05
1.48319e-05
1.71558e-05
2.38462e-05
2.45877e-05
1.16672e-05
5.66917e-06
4.14592e-07
3.59432e-06
6.25839e-06
7.36825e-06
7.97287e-06
8.93867e-06
1.30124e-05
1.36123e-05
6.53519e-06
2.8183e-06
8.08052e-07
3.60569e-06
5.09789e-06
5.24699e-06
5.07528e-06
5.43073e-06
8.52679e-06
5.32792e-06
2.71128e-06
5.0801e-07
1.53215e-06
3.24668e-06
3.97548e-06
3.8617e-06
3.53238e-06
3.96245e-06
6.53356e-06
0.00781136
0.00192195
0.00202995
0.00193606
0.00183509
0.00176239
0.00172602
0.00172625
0.995688
3.09077
0.00236364
0.000955471
0.000954153
0.000895736
0.000845264
0.000807905
0.000785787
0.000782226
1.40769
3.41995
0.000770055
0.000397742
0.000385313
0.000352514
0.000327225
0.000311429
0.000306161
0.000312452
1.09503
2.88029
0.000229114
0.000129943
0.000133608
0.000127044
0.000122026
0.000120861
0.000124207
0.000130926
0.804938
2.12066
5.96658e-05
3.60289e-05
4.38173e-05
4.59706e-05
4.73674e-05
4.95865e-05
5.37624e-05
5.9119e-05
0.284138
1.0914
2.06424e-05
1.21161e-05
1.5848e-05
1.84582e-05
2.04602e-05
2.2525e-05
2.52137e-05
2.83001e-05
0.00360561
0.35517
3.03962e-06
2.81908e-06
5.20113e-06
7.58801e-06
9.69437e-06
1.14109e-05
1.29151e-05
1.40906e-05
1.55296e-05
1.85002e-05
1.0034e-06
1.60735e-06
2.86631e-06
4.50303e-06
5.99925e-06
7.09642e-06
7.62022e-06
7.60737e-06
8.17383e-06
1.04512e-05
2.85696e-06
2.53422e-06
3.08329e-06
4.15076e-06
5.23199e-06
5.84169e-06
5.63876e-06
5.00774e-06
5.1413e-06
7.40377e-06
5.94078e-06
4.07233e-06
3.79676e-06
3.88171e-06
4.32992e-06
4.50294e-06
4.19709e-06
3.66176e-06
3.9395e-06
6.13975e-06
0.00761416
0.00167684
0.0017955
0.00172459
0.00164123
0.00157889
0.00154656
0.11263
0.691954
1.80651
0.00234091
0.000879732
0.000881956
0.000831745
0.000787484
0.00075307
0.000728352
0.0781907
1.05682
2.42343
0.000743684
0.000378352
0.000370297
0.000345156
0.000323856
0.000307136
0.000295275
0.000288158
0.763616
2.13949
0.000379102
0.000212605
0.000192956
0.000170365
0.000153279
0.000141818
0.000134828
0.000130578
0.629328
1.89323
0.000177071
0.000104964
9.2971e-05
8.02281e-05
7.09271e-05
6.51858e-05
6.23143e-05
6.11302e-05
0.325758
1.32352
8.9873e-05
5.44437e-05
4.65036e-05
3.93732e-05
3.42966e-05
3.13555e-05
2.99457e-05
2.94734e-05
0.180778
0.835575
5.35461e-05
3.19552e-05
2.58381e-05
2.10367e-05
1.79899e-05
1.63097e-05
1.54417e-05
1.49282e-05
1.50483e-05
0.338807
3.64925e-05
2.12516e-05
1.62251e-05
1.27542e-05
1.06968e-05
9.58729e-06
8.85748e-06
8.19845e-06
8.40093e-06
0.145995
2.54056e-05
1.48085e-05
1.11953e-05
8.83587e-06
7.57841e-06
6.87457e-06
6.18053e-06
5.55175e-06
5.88317e-06
7.57532e-06
1.79865e-05
1.05235e-05
7.96098e-06
6.09938e-06
5.1632e-06
4.65937e-06
4.33529e-06
4.10963e-06
4.80367e-06
0.0343119
0.00734223
0.00146826
0.00157755
0.00151944
0.00144944
0.00139575
0.00136345
0.0103589
0.261098
0.732457
0.00223508
0.000769813
0.000781583
0.000741202
0.000704629
0.000676523
0.000655899
0.0654238
0.538566
1.29583
0.000661432
0.000298618
0.000297898
0.000284803
0.000274019
0.00026548
0.000258474
0.000251595
0.512673
1.35607
0.000244634
0.000133576
0.000135508
0.000130999
0.000126014
0.000121865
0.000118361
0.000114478
0.504752
1.38872
0.00012855
7.50289e-05
7.27212e-05
6.75163e-05
6.27846e-05
5.92815e-05
5.66362e-05
5.42124e-05
0.33847
1.14011
6.59148e-05
4.1562e-05
3.90144e-05
3.53318e-05
3.19614e-05
2.9575e-05
2.77927e-05
2.63951e-05
0.269237
0.885032
4.07899e-05
2.56755e-05
2.29995e-05
1.97802e-05
1.72021e-05
1.55142e-05
1.43544e-05
1.3616e-05
0.0658603
0.517396
2.72369e-05
1.66792e-05
1.41751e-05
1.16821e-05
9.82395e-06
8.71939e-06
8.0317e-06
7.72709e-06
0.0710988
0.352881
1.91965e-05
1.13171e-05
9.36902e-06
7.54426e-06
6.37207e-06
5.77754e-06
5.43765e-06
5.60002e-06
6.81127e-06
0.187776
1.15179e-05
6.33428e-06
5.34798e-06
4.28483e-06
3.71537e-06
3.50771e-06
3.69901e-06
4.33136e-06
5.75408e-06
0.202096
0.00684019
0.00127887
0.00136912
0.00131727
0.00125759
0.00121222
0.0011843
0.00117148
0.0328543
0.248315
0.00208313
0.000673575
0.000690226
0.000655767
0.000623343
0.000598293
0.000579695
0.00056499
0.190679
0.597168
0.00067215
0.000293136
0.000290237
0.000273761
0.000259416
0.000247833
0.000238072
0.000228803
0.2873
0.774776
0.000250097
0.000121018
0.000119153
0.000114562
0.000110417
0.000106957
0.000103623
0.000100541
0.364923
0.924076
9.34974e-05
5.05028e-05
5.22291e-05
5.13947e-05
5.00888e-05
4.87709e-05
4.72932e-05
4.62933e-05
0.303116
0.8604
3.74448e-05
2.28771e-05
2.42091e-05
2.43082e-05
2.3794e-05
2.31917e-05
2.25163e-05
2.24402e-05
0.297172
0.768946
1.435e-05
9.69698e-06
1.14031e-05
1.17161e-05
1.15606e-05
1.13641e-05
1.12301e-05
1.17289e-05
0.139207
0.523352
0.000488602
3.48999e-06
5.1414e-06
5.70756e-06
5.81417e-06
5.91701e-06
6.17874e-06
7.04597e-06
0.157883
0.421211
3.09439e-06
1.99849e-06
3.11029e-06
3.43097e-06
3.59443e-06
3.88131e-06
4.38167e-06
5.62564e-06
0.0308841
0.27447
2.18443e-06
6.40323e-07
1.59567e-06
1.98448e-06
2.3053e-06
2.66968e-06
3.36196e-06
4.62732e-06
0.0695478
0.265805
0.00613288
0.00108992
0.00116314
0.00111738
0.00106718
0.00102941
0.00100748
0.00100158
0.00100852
0.0129204
0.00192614
0.000583497
0.000602304
0.000573227
0.000544747
0.000522115
0.000504913
0.000492189
0.000481131
0.209311
0.000612038
0.000254102
0.000257051
0.000244866
0.000233111
0.000223004
0.000214513
0.000208609
0.113632
0.382422
0.000263263
0.00012684
0.000123037
0.000115788
0.000109145
0.000103521
9.8838e-05
9.68588e-05
0.217959
0.553943
0.000117447
5.97337e-05
5.78187e-05
5.43944e-05
5.13267e-05
4.87191e-05
4.66573e-05
4.67057e-05
0.224523
0.589709
5.46618e-05
3.00297e-05
2.82397e-05
2.64892e-05
2.49572e-05
2.37003e-05
2.29093e-05
2.36133e-05
0.27154
0.608204
2.52477e-05
1.39548e-05
1.34873e-05
1.27911e-05
1.21951e-05
1.17677e-05
1.17375e-05
1.27466e-05
0.158143
0.460802
0.0257424
6.91376e-06
6.80725e-06
6.6868e-06
6.51804e-06
6.46897e-06
6.82952e-06
7.97102e-06
0.197098
0.423048
8.73252e-06
4.78397e-06
4.7655e-06
4.6359e-06
4.54437e-06
4.6471e-06
5.15971e-06
6.40071e-06
0.0802521
0.28772
0.0125417
4.26688e-06
4.2938e-06
4.12737e-06
3.96476e-06
3.93276e-06
4.24921e-06
4.96783e-06
0.116006
0.282739
0.00547926
0.000937104
0.000988213
0.000942518
0.000897904
0.000864038
0.000842004
0.000832658
0.000830922
0.000865784
0.00173383
0.000486931
0.00050806
0.000485652
0.000462845
0.000444698
0.000431083
0.000422173
0.000404624
0.0203066
0.000562417
0.000216398
0.000219298
0.000209053
0.000199615
0.000191937
0.000186018
0.000183023
0.0140211
0.162151
0.000215828
0.000101214
0.000101767
9.83448e-05
9.46498e-05
9.12988e-05
8.87141e-05
8.77332e-05
0.104854
0.301603
9.91261e-05
5.00017e-05
5.06413e-05
4.88953e-05
4.70511e-05
4.5383e-05
4.43253e-05
4.44245e-05
0.140591
0.368641
4.59629e-05
2.63153e-05
2.61882e-05
2.52739e-05
2.42987e-05
2.34162e-05
2.30379e-05
0.0459054
0.216093
0.442216
2.54025e-05
1.49032e-05
1.47526e-05
1.40153e-05
1.32981e-05
1.27326e-05
1.2595e-05
1.27569e-05
0.136334
0.360591
0.0461886
1.05543e-05
9.73159e-06
8.98633e-06
8.31386e-06
7.81582e-06
7.75396e-06
0.0438827
0.198214
0.377754
1.30391e-05
8.04287e-06
7.50508e-06
6.86219e-06
6.25739e-06
5.84012e-06
5.78266e-06
5.7351e-06
0.0942662
0.258397
0.025468
6.09181e-06
5.86736e-06
5.33939e-06
4.72386e-06
4.2764e-06
4.01614e-06
0.0193132
0.132696
0.267836
0.00441063
0.000757035
0.000791245
0.000748309
0.000716333
0.000697799
0.000687193
0.000684552
0.000691736
0.000739908
0.00155202
0.000398713
0.000420638
0.000403492
0.000385338
0.00037105
0.000359608
0.000351046
0.000342292
0.000311627
0.000511211
0.000186534
0.000190262
0.000181363
0.000172803
0.000165772
0.000159816
0.000154133
0.000145876
0.0475262
0.000211577
9.25846e-05
9.03238e-05
8.61788e-05
8.25702e-05
7.9596e-05
7.72269e-05
7.33225e-05
0.0307871
0.145858
9.54189e-05
4.42669e-05
4.40432e-05
4.22628e-05
4.07281e-05
3.94277e-05
3.84162e-05
3.59773e-05
0.0745697
0.212327
0.00659445
2.23922e-05
2.20546e-05
2.12973e-05
2.06756e-05
2.01113e-05
1.96705e-05
0.0560426
0.157741
0.301137
2.15842e-05
1.17253e-05
1.19167e-05
1.1606e-05
1.12341e-05
1.08809e-05
1.05646e-05
9.3278e-06
0.0971064
0.253119
0.0586775
0.0137868
7.06506e-06
6.96445e-06
6.71092e-06
6.41897e-06
0.0164364
0.0767384
0.178038
0.308875
7.89549e-06
4.85061e-06
5.04e-06
4.9279e-06
4.62946e-06
4.34979e-06
4.07203e-06
3.07785e-06
0.0859883
0.208974
0.0335096
0.00533483
2.86994e-06
2.69648e-06
2.40632e-06
2.29494e-06
2.11129e-06
0.0478582
0.12908
0.232039
0.00400927
0.000702053
0.000705016
0.000612945
0.000541729
0.000506331
0.000489745
0.000474382
0.000447838
0.000401512
0.00138479
0.000322828
0.000344531
0.000329297
0.000311968
0.000298881
0.000288538
0.000279034
0.000281651
0.00025525
0.000446413
0.000151712
0.000157064
0.000150422
0.000143256
0.000137165
0.000131582
0.000124044
0.000132162
0.000108079
0.000181115
7.941e-05
7.76481e-05
7.40991e-05
7.06945e-05
6.76177e-05
6.47915e-05
6.01425e-05
6.44263e-05
0.0543314
8.82375e-05
3.94714e-05
3.92297e-05
3.74032e-05
3.5627e-05
3.39759e-05
3.22454e-05
2.9113e-05
0.0289399
0.110791
0.014925
2.12138e-05
2.05493e-05
1.93653e-05
1.83271e-05
1.73956e-05
0.00528929
0.0486542
0.107752
0.195102
2.35891e-05
1.12961e-05
1.08558e-05
1.0229e-05
9.63895e-06
9.1582e-06
8.50743e-06
7.29075e-06
0.0557707
0.159796
0.0628554
0.0286378
0.0102197
5.57355e-06
5.24237e-06
0.00752209
0.0407221
0.0843746
0.149197
0.237692
9.72543e-06
4.53554e-06
3.97585e-06
3.53887e-06
3.18749e-06
3.06149e-06
2.82983e-06
2.28791e-06
0.0638283
0.151409
0.0351111
0.0104544
2.61669e-06
2.30759e-06
2.09703e-06
2.20611e-06
0.00768501
0.0552909
0.112122
0.185379
0.00260289
0.000804224
0.000976247
0.000958069
0.000870323
0.000818535
0.000834641
0.000913753
0.00105102
0.00125796
0.00109938
0.000229543
0.000270245
0.000271507
0.000263771
0.000258015
0.000254731
0.000247931
0.000234427
0.000184467
0.000382423
0.000118093
0.000125098
0.000121329
0.000116191
0.000111931
0.000108796
0.000105199
0.000103935
8.39192e-05
0.000151326
6.53739e-05
6.32257e-05
6.02215e-05
5.7489e-05
5.50838e-05
5.29342e-05
5.19973e-05
5.36972e-05
0.00229028
7.48592e-05
3.22602e-05
3.22468e-05
3.08099e-05
2.94027e-05
2.81908e-05
2.68988e-05
2.67596e-05
2.81575e-05
0.0478047
0.0142923
1.71549e-05
1.71068e-05
1.62405e-05
1.54531e-05
1.48375e-05
0.00884231
0.0348818
0.0681714
0.119508
1.91794e-05
9.52181e-06
9.32057e-06
8.82751e-06
8.39026e-06
8.11208e-06
7.6587e-06
7.96268e-06
0.0189828
0.0866286
0.0602965
0.0364167
0.0233119
0.0154624
0.0163289
0.0261148
0.0494679
0.0782022
0.118542
0.174327
7.54153e-06
4.27084e-06
4.0144e-06
3.71168e-06
3.53422e-06
3.56523e-06
3.41939e-06
3.8254e-06
0.0350916
0.0943925
0.0311537
0.0117661
3.06471e-06
3.05551e-06
3.09421e-06
3.18652e-06
0.016412
0.0498607
0.0881156
0.136633
0.00668402
0.00235336
0.00189265
0.00155874
0.00162124
0.00188837
0.00217683
0.00239105
0.00251547
0.00256477
0.00157781
0.000225228
0.000219054
0.000183851
0.00014005
0.000105226
9.14128e-05
0.000103256
0.000130045
0.000180234
0.000346103
9.66698e-05
0.000102177
9.78949e-05
9.06178e-05
8.34935e-05
7.82289e-05
7.6551e-05
6.23502e-05
5.25474e-05
0.000119255
5.36514e-05
5.13785e-05
4.88128e-05
4.65042e-05
4.43915e-05
4.23169e-05
4.26078e-05
3.52572e-05
2.97779e-05
6.31999e-05
2.62353e-05
2.60542e-05
2.49563e-05
2.3997e-05
2.31935e-05
2.23517e-05
2.31754e-05
1.91316e-05
0.0111889
0.00930048
1.37318e-05
1.3754e-05
1.32191e-05
1.27956e-05
1.24402e-05
0.00621323
0.0207154
0.038739
0.0675668
1.61317e-05
7.67681e-06
7.47149e-06
7.26914e-06
7.13433e-06
6.94916e-06
6.72231e-06
7.3003e-06
5.58061e-06
0.0333511
0.0535213
0.0385949
0.0297802
0.025665
0.0269345
0.0337279
0.0489477
0.0659098
0.0902021
0.122324
6.03364e-06
3.22788e-06
3.17459e-06
3.23632e-06
3.341e-06
3.36535e-06
3.30837e-06
3.82574e-06
0.00619146
0.0444166
0.0239112
0.0103054
2.17248e-06
2.18918e-06
2.20213e-06
0.000507945
0.0167209
0.0382145
0.0626163
0.0923451
0.0634721
0.00630727
0.00811655
0.00990166
0.0111143
0.0114586
0.011005
0.00997383
0.00858098
0.00696054
0.00122532
0.000285799
1.19414e-05
0.000189815
0.000295507
0.000316946
0.000280793
0.000216961
0.000150922
9.19051e-05
0.000225003
3.83396e-05
4.99429e-05
6.32646e-05
7.31739e-05
7.84897e-05
8.02438e-05
8.16076e-05
7.97904e-05
7.06483e-05
8.82131e-05
3.99151e-05
3.75228e-05
3.66027e-05
3.63069e-05
3.60338e-05
3.53845e-05
3.41748e-05
3.13106e-05
2.86301e-05
5.03038e-05
2.05322e-05
2.04714e-05
1.97795e-05
1.91096e-05
1.85722e-05
1.82712e-05
1.7497e-05
1.59609e-05
1.59289e-05
0.00349589
1.07753e-05
1.10172e-05
1.07227e-05
1.03304e-05
1.00022e-05
0.0018558
0.00916837
0.0184872
0.0335753
1.30699e-05
6.3706e-06
6.18458e-06
5.98806e-06
5.77862e-06
5.60594e-06
5.85558e-06
5.66486e-06
4.90543e-06
5.55889e-06
0.0450942
0.0371038
0.0315917
0.0297162
0.0307281
0.0347582
0.0438167
0.0523979
0.0665336
0.0824153
5.36215e-06
2.96178e-06
2.7776e-06
2.57536e-06
2.446e-06
2.40812e-06
2.71473e-06
2.72857e-06
1.89292e-06
0.00580082
0.0157913
0.00742006
0.000484827
1.75374e-06
1.56614e-06
0.00256716
0.0128559
0.0251882
0.0397053
0.0563009
0.175538
0.0406819
0.0466038
0.0460815
0.0417085
0.0353155
0.0282701
0.0213258
0.0147042
0.00822562
0.0089307
0.00107574
0.000538027
0.000289893
0.000254902
0.000286033
0.000288328
0.00020298
2.75938e-05
0.000471209
0.000333795
9.89519e-05
7.02386e-05
4.65263e-05
3.31791e-05
2.5921e-05
2.10247e-05
1.76426e-05
2.67683e-05
2.56932e-05
5.65762e-05
3.26171e-05
2.87702e-05
2.58995e-05
2.43574e-05
2.3765e-05
2.36422e-05
2.26737e-05
2.60404e-05
2.09953e-05
3.87421e-05
1.57247e-05
1.55495e-05
1.483e-05
1.42476e-05
1.38805e-05
1.33722e-05
1.19603e-05
1.32901e-05
1.18765e-05
2.14205e-05
8.52186e-06
8.49048e-06
8.11398e-06
7.79825e-06
7.59826e-06
7.19751e-06
0.0014054
0.00596145
0.0128674
1.04066e-05
5.28682e-06
4.95146e-06
4.58514e-06
4.41145e-06
4.32185e-06
4.06646e-06
3.45394e-06
4.16972e-06
4.82809e-06
0.0369499
0.0336951
0.0306187
0.0299593
0.0305312
0.0324613
0.0371504
0.0403714
0.0482626
0.0536759
4.49846e-06
2.42873e-06
2.27198e-06
2.02608e-06
1.88772e-06
1.71902e-06
1.62838e-06
1.39793e-06
2.03476e-06
2.58706e-06
0.00815653
0.00380822
1.59781e-06
1.40191e-06
1.39496e-06
0.00156885
0.00737303
0.0133496
0.0212258
0.0293494
1.06283
0.152492
0.146343
0.116602
0.0868732
0.0617007
0.0415104
0.0253492
0.0117601
0.0008202
0.0234813
0.00378936
0.00319199
0.00290364
0.00250656
0.00188742
0.00104137
5.8855e-05
0.00152332
0.00340342
4.26611e-05
5.22843e-05
3.92728e-05
3.11002e-05
2.18153e-05
8.96864e-06
1.14323e-05
4.96336e-05
0.000118024
0.000175104
4.68753e-05
2.82537e-05
2.25767e-05
1.85755e-05
1.51805e-05
1.16337e-05
8.44667e-06
6.60873e-06
4.56823e-06
9.19222e-06
2.84882e-05
1.13825e-05
1.11001e-05
1.05118e-05
9.84311e-06
9.23326e-06
8.61643e-06
9.05695e-06
8.22359e-06
6.49097e-06
1.58511e-05
6.22038e-06
6.1276e-06
5.81288e-06
5.29894e-06
4.93074e-06
4.39966e-06
4.8192e-06
4.38147e-06
0.00162971
6.95838e-06
3.59279e-06
3.55027e-06
3.30313e-06
2.85084e-06
2.59618e-06
2.16796e-06
2.57919e-06
2.32879e-06
1.72708e-06
0.0293246
0.0287215
0.0273516
0.0272539
0.0274421
0.0280107
0.0297999
0.0301078
0.034065
0.0335947
3.74942e-06
1.59356e-06
1.5611e-06
1.36412e-06
1.06961e-06
9.86206e-07
7.35405e-07
7.51593e-07
1.01049e-06
1.06709e-06
0.00132438
8.30839e-07
8.9983e-07
8.1494e-07
5.76003e-07
5.0199e-07
0.00140239
0.00355603
0.00731281
0.0104209
3.9444
0.201205
0.169123
0.11275
0.0694926
0.0397796
0.0194299
0.00457843
0.00783322
0.0200371
0.0371039
0.0165416
0.0132576
0.010006
0.00677542
0.00375624
0.000907055
0.00198718
0.00525506
0.00889033
1.63457e-05
0.000191873
0.000173123
0.000177823
0.00020603
0.000262861
0.000359467
0.000508603
0.000706822
0.000775684
2.27597e-06
2.35581e-05
2.03791e-05
1.7925e-05
1.62511e-05
1.35253e-05
9.51755e-06
4.87037e-06
4.05696e-06
2.63131e-05
1.86426e-05
7.18362e-06
6.82185e-06
6.14215e-06
5.86724e-06
5.29186e-06
4.7243e-06
5.06646e-06
4.99359e-06
5.30775e-06
9.99057e-06
3.9433e-06
4.06388e-06
3.92068e-06
3.99992e-06
3.78197e-06
3.56288e-06
3.77196e-06
3.18477e-06
2.37944e-06
4.9193e-06
2.08632e-06
2.26708e-06
2.29694e-06
2.38893e-06
2.18904e-06
2.0678e-06
2.23595e-06
1.93669e-06
1.39354e-06
0.0184133
0.0186492
0.0183652
0.0184511
0.0184024
0.0182514
0.0183426
0.0175991
0.0187515
0.016664
2.30168e-06
8.63786e-07
9.14284e-07
1.10844e-06
1.19337e-06
1.01756e-06
9.84264e-07
1.01713e-06
8.71057e-07
6.81372e-07
2.49929e-06
6.16219e-07
7.31149e-07
1.0019e-06
1.16119e-06
1.10991e-06
1.03591e-06
1.54293e-06
1.29379e-06
6.64271e-05
5.20307
0.03443
0.0424972
0.0351584
0.0279501
0.0230169
0.0204445
0.0201052
0.0220348
0.0261261
0.0106201
0.0262513
0.0166827
0.00914782
0.00393532
0.00028222
0.00255945
0.00517299
0.00798958
0.0106606
0.000368104
0.0015974
0.00155448
0.00174112
0.00175261
0.0016655
0.00148256
0.000884388
0.00100935
0.000989795
6.74537e-06
3.89256e-06
1.03855e-05
1.83818e-05
2.78868e-05
3.8207e-05
4.90343e-05
5.89252e-05
6.90162e-05
7.98807e-05
1.3304e-05
3.95544e-06
3.82543e-06
3.37014e-06
3.15517e-06
2.74786e-06
2.33057e-06
8.71152e-07
3.05346e-07
2.54931e-06
6.98102e-06
2.24735e-06
2.58956e-06
2.50684e-06
2.61891e-06
2.54798e-06
2.66011e-06
2.12062e-06
2.31695e-06
2.1314e-06
4.51559e-06
1.36834e-06
1.58117e-06
1.52147e-06
1.63896e-06
1.56484e-06
1.70599e-06
1.23438e-06
1.36507e-06
1.21175e-06
0.00281689
0.00290189
0.0025839
0.00244533
0.00256807
0.00296611
0.00362107
0.00431861
0.00552671
0.00496492
2.09252e-06
8.78508e-07
8.89353e-07
8.52276e-07
9.65132e-07
1.02066e-06
1.10828e-06
1.01617e-06
9.84026e-07
6.49987e-07
1.91679e-06
6.99407e-07
6.67916e-07
5.60676e-07
4.83789e-07
4.25977e-07
6.16389e-07
2.16402e-07
5.24856e-07
5.84874e-07
2.7512
0.00809387
0.00489494
0.00828741
0.00936315
0.00992628
0.0107117
0.012138
0.0145203
0.0178904
0.0229647
0.0173824
0.0135467
0.010273
0.00783035
0.00612953
0.00499526
0.00422515
0.00355374
0.00224017
0.00181428
0.00585688
0.00589576
0.00602583
0.00595523
0.0057009
0.00526921
0.00404892
0.00324484
6.62195e-05
3.67799e-05
6.49296e-06
1.05378e-05
1.15029e-05
1.11771e-05
9.95888e-06
7.5575e-06
4.61122e-06
2.18387e-06
1.55415e-06
7.29872e-06
2.98563e-06
2.32328e-06
2.16361e-06
2.10107e-06
1.98981e-06
1.98058e-06
1.95646e-06
1.55886e-06
1.13432e-06
4.32132e-06
1.21478e-06
9.23723e-07
9.32056e-07
9.5311e-07
8.9586e-07
8.34682e-07
8.36577e-07
6.38303e-07
8.14559e-07
2.28597e-06
8.51851e-07
4.91601e-07
4.85755e-07
5.1582e-07
5.1226e-07
4.39931e-07
4.48981e-07
2.67097e-07
4.19122e-07
0.0257161
0.0260171
0.0254062
0.0251804
0.0252271
0.0255451
0.0262531
0.0268199
0.0300452
0.0254586
2.48488e-07
4.81493e-07
1.49318e-07
1.35137e-07
1.13204e-07
1.07435e-07
1.27699e-08
1.49789e-07
5.66469e-08
2.63387e-07
0.0148452
0.0147114
0.0140494
0.0139819
0.014021
0.0142405
0.0147683
0.0149291
0.0172641
0.0156107
1.69677
0.242595
0.236865
0.230026
0.224997
0.221569
0.219406
0.21928
0.210415
0.221779
0.00534613
0.0071216
0.00508952
0.00345013
0.00225954
0.00137834
0.000656794
4.10939e-05
0.000843409
0.00176513
0.0131404
0.00897779
0.00888084
0.00817361
0.00806995
0.00857093
0.00977761
0.0107993
0.0116947
0.0195256
1.46711e-05
7.64552e-06
3.1194e-06
3.62163e-07
3.46185e-06
6.61391e-06
9.80924e-06
1.24534e-05
1.54958e-05
1.93844e-05
1.98677e-06
1.37955e-06
1.06981e-06
1.00672e-06
1.01288e-06
1.00366e-06
9.2024e-07
1.32124e-06
1.46502e-06
1.98591e-06
1.31352e-06
5.11916e-07
3.37431e-07
3.27236e-07
3.28596e-07
3.1591e-07
1.64004e-07
3.25603e-07
1.69775e-07
2.01419e-07
2.98893e-08
3.34366e-07
1.77664e-07
1.84792e-07
1.91181e-07
1.97939e-07
8.01583e-08
2.10323e-07
1.50491e-07
2.15682e-07
0.0197146
0.0194529
0.0189746
0.0187845
0.0187498
0.0188496
0.0191997
0.0197099
0.0225829
0.0235662
2.1327e-07
2.21026e-07
9.31069e-08
8.02046e-08
8.94622e-08
9.30861e-08
6.15541e-08
6.00858e-09
9.74285e-08
1.15642e-07
0.153666
0.153097
0.152247
0.152269
0.152629
0.153284
0.154251
0.155134
0.158304
0.151759
784.325
523.367
596.841
938.961
666.611
523.402
580.202
829.869
512.978
419.613
465.112
674.926
360.55
294.469
343.722
519.639
233.964
180.43
223.585
350.493
140.958
99.9114
126.374
196.631
79.3144
49.0391
55.9415
73.6121
44.3114
21.4806
13.4362
5.94866
26.5694
8.75125
7.48197
45.1792
28.711
12.0573
0.240587
31.8472
65.2355
3.03897
0.00434209
17.3248
82.5311
5.23311
0.00306676
17.5145
84.4286
7.1725
0.00171568
17.6897
74.422
8.10784
0.000992015
16.7082
57.2877
7.25395
0.000551083
14.866
38.5575
5.26067
0.000297496
10.1259
22.0102
2.8659
0.000172422
4.20959
10.7424
1.0961
0.035915
0.767781
4.64537
0.0101683
0.238428
3.97125
5.2475
0.162966
0.596754
3.76551
40.221
26.9003
23.7823
28.3604
45.805
27.5818
21.4224
28.8314
48.0599
27.0318
21.4275
30.1388
44.0027
23.0425
19.0798
27.8264
35.1006
17.1168
14.7726
22.2301
24.2535
10.9397
9.56868
14.55
13.8094
5.43962
4.48824
6.3843
6.15047
1.68551
0.775461
0.224857
1.74591
0.356408
1.35474
4.32261
1.50885
0.471618
1.55247
4.69659
6.53341
4.14475
3.38489
3.92055
9.37476
5.65194
4.23683
5.18657
11.7553
6.75032
4.89513
6.22508
12.9066
6.97485
5.19567
6.6718
12.0617
6.10865
4.76211
6.12007
9.66992
4.58981
3.70047
4.68378
6.295
2.67857
2.10694
2.50961
3.19332
1.06093
0.612365
0.344367
0.97512
0.0414511
0.48307
1.3015
0.459599
0.27509
0.835202
1.86202
2.89799
2.31086
2.02589
2.16582
4.14643
3.07762
2.74586
3.01977
4.87542
3.69961
3.2349
3.48993
5.49194
3.94882
3.31859
3.61909
5.37498
3.58154
2.9429
3.2373
4.65041
2.84828
2.32071
2.53714
3.32716
1.8116
1.42787
1.49366
1.96487
0.881901
0.593761
0.471861
0.835667
0.175933
0.0692049
0.355692
0.428821
0.0525554
0.371527
0.75927
0.961482
0.793896
0.677096
0.70086
1.67456
1.2264
1.11167
1.1774
2.03491
1.5871
1.45473
1.50385
2.46921
1.9265
1.71635
1.78209
2.5337
1.91222
1.6514
1.72296
2.34644
1.67427
1.41098
1.47101
1.82126
1.18974
0.964711
0.973956
1.25374
0.715613
0.53268
0.475309
0.71236
0.29979
0.163153
0.043301
0.461661
0.135748
0.00991492
0.175247
0.334336
0.283868
0.231164
0.23156
0.740402
0.519974
0.468396
0.486775
0.960157
0.729396
0.67512
0.688723
1.26839
1.00357
0.917069
0.934685
1.37047
1.09016
0.975081
0.9926
1.35245
1.05232
0.919785
0.936862
1.11232
0.824473
0.694785
0.690558
0.865191
0.589045
0.470657
0.442954
0.591116
0.346924
0.264591
0.208943
0.441437
0.239609
0.177739
0.096668
0.0436832
0.0376918
0.0148248
0.00697359
0.280794
0.167314
0.139757
0.134129
0.427096
0.301243
0.274126
0.272271
0.657364
0.511271
0.468766
0.470843
0.772237
0.620645
0.562768
0.566443
0.835693
0.672426
0.600957
0.608023
0.729963
0.578403
0.503267
0.497514
0.632778
0.479012
0.403671
0.391058
0.469383
0.332775
0.281431
0.255149
0.384891
0.275773
0.249513
0.208162
0.00289501
0.00096896
0.000932144
0.000970107
0.0726851
0.0102523
0.000298184
0.000304067
0.173019
0.100624
0.0851688
0.0799886
0.335547
0.253337
0.231085
0.227733
0.435933
0.351553
0.320777
0.319399
0.528692
0.433559
0.392467
0.396044
0.489442
0.404443
0.359234
0.353485
0.472134
0.381583
0.333123
0.328037
0.357491
0.284431
0.250581
0.237942
0.319519
0.267926
0.256292
0.23598
0.00265908
0.0009324
0.0008839
0.000905418
0.000721896
0.000240909
0.00021848
0.000219311
0.0459519
0.00367834
7.60813e-05
1.53753e-05
0.158447
0.112485
0.100989
0.096728
0.236787
0.190073
0.173975
0.171332
0.329595
0.273293
0.249379
0.251308
0.318436
0.271738
0.244317
0.238065
0.344785
0.290639
0.259383
0.257791
0.263344
0.224608
0.201406
0.194631
0.254861
0.233642
0.228489
0.219024
0.000435944
1.01779e-05
4.74437e-05
9.32495e-05
0.000519308
0.000185422
0.000196442
0.000239854
0.000171504
6.27369e-05
8.86605e-05
0.000154612
0.0598658
0.035648
0.0304186
0.0272152
0.11798
0.0932506
0.0856572
0.0837692
0.199358
0.166037
0.152507
0.154078
0.196238
0.172274
0.156055
0.149383
0.243833
0.210867
0.190958
0.190979
0.18499
0.164193
0.148128
0.143429
0.193779
0.186291
0.184377
0.180019
0.00642016
0.00194412
0.00167316
0.00155906
0.000412091
0.000134322
0.000136945
0.000167538
0.000158788
6.53643e-05
7.25058e-05
0.000102475
0.00532955
3.17306e-05
3.80115e-05
6.53427e-05
0.0467302
0.0353865
0.0327238
0.0318011
0.113204
0.0942022
0.0870377
0.0885359
0.109663
0.0995858
0.0905691
0.0837348
0.16559
0.145128
0.132815
0.133683
0.11904
0.108009
0.0971259
0.0928825
0.138128
0.135824
0.135697
0.133397
0.0119989
0.00244742
0.00176505
0.00125465
0.000155264
1.24178e-05
1.48772e-05
5.70761e-05
0.000120765
3.57163e-05
2.38905e-05
6.81131e-06
7.80266e-05
3.3069e-05
2.32517e-05
5.84209e-06
0.00580274
0.00248239
0.00248538
0.0021485
0.0569045
0.0470015
0.0436115
0.0448463
0.0496624
0.0481122
0.0436417
0.0368481
0.106277
0.0933291
0.0860486
0.0874426
0.0652211
0.0599947
0.0529785
0.048676
0.0902798
0.0893984
0.090274
0.0886467
0.0211438
0.00215573
0.000843808
0.000415167
0.00108356
0.000607324
0.000692494
0.0008943
0.000149088
3.32456e-05
2.09546e-05
1.07582e-05
5.92866e-05
1.88825e-05
1.80805e-05
1.79191e-05
3.53598e-05
1.37521e-05
1.30388e-05
1.18733e-05
0.0221055
0.0177388
0.0163999
0.0171728
0.0109749
0.0141863
0.0124166
0.005979
0.063514
0.0549283
0.0508449
0.0526358
0.0245767
0.0230281
0.0188495
0.0145455
0.0521907
0.0513272
0.0527332
0.051341
0.00215338
0.00730752
0.0090412
0.0120074
0.00374413
0.00208475
0.00236929
0.0030453
7.57467e-05
0.000124993
0.000164075
0.000231403
3.43795e-05
9.64195e-06
1.08663e-05
1.86466e-05
1.79724e-05
5.96724e-06
7.53938e-06
1.53608e-05
0.00318435
0.00175178
0.00132236
0.00154184
9.0888e-06
2.4002e-06
1.88319e-06
7.70979e-06
0.0352502
0.0289639
0.0267623
0.02881
5.95324e-06
2.39676e-06
3.91739e-07
5.66292e-06
0.0242293
0.0230134
0.0246469
0.0235195
0.0667973
0.0274771
0.0292898
0.0351943
0.011093
0.00538763
0.00619038
0.00806566
0.000457041
0.000386909
0.000478861
0.000662786
3.49563e-05
2.84262e-05
3.28813e-05
4.21297e-05
1.11905e-05
3.01476e-06
1.98708e-06
1.46539e-06
6.14751e-06
2.14787e-06
1.37614e-06
6.77602e-07
3.37123e-06
1.08047e-06
6.60888e-07
8.95991e-08
0.0186792
0.0136162
0.0124161
0.0144541
2.74444e-06
4.44701e-07
4.02203e-07
1.36688e-06
0.00538079
0.00384554
0.00539911
0.00477121
0.12812
0.0388408
0.04016
0.047333
0.0159324
0.00789212
0.00923511
0.0122495
0.0010875
0.000648011
0.000808894
0.00114851
5.93073e-05
4.80384e-05
6.25578e-05
9.11335e-05
1.3879e-05
7.48662e-06
7.9798e-06
7.8133e-06
5.34e-06
2.97198e-06
3.15058e-06
1.80594e-06
3.22193e-06
2.24325e-06
2.6879e-06
1.32191e-06
0.00871083
0.00532246
0.00469838
0.0061041
3.01292e-06
2.08642e-06
3.22871e-06
2.09768e-06
3.41898e-06
1.84632e-06
1.68005e-06
2.07564e-06
0.058068
0.0164924
0.0165733