/*--------------------------------*- C++ -*----------------------------------*\
| =========                 |                                                 |
| \\      /  F ield         | foam-extend: Open Source CFD                    |
|  \\    /   O peration     | Version:     4.0                                |
|   \\  /    A nd           | Web:         http://www.foam-extend.org         |
|    \\/     M anipulation  |                                                 |
\*---------------------------------------------------------------------------*/
FoamFile
{
    version     2.0;
    format      ascii;
    class       volScalarField;
    location    "350";
    object      epsilon;
}
// * * * * * * * * * * * * * * * * * * * * * * * * * * * * * * * * * * * * * //

dimensions      [0 2 -3 0 0 0 0];

internalField   nonuniform List<scalar> 
34480
(
4808.64
4801.99
4799.41
4799.48
4802.92
4814.95
4857.51
5004.99
5435.79
6404.52
678.569
595.996
589.234
650.407
899.073
2037.42
7939.05
38384.9
176081
633937
584.824
488.701
478.779
552.651
859.239
2267.51
9808.54
50659.7
247104
966183
477.996
409.231
408.292
482.302
788.981
2264.58
10574.4
57822.4
297630
1.245e+06
410.114
360.564
366.661
439.984
747.211
2286.47
11323
64818.2
349078
1.54323e+06
356.619
318.153
324.852
394.31
701.224
2325.36
12246.9
73040.9
408984
1.89533e+06
322.094
291.833
299.702
364.987
666.699
2327.07
12775.4
78625.8
455110
2.19575e+06
303.361
279.982
285.584
340.603
609.272
2158.11
12186.1
76999
459335
2.3003e+06
464.856
445.616
446.2
479.347
645.424
1607.64
7918.5
49580.4
303084
1.57001e+06
5657.78
5648.16
5640.61
5636.26
5636.93
5643.71
5658.83
5687.36
5758.64
5868.99
4729.68
4723.79
4721.56
4721.76
4724.67
4733.11
4758.35
4834.25
5043.63
5599.98
564.863
496.864
480.518
494.713
545.284
696.984
1256.3
3912.72
23618.2
193219
465.307
387.33
368.394
389.454
467.407
698.691
1515.19
5352.09
35762.4
306119
394.195
335.412
324.281
348.591
429.743
667.876
1521.07
5814.98
44677.9
404781
349.75
305.019
300.449
326.473
409.229
650.718
1530.85
6209.87
53606.7
508383
312.058
276.008
272.624
297.05
376.396
615.152
1516.81
6607.06
63504.1
625886
287.102
257.788
256.334
278.957
354.408
586.393
1489.55
6811.59
71209.9
726515
275.557
252.441
250.219
268.113
328.82
520.594
1296.82
6178.77
71134.7
761182
443.395
422.768
417.689
427.307
462.507
561.517
945.399
3682.2
45877.1
533249
5535.48
5522.84
5511.69
5503.16
5498.67
5499.42
5508.96
5530.53
5589.88
5805.79
4642.14
4637.66
4635.97
4635.94
4637.55
4642.18
4657.54
4707.37
4838.4
5089.61
457.451
412.729
399.655
404.279
424.309
479.001
649.836
1250.95
3627.82
15075.7
346.988
297.067
282.783
291.694
326.527
416.658
682.979
1615.01
5757.3
30204.8
306.858
267.162
257.763
270.013
309.51
407.772
695.744
1765.28
7488.49
48722.6
284.292
252.561
247.768
262.264
305.354
410.218
718.242
1922.74
9553.01
72967.9
262.229
235.44
231.432
245.743
288.675
395.89
721.841
2090.45
12239.1
105499
247.419
224.795
222.394
236.186
278.363
385.403
721.918
2226.44
14964
140817
244.294
225.815
222.97
234.258
269.042
359.05
653.167
2089.02
16066.8
164911
417.905
399.411
393.799
399.958
423.496
480.899
652.945
1495.1
10701.6
119070
5422.55
5408.93
5396.57
5386.76
5380.72
5379.48
5386.16
5405.95
5467.48
5674.81
4546.09
4543.23
4542.47
4542.55
4543.31
4545.34
4553.94
4585.68
4675.22
4836.03
380.698
351.338
341.283
342.026
350.2
373.511
443.624
666.543
1302.9
2936.29
259.358
229.51
219.746
223.082
239.377
280.036
391.052
722.747
1707.46
5061.53
237.645
212.707
205.728
211.742
232.268
280.107
405.09
785.9
2081.69
8023.18
229.464
208.459
204.469
212.554
236.815
291.619
432.338
866.921
2544.44
12210.8
218.847
200.026
196.403
205.012
230.732
290.48
448.405
956.539
3187.14
18427.3
211.882
195.187
192.748
201.529
228.108
290.868
462.192
1037.08
3885.32
25969.8
215.858
201.501
198.721
206.268
229.177
284.502
441.235
1004.47
4195.81
31991.8
393.062
376.713
370.988
374.721
391.351
431.006
535.18
886.134
2945.81
22998.1
5295.56
5283.02
5271.79
5263.19
5258.45
5258.71
5266.7
5287.62
5344.93
5499.68
4442.85
4440.89
4440.74
4440.78
4440.71
4441.12
4445.53
4465.56
4528
4642.39
329.95
309.703
301.79
300.987
304.071
314.181
347.119
452.935
728.058
1181.48
201.694
183.807
177.146
177.708
184.417
201.81
249.536
385.807
717.826
1371.16
188.556
173.112
168.029
170.409
180.009
201.839
255.861
407.534
808.69
1917.65
187.774
174.206
171.034
175.006
187.522
214.451
277.774
451.817
944.432
2746.25
184.138
171.213
168.121
172.821
187.184
218.907
294.715
505.781
1148.29
4070.97
182.311
170.265
167.992
173.147
188.953
224.344
311.074
557.737
1370.12
5754.45
191.377
180.435
177.871
182.578
196.939
229.905
313.424
563.379
1475.9
7202.6
369.517
355.422
349.826
351.67
362.871
389.471
453.175
627.333
1228.66
5326.58
5161.75
5150.39
5140.36
5133.01
5129.49
5130.93
5139.47
5158.96
5207.05
5314.81
4333.21
4331.68
4331.67
4331.63
4331.23
4330.91
4333.29
4347.32
4395
4486.81
297.071
282.015
275.666
274.442
275.512
280.477
299.108
362.699
533.052
792.456
166.074
154.811
150.138
149.653
152.115
159.412
181.206
245.45
396.257
613.856
155.995
146.202
142.515
143.156
147.258
156.614
179.604
243.626
399.14
693.48
157.937
149.187
146.772
148.487
154.479
166.821
194.032
265.067
439.318
870.132
157.801
149.026
146.544
148.894
156.444
172.333
207.125
296.17
516.616
1196.12
158.808
150.289
148.349
151.159
160.08
179.035
221.124
329.132
603.321
1617.22
170.994
162.856
160.654
163.42
172.032
190.886
234.007
348.632
658.41
2001.28
347.45
335.69
330.489
331.072
338.405
356.093
395.654
489.814
715.818
1690.35
5020.84
5010.77
5002.06
4995.99
4993.61
4995.94
5004.55
5021.97
5058.91
5128.35
4217.57
4216.15
4216.11
4216.02
4215.52
4214.95
4216.43
4227.24
4266.29
4344.59
275.103
263.083
257.769
256.514
256.876
259.806
272.283
317.567
445.374
649.24
144.638
136.98
133.535
132.774
133.553
136.767
148.077
184.234
273.4
396.411
135.319
128.755
126.026
125.953
127.559
131.447
141.586
171.455
246.232
366.278
137.588
131.802
129.987
130.585
133.264
138.629
150.083
179.957
252.062
389.962
138.765
132.771
130.847
131.897
135.661
143.284
158.814
196.445
282.195
475.207
140.989
135.019
133.451
134.851
139.655
149.415
169.232
216.174
319.984
592.197
154.661
148.733
146.941
148.453
153.394
163.815
185.595
238.156
357.119
716.476
327.082
317.609
312.978
312.792
317.469
329.187
354.254
407.837
512.841
801.119
4872.73
4864.04
4856.68
4851.82
4850.38
4853.21
4861.39
4876.48
4904.4
4949.14
4096.04
4094.61
4094.47
4094.34
4093.87
4093.32
4094.41
4103.29
4136.46
4204.83
259.369
249.225
244.618
243.446
243.582
245.635
254.995
290.5
395.301
572.116
131.724
126.089
123.42
122.674
122.848
124.435
131.25
155.155
218.639
312.813
122.486
117.785
115.714
115.41
115.971
117.586
122.475
138.607
182.972
256.188
124.143
120.165
118.803
118.909
120.023
122.254
127.151
140.789
176.46
240.387
125.488
121.328
119.874
120.268
122.056
125.604
132.54
149.022
187.125
259.322
127.967
123.796
122.583
123.203
125.686
130.581
139.858
160.518
204.218
293.461
141.956
137.724
136.337
137.099
139.818
145.419
156.365
180.689
231.319
345.456
308.433
301.103
297.147
296.568
299.509
307.316
323.58
355.326
411.437
523.3
4717.36
4710.07
4704.02
4700.26
4699.55
4702.52
4709.85
4722.45
4743.31
4773.28
3968.62
3967.13
3966.9
3966.75
3966.37
3965.92
3966.85
3974.38
4002.94
4062.85
246.997
238.095
233.997
232.923
232.989
234.583
242.041
271.212
360.367
517.547
123.777
119.35
117.197
116.548
116.529
117.439
122.061
139.6
189.487
269.801
114.605
111.031
109.426
109.09
109.242
109.929
112.568
122.589
153.33
209.203
115.456
112.607
111.586
111.507
111.919
112.795
114.969
121.974
143.035
183.703
116.491
113.549
112.475
112.569
113.37
114.969
118.109
125.858
145.598
182.843
118.75
115.836
114.933
115.156
116.387
118.785
123.163
132.646
153.468
192.028
132.312
129.354
128.334
128.682
130.111
133.035
138.531
150.067
173.921
219.81
291.384
285.981
282.739
282.032
283.881
289.141
299.908
319.331
351.747
406.453
4554.74
4548.82
4544.01
4541.19
4540.98
4543.79
4550.04
4560.13
4575.39
4595.9
3835.23
3833.72
3833.4
3833.27
3832.97
3832.65
3833.49
3839.93
3864.58
3916.85
236.313
228.295
224.592
223.608
223.643
224.934
231.035
255.472
332.301
472.549
118.686
115.034
113.25
112.708
112.641
113.235
116.604
130.201
171.221
241.985
109.768
106.928
105.668
105.372
105.377
105.68
107.262
114.142
137.48
184.257
109.929
107.821
107.057
106.932
107.048
107.356
108.368
112.413
126.631
157.635
110.538
108.426
107.65
107.626
107.953
108.633
110.064
114.015
125.799
150.63
112.403
110.37
109.724
109.768
110.347
111.487
113.561
118.151
129.401
151.528
125.122
123.104
122.396
122.535
123.245
124.709
127.433
133.032
145.352
169.229
275.699
271.963
269.423
268.752
269.934
273.515
280.728
292.868
312.368
343.414
4384.97
4380.34
4376.62
4374.59
4374.68
4377.15
4382.22
4389.97
4400.83
4414.87
3695.83
3694.35
3693.98
3693.86
3693.65
3693.44
3694.2
3699.7
3720.83
3766.04
226.36
219.027
215.657
214.756
214.769
215.822
220.845
241.392
307.618
432.227
115.222
112.114
110.611
110.165
110.094
110.514
113.058
123.849
158.151
220.9
106.767
104.445
103.452
103.213
103.173
103.313
104.338
109.351
127.923
168.471
106.441
104.85
104.285
104.168
104.17
104.25
104.749
107.316
117.766
143.493
106.677
105.147
104.602
104.545
104.653
104.909
105.551
107.719
115.543
134.766
108.138
106.728
106.283
106.26
106.513
107.029
108.002
110.333
117.076
132.61
119.81
118.475
118.015
118.061
118.386
119.069
120.365
123.099
129.93
145.181
261.076
258.723
256.83
256.282
257.059
259.505
264.338
271.984
283.929
303.065
4208.23
4204.75
4201.99
4200.57
4200.8
4202.84
4206.77
4212.47
4219.97
4229.51
3550.44
3549.03
3548.65
3548.56
3548.42
3548.29
3548.96
3553.58
3571.5
3610.13
216.583
209.836
206.777
205.959
205.954
206.803
210.912
228.071
284.739
394.571
112.681
109.989
108.718
108.354
108.291
108.598
110.538
119.137
147.858
203.3
104.858
102.933
102.154
101.968
101.92
101.986
102.682
106.443
121.529
157.101
104.24
103.031
102.619
102.526
102.492
102.49
102.754
104.494
112.551
134.748
104.211
103.102
102.729
102.672
102.687
102.755
103.028
104.291
109.869
125.933
105.326
104.361
104.067
104.029
104.127
104.343
104.786
106.015
110.372
122.591
115.876
115.026
114.752
114.763
114.891
115.169
115.727
117.034
121.017
132.134
247.185
245.932
244.603
244.206
244.728
246.382
249.581
254.355
261.679
273.96
4024.8
4022.31
4020.33
4019.37
4019.65
4021.24
4024.14
4028.15
4033.15
4039.56
3399.15
3397.86
3397.51
3397.44
3397.35
3397.27
3397.84
3401.66
3416.6
3449.1
206.636
200.45
197.71
196.983
196.964
197.635
200.939
215.048
262.885
358.669
110.658
108.32
107.255
106.96
106.907
107.133
108.605
115.394
139.23
187.811
103.591
101.993
101.388
101.247
101.203
101.234
101.717
104.562
116.859
148.126
102.837
101.921
101.625
101.556
101.517
101.494
101.648
102.874
109.226
128.703
102.652
101.852
101.603
101.557
101.537
101.528
101.632
102.404
106.547
120.458
103.497
102.848
102.664
102.63
102.66
102.739
102.931
103.598
106.552
116.699
112.91
112.393
112.248
112.25
112.283
112.361
112.55
113.137
115.539
124.268
233.709
233.283
232.421
232.166
232.519
233.609
235.666
238.569
242.977
250.943
3835.04
3833.35
3831.99
3831.38
3831.63
3832.8
3834.85
3837.53
3840.73
3844.96
3242.15
3241.04
3240.73
3240.68
3240.64
3240.59
3241.04
3244.09
3256.27
3283.12
196.286
190.691
188.298
187.673
187.646
188.159
190.745
202.064
241.65
324.082
108.921
106.916
106.043
105.808
105.765
105.932
107.029
112.281
131.725
173.821
102.7
101.39
100.931
100.826
100.79
100.804
101.14
103.272
113.197
140.566
101.923
101.239
101.029
100.978
100.946
100.925
101.026
101.906
106.922
124.064
101.67
101.099
100.934
100.9
100.871
100.839
100.872
101.36
104.486
116.65
102.31
101.886
101.774
101.75
101.753
101.776
101.856
102.227
104.274
112.835
110.596
110.297
110.233
110.234
110.226
110.215
110.232
110.464
111.939
119.026
220.361
220.517
220.02
219.879
220.113
220.797
222.057
223.734
226.272
231.346
3639.4
3638.33
3637.45
3637.07
3637.28
3638.09
3639.45
3641.15
3643.08
3645.81
3079.74
3078.84
3078.6
3078.58
3078.56
3078.52
3078.86
3081.2
3090.8
3112.48
185.361
180.428
178.42
177.91
177.881
178.256
180.199
188.957
220.802
290.567
107.341
105.674
104.982
104.801
104.768
104.891
105.689
109.623
125.067
161.035
102.034
100.989
100.652
100.576
100.547
100.555
100.789
102.346
110.162
133.854
101.31
100.809
100.66
100.622
100.599
100.588
100.665
101.296
105.191
120.124
101.052
100.649
100.539
100.511
100.485
100.455
100.464
100.783
103.123
113.637
101.533
101.264
101.197
101.18
101.176
101.182
101.218
101.43
102.843
109.969
108.701
108.534
108.514
108.514
108.493
108.453
108.405
108.474
109.383
115.154
206.895
207.417
207.19
207.13
207.28
207.675
208.385
209.266
210.6
213.654
3438.42
3437.8
3437.26
3437.04
3437.19
3437.72
3438.57
3439.57
3440.64
3442.32
2912.38
2911.7
2911.53
2911.54
2911.53
2911.5
2911.72
2913.41
2920.64
2937.59
173.727
169.554
167.965
167.577
167.553
167.811
169.189
175.619
200.205
257.922
105.857
104.538
104.017
103.879
103.856
103.95
104.514
107.328
119.12
149.264
101.511
100.716
100.479
100.424
100.404
100.412
100.574
101.663
107.558
127.597
100.887
100.528
100.42
100.389
100.374
100.376
100.442
100.89
103.8
116.451
100.663
100.38
100.303
100.28
100.26
100.242
100.25
100.464
102.161
110.941
101.009
100.843
100.801
100.788
100.786
100.79
100.814
100.94
101.887
107.579
107.061
106.963
106.959
106.958
106.937
106.898
106.84
106.849
107.404
112.001
193.098
193.807
193.764
193.754
193.844
194.042
194.379
194.754
195.325
196.945
3232.74
3232.43
3232.12
3232.01
3232.11
3232.43
3232.92
3233.45
3233.97
3234.91
2740.68
2740.21
2740.12
2740.15
2740.15
2740.12
2740.24
2741.35
2746.43
2759.06
161.294
157.973
156.819
156.555
156.54
156.704
157.602
161.97
179.791
225.884
104.462
103.486
103.111
103.007
102.991
103.069
103.459
105.352
113.833
138.313
101.094
100.528
100.37
100.329
100.317
100.329
100.444
101.159
105.3
121.486
100.589
100.336
100.255
100.227
100.219
100.232
100.294
100.605
102.644
112.791
100.419
100.221
100.163
100.142
100.13
100.124
100.141
100.289
101.447
108.326
100.638
100.536
100.507
100.497
100.496
100.505
100.528
100.608
101.207
105.43
105.564
105.494
105.491
105.486
105.471
105.444
105.401
105.401
105.736
109.233
178.768
179.521
179.582
179.598
179.65
179.731
179.812
179.876
179.985
180.615
3023.18
3023.07
3022.93
3022.88
3022.94
3023.1
3023.35
3023.58
3023.78
3024.21
2565.81
2565.29
2565.26
2565.29
2565.29
2565.26
2565.3
2565.93
2569.1
2577.76
148.004
145.592
144.856
144.705
144.7
144.794
145.309
147.936
159.575
194.091
103.187
102.512
102.247
102.164
102.155
102.223
102.492
103.672
109.23
127.947
100.767
100.397
100.294
100.263
100.257
100.276
100.361
100.796
103.395
115.351
100.381
100.203
100.138
100.113
100.111
100.13
100.189
100.399
101.695
109.07
100.269
100.131
100.085
100.066
100.059
100.064
100.089
100.194
100.917
105.754
100.358
100.294
100.271
100.262
100.264
100.275
100.298
100.353
100.701
103.482
104.143
104.08
104.071
104.065
104.055
104.041
104.02
104.028
104.23
106.703
163.402
164.086
164.14
164.159
164.2
164.261
164.317
164.322
164.18
164.206
2810.89
2810.88
2810.84
2810.83
2810.85
2810.91
2810.99
2811.04
2811.05
2811.16
2388.11
2387.92
2387.93
2387.96
2387.97
2387.94
2387.94
2388.22
2389.83
2394.85
133.776
132.261
131.888
131.829
131.834
131.879
132.116
133.395
139.662
162.177
102.074
101.624
101.434
101.365
101.36
101.42
101.605
102.271
105.4
118.001
100.512
100.291
100.222
100.196
100.194
100.217
100.286
100.53
101.897
109.335
100.238
100.116
100.064
100.043
100.042
100.063
100.115
100.253
100.963
105.462
100.178
100.085
100.047
100.031
100.029
100.039
100.068
100.144
100.539
103.379
100.147
100.106
100.087
100.079
100.081
100.092
100.114
100.153
100.334
101.849
102.782
102.721
102.707
102.699
102.693
102.689
102.685
102.705
102.829
104.385
146.272
146.828
146.871
146.888
146.917
146.959
146.992
146.974
146.807
146.405
2597.15
2597.17
2597.17
2597.17
2597.17
2597.18
2597.18
2597.16
2597.1
2597.08
2208.3
2208.46
2208.47
2208.48
2208.49
2208.48
2208.49
2208.58
2209.12
2211.06
118.23
117.524
117.417
117.417
117.426
117.442
117.511
117.904
120.084
130.267
101.126
100.834
100.71
100.661
100.658
100.7
100.811
101.125
102.437
108.737
100.296
100.174
100.128
100.108
100.108
100.128
100.176
100.299
100.833
104.111
100.138
100.059
100.024
100.01
100.01
100.026
100.062
100.141
100.441
102.432
100.116
100.059
100.033
100.022
100.022
100.032
100.055
100.105
100.278
101.504
100.034
100.008
99.9946
99.9889
99.9902
99.9984
100.014
100.041
100.121
100.732
101.498
101.446
101.43
101.423
101.42
101.419
101.424
101.447
101.528
102.317
126.177
126.518
126.543
126.555
126.571
126.593
126.609
126.586
126.459
125.977
2382.68
2382.69
2382.7
2382.7
2382.7
2382.69
2382.67
2382.64
2382.59
2382.58
8096.54
8171.13
8097.31
7850.75
1.07457e+06
1.07001e+06
1.06069e+06
1.07546e+06
1.96732e+06
2.00241e+06
1.97968e+06
1.93771e+06
2.93072e+06
3.03442e+06
2.99926e+06
2.8824e+06
4.1042e+06
4.29552e+06
4.2471e+06
4.06656e+06
5.59581e+06
5.89925e+06
5.84009e+06
5.59573e+06
7.04733e+06
7.4638e+06
7.39866e+06
7.1137e+06
7.9018e+06
8.40929e+06
8.35207e+06
8.06664e+06
5.56973e+06
5.96287e+06
5.91225e+06
5.71554e+06
7762.42
7981.73
7840.74
7495.85
6260.19
6269.06
6237.75
6175.12
432521
420510
430859
459378
827642
869581
892859
909949
1.29913e+06
1.43995e+06
1.4787e+06
1.47785e+06
1.85951e+06
2.13666e+06
2.2067e+06
2.209e+06
2.52471e+06
2.98075e+06
3.11326e+06
3.1337e+06
3.15158e+06
3.80393e+06
4.03114e+06
4.09877e+06
3.53365e+06
4.36208e+06
4.70113e+06
4.83674e+06
2.74624e+06
3.49397e+06
3.81989e+06
4.01411e+06
7066.25
7263.08
7201.28
6928.02
5150.44
5138.2
5117.78
5095.49
35197.2
38113.8
35154.4
28926.4
82999.2
90804.1
82326.8
65978.8
156767
172563
155062
122684
264723
292751
263649
207758
419657
466364
423454
333400
599913
668302
612223
483092
754688
843694
780091
617182
613421
679780
624294
492555
6235.27
6303.72
6263.35
6148.67
4827.38
4813.73
4802.06
4794.12
3485.57
3341.04
3064.3
2804.72
7696.57
7624.51
6933.88
6063.42
15608.9
15849.3
14309.8
12069.3
29129.3
30020.9
26872.6
21921.2
51829.9
54007.8
48046.2
38097.7
82432.7
86158.8
76153.3
59024
113891
119382
105116
80008.1
94274.2
97394.4
84291.5
63289.1
5774.29
5806.29
5792.67
5750.06
4631.57
4623.04
4615
4608.02
1074.54
1000.03
932.349
897.408
1422.3
1351.39
1256.4
1182.03
2499.14
2462.77
2298.48
2112.19
4496.05
4543.53
4206.71
3734.89
8169.76
8401.01
7686.63
6581.47
13469.7
13915
12520.5
10355.9
19458.5
20173.1
17885.2
14343.2
16357.1
16695.5
14394.1
11298.1
5448.13
5465.41
5462.24
5446.69
4479.84
4474.37
4468.41
4462.12
689.932
639.982
600.149
583.711
541.288
499.452
463.579
445.653
694.59
659.859
621.036
596.57
1035.81
1014.65
960.38
907.788
1725.87
1738.09
1641.79
1510.69
2738.48
2792.24
2602.43
2319.29
3954.15
4069.29
3736.17
3225.49
3516.43
3553.22
3188.28
2727.58
5193.08
5201.66
5202.38
5197.85
4340.55
4336.89
4332.24
4326.56
570.361
532.583
503.183
491.785
341.961
315.114
293.598
283.761
334.929
313.677
295.425
286.878
389.893
373.018
354.859
344.175
540.221
530.885
508.988
488.67
760.321
759.685
725.998
684.428
1050.57
1065.71
1011.83
933.24
1148.86
1142.01
1077.02
1007.44
4979.46
4983.34
4985.03
4985.14
4202.47
4199.89
4196.08
4190.87
508.67
477.549
453.702
445.027
273.659
253.885
238.404
231.741
232.599
218.363
206.77
201.719
227.094
215.795
205.91
201.355
260.472
251.664
242.124
236.585
313.154
306.09
295.252
287.161
403.263
400.283
386.938
373.131
605.029
591.371
574.156
565.855
4787.7
4789.09
4790.56
4792.13
4061.19
4059.25
4056.01
4051.21
464.643
438.052
417.898
410.917
240.332
224.633
212.547
207.655
192.765
182.298
173.934
170.45
172.9
164.941
158.391
155.665
176.385
169.774
163.961
161.391
188.445
182.171
176.401
173.886
227.333
222.144
216.176
212.94
432.045
418.708
410.803
412.521
4603.04
4603.16
4604.11
4605.78
3915.16
3913.57
3910.73
3906.33
427.453
404.361
386.992
381.148
218.843
205.819
195.941
192.168
172.248
163.959
157.462
154.928
149.583
143.516
138.736
136.983
144.492
139.433
135.37
133.915
145.338
140.386
136.541
135.435
167.719
163.106
159.321
158.215
355.249
343.398
338.137
341.444
4418.36
4417.82
4418.33
4419.78
3763.78
3762.33
3759.79
3755.83
393.301
373.148
358.063
353.036
202.124
191.043
182.759
179.757
159.036
152.089
146.794
144.933
137.174
132.207
128.502
127.424
129.765
125.685
122.642
121.847
127.247
123.308
120.508
120.012
142.773
139.028
136.302
135.838
311.363
301.011
296.966
300.395
4230.95
4230.11
4230.31
4231.51
3606.92
3605.47
3603.17
3599.68
360.678
343.082
329.962
325.578
187.623
178.034
170.987
168.578
149.109
143.027
138.572
137.258
129.437
125.129
122.136
121.592
121.918
118.457
116.077
115.767
118.481
115.255
113.131
113.023
130.459
127.45
125.404
125.258
281.414
272.365
269.126
272.446
4039.75
4038.81
4038.83
4039.8
3444.74
3443.19
3441.1
3438.15
328.93
313.589
302.211
298.405
174.336
165.926
159.888
157.995
140.939
135.442
131.624
130.81
124.045
120.156
117.673
117.584
117.277
114.228
112.319
112.396
113.769
111.058
109.416
109.605
123.562
121.13
119.579
119.655
258.203
250.25
247.636
250.835
3844.34
3843.42
3843.34
3844.12
3277.59
3275.89
3274
3271.64
297.814
284.475
274.68
271.47
161.914
154.449
149.272
147.89
133.924
128.856
125.567
125.239
119.991
116.405
114.32
114.628
114.259
111.519
109.971
110.368
110.957
108.643
107.374
107.799
119.207
117.231
116.063
116.309
238.457
231.428
229.321
232.406
3644.63
3643.81
3643.68
3644.29
3105.98
3104.13
3102.45
3100.72
267.327
255.784
247.47
244.939
150.339
143.653
139.243
138.409
127.82
123.129
120.32
120.474
116.759
113.447
111.705
112.352
112.062
109.596
108.349
109.001
109.014
107.035
106.071
106.681
116.055
114.457
113.592
113.957
220.488
214.257
212.567
215.527
3440.76
3440.08
3439.94
3440.41
2930.56
2928.63
2927.18
2926.08
237.613
227.741
220.859
219.119
139.767
133.775
130.086
129.841
122.494
118.215
115.885
116.495
114.009
111.007
109.587
110.501
110.208
108.031
107.054
107.884
107.391
105.726
105.023
105.752
113.417
112.154
111.53
111.948
203.345
197.838
196.493
199.292
3233.1
3232.58
3232.45
3232.78
2752.15
2750.26
2749.08
2748.56
208.863
200.652
195.207
194.346
130.391
125.107
122.126
122.467
117.769
114.02
112.19
113.177
111.443
108.836
107.733
108.806
108.373
106.537
105.808
106.71
105.79
104.449
103.967
104.724
110.923
109.978
109.535
109.923
186.46
181.669
180.613
183.187
3022.25
3021.89
3021.78
3022.01
2571.78
2570.06
2569.17
2569.13
181.145
174.745
170.78
170.772
122.252
117.806
115.527
116.33
113.348
110.308
109.002
110.194
108.778
106.688
105.893
106.958
106.35
104.929
104.419
105.247
104.094
103.102
102.794
103.46
108.374
107.741
107.425
107.695
169.108
164.914
164.091
166.447
2809.27
2809.11
2809.03
2809.14
2390.52
2389.13
2388.54
2388.84
154.106
149.835
147.397
147.979
115.018
111.649
110.038
110.976
108.878
106.746
105.933
107.018
105.83
104.386
103.856
104.678
104.096
103.156
102.815
103.398
102.375
101.746
101.55
101.999
105.697
105.345
105.111
105.218
150.045
146.564
145.977
147.996
2595.49
2595.51
2595.47
2595.46
2208.75
2207.78
2207.5
2207.95
126.717
124.896
123.869
124.378
107.952
105.914
104.863
105.418
104.315
103.173
102.705
103.296
102.784
102.005
101.655
102.038
101.891
101.397
101.163
101.414
100.941
100.619
100.483
100.677
102.998
102.806
102.639
102.654
128.026
125.645
125.33
126.749
2381.56
2381.75
2381.73
2381.61
6785.56
5785.44
5298.25
5100.62
4984.55
4908.84
4861.41
4834.21
4820.18
4812.57
1.01642e+06
213905
38874.2
12775
5418.45
2789.68
1700.36
1202.36
955.235
806.313
1.53478e+06
216589
44068.3
14377
6075.02
3117.46
1855.99
1252.88
935.277
744.53
1.90441e+06
211816
42954.5
12993.6
5294.32
2640.58
1540.27
1023.64
755.801
600.746
2.23443e+06
217358
41794.9
11652.5
4594.32
2240.22
1295.65
859.55
634.264
506.528
2.54964e+06
226825
41262.4
10629
4040.43
1926.39
1106.54
733.503
542.815
435.466
2.74253e+06
230203
39605
9523.36
3524.29
1664.1
961.369
643.642
480.354
388.154
2.6787e+06
214540
34613.5
7703.42
2790.44
1324.82
790.097
549.814
427.195
355.72
1.76949e+06
130248
19031.9
4012.33
1667.78
996.509
748.823
624.546
552.974
505.301
6050.82
5921.35
5781.82
5746.63
5708.63
5689.95
5677.01
5670.26
5665.67
5661.67
5767.72
5350.45
5113.42
4965.19
4869.7
4808.19
4770.22
4748.78
4738.1
4732.7
233432
61451.5
18998.2
7040.14
3223.53
1787.75
1168.28
877.801
733.036
650.196
400766
94436.5
26431.3
9072.83
4006.35
2131.86
1313.51
915.775
704.727
581.526
573337
121738
30145.5
9312.1
3861.03
1964.11
1170.81
795.438
599.827
490.303
771104
149004
32827.6
9167.48
3594.59
1769.98
1039.28
701.779
526.368
430.076
999835
177993
35331.5
8972.02
3338.27
1596.71
926.21
622.211
466.033
381.009
1.20819e+06
199592
36049.9
8415.84
3013.91
1422.12
827.281
560.396
422.43
346.992
1.32003e+06
202277
33160
7072.4
2451.96
1161.08
695.756
488.865
383.121
324.14
974561
134250
19192.5
3818.01
1520.71
920.118
698.993
588.462
524.32
484.658
6154.35
5849.59
5702.28
5645.13
5602.65
5580.01
5564.94
5555.73
5548.57
5541.88
5038.02
4945.13
4851.94
4774.95
4719.8
4683.75
4662.11
4650.56
4645.37
4642.91
15248.9
7287.1
3840.99
2162.86
1333.35
912.599
696.908
587.821
532.567
499.209
30666.5
12800.4
6111.1
3139.51
1766.64
1092.17
749.416
570.082
470.918
410.405
50571.8
18261.7
7796.11
3627.01
1892.25
1101.71
721.616
529.032
424.499
364.071
76167.8
23824.1
9134.77
3885.89
1911.37
1070.47
685.96
496.712
394.067
335.93
110181
30165
10429.7
4077.21
1903.87
1030.82
648.134
463.636
364.845
309.545
145563
35304.8
11088.7
4027.76
1813.87
965.45
605.626
434.607
342.481
290.66
170201
36654.5
10422
3520.67
1550.05
829.73
535.125
396.533
322.878
280.827
118846
22096.6
5748.33
2043.65
1105.11
762.548
613.541
532.957
483.874
452.962
5888.79
5717.35
5603.53
5538.39
5496.8
5473.28
5457.7
5446.91
5438.13
5430.16
4776.03
4725.01
4666.28
4617.94
4584.72
4564.16
4552.6
4547.13
4545.49
4545.06
2353.95
1797.82
1286.65
905.687
668.952
533.962
460.982
424.904
408.918
399.027
4414.13
2920.59
1870.89
1176.79
770.233
542.443
417.67
350.652
313.572
289.776
7687.86
4426.59
2536.11
1448.18
877.758
580.407
424.404
341.592
295.492
267.778
12130.2
6099.44
3158.24
1661.08
951.32
604.813
430.943
340.638
289.592
259.336
18382.5
8116.32
3831.08
1870.04
1018.24
623.877
433.096
335.44
280.649
248.623
25072.4
9813.5
4267.24
1958.15
1030.59
619.186
426.152
328.713
273.485
240.969
30063
10431.5
4180.79
1817.09
942.896
571.159
402.232
317.562
270.162
242.023
20498.4
6393.12
2543.1
1267.23
831.187
638.053
540.608
483.354
446.376
422.568
5656
5538.39
5450.28
5397.4
5364.24
5344.02
5329.82
5319.33
5310.63
5302.99
4592.34
4553.28
4512.4
4481.08
4460.66
4448.63
4442.33
4439.94
4440.06
4440.71
869.722
776.677
636.06
513.327
430.197
380.245
353.07
341.302
338.673
337.38
1072.7
884.904
670.68
492.18
371.057
296.906
254.828
233.177
222.461
215.273
1763.73
1300.73
893.668
601.521
422.406
319.089
261.492
230.555
213.669
203.179
2798.69
1836.36
1149.28
717.52
477.583
347.469
277.267
239.491
217.515
203.781
4385.07
2567.99
1474.18
857.456
541.576
378.251
292.3
245.838
218.529
201.731
6146.67
3247.23
1730.38
950.952
579.706
395.413
300.875
250.205
219.79
200.848
7579.61
3618.08
1801.34
950.546
574.341
394.472
304.339
255.963
227.246
209.424
5385.93
2493.81
1340.94
859.812
651.582
542.643
479.597
439.495
412.066
394.093
5406.66
5339.72
5284.48
5248.35
5223.72
5206.87
5194.18
5184.29
5175.93
5168.7
4447.48
4413.91
4381.11
4357.24
4342.34
4333.95
4329.87
4328.72
4329.51
4330.57
577.873
528.893
452.155
386.122
341.722
315.39
301.781
297.235
298.346
299.661
432.079
391.241
326.67
266.342
222.674
195.311
180.415
174.256
172.814
171.965
565.242
484.296
381.302
294.661
235.94
200.168
180.045
170.035
165.509
162.778
812.251
642.216
471.059
344.187
265.051
218.923
192.991
179.155
171.265
166.09
1247.12
899.423
610.919
418.921
307.056
243.793
208.062
187.906
175.659
167.764
1757.99
1164.66
739.011
481.168
340.319
263.247
220.292
195.894
180.389
170.163
2236.38
1366.04
820.235
518.825
364.244
281.931
236.444
210.209
193.72
183.092
1854.6
1194.33
822.968
633.26
531.139
469.077
428.547
400.83
380.878
367.715
5181.84
5147.89
5116.47
5092.97
5074.99
5061.29
5050.32
5041.36
5033.66
5027.07
4312.77
4282.76
4254.58
4234.75
4222.78
4216.27
4213.26
4212.62
4213.58
4214.74
487.478
443.339
382.199
332.784
300.97
282.85
274.025
271.741
273.632
275.499
276.919
253.498
218.665
187.436
165.521
152.395
146.053
144.645
145.943
147.171
279.949
253.986
216.466
183.752
161.253
147.724
140.671
138.141
138.135
138.436
330.853
291.901
241.92
201.13
174.145
157.971
148.985
144.763
142.878
141.64
452.437
378.461
298.084
237.246
198.215
174.525
160.393
152.312
147.483
144.295
604.508
477.277
356.495
272.369
220.778
189.908
171.297
160.209
152.868
147.776
779.895
580.851
416.657
311.744
250.146
213.617
191.345
177.59
168.563
162.617
873.098
707.501
579.398
499.914
448.018
412.117
386.142
367.197
352.96
343.644
4980.08
4963.88
4946.49
4931.3
4918.34
4907.54
4898.39
4890.62
4883.81
4878.01
4177.87
4150.86
4126.16
4109.19
4099.2
4093.9
4091.52
4091.1
4092.05
4093.18
441.399
399.031
344.929
303.206
277.344
263.143
256.512
255.046
256.907
258.719
226.497
205.533
178.215
155.702
140.908
132.64
129.152
129.102
130.996
132.773
197.348
180.417
158.714
141.304
130.14
123.974
121.329
121.233
122.63
123.943
197.294
181.94
161.726
145.524
135.054
129.037
126.078
125.346
125.742
126.138
229.995
209.901
183.801
162.64
148.351
139.322
133.823
130.873
129.424
128.543
275.654
246.229
209.885
181.509
162.426
150.092
142.163
137.362
134.211
131.962
349.106
301.688
250.891
213.664
188.957
172.721
161.898
154.856
150.174
147.118
546.589
500.068
451.666
415.871
388.561
367.513
350.922
338.124
328.173
321.864
4790.88
4782.94
4773.15
4763.38
4754.22
4745.99
4738.66
4732.22
4726.45
4721.56
4039.06
4014.92
3993.28
3978.72
3970.34
3965.99
3964.07
3963.77
3964.68
3965.76
407.645
367.377
318.64
282.281
260.407
248.761
243.501
242.465
244.165
245.812
203.214
182.978
158.783
140.106
128.524
122.428
120.111
120.436
122.315
124.144
166.736
151.827
135.096
123.025
116.013
112.569
111.474
112.086
113.769
115.313
153.195
142.799
130.836
122.285
117.307
114.791
113.917
114.323
115.448
116.43
159.482
150.787
139.453
130.566
124.685
121.02
118.893
118.028
118.018
118.186
172.842
164.409