/*--------------------------------*- C++ -*----------------------------------*\
| =========                 |                                                 |
| \\      /  F ield         | foam-extend: Open Source CFD                    |
|  \\    /   O peration     | Version:     4.0                                |
|   \\  /    A nd           | Web:         http://www.foam-extend.org         |
|    \\/     M anipulation  |                                                 |
\*---------------------------------------------------------------------------*/
FoamFile
{
    version     2.0;
    format      ascii;
    class       volScalarField;
    location    "350";
    object      k;
}
// * * * * * * * * * * * * * * * * * * * * * * * * * * * * * * * * * * * * * //

dimensions      [0 2 -2 0 0 0 0];

internalField   nonuniform List<scalar> 
34480
(
8.63301
8.62508
8.62195
8.62178
8.62535
8.63921
8.69127
8.87213
9.38583
10.4783
9.4112
8.47661
8.24568
8.47047
9.09107
10.3588
13.5501
22.4324
48.9525
112.551
14.4756
12.8993
12.4417
12.6516
13.3869
14.9828
19.0607
29.9783
63.0171
148.643
13.702
12.3868
12.0966
12.4387
13.3344
15.154
19.5327
31.0182
67.6282
169.852
12.5585
11.5191
11.4091
11.8787
12.9505
15.0122
19.7018
31.6752
71.653
190.211
11.4876
10.6232
10.5617
11.0607
12.2081
14.4767
19.5806
32.4508
76.7918
213.999
10.6504
9.94784
9.94202
10.4409
11.618
14.0062
19.4113
32.9553
80.7227
233.767
9.38332
8.88405
8.88049
9.28881
10.2726
12.3887
17.4355
30.6103
78.5596
237.685
6.69285
6.54754
6.57073
6.74987
7.18422
8.13779
10.7342
18.8581
51.5191
168.648
9.18178
9.17419
9.16823
9.16493
9.16638
9.17386
9.18991
9.22061
9.29852
9.41898
8.53613
8.5291
8.52646
8.52651
8.5295
8.53889
8.56932
8.66308
8.91895
9.56903
8.40868
7.61953
7.36443
7.47311
7.9289
8.95402
11.1802
15.6148
27.0949
81.1949
12.509
11.1631
10.7466
10.9405
11.6787
13.1943
16.2991
22.1701
37.2636
111.882
12.0724
10.9134
10.6257
10.9306
11.812
13.5141
16.842
22.8849
39.8336
128.978
11.2935
10.3434
10.1976
10.5923
11.6079
13.4999
17.0827
23.2354
41.789
145.109
10.5039
9.69197
9.57864
9.98547
11.0421
13.0656
16.9494
23.4984
44.3386
164.398
9.86324
9.18645
9.12403
9.52175
10.5804
12.663
16.7792
23.679
46.4201
181.208
8.80889
8.32007
8.26455
8.57879
9.43108
11.2088
14.9607
21.5851
44.5248
184.721
6.50163
6.34455
6.33835
6.45703
6.7851
7.50084
9.21911
12.8516
27.3987
124.524
9.05027
9.03914
9.02899
9.02088
9.01647
9.0171
9.02672
9.04932
9.1134
9.34505
8.42889
8.42344
8.42145
8.42125
8.42275
8.42772
8.44636
8.5087
8.67112
8.96881
7.364
6.81363
6.6103
6.6508
6.91169
7.54223
9.03803
12.4182
19.0539
33.8579
10.3903
9.42246
9.10576
9.24849
9.82531
11.022
13.4578
18.2193
27.0161
51.5137
10.2612
9.40102
9.17141
9.40911
10.1281
11.5269
14.2098
19.1568
28.8402
63.3781
9.8503
9.12475
8.99845
9.30635
10.1412
11.7249
14.674
19.7395
30.1236
74.903
9.35595
8.71522
8.60775
8.92916
9.80806
11.5314
14.8012
20.23
31.8688
88.5411
8.93544
8.38569
8.31879
8.63729
9.52645
11.3205
14.8422
20.5995
33.441
101.473
8.14315
7.73706
7.67677
7.92883
8.64067
10.1621
13.381
18.9371
32.1623
106.808
6.28911
6.14752
6.1348
6.22508
6.48279
7.04588
8.39017
11.3385
19.6914
71.2142
8.9275
8.91492
8.90318
8.89347
8.88721
8.88554
8.89197
8.9126
8.97905
9.20195
8.31101
8.30735
8.30645
8.30643
8.30696
8.30902
8.31957
8.35992
8.47272
8.66573
6.56947
6.19301
6.03798
6.04095
6.17078
6.5109
7.38807
9.58938
13.9827
20.7291
8.62618
7.97598
7.74162
7.80961
8.16515
8.94655
10.6148
14.0745
20.03
30.7059
8.67856
8.08213
7.90153
8.0429
8.51717
9.47364
11.3555
15.0312
21.4327
36.8148
8.54227
8.02278
7.91497
8.1131
8.68384
9.79735
11.9041
15.7475
22.4108
42.9174
8.28808
7.80822
7.70944
7.92663
8.54799
9.79755
12.2001
16.439
23.7665
50.6467
8.05508
7.6268
7.55922
7.78298
8.42961
9.76055
12.3999
16.9885
24.9825
58.3079
7.50994
7.18196
7.12145
7.30392
7.82811
8.96009
11.3729
15.8297
24.0716
61.7904
6.08492
5.95866
5.94206
6.00655
6.19622
6.60303
7.53412
9.67846
14.7301
40.3968
8.78841
8.77654
8.76565
8.75701
8.75199
8.75185
8.75974
8.78175
8.84387
9.01122
8.18381
8.18113
8.18083
8.18077
8.18047
8.18075
8.18626
8.21224
8.29233
8.43195
6.02878
5.76183
5.64141
5.62743
5.68658
5.86419
6.36696
7.72976
10.577
14.0819
7.32974
6.90222
6.72963
6.74225
6.9192
7.34836
8.35434
10.6195
14.5806
19.5207
7.44324
7.04171
6.90073
6.96332
7.2219
7.76873
8.91038
11.3372
15.5773
22.5469
7.46757
7.10777
7.01733
7.12372
7.45638
8.11844
9.41424
11.9891
16.3661
25.6354
7.37727
7.02778
6.93958
7.06699
7.45083
8.23178
9.76522
12.706
17.5298
29.9423
7.28148
6.95621
6.89103
7.03078
7.4496
8.31376
10.0454
13.3158
18.5735
34.3384
6.94359
6.68426
6.62616
6.74655
7.09705
7.84669
9.4378
12.6247
18.0321
36.3742
5.89708
5.78698
5.76812
5.81065
5.94242
6.21832
6.81068
8.17483
11.1537
23.1162
8.64044
8.62942
8.61951
8.61202
8.6082
8.60932
8.61791
8.63861
8.69105
8.80867
8.04799
8.04576
8.04558
8.04544
8.04482
8.04431
8.04741
8.06599
8.12819
8.24198
5.68504
5.48427
5.38719
5.36803
5.39585
5.4982
5.81827
6.74336
8.79672
11.2894
6.45534
6.16908
6.04106
6.02774
6.10421
6.3205
6.89398
8.31398
10.9728
13.8518
6.55311
6.28258
6.17422
6.19198
6.31561
6.59143
7.21058
8.65971
11.3839
15.0185
6.64285
6.39755
6.32503
6.37382
6.54789
6.89587
7.59538
9.10863
11.8521
16.3847
6.64417
6.39475
6.32059
6.38772
6.6052
7.04501
7.91181
9.69641
12.7399
18.6967
6.63447
6.39366
6.33577
6.4158
6.66811
7.18093
8.19725
10.2451
13.5859
21.1165
6.45603
6.25656
6.20486
6.27945
6.50065
6.96278
7.91494
9.92325
13.3376
22.1542
5.72807
5.63496
5.61613
5.64239
5.73074
5.91213
6.2757
7.07557
8.68402
13.8675
8.48304
8.47305
8.46429
8.458
8.45535
8.45745
8.4663
8.48501
8.52558
8.60218
7.90374
7.90163
7.90138
7.90119
7.90049
7.89974
7.90177
7.91641
7.96813
8.0665
5.47339
5.31301
5.23153
5.21189
5.22655
5.29445
5.52512
6.22817
7.87809
9.99457
5.89766
5.69627
5.59864
5.577
5.60656
5.7165
6.0561
6.98461
8.87897
10.9668
5.95017
5.76181
5.67822
5.67521
5.72812
5.85742
6.17828
7.01539
8.76548
10.9821
6.04654
5.8778
5.82096
5.8384
5.92154
6.08831
6.43293
7.24422
8.88425
11.2987
6.08619
5.90904
5.84922
5.88024
5.99504
6.2245
6.67161
7.63843
9.43378
12.409
6.12087
5.94555
5.89706
5.93851
6.08159
6.36639
6.91373
8.05278
10.0306
13.676
6.05479
5.90513
5.86181
5.90496
6.0373
6.30685
6.83744
7.96933
9.97417
14.1845
5.58109
5.5047
5.48746
5.50227
5.55932
5.67497
5.89366
6.34615
7.19345
9.3511
8.31583
8.30702
8.29948
8.29438
8.29271
8.29543
8.30399
8.32038
8.35131
8.40119
7.75092
7.74877
7.7484
7.74817
7.74754
7.74684
7.74843
7.7607
7.80531
7.89226
5.3436
5.20868
5.13792
5.1193
5.12834
5.17902
5.36055
5.93673
7.35276
9.28124
5.55251
5.40209
5.32508
5.30311
5.31344
5.37465
5.59583
6.2581
7.7288
9.49847
5.55859
5.42087
5.35564
5.34521
5.3654
5.4249
5.59668
6.10415
7.29822
8.91283
5.6344
5.51538
5.4714
5.47401
5.51028
5.58489
5.74847
6.17632
7.1653
8.63836
5.68028
5.55383
5.50717
5.51879
5.57567
5.68893
5.90811
6.40177
7.42121
9.01887
5.73088
5.60465
5.56598
5.58479
5.66171
5.81237
6.09211
6.67829
7.77731
9.59322
5.73755
5.62794
5.59366
5.61687
5.69204
5.84199
6.12435
6.71646
7.81781
9.83852
5.45742
5.39665
5.38198
5.38935
5.42495
5.49669
5.62671
5.88001
6.33854
7.30664
8.13846
8.1309
8.1246
8.12059
8.1197
8.12266
8.13048
8.14433
8.16765
8.20144
7.58918
7.58698
7.58648
7.58624
7.58574
7.58519
7.5866
7.5972
7.6362
7.71337
5.26196
5.14373
5.08058
5.0632
5.06945
5.10991
5.25972
5.75067
7.00317
8.79378
5.34109
5.22239
5.15978
5.14024
5.14338
5.18198
5.33983
5.84835
7.06397
8.66569
5.31123
5.20549
5.15403
5.14237
5.14875
5.17693
5.27678
5.61238
6.49672
7.82959
5.35938
5.27286
5.23913
5.2359
5.24988
5.28119
5.35969
5.5982
6.23854
7.28934
5.39626
5.30515
5.26981
5.27219
5.29846
5.35169
5.45713
5.71065
6.30732
7.28461
5.44651
5.35635
5.32685
5.33363
5.37283
5.44937
5.58872
5.88339
6.49011
7.47425
5.49625
5.41789
5.3923
5.40383
5.44415
5.52351
5.66875
5.96797
6.5617
7.58895
5.35684
5.30999
5.29833
5.30131
5.32284
5.36625
5.44275
5.58427
5.84101
6.3488
7.95058
7.94432
7.93921
7.93615
7.93581
7.93871
7.94548
7.95672
7.97395
7.99735
7.4181
7.41587
7.41529
7.41506
7.41468
7.4143
7.41561
7.42486
7.45904
7.5273
5.20772
5.10082
5.04335
5.02709
5.03155
5.06475
5.191
5.61641
6.73702
8.40478
5.21061
5.1128
5.06072
5.04414
5.04477
5.07173
5.19124
5.59887
6.63659
8.11432
5.15729
5.07294
5.03207
5.02158
5.02264
5.03688
5.10032
5.33991
6.03704
7.20544
5.18063
5.11613
5.09052
5.08581
5.08996
5.10202
5.14135
5.28632
5.73816
6.58003
5.20402
5.13787
5.11187
5.11055
5.12151
5.14501
5.19536
5.33192
5.70912
6.40471
5.2467
5.18282
5.16126
5.16241
5.18119
5.21843
5.28676
5.43728
5.7897
6.40918
5.31943
5.26482
5.24689
5.25216
5.27227
5.31158
5.38319
5.53226
5.86109
6.45782
5.27778
5.2428
5.23417
5.23486
5.24757
5.27328
5.31774
5.39663
5.54364
5.85343
7.75192
7.74692
7.74291
7.74066
7.74067
7.74328
7.74887
7.75762
7.77003
7.78624
7.23723
7.23505
7.23442
7.23422
7.23396
7.23372
7.23493
7.24297
7.27276
7.33271
5.16867
5.06984
5.01689
5.00164
5.00473
5.0321
5.13906
5.50906
6.51286
8.062
5.128
5.04488
5.00093
4.98708
4.98685
5.00679
5.09981
5.43252
6.32829
7.69225
5.06165
4.99265
4.96015
4.95152
4.95074
4.95853
5.00166
5.1812
5.75013
6.79617
5.06647
5.01765
4.99849
4.9941
4.99433
4.99829
5.01929
5.11474
5.45504
6.17224
5.0775
5.02934
5.01078
5.00845
5.01218
5.02145
5.0452
5.12333
5.38145
5.93467
5.1109
5.06615
5.05107
5.05007
5.05835
5.07548
5.10832
5.18768
5.40737
5.85823
5.19433
5.15732
5.14565
5.14787
5.15685
5.17433
5.20706
5.28004
5.4704
5.87335
5.21764
5.19238
5.18649
5.18622
5.19363
5.20863
5.23408
5.27774
5.36296
5.57405
7.54227
7.53844
7.53539
7.53379
7.53399
7.5362
7.5406
7.54712
7.55579
7.56696
7.04616
7.04411
7.04348
7.04331
7.04314
7.043
7.04408
7.05098
7.07669
7.12881
5.13771
5.04511
4.9962
4.98197
4.98396
5.00636
5.09652
5.4167
6.3112
7.74252
5.07325
5.0013
4.96404
4.95256
4.95202
4.96706
5.0399
5.31181
6.08372
7.33425
5.0014
4.94421
4.91851
4.91171
4.91045
4.91498
4.94548
5.0832
5.55409
6.49441
4.9941
4.95702
4.94294
4.93942
4.93837
4.93918
4.95128
5.01787
5.28438
5.91277
4.99606
4.96111
4.94826
4.94605
4.94662
4.94938
4.96027
5.00756
5.19506
5.66359
5.02124
4.99041
4.98032
4.97886
4.98205
4.98929
5.00458
5.04785
5.1936
5.55456
5.10856
5.08421
5.07728
5.07818
5.0814
5.08757
5.10028
5.13468
5.24974
5.5544
5.17328
5.1557
5.15206
5.15158
5.15594
5.16464
5.17897
5.20278
5.25237
5.40693
7.32147
7.31867
7.31645
7.31535
7.31561
7.31737
7.32068
7.32533
7.33119
7.3388
6.84453
6.84267
6.84209
6.84197
6.84186
6.84179
6.84272
6.84852
6.87036
6.9151
5.1106
5.02357
4.97873
4.96569
4.96683
4.98487
5.05984
5.33345
6.12231
7.43518
5.03447
4.97187
4.94049
4.93108
4.93042
4.94174
4.9983
5.21817
5.87634
7.01111
4.96223
4.91475
4.89467
4.88945
4.88818
4.89092
4.91282
5.01895
5.40869
6.25121
4.94806
4.92008
4.90992
4.9073
4.90604
4.90583
4.91341
4.96147
5.17396
5.73075
4.94445
4.91933
4.91067
4.90891
4.90826
4.90831
4.91307
4.94303
5.0843
5.49337
4.96336
4.9426
4.93615
4.93488
4.93581
4.93847
4.94531
4.96963
5.07059
5.37395
5.05112
5.03558
5.03193
5.03233
5.03281
5.03358
5.03654
5.05155
5.12366
5.36993
5.14146
5.12973
5.1278
5.12745
5.13012
5.13524
5.14321
5.15587
5.18446
5.3023
7.08941
7.08748
7.08592
7.0852
7.08546
7.08679
7.08915
7.09231
7.0961
7.1012
6.63209
6.63048
6.62997
6.62989
6.62984
6.6298
6.63055
6.63528
6.65343
6.69124
5.0847
5.0036
4.96333
4.95175
4.95228
4.96647
5.0274
5.25646
5.94114
7.13421
5.00459
4.95069
4.9248
4.91724
4.91656
4.92498
4.96807
5.14214
5.69313
6.70957
4.93549
4.8965
4.88114
4.87722
4.87612
4.87781
4.8935
4.97441
5.29323
6.04242
4.91833
4.89753
4.89033
4.88841
4.88734
4.88701
4.89217
4.92734
5.09684
5.59057
4.91209
4.89424
4.8885
4.88717
4.88622
4.88538
4.88737
4.90703
5.01498
5.37521
4.92648
4.91292
4.90896
4.90804
4.9081
4.90886
4.91184
4.9259
4.99727
5.25594
5.01301
5.00329
5.00167
5.00186
5.00124
4.99983
4.99861
5.00424
5.05058
5.25564
5.11919
5.11177
5.11103
5.11092
5.11269
5.11585
5.12029
5.12677
5.14269
5.23366
6.84605
6.84481
6.84378
6.84332
6.84355
6.84448
6.84608
6.84811
6.85042
6.85374
6.40865
6.40732
6.40692
6.40688
6.40686
6.40683
6.4074
6.4111
6.42571
6.45703
5.05827
4.98444
4.94957
4.93979
4.93995
4.95072
4.99856
5.18449
5.765
6.83622
4.97946
4.93439
4.91376
4.90785
4.90724
4.91342
4.94535
5.07881
5.52771
6.42376
4.91611
4.88495
4.87358
4.87071
4.86983
4.87092
4.882
4.9421
5.19662
5.85436
4.89871
4.88357
4.8785
4.87707
4.87629
4.87618
4.87998
4.90562
5.03862
5.47211
4.89192
4.87938
4.87557
4.87454
4.87367
4.87279
4.87371
4.88692
4.96879
5.28269
4.903
4.89442
4.89204
4.89141
4.89125
4.89142
4.89283
4.90118
4.95142
5.16913
4.98716
4.98101
4.98044
4.98051
4.97961
4.97771
4.97524
4.97678
5.00692
5.17778
5.10388
5.09955
5.09956
5.09966
5.10097
5.1031
5.10569
5.10881
5.11687
5.18606
6.5914
6.59068
6.59004
6.58978
6.58994
6.59056
6.59158
6.59278
6.59407
6.59613
6.1742
6.17315
6.17287
6.17287
6.17286
6.17283
6.17322
6.17595
6.18719
6.21237
5.03039
4.96595
4.93748
4.9298
4.92979
4.93757
4.97325
5.11739
5.59262
6.53835
4.95688
4.92102
4.90536
4.90086
4.90037
4.90491
4.92778
5.0256
5.37717
6.15079
4.90134
4.87755
4.86952
4.86745
4.86681
4.86761
4.87529
4.91804
5.11288
5.6773
4.88545
4.87469
4.87106
4.86994
4.86944
4.86964
4.87266
4.891
4.99163
5.36262
4.87942
4.8707
4.86805
4.86722
4.86657
4.86601
4.86668
4.87567
4.93583
5.20071
4.88772
4.88247
4.88099
4.88054
4.88042
4.88055
4.88146
4.88657
4.92089
5.0969
4.96822
4.96403
4.96381
4.96376
4.96297
4.96138
4.95911
4.9593
4.97884
5.11793
5.09335
5.09119
5.0916
5.09187
5.09294
5.09456
5.09622
5.09754
5.10056
5.15076
6.32557
6.32522
6.32486
6.32472
6.32483
6.3252
6.3258
6.32643
6.32705
6.32821
5.92884
5.92811
5.92795
5.92798
5.92799
5.92795
5.92818
5.93001
5.93807
5.95739
5.00108
4.94861
4.92738
4.92199
4.92199
4.92721
4.95186
5.05602
5.42402
6.2363
4.93611
4.90948
4.89812
4.89471
4.89436
4.89779
4.91362
4.98108
5.2408
5.88773
4.88984
4.87287
4.86749
4.86601
4.8656
4.86632
4.87158
4.9001
5.03941
5.50302
4.87638
4.86886
4.86615
4.8652
4.86493
4.86542
4.86797
4.88067
4.95223
5.25379
4.87179
4.86574
4.86377
4.86305
4.86263
4.86248
4.86325
4.86939
4.91106
5.12122
4.87725
4.87407
4.87306
4.87271
4.87268
4.87295
4.87376
4.87699
4.8991
5.03138
4.95214
4.94884
4.9486
4.94844
4.94788
4.94688
4.94538
4.94549
4.95797
5.06604
5.08554
5.08488
5.08547
5.08585
5.08678
5.08812
5.0893
5.08964
5.08939
5.12246
6.04884
6.04871
6.04854
6.04849
6.04855
6.04875
6.04906
6.04934
6.04954
6.05006
5.6736
5.67276
5.6727
5.67275
5.67275
5.67271
5.6728
5.67386
5.679
5.69263
4.97175
4.93361
4.91993
4.91681
4.91693
4.92006
4.93516
5.00236
5.26145
5.9224
4.91749
4.89898
4.89088
4.88816
4.88795
4.89067
4.90135
4.94433
5.11965
5.62985
4.88105
4.86996
4.86645
4.86536
4.86516
4.86593
4.86958
4.88703
4.97632
5.32588
4.87027
4.86503
4.86288
4.86204
4.86194
4.86262
4.86483
4.87325
4.91939
5.14226
4.86728
4.86309
4.86154
4.8609
4.86068
4.86085
4.86178
4.86598
4.89226
5.04222
4.86944
4.86748
4.86671
4.8664
4.86644
4.86681
4.86761
4.86972
4.88272
4.97098
4.93593
4.93305
4.93264
4.93241
4.93207
4.93159
4.9309
4.93134
4.93912
5.01709
5.07755
5.07792
5.07856
5.07898
5.07979
5.08091
5.08182
5.0816
5.07926
5.09711
5.76186
5.76186
5.76182
5.7618
5.76183
5.76189
5.76199
5.76204
5.76203
5.76213
5.40794
5.40779
5.40781
5.40785
5.40786
5.40783
5.40784
5.40831
5.41098
5.4191
4.9449
4.9223
4.91565
4.91452
4.91478
4.91633
4.92379
4.95916
5.11109
5.58537
4.90142
4.88885
4.88294
4.88068
4.88055
4.88271
4.8897
4.91428
5.0163
5.37206
4.87436
4.86772
4.86538
4.86451
4.86445
4.86528
4.8679
4.87756
4.92557
5.14833
4.86637
4.86268
4.86098
4.86027
4.86026
4.86097
4.8628
4.86807
4.89362
5.03218
4.86477
4.86191
4.86068
4.86014
4.86005
4.8604
4.86139
4.86425
4.87867
4.96803
4.86356
4.8623
4.86169
4.86143
4.86148
4.86184
4.86255
4.86399
4.87074
4.91938
4.91781
4.91529
4.91476
4.91451
4.91431
4.91416
4.91403
4.91473
4.91948
4.96939
5.06288
5.06389
5.06451
5.06493
5.06556
5.0664
5.06699
5.06638
5.06299
5.06829
5.46551
5.46555
5.46556
5.46556
5.46557
5.46557
5.46557
5.46553
5.46543
5.46537
5.13267
5.1329
5.13292
5.13293
5.13294
5.13294
5.13295
5.13311
5.13402
5.13722
4.91914
4.91078
4.90941
4.90958
4.90989
4.91042
4.91273
4.92448
4.9824
5.22042
4.88676
4.87817
4.87417
4.87253
4.87244
4.87389
4.87787
4.88923
4.93337
5.11865
4.86872
4.86498
4.86343
4.86277
4.86276
4.86343
4.86516
4.86973
4.8887
4.98946
4.86386
4.86141
4.86025
4.85977
4.85979
4.86032
4.86156
4.8644
4.87516
4.93764
4.8633
4.86149
4.86065
4.86029
4.86027
4.8606
4.86138
4.86313
4.86937
4.90846
4.86063
4.85981
4.85937
4.85918
4.85922
4.85949
4.86001
4.86095
4.86386
4.8836
4.89665
4.89472
4.89418
4.89394
4.89383
4.89381
4.89397
4.89473
4.89763
4.92327
5.02037
5.02138
5.02186
5.02216
5.02255
5.02304
5.02332
5.02265
5.01964
5.01717
5.15988
5.1599
5.15992
5.15992
5.15992
5.1599
5.15988
5.15983
5.15975
5.15971
12.2474
12.3217
12.2473
11.9956
115.552
115.273
114.587
115.406
172.943
175.034
173.718
171.032
225.636
230.96
229.17
223.006
282.445
291.17
288.924
280.515
347.18
359.63
357.125
346.977
404.664
420.48
417.923
407.113
436.387
454.947
452.803
442.579
344.808
360.858
358.693
350.968
11.3534
11.5637
11.423
11.0793
10.3115
10.3208
10.2849
10.2131
115.795
113.082
110.934
109.736
175.288
178.151
174.785
169.125
230.854
242.62
238.615
228.556
292.823
315.257
311.469
297.764
366.403
401.894
399.846
382.16
434.326
483.133
484.177
463.68
474.764
535.519
540.932
519.385
366.747
420.742
425.775
410.18
10.6541
10.8497
10.7837
10.5104
9.04104
9.02664
9.00238
8.97564
43.5943
44.3617
41.8528
37.9295
69.548
70.9133
66.2839
59.4814
94.9548
97.7897
91.2434
81.2149
124.839
129.675
121.02
106.602
163.218
170.814
159.633
139.082
202.587
212.664
198.742
171.495
231.665
243.997
228.138
195.186
178.997
187.672
173.814
147.131
9.7967
9.86724
9.82349
9.70331
8.65361
8.63669
8.62247
8.61301
20.5251
19.6411
18.7039
18.1488
32.0532
30.9633
29.4459
28.2987
42.8074
42.1501
40.1728
38.116
55.6871
55.6704
52.9429
49.3683
73.0489
73.9461
70.0687
64.1456
91.4722
93.0609
87.603
78.8042
105.886
108.232
101.292
89.6276
79.5092
80.9214
74.6248
64.927
9.30744
9.34118
9.326
9.27988
8.41613
8.40494
8.39486
8.38648
13.2106
12.6419
12.1421
11.8935
18.7493
18.0244
17.3123
16.9087
23.5359
23.026
22.2459
21.6479
29.377
29.1971
28.2254
27.1739
37.7167
38.014
36.6703
34.8047
46.5959
47.2424
45.2485
42.2714
53.4981
54.5589
51.8555
47.6216
38.203
38.8099
36.1758
32.4786
8.9546
8.97305
8.9692
8.95184
8.23033
8.22264
8.21492
8.20729
10.4421
9.9831
9.60982
9.44399
12.7543
12.1637
11.6649
11.4242
14.5527
14.0614
13.5915
13.3479
17.0212
16.6967
16.2247
15.8797
21.0497
20.9799
20.4443
19.8461
25.3614
25.4879
24.7505
23.7555
28.6288
29.015
28.0275
26.5213
19.4418
19.6258
18.6343
17.2936
8.67406
8.68322
8.68371
8.67845
8.05816
8.05253
8.04631
8.03936
9.29084
8.91139
8.6127
8.48877
10.0576
9.59889
9.22182
9.04045
10.3606
9.97082
9.63537
9.47495
11.1236
10.8239
10.5223
10.3544
12.9482
12.7781
12.4923
12.2605
14.9774
14.9065
14.5778
14.225
16.506
16.5906
16.2044
15.6665
11.2136
11.2274
10.8709
10.4356
8.43543
8.4395
8.44117
8.44115
7.88578
7.88139
7.87613
7.86971
8.68513
8.35378
8.09978
8.00296
8.78252
8.41232
8.11462
7.97779
8.40138
8.09882
7.84651
7.7281
8.33042
8.08711
7.86991
7.76159
8.99106
8.81178
8.61881
8.50209
9.82765
9.68949
9.49637
9.3563
10.5281
10.4769
10.2877
10.0933
7.83146
7.77785
7.63739
7.51696
8.21811
8.21945
8.22096
8.22268
7.7076
7.70394
7.69932
7.69338
8.27487
7.97699
7.75333
7.67413
8.09578
7.78668
7.54315
7.43773
7.44814
7.2104
7.01511
6.92545
7.02681
6.83801
6.67648
6.59932
7.12906
6.975
6.83337
6.76093
7.37569
7.23376
7.09856
7.03137
7.69193
7.59632
7.4765
7.39937
6.46404
6.39455
6.32057
6.28941
8.00594
8.00585
8.00682
8.00874
7.52137
7.5181
7.51395
7.50848
7.94446
7.67255
7.47154
7.40406
7.64868
7.3829
7.17728
7.09332
6.9193
6.72538
6.56843
6.49909
6.37964
6.2303
6.10642
6.05081
6.24966
6.12375
6.0165
5.96823
6.24449
6.12071
6.01957
5.982
6.39367
6.29655
6.20873
6.17166
5.85846
5.79253
5.74183
5.73388
7.79073
7.78992
7.79041
7.79214
7.326
7.32289
7.31909
7.31414
7.64916
7.39936
7.21675
7.15724
7.30254
7.06945
6.89204
6.82314
6.57069
6.40573
6.27502
6.22082
6.01501
5.89116
5.79279
5.754
5.80385
5.69946
5.61619
5.58512
5.70625
5.60291
5.52542
5.50426
5.78612
5.7016
5.63417
5.6136
5.55776
5.50095
5.46217
5.46086
7.56913
7.56797
7.56815
7.56962
7.12091
7.11778
7.11427
7.10991
7.36923
7.13901
6.97215
6.91841
7.00066
6.79339
6.6382
6.5807
6.30413
6.15822
6.04627
6.00468
5.7801
5.67189
5.59124
5.56673
5.55511
5.46526
5.39903
5.38189
5.43178
5.34519
5.28506
5.27566
5.48473
5.41453
5.36237
5.35145
5.39426
5.3472
5.31689
5.31832
7.33952
7.33825
7.33823
7.33945
6.9058
6.90256
6.89931
6.89564
7.09452
6.88178
6.72891
6.68007
6.7184
6.53191
6.39507
6.34741
6.07932
5.94597
5.84834
5.81864
5.61157
5.5129
5.44524
5.43358
5.40337
5.3233
5.26968
5.26444
5.28123
5.20756
5.16066
5.16071
5.32631
5.26868
5.22861
5.22489
5.2985
5.26023
5.23679
5.24005
7.10096
7.09972
7.09959
7.10059
6.68061
6.67721
6.67423
6.67132
6.81968
6.62245
6.4825
6.43908
6.44557
6.27582
6.15488
6.11721
5.88
5.75525
5.66958
5.65215
5.48136
5.38905
5.33168
5.33188
5.30273
5.22988
5.18618
5.19119
5.19141
5.12805
5.09166
5.0995
5.23752
5.19038
5.16009
5.16209
5.23773
5.20685
5.18909
5.1939
6.85282
6.8517
6.85152
6.85233
6.44541
6.4419
6.43922
6.43714
6.5427
6.35928
6.23194
6.19583
6.1801
6.024
5.91766
5.89148
5.70043
5.58268
5.50814
5.50377
5.37562
5.28885
5.24047
5.25144
5.2294
5.16303
5.12774
5.14125
5.13061
5.07618
5.04853
5.06251
5.18198
5.14379
5.12143
5.12764
5.19489
5.17001
5.15688
5.16299
6.59471
6.59377
6.59358
6.59422
6.20048
6.19695
6.19463
6.19338
6.26464
6.09413
5.98009
5.95439
5.92548
5.78138
5.68943
5.67698
5.53887
5.42896
5.36596
5.37495
5.28568
5.20561
5.16586
5.18586
5.16909
5.10989
5.08221
5.10197
5.08136
5.03552
5.01536
5.03346
5.14003
5.10992
5.09388
5.10235
5.16061
5.14053
5.13106
5.1381
6.32644
6.32571
6.32553
6.326
5.94624
5.94288
5.94098
5.94049
5.98914
5.83258
5.73381
5.72214
5.68842
5.557
5.4802
5.483
5.39321
5.29453
5.24425
5.26532
5.20389
5.13326
5.10223
5.12829
5.11191
5.06161
5.04097
5.06382
5.03382
4.99691
4.98312
5.00265
5.1003
5.07801
5.06672
5.07501
5.1296
5.11344
5.10675
5.11417
6.04806
6.04755
6.0474
6.04772
5.68338
5.68044
5.67899
5.67914
5.72024
5.58226
5.5022
5.50707
5.47435
5.35968
5.29914
5.31564
5.25785
5.176
5.1396
5.16847
5.12221
5.06488
5.04242
5.06969
5.05095
5.01181
4.99738
5.01899
4.98355
4.95624
4.94741
4.96493
5.05594
5.04138
5.03331
5.03884
5.09843
5.08571
5.0811
5.08815
5.76015
5.75991
5.75981
5.75996
5.4128
5.41048
5.40952
5.41008
5.45544
5.34624
5.2897
5.30925
5.27989
5.18978
5.14581
5.1682
5.12394
5.06543
5.0425
5.07042
5.03431
4.99424
4.97921
5.00077
4.98372
4.95763
4.94792
4.96328
4.93193
4.9145
4.90885
4.92078
5.00284
4.99512
4.98899
4.99039
5.06244
5.05348
5.05056
5.05603
5.46373
5.46376
5.46371
5.4637
5.13425
5.13269
5.13222
5.13296
5.17177
5.10696
5.07749
5.09933
5.08706
5.03044
5.0008
5.0146
4.98885
4.95675
4.94328
4.95886
4.94369
4.92157
4.91138
4.92145
4.9174
4.90329
4.89642
4.90303
4.88828
4.87903
4.87499
4.88021
4.94141
4.93698
4.93227
4.93179
5.00578
5.0011
4.99965
5.00239
5.15884
5.15912
5.1591
5.15891
10.887
9.78908
9.22683
8.99037
8.84916
8.75682
8.69902
8.66593
8.64884
8.63963
137.005
66.4986
43.9576
33.4808
25.8353
20.2704
16.3729
13.7502
12.0078
10.7118
185.973
84.7176
57.0776
44.7926
35.9549
29.3971
24.5982
21.1497
18.6173
16.6012
220.04
90.6015
59.3049
45.2206
35.8652
28.8691
23.8169
20.2158
17.6113
15.6374
249.642
92.4941
59.2358
44.0045
34.5556
27.4061
22.3363
18.7452
16.1585
14.2739
279.369
95.1978
59.3943
42.8366
33.2011
25.904
20.848
17.3039
14.801
13.0242
299.134
95.2533
58.1275
41.0162
31.5063
24.2859
19.391
16.0023
13.6396
11.9997
297.282
88.002
52.0831
35.6807
27.0322
20.5013
16.2888
13.4903
11.6475
10.3894
201.72
50.46
27.4686
17.9529
13.4161
10.3882
8.80437
7.89082
7.3406
6.97175
9.59459
9.4577
9.30735
9.26952
9.22894
9.20977
9.19717
9.19147
9.18835
9.18615
9.75701
9.28198
9.00442
8.8261
8.70945
8.63398
8.58746
8.56127
8.54824
8.54168
76.6538
42.7407
31.5056
24.554
19.4847
15.7345
13.078
11.306
10.1588
9.36292
109.434
58.58
43.7575
34.9096
28.6569
23.7773
20.1561
17.5525
15.6549
14.2077
135.964
67.6735
48.184
37.1851
29.8951
24.28
20.2001
17.2981
15.2099
13.6983
162.338
74.6374
50.4708
37.7039
29.7589
23.7391
19.4721
16.4701
14.3087
12.7992
192.092
82.0713
52.7658
38.0541
29.4302
23.0287
18.6107
15.5431
13.3781
11.9034
216.115
86.3651
53.2176
37.3211
28.4604
21.9656
17.5941
14.6078
12.5219
11.1277
224.414
83.5368
49.0116
33.1603
24.8055
18.8157
14.9835
12.4791
10.835
9.76279
154.999
50.3494
26.499
16.9531
12.5355
9.80631
8.37716
7.56398
7.07435
6.76807
9.70856
9.38288
9.22336
9.16144
9.11583
9.0922
9.07713
9.06865
9.06259
9.05723
8.90837
8.80046
8.68895
8.59462
8.52637
8.48174
8.45507
8.44094
8.43464
8.4317
30.5998
25.3198
20.8583
16.8332
13.68
11.3906
9.84852
8.88958
8.3122
7.91666
46.5474
37.5548
31.2117
25.5439
21.0688
17.6734
15.2454
13.5719
12.3906
11.4954
60.1767
45.0676
35.9555
28.38
22.7964
18.6811
15.7836
13.7862
12.3807
11.3755
73.61
50.8198
38.9377
29.7129
23.3637
18.8097
15.6657
13.5131
11.9865
10.9302
89.1691
56.8025
41.8247
30.8642
23.7606
18.7654
15.3826
13.0858
11.4847
10.4044
102.277
60.5208
43.0585
30.912
23.4511
18.2779
14.8499
12.5581
10.9714
9.91633
108.068
59.1161
40.3335
27.9444
20.788
15.9627
12.9239
10.9816
9.71698
8.89618
72.5686
34.7818
21.7798
14.3922
10.8005
8.77712
7.71888
7.11146
6.73905
6.50482
9.42757
9.24228
9.11843
9.04755
9.00264
8.97771
8.96172
8.95121
8.94307
8.93599
8.5929
8.53304
8.46181
8.40191
8.36045
8.33487
8.32061
8.31397
8.31204
8.31162
17.5292
16.1336
13.8684
11.5462
9.72254
8.47092
7.68876
7.24989
7.02156
6.86788
26.7928
24.4813
21.1435
17.6438
14.7864
12.689
11.2573
10.3338
9.72474
9.2652
34.584
30.0459
24.928
20.0997
16.4092
13.7593
11.944
10.7431
9.93333
9.36127
42.3442
34.7274
27.6792
21.6233
17.2902
14.258
12.202
10.8372
9.89393
9.24372
51.6764
39.901
30.6105
23.1794
18.1375
14.6663
12.3356
10.787
9.72563
9.01103
59.6535
43.5115
32.2964
23.831
18.3614
14.6529
12.2069
10.6022
9.50122
8.76518
63.4461
43.3264
30.8698
22.0425
16.6767
13.161
10.9551
9.5668
8.66429
8.07384
41.4635
25.1364
16.5824
11.6469
9.21161
7.87206
7.1401
6.70672
6.43171
6.25656
9.17859
9.04996
8.95339
8.89549
8.85941
8.83775
8.82294
8.81243
8.80405
8.79697
8.36921
8.32264
8.27234
8.23308
8.2074
8.19239
8.18464
8.18181
8.18208
8.18301
11.681
10.955
9.70245
8.45695
7.50402
6.86872
6.48989
6.30184
6.23227
6.19042
16.5467
15.5646
13.8222
11.9462
10.3891
9.2609
8.52597
8.09841
7.8528
7.66625
20.8008
18.9331
16.2777
13.656
11.5791
10.09
9.09672
8.47865
8.09208
7.82196
25.268
22.0693
18.3288
14.9554
12.4325
10.6643
9.48495
8.73356
8.23222
7.88453
31.065
25.9434
20.807
16.488
13.3976
11.257
9.82553
8.89488
8.26738
7.8416
36.1706
28.9631
22.5166
17.4087
13.9113
11.5286
9.95504
8.93719
8.24022
7.76589
38.7708
29.4605
22.0381
16.5578
13.0291
10.7194
9.26108
8.34656
7.74677
7.34717
24.3532
16.8902
12.1399
9.39985
7.96212
7.13794
6.65409
6.35503
6.15772
6.03069
8.90834
8.8341
8.77291
8.73295
8.70588
8.68761
8.67418
8.66403
8.65572
8.64879
8.19113
8.15058
8.10974
8.07953
8.06067
8.05017
8.04518
8.04389
8.04502
8.04649
9.31372
8.76879
7.90278
7.08909
6.48818
6.10008
5.88037
5.78757
5.77591
5.77784
11.2622
10.7283
9.74328
8.698
7.84618
7.25337
6.89864
6.73094
6.66914
6.62269
13.1285
12.3132
10.9561
9.58138
8.48757
7.72384
7.24361
6.97886
6.84115
6.74756
15.365
14.0371
12.1763
10.43
9.09988
8.18299
7.59435
7.2452
7.02703
6.87323
18.7096
16.5453
13.9342
11.6322
9.92792
8.74904
7.96993
7.47669
7.15056
6.92586
21.7914
18.6892
15.3116
12.5027
10.4943
9.11973
8.2116
7.62991
7.22928
6.94901
23.4864
19.3371
15.3301
12.2452
10.1645
8.79261
7.91356
7.35707
6.986
6.73369
14.5633
11.48
9.2035
7.83923
7.05032
6.56369
6.25441
6.05439
5.91769
5.82965
8.66129
8.62298
8.58769
8.56137
8.54139
8.52639
8.51461
8.50524
8.49737
8.49086
8.02411
7.98748
7.95202
7.9267
7.91143
7.90324
7.89957
7.89891
7.90029
7.90191
8.3799
7.85984
7.11999
6.46716
6.00566
5.71866
5.56379
5.50687
5.51391
5.53114
8.8931
8.44541
7.74639
7.06301
6.53788
6.19521
6.0126
5.95462
5.96636
5.97927
9.34154
8.8534
8.07839
7.32599
6.75224
6.37486
6.16128
6.07183
6.05344
6.04571
10.1626
9.54075
8.61175
7.7435
7.09571
6.66776
6.41154
6.28101
6.21493
6.16746
11.8781
10.9418
9.67828
8.53789
7.6874
7.10592
6.72803
6.49779
6.35233
6.25065
13.5806
12.2672
10.6213
9.20316
8.16468
7.45185
6.97863
6.6773
6.46861
6.3176
14.6206
12.826
10.842
9.25853
8.15122
7.40781
6.91786
6.60139
6.38726
6.23943
9.63856
8.47392
7.47672
6.82908
6.40939
6.12821
5.9355
5.80551
5.7143
5.6564
8.43632
8.41763
8.39777
8.38056
8.36601
8.35406
8.3441
8.33584
8.32873
8.32286
7.85533
7.82208
7.7907
7.76882
7.75596
7.74924
7.74633
7.74594
7.74732
7.74895
7.91005
7.397
6.715
6.13971
5.74752
5.51163
5.38886
5.34763
5.36033
5.38251
7.85034
7.41152
6.81208
6.27515
5.88968
5.65445
5.54223
5.52346
5.55803
5.59205
7.61211
7.21422
6.67267
6.19678
5.86279
5.66243
5.56665
5.54947
5.57762
5.60486
7.6507
7.28446
6.77295
6.32525
6.01202
5.82054
5.7207
5.68931
5.69227
5.69562
8.35531
7.92806
7.32326
6.78231
6.38567
6.11992
5.95194
5.85815
5.80815
5.77411
9.16323
8.63476
7.88338
7.22042
6.72923
6.38949
6.1616
6.01891
5.92233
5.85033
9.76789
9.04752
8.14541
7.39669
6.85389
6.47727
6.21922
6.04937
5.93512
5.85646
7.3438
6.92236
6.49362
6.18584
5.96475
5.80466
5.68739
5.60546
5.54722
5.5117
8.22223
8.21285
8.20149
8.19029
8.17991
8.17072
8.16265
8.15567
8.14954
8.14447
7.67997
7.65001
7.62224
7.60326
7.59235
7.58678
7.58441
7.58418
7.58551
7.58712
7.59125
7.08886
6.45086
5.92999
5.58521
5.38382
5.28227
5.25071
5.26585
5.28993
7.32692
6.88685
6.33171
5.86565
5.54946
5.36678
5.2862
5.28076
5.31969
5.35962
6.81846
6.44249
5.99457
5.64047
5.41449
5.29239
5.24538
5.2538
5.29551
5.33381
6.51302
6.22931
5.88729
5.62151
5.45457
5.36464
5.32947
5.3362
5.36508
5.38932
6.68817
6.45031
6.13028
5.86174
5.67484
5.55512
5.48461
5.45413
5.44937
5.4491
6.98616
6.77083
6.42773
6.12502
5.9012
5.74572
5.64153
5.5805
5.5442
5.51712
7.32283
7.05029
6.65612
6.31591
6.06062
5.87672
5.74624
5.66047
5.60605
5.57035
6.27839
6.11493
5.92312
5.77418
5.65848
5.56882
5.49929
5.44948
5.41428
5.39464
8.00944
8.00439
7.99782
7.99064
7.98343