/*--------------------------------*- C++ -*----------------------------------*\
| =========                 |                                                 |
| \\      /  F ield         | foam-extend: Open Source CFD                    |
|  \\    /   O peration     | Version:     4.0                                |
|   \\  /    A nd           | Web:         http://www.foam-extend.org         |
|    \\/     M anipulation  |                                                 |
\*---------------------------------------------------------------------------*/
FoamFile
{
    version     2.0;
    format      ascii;
    class       volScalarField;
    location    "350";
    object      MaU;
}
// * * * * * * * * * * * * * * * * * * * * * * * * * * * * * * * * * * * * * //

dimensions      [0 0 0 0 0 0 0];

internalField   nonuniform List<scalar> 
34480
(
0.583568
0.585424
0.586645
0.587484
0.587984
0.588122
0.587782
0.586206
0.580885
0.575104
0.583055
0.585569
0.587097
0.58794
0.588101
0.587531
0.586132
0.583198
0.574994
0.569203
0.582335
0.585035
0.586696
0.587568
0.587693
0.58731
0.586526
0.584932
0.577827
0.574479
0.579803
0.582565
0.584504
0.585884
0.586714
0.58732
0.587811
0.588055
0.582842
0.581823
0.576712
0.579787
0.58224
0.584347
0.586068
0.587775
0.589568
0.591623
0.588626
0.58985
0.571958
0.57547
0.578529
0.581379
0.583974
0.586739
0.589787
0.593575
0.593073
0.596747
0.567567
0.571662
0.575395
0.579028
0.582487
0.586251
0.590499
0.595949
0.598105
0.604007
0.563149
0.567645
0.571826
0.575946
0.57992
0.584269
0.589316
0.596031
0.600781
0.609027
0.559842
0.564462
0.568993
0.573763
0.578588
0.583814
0.589859
0.597906
0.605011
0.61421
0.555434
0.559671
0.56355
0.567247
0.570612
0.573977
0.577852
0.583843
0.591023
0.602969
0.576254
0.578369
0.579435
0.579745
0.579245
0.57767
0.574405
0.568045
0.558023
0.54371
0.576504
0.579338
0.580806
0.581277
0.580726
0.578825
0.574826
0.56691
0.552845
0.535091
0.57651
0.579511
0.581182
0.581824
0.581379
0.579672
0.57608
0.568879
0.554916
0.537904
0.574804
0.577832
0.579755
0.580876
0.581082
0.580266
0.577786
0.57204
0.559136
0.543538
0.572466
0.575749
0.578131
0.579927
0.580965
0.581189
0.579932
0.575782
0.56435
0.550575
0.568389
0.572057
0.575005
0.577509
0.579385
0.580646
0.580615
0.578095
0.568474
0.557064
0.564606
0.568792
0.572372
0.575627
0.578346
0.580613
0.581793
0.580918
0.573393
0.564468
0.560596
0.565155
0.569172
0.572911
0.576171
0.579106
0.581205
0.58174
0.576451
0.570414
0.557587
0.56225
0.566612
0.570947
0.574992
0.578813
0.582007
0.584091
0.581135
0.577024
0.553301
0.55768
0.561625
0.565252
0.568324
0.57093
0.572809
0.573932
0.571898
0.571718
0.570467
0.572549
0.57347
0.573553
0.57278
0.570976
0.567818
0.562713
0.554697
0.543071
0.570776
0.573686
0.575059
0.575297
0.574447
0.572237
0.567953
0.560235
0.546784
0.528163
0.571055
0.574185
0.575809
0.576281
0.575591
0.57346
0.56909
0.560927
0.545565
0.523666
0.569948
0.573132
0.575001
0.575902
0.575751
0.574282
0.57059
0.562949
0.546714
0.522374
0.568261
0.57168
0.573969
0.575478
0.576047
0.575443
0.572658
0.565884
0.549372
0.523317
0.564844
0.568616
0.571432
0.573599
0.574928
0.575236
0.573444
0.567734
0.551459
0.524509
0.561694
0.565927
0.569326
0.572197
0.57431
0.575545
0.574807
0.570323
0.554794
0.527502
0.558191
0.562761
0.566579
0.569917
0.572554
0.574444
0.574585
0.571308
0.556969
0.529994
0.55563
0.560289
0.564439
0.568314
0.571625
0.574287
0.57543
0.573601
0.560932
0.533593
0.551577
0.556
0.559881
0.563281
0.565929
0.567754
0.568054
0.565803
0.554212
0.528043
0.566063
0.567863
0.568589
0.568556
0.567779
0.56618
0.563627
0.559941
0.554803
0.547575
0.565959
0.5687
0.569925
0.570019
0.569068
0.566911
0.563088
0.556736
0.546496
0.532958
0.566219
0.569261
0.57076
0.571064
0.570205
0.567958
0.563688
0.556293
0.543775
0.527121
0.56551
0.568657
0.570388
0.571042
0.570563
0.568689
0.564634
0.557075
0.542983
0.52345
0.56435
0.567737
0.569847
0.571022
0.57111
0.569845
0.566287
0.55892
0.543602
0.521417
0.56154
0.565261
0.567852
0.569613
0.570342
0.569786
0.566872
0.559943
0.543756
0.519348
0.559
0.563137
0.566257
0.568657
0.570078
0.570298
0.56816
0.561903
0.545322
0.519111
0.556018
0.56046
0.563974
0.566815
0.56872
0.569514
0.568071
0.562617
0.5462
0.518771
0.553909
0.558428
0.562254
0.565578
0.568077
0.569521
0.568831
0.564444
0.548967
0.519991
0.55013
0.554452
0.558131
0.561172
0.563272
0.564214
0.563033
0.558363
0.543646
0.514278
0.562868
0.564316
0.564858
0.564802
0.564185
0.563001
0.561236
0.55889
0.555859
0.551397
0.562117
0.564559
0.565621
0.565664
0.564814
0.563001
0.559965
0.555184
0.547787
0.537923
0.562124
0.564938
0.566284
0.56649
0.565631
0.56357
0.559887
0.553884
0.544422
0.532303
0.561597
0.564576
0.566143
0.566614
0.565974
0.564022
0.560196
0.553635
0.542558
0.528171
0.560789
0.56403
0.565942
0.566841
0.566607
0.565002
0.561292
0.554442
0.541821
0.524975
0.558463
0.562036
0.564388
0.565793
0.566066
0.564939
0.561517
0.554595
0.540556
0.521245
0.556445
0.560408
0.563238
0.565208
0.566059
0.565524
0.562567
0.555824
0.540691
0.519031
0.55394
0.558186
0.561386
0.563763
0.565045
0.564974
0.562477
0.55611
0.540399
0.516752
0.552276
0.556598
0.560084
0.562888
0.564679
0.565152
0.563198
0.557422
0.541933
0.516114
0.548792
0.552945
0.556372
0.559031
0.560606
0.560797
0.558576
0.552566
0.537376
0.51024
0.560511
0.561642
0.562031
0.561984
0.56155
0.560753
0.55962
0.558191
0.556377
0.553219
0.559104
0.56121
0.562114
0.562152
0.561479
0.560088
0.557831
0.554337
0.548889
0.541106
0.558781
0.561284
0.56246
0.562613
0.561854
0.560124
0.557178
0.552568
0.545551
0.53634
0.558301
0.561008
0.562387
0.562726
0.562049
0.560236
0.556941
0.551655
0.543355
0.532727
0.557701
0.560691
0.562378
0.563052
0.562633
0.56094
0.557483
0.551643
0.541918
0.529509
0.555745
0.559069
0.561155
0.56225
0.562196
0.560764
0.557296
0.551036
0.539802
0.525332
0.554154
0.557853
0.560369
0.561946
0.562348
0.561314
0.558023
0.55156
0.538962
0.522294
0.552061
0.556031
0.558891
0.560833
0.561596
0.5609
0.557837
0.551375
0.537808
0.519072
0.550809
0.554859
0.557978
0.560292
0.561477
0.561212
0.5585
0.552244
0.538388
0.517453
0.547611
0.551514
0.554639
0.556903
0.557996
0.557586
0.554725
0.548233
0.534321
0.511868
0.558694
0.559581
0.559856
0.559827
0.559547
0.559046
0.558355
0.557508
0.556384
0.553902
0.556734
0.558536
0.559302
0.559358
0.558872
0.557872
0.556261
0.553715
0.549521
0.542943
0.556103
0.558277
0.559285
0.559417
0.558806
0.557452
0.555211
0.551758
0.546476
0.539073
0.55561
0.557994
0.559177
0.559426
0.558803
0.557253
0.554591
0.550518
0.544382
0.536257
0.555118
0.557785
0.559238
0.559738
0.559248
0.557654
0.554667
0.549959
0.542702
0.533469
0.553435
0.556432
0.558239
0.559074
0.558823
0.557309
0.554103
0.548792
0.540185
0.529448
0.55218
0.555539
0.55773
0.558965
0.559047
0.557753
0.554497
0.548738
0.538779
0.526257
0.550424
0.554046
0.556552
0.558103
0.558467
0.557387
0.554163
0.548138
0.537083
0.522755
0.549538
0.553248
0.555987
0.557855
0.558556
0.557791
0.554756
0.548672
0.537061
0.520863
0.546602
0.550185
0.552972
0.554851
0.555533
0.5547
0.551561
0.54522
0.533329
0.51584
0.557202
0.557915
0.558112
0.558099
0.557928
0.557626
0.557217
0.556716
0.555974
0.553853
0.554833
0.556391
0.55705
0.557128
0.556801
0.556112
0.554982
0.55309
0.549687
0.54382
0.55397
0.555841
0.556699
0.556826
0.556371
0.555365
0.553718
0.551148
0.54704
0.540754
0.553464
0.555517
0.556511
0.556703
0.556182
0.55494
0.55289
0.549838
0.545267
0.538775
0.553023
0.555335
0.556554
0.556924
0.556446
0.555062
0.552625
0.548978
0.543629
0.53658
0.551541
0.554164
0.55569
0.556317
0.555973
0.55454
0.551768
0.54747
0.541036
0.533002
0.55055
0.553517
0.555379
0.556327
0.556206
0.554849
0.551875
0.547012
0.539391
0.530033
0.549054
0.552273
0.554421
0.555633
0.555716
0.55446
0.551376
0.546092
0.537428
0.526645
0.548486
0.551801
0.554156
0.555631
0.55597
0.55492
0.551893
0.546392
0.537098
0.524926
0.545779
0.548982
0.55141
0.55293
0.553286
0.552203
0.549078
0.543302
0.533624
0.520555
0.555896
0.556491
0.556637
0.556636
0.556535
0.556358
0.556119
0.555817
0.555292
0.553394
0.553263
0.554644
0.555225
0.555322
0.555115
0.554653
0.553857
0.552402
0.54951
0.544101
0.552259
0.553878
0.55461
0.554738
0.554421
0.553704
0.552519
0.550594
0.547279
0.541709
0.551777
0.553525
0.554349
0.554504
0.554098
0.553154
0.551634
0.549387
0.545917
0.540496
0.551363
0.553323
0.554322
0.554597
0.554177
0.553049
0.551152
0.548411
0.544471
0.538907
0.55004
0.552273
0.55353
0.553994
0.553631
0.552376
0.550104
0.546756
0.542009
0.535888
0.549259
0.551807
0.553353
0.554067
0.553837
0.552555
0.55
0.546068
0.540362
0.533336
0.547955
0.550737
0.552535
0.553461
0.553366
0.552096
0.549342
0.544933
0.53833
0.530268
0.54766
0.550544
0.552522
0.553663
0.55375
0.552594
0.549797
0.545093
0.537901
0.528931
0.545142
0.547925
0.549989
0.551187
0.551306
0.550124
0.547222
0.542241
0.534651
0.525183
0.554697
0.555212
0.555324
0.555329
0.555271
0.555168
0.555028
0.554841
0.554444
0.552707
0.551928
0.553187
0.553714
0.553825
0.553703
0.553395
0.552822
0.551657
0.54911
0.544025
0.550867
0.552287
0.552919
0.553049
0.55284
0.552344
0.551501
0.550035
0.547265
0.542185
0.550459
0.551944
0.552623
0.552753
0.552455
0.551767
0.550672
0.549031
0.546334
0.541631
0.550069
0.551703
0.552506
0.552711
0.552371
0.551496
0.550075
0.548065
0.545144
0.540591
0.548883
0.550737
0.551748
0.552087
0.551753
0.550717
0.548936
0.54641
0.542933
0.538151
0.548278
0.550408
0.551659
0.552187
0.55192
0.550795
0.548706
0.545644
0.541438
0.5361
0.547105
0.549443
0.550911
0.551602
0.551413
0.550239
0.547909
0.544382
0.539461
0.533433
0.547049
0.549489
0.55111
0.551972
0.551904
0.550772
0.548336
0.544493
0.539078
0.532552
0.54468
0.547025
0.548734
0.549655
0.549617
0.548457
0.545908
0.541803
0.536032
0.52934
0.553561
0.554017
0.554106
0.554114
0.554081
0.554022
0.553939
0.553818
0.553501
0.551904
0.550767
0.551946
0.552434
0.552553
0.552486
0.55228
0.551855
0.550887
0.54859
0.543762
0.549709
0.55098
0.551533
0.551661
0.551532
0.551197
0.550596
0.549455
0.547079
0.542361
0.549428
0.550697
0.551254
0.551367
0.551159
0.550675
0.549904
0.548706
0.546554
0.542357
0.549066
0.550414
0.551048
0.551202
0.550942
0.550293
0.549263
0.547817
0.545626
0.541775
0.548008
0.549517
0.550309
0.550555
0.550273
0.54946
0.548116
0.546263
0.543723
0.539879
0.547561
0.549297
0.550284
0.550667
0.550408
0.549478
0.547841
0.545533
0.542471
0.538344
0.546467
0.548377
0.549544
0.550049
0.549826
0.548811
0.546929
0.54421
0.540611
0.536078
0.546629
0.548633
0.549928
0.550566
0.550415
0.549394
0.547375
0.544356
0.540373
0.535659
0.544368
0.54628
0.547657
0.548347
0.548219
0.547164
0.545031
0.54178
0.537509
0.53288
0.552463
0.552872
0.552944
0.552954
0.552935
0.5529
0.552849
0.552767
0.552508
0.551047
0.549744
0.550868
0.551326
0.551449
0.551417
0.551275
0.550948
0.550123
0.548026
0.543423
0.548723
0.549881
0.55037
0.550494
0.55042
0.550196
0.549765
0.54886
0.546784
0.542362
0.548614
0.549708
0.550167
0.550264
0.550126
0.549795
0.549261
0.548383
0.546627
0.542811
0.548281
0.549387
0.54988
0.549996
0.549808
0.549344
0.548619
0.547594
0.545929
0.542582
0.547349
0.548556
0.549163
0.549339
0.549117
0.548506
0.547525
0.546199
0.544343
0.541167
0.54705
0.548433
0.549191
0.549465
0.54924
0.548508
0.547272
0.545585
0.543379
0.540121
0.545993
0.54751
0.548411
0.548772
0.548554
0.547725
0.546265
0.544239
0.541652
0.538209
0.546362
0.547962
0.548967
0.549429
0.54925
0.548385
0.546783
0.544495
0.541628
0.538229
0.544169
0.545674
0.546753
0.547257
0.547091
0.546189
0.544479
0.541998
0.538914
0.535776
0.551387
0.551754
0.551813
0.551823
0.551812
0.551791
0.551759
0.5517
0.551487
0.550169
0.54884
0.549921
0.550352
0.550473
0.550462
0.550363
0.550103
0.54939
0.547471
0.543082
0.547864
0.54893
0.549364
0.54948
0.549441
0.549293
0.548982
0.548254
0.546427
0.542272
0.547959
0.54891
0.549287
0.549371
0.549284
0.549063
0.548698
0.548051
0.546597
0.543091
0.547648
0.548553
0.548932
0.549018
0.548888
0.548568
0.548073
0.547356
0.546075
0.543111
0.546842
0.547794
0.548249
0.548374
0.548208
0.547767
0.547074
0.546147
0.54479
0.542105
0.546687
0.547764
0.548331
0.548525
0.548344
0.547793
0.546894
0.545694
0.54412
0.541497
0.545625
0.546797
0.547473
0.547726
0.547536
0.546891
0.5458
0.544338
0.542508
0.539862
0.546209
0.547449
0.548207
0.548534
0.548361
0.547668
0.546446
0.544768
0.542747
0.540294
0.544038
0.545181
0.546001
0.54636
0.546192
0.545461
0.544144
0.542314
0.540141
0.538056
0.550316
0.550644
0.55069
0.5507
0.550694
0.550681
0.550659
0.550617
0.550443
0.549279
0.548047
0.549083
0.549485
0.5496
0.549601
0.549529
0.549321
0.548704
0.546959
0.542791
0.547093
0.548076
0.548457
0.548562
0.548545
0.548448
0.548223
0.547638
0.546037
0.542145
0.547416
0.548244
0.548552
0.548623
0.548571
0.548428
0.548181
0.547704
0.546495
0.54327
0.547112
0.547849
0.548135
0.5482
0.548114
0.547901
0.547572
0.547078
0.546088
0.543441
0.54643
0.547172
0.547505
0.547593
0.547476
0.54717
0.546695
0.546061
0.545071
0.542769
0.546415
0.547236
0.54765
0.547784
0.547647
0.54725
0.546617
0.545788
0.544679
0.542535
0.545309
0.546189
0.546682
0.546855
0.546702
0.546222
0.545436
0.544413
0.543141
0.541087
0.546127
0.547063
0.547617
0.547844
0.547695
0.547166
0.546269
0.545077
0.543683
0.541907
0.543928
0.544763
0.545368
0.545617
0.545468
0.544903
0.543927
0.542622
0.541125
0.539771
0.549227
0.549514
0.54955
0.549559
0.549556
0.549547
0.549533
0.549502
0.549364
0.548367
0.547358
0.548338
0.548705
0.54881
0.548816
0.548764
0.548599
0.548075
0.546512
0.542586
0.546379
0.547272
0.5476
0.54769
0.547685
0.547624
0.547464
0.547002
0.545623
0.542012
0.546944
0.547658
0.547905
0.547964
0.547934
0.547844
0.547681
0.547334
0.54634
0.543396
0.546626
0.547221
0.547433
0.54748
0.547427
0.54729
0.547078
0.546745
0.545985
0.543631
0.546067
0.546638
0.546876
0.546938
0.546859
0.546653
0.546338
0.545916
0.5452
0.543224
0.546182
0.546794
0.547086
0.547177
0.54708
0.546806
0.546376
0.54582
0.545052
0.543295
0.544993
0.545636
0.545985
0.546101
0.545985
0.545642
0.545094
0.544401
0.543532
0.541936
0.546084
0.546771
0.547165
0.547319
0.547201
0.546815
0.54618
0.545359
0.544418
0.54313
0.543785
0.544372
0.544805
0.544974
0.544853
0.544436
0.543737
0.542837
0.541829
0.540973
0.548072
0.548318
0.548344
0.548352
0.54835
0.548345
0.548335
0.548313
0.54821
0.547393
0.546769
0.547672
0.547992
0.548082
0.54809
0.548054
0.547928
0.5475
0.546142
0.542497
0.545685
0.546473
0.546742
0.546814
0.546817
0.54678
0.546672
0.546323
0.545174
0.541887
0.546504
0.547103
0.547294
0.547339
0.547324
0.54727
0.547167
0.546923
0.546132
0.543501
0.546155
0.546626
0.546779
0.546813
0.546781
0.546697
0.546564
0.546348
0.545779
0.543726
0.54572
0.546151
0.546318
0.54636
0.546309
0.546176
0.545973
0.545699
0.545191
0.543525
0.545944
0.54639
0.54659
0.546651
0.546584
0.546401
0.546119
0.545758
0.545239
0.543822
0.544641
0.545099
0.54534
0.545417
0.545334
0.545097
0.544725
0.544267
0.543683
0.54246
0.546059
0.546552
0.546825
0.546928
0.546841
0.546569
0.546134
0.545585
0.544963
0.544033
0.543549
0.543946
0.54425
0.544362
0.54427
0.543974
0.543489
0.542886
0.542219
0.541695
0.546743
0.546943
0.546961
0.546967
0.546966
0.546964
0.546959
0.546945
0.546875
0.546249
0.546272
0.547067
0.547329
0.547399
0.547408
0.547385
0.547296
0.54697
0.54585
0.542558
0.544975
0.545634
0.545842
0.545895
0.545899
0.545879
0.545812
0.545567
0.544667
0.541777
0.546049
0.54653
0.546668
0.5467
0.546692
0.546661
0.546598
0.546438
0.545847
0.543591
0.545673
0.546034
0.546141
0.546165
0.546147
0.546095
0.546013
0.545875
0.545468
0.543755
0.545368
0.545688
0.545803
0.545833
0.5458
0.545714
0.545582
0.545406
0.545055
0.54371
0.545675
0.54599
0.546124
0.546163
0.546119
0.545998
0.545815
0.545586
0.545246
0.544151
0.544251
0.544573
0.544739
0.544792
0.544734
0.544573
0.544322
0.54402
0.543627
0.542721
0.546063
0.54641
0.546597
0.546665
0.546603
0.546417
0.546125
0.545764
0.545359
0.544694
0.543119
0.543382
0.543592
0.543667
0.543601
0.543396
0.543066
0.542668
0.542227
0.541917
0.54501
0.545148
0.545158
0.545162
0.545162
0.545162
0.545161
0.545155
0.545117
0.544686
0.545878
0.54653
0.546722
0.546771
0.546776
0.546762
0.546704
0.546482
0.545639
0.542821
0.544226
0.544741
0.544889
0.544926
0.54493
0.544916
0.544871
0.54471
0.544067
0.541687
0.545522
0.545881
0.545974
0.545995
0.545989
0.545965
0.545922
0.545819
0.545418
0.543629
0.54515
0.545419
0.545497
0.545517
0.545504
0.545465
0.545403
0.545305
0.545026
0.543707
0.544991
0.545227
0.54531
0.545334
0.545312
0.545249
0.545153
0.545027
0.544784
0.543778
0.545355
0.545573
0.545665
0.545693
0.545662
0.545578
0.54545
0.545295
0.54507
0.544289
0.543896
0.544128
0.54425
0.54429
0.54425
0.544136
0.543958
0.543744
0.543462
0.542825
0.546156
0.546399
0.546528
0.546575
0.546531
0.546403
0.546204
0.545961
0.545693
0.545228
0.542292
0.542471
0.542621
0.542673
0.542627
0.542484
0.542257
0.541988
0.541681
0.541497
0.542482
0.542571
0.542581
0.542585
0.542585
0.542582
0.542577
0.542568
0.542547
0.542299
0.545652
0.546123
0.546245
0.546273
0.546272
0.546254
0.546208
0.546069
0.545529
0.543389
0.543456
0.543831
0.543944
0.543979
0.54398
0.543954
0.543896
0.543768
0.543347
0.54162
0.544827
0.545078
0.545147
0.545166
0.545157
0.545125
0.545069
0.544975
0.544714
0.54349
0.544525
0.544729
0.544799
0.544823
0.544812
0.544768
0.544694
0.544588
0.544376
0.543486
0.544527
0.544708
0.544782
0.544808
0.544791
0.544733
0.544639
0.544513
0.544315
0.543645
0.544931
0.545091
0.545166
0.545192
0.545169
0.545099
0.54499
0.544853
0.544674
0.544173
0.543705
0.543892
0.543995
0.544032
0.544004
0.543915
0.54377
0.543586
0.543344
0.542904
0.546449
0.546618
0.546714
0.546748
0.546716
0.546621
0.546474
0.546294
0.546101
0.545791
0.540762
0.5409
0.541015
0.541055
0.541022
0.540918
0.54075
0.540549
0.540307
0.540173
0.539224
0.539307
0.539335
0.53935
0.53935
0.539336
0.539308
0.539267
0.539218
0.539079
0.545585
0.545857
0.545929
0.54595
0.545941
0.545904
0.545837
0.545721
0.545437
0.544235
0.54265
0.542937
0.543057
0.54311
0.54311
0.543058
0.542953
0.542779
0.542462
0.541462
0.543862
0.54405
0.544129
0.544161
0.544151
0.5441
0.544005
0.543863
0.543634
0.54296
0.543702
0.543881
0.543968
0.544004
0.543994
0.543937
0.543833
0.543677
0.543448
0.542915
0.543854
0.544019
0.544104
0.544139
0.544124
0.544061
0.54395
0.54379
0.543566
0.543134
0.544294
0.544437
0.544517
0.544547
0.544528
0.54446
0.544346
0.54419
0.54399
0.543656
0.543637
0.543817
0.543919
0.543958
0.543936
0.543856
0.54372
0.543533
0.543278
0.542917
0.546896
0.547018
0.547098
0.547127
0.5471
0.547019
0.546892
0.546734
0.546568
0.546377
0.538563
0.538696
0.538795
0.53883
0.538803
0.538715
0.538575
0.5384
0.538184
0.538036
0.411491
0.390363
0.395867
0.435493
0.361101
0.336043
0.344241
0.400229
0.321961
0.292858
0.306254
0.383054
0.288829
0.2569
0.276726
0.371065
0.261923
0.228111
0.255176
0.360445
0.238308
0.203503
0.238088
0.352007
0.219087
0.1847
0.226898
0.347732
0.200697
0.168365
0.218653
0.344756
0.184437
0.156821
0.215084
0.346147
0.166235
0.145671
0.210882
0.342639
0.466056
0.455172
0.454898
0.464303
0.4326
0.417864
0.416935
0.428244
0.40468
0.385661
0.385261
0.400955
0.379972
0.356525
0.356458
0.376732
0.359296
0.330977
0.33016
0.354723
0.340898
0.307306
0.305134
0.333892
0.326275
0.287352
0.283527
0.316479
0.312925
0.268845
0.263199
0.300398
0.302416
0.253968
0.246571
0.287885
0.290402
0.239062
0.228769
0.272638
0.529336
0.526419
0.525626
0.52697
0.503549
0.498576
0.496993
0.498886
0.48518
0.477804
0.475798
0.479343
0.466844
0.456947
0.45473
0.460458
0.449053
0.436479
0.434017
0.442051
0.43073
0.415272
0.412465
0.422837
0.414381
0.39592
0.39268
0.405396
0.398466
0.377096
0.373382
0.388328
0.385043
0.361656
0.357596
0.374102
0.369775
0.346399
0.341631
0.357222
0.541067
0.539288
0.538797
0.539549
0.521997
0.519463
0.51837
0.518711
0.510634
0.506958
0.505454
0.50606
0.498951
0.4939
0.492101
0.493322
0.486921
0.480294
0.478203
0.480255
0.473299
0.464927
0.462529
0.465581
0.460513
0.450291
0.447589
0.451823
0.447253
0.435234
0.432281
0.437813
0.435374
0.422231
0.419192
0.425781
0.421094
0.408723
0.405328
0.411235
0.547604
0.546297
0.545984
0.546664
0.531509
0.529915
0.529202
0.5294
0.523908
0.521848
0.520842
0.520914
0.516427
0.513694
0.512396
0.512501
0.508448
0.504811
0.503181
0.503429
0.498583
0.49385
0.491861
0.492361
0.489106
0.483149
0.480818
0.481725
0.478819
0.471648
0.469055
0.470525
0.469547
0.461632
0.458977
0.461031
0.458121
0.451217
0.448316
0.44968
0.549978
0.548763
0.54852
0.549249
0.535821
0.53448
0.533941
0.534243
0.530318
0.528783
0.528075
0.528232
0.525442
0.523641
0.522754
0.522796
0.520116
0.517874
0.516731
0.516661
0.512903
0.510038
0.50857
0.508415
0.505944
0.502312
0.5005
0.500348
0.49812
0.493685
0.491584
0.491565
0.491224
0.486296
0.484115
0.484394
0.482421
0.478563
0.476168
0.475698
0.550848
0.549656
0.549442
0.550209
0.538057
0.536818
0.536369
0.536747
0.533975
0.532667
0.532127
0.532391
0.530813
0.529438
0.528812
0.528955
0.527211
0.525662
0.524877
0.524857
0.521781
0.519917
0.518894
0.518687
0.516559
0.514249
0.512944
0.512585
0.510511
0.507698
0.506135
0.505715
0.505556
0.502414
0.500773
0.5005
0.498831
0.496784
0.494978
0.493879
0.550856
0.54966
0.549459
0.550254
0.53905
0.537844
0.53744
0.53787
0.536009
0.534798
0.53435
0.534694
0.534125
0.53295
0.532475
0.53272
0.531767
0.530565
0.530006
0.530096
0.527632
0.526299
0.525586
0.525486
0.523665
0.522097
0.521182
0.520899
0.518909
0.517047
0.515937
0.515533
0.515471
0.513394
0.512221
0.511883
0.510261
0.509327
0.508047
0.506825
0.55042
0.549217
0.549023
0.54984
0.539379
0.53819
0.537814
0.538276
0.537123
0.53596
0.535564
0.53596
0.536212
0.535137
0.53475
0.535067
0.5348
0.533779
0.533358
0.533543
0.531684
0.530643
0.530131
0.530147
0.528705
0.527558
0.526913
0.526762
0.524937
0.523631
0.522853
0.522582
0.522629
0.521189
0.520368
0.520132
0.518557
0.518308
0.517433
0.516289
0.549753
0.548543
0.548356
0.54919
0.539333
0.538158
0.5378
0.538282
0.537681
0.536547
0.536185
0.536614
0.537523
0.536498
0.536164
0.536529
0.536829
0.535902
0.535565
0.53582
0.534539
0.533653
0.533268
0.533382
0.532379
0.531465
0.531
0.530975
0.529396
0.52841
0.527861
0.527736
0.527966
0.526905
0.526336
0.526238
0.52478
0.524949
0.524364
0.523352
0.54898
0.547768
0.547587
0.548436
0.539099
0.537938
0.537596
0.538088
0.537913
0.5368
0.536462
0.536913
0.538338
0.537342
0.537041
0.53744
0.538181
0.537302
0.537017
0.537325
0.536557
0.535752
0.535448
0.535641
0.535084
0.534297
0.533949
0.534032
0.532729
0.531923
0.531527
0.531533
0.532032
0.531197
0.530801
0.530831
0.529545
0.529962
0.529578
0.528695
0.548173
0.546965
0.546791
0.547651
0.538793
0.537647
0.537317
0.537815
0.537959
0.536865
0.536547
0.53701
0.538836
0.537858
0.537579
0.538002
0.539059
0.538204
0.537953
0.538302
0.537969
0.537202
0.536951
0.53721
0.537076
0.536352
0.536081
0.536258
0.535213
0.534504
0.534212
0.534331
0.535158
0.534456
0.534179
0.534317
0.533217
0.533773
0.533525
0.532754
0.547374
0.546175
0.54601
0.546878
0.53849
0.53736
0.537042
0.53754
0.53791
0.536834
0.536531
0.537003
0.539136
0.538167
0.537906
0.538347
0.539602
0.538755
0.538528
0.538914
0.538933
0.538178
0.537964
0.538284
0.538527
0.537829
0.537613
0.537872
0.537034
0.536373
0.536154
0.53637
0.537558
0.536935
0.536739
0.536965
0.536027
0.536648
0.536491
0.535818
0.546602
0.545421
0.545266
0.546134
0.53824
0.537127
0.536819
0.537315
0.537821
0.536761
0.536473
0.536951
0.539316
0.538355
0.538107
0.538566
0.539908
0.539061
0.538853
0.539277
0.539568
0.538811
0.538625
0.539004
0.539569
0.538876
0.538701
0.539037
0.538333
0.537691
0.537523
0.537826
0.539391
0.538814
0.538674
0.538969
0.538131
0.538766
0.53867
0.538083
0.545857
0.544706
0.544562
0.545422
0.538077
0.536982
0.536684
0.537178
0.537723
0.53668
0.536406
0.53689
0.539433
0.538476
0.538242
0.538722
0.540056
0.539204
0.539014
0.539478
0.539975
0.539209
0.539048
0.539484
0.540311
0.539614
0.539471
0.539878
0.539222
0.538586
0.538457
0.538834
0.540782
0.540233
0.540132
0.54048
0.53964
0.540251
0.540193
0.539687
0.545111
0.544004
0.543874
0.544711
0.53803
0.536953
0.536667
0.537162
0.53763
0.536604
0.536345
0.536842
0.539526
0.538573
0.538357
0.538866
0.540114
0.539258
0.539089
0.539599
0.540245
0.539471
0.539334
0.539827
0.540848
0.540149
0.540035
0.540503
0.539803
0.539172
0.539074
0.539508
0.541845
0.541318
0.541244
0.541627
0.540622
0.541179
0.541145
0.540716
0.54427
0.543231
0.543116
0.543909
0.538132
0.537074
0.536804
0.53731
0.537554
0.536546
0.536309
0.536829
0.53963
0.538687
0.538494
0.539043
0.540155
0.539302
0.539157
0.539715
0.540468
0.539698
0.539585
0.540127
0.54127
0.540582
0.540494
0.541005
0.540189
0.539572
0.539497
0.539965
0.542696
0.542195
0.54214
0.542536
0.541079
0.541554
0.541533
0.541183
0.5431
0.542161
0.542065
0.542784
0.538458
0.537425
0.53718
0.537712
0.537537
0.536554
0.536347
0.536905
0.539776
0.53886
0.538702
0.539295
0.540245
0.539418
0.539303
0.539897
0.540722
0.539981
0.539894
0.540461
0.541648
0.541
0.540936
0.541458
0.540524
0.539943
0.539884
0.540352
0.543484
0.543024
0.542981
0.543361
0.540876
0.541244
0.541228
0.54096
0.541193
0.540416
0.540345
0.540936
0.539212
0.538226
0.538025
0.538597
0.537704
0.536773
0.536609
0.537202
0.539994
0.53915
0.539036
0.539648
0.540429
0.539678
0.539595
0.540179
0.541028
0.540368
0.540305
0.54084
0.542001
0.541438
0.541392
0.541867
0.540983
0.54047
0.540421
0.540837
0.544421
0.54403
0.543996
0.544323
0.539725
0.539953
0.539935
0.539762
0.538452
0.53795
0.53791
0.538275
0.54073
0.539891
0.539758
0.540324
0.538253
0.537469
0.537351
0.537893
0.540307
0.539636
0.539562
0.54008
0.54067
0.540085
0.540025
0.540484
0.541273
0.54077
0.540721
0.54112
0.542177
0.541761
0.541724
0.54206
0.541502
0.541101
0.541055
0.541351
0.545556
0.545285
0.54526
0.545475
0.537654
0.537686
0.537666
0.537628
0.55196
0.559543
0.564471
0.567932
0.57129
0.57425
0.576713
0.57875
0.580521
0.58224
0.539455
0.543036
0.553109
0.559803
0.565649
0.570099
0.573558
0.576361
0.578733
0.580846
0.540589
0.537752
0.550896
0.55789
0.564324
0.568885
0.572475
0.575408
0.57787
0.580006
0.542453
0.533815
0.549616
0.556386
0.563014
0.56731
0.570734
0.57348
0.575735
0.577652
0.544693
0.530726
0.54862
0.554718
0.56133
0.565196
0.568401
0.570932
0.572969
0.574667
0.545056
0.526319
0.545883
0.55097
0.557454
0.560853
0.563867
0.566241
0.568205
0.569864
0.546494
0.5234
0.544206
0.548025
0.554222
0.55703
0.55978
0.561941
0.563779
0.565363
0.546358
0.519565
0.541585
0.544218
0.550242
0.552533
0.555107
0.557128
0.55899
0.56071
0.547513
0.518414
0.541679
0.543103
0.548963
0.550557
0.55281
0.554375
0.555827
0.557334
0.533042
0.505001
0.530011
0.532384
0.539799
0.542613
0.545977
0.548313
0.550352
0.552357
0.500538
0.5225
0.538542
0.549655
0.557195
0.562508
0.566426
0.569441
0.571903
0.574173
0.475217
0.505747
0.528461
0.54289
0.552422
0.55907
0.563966
0.567759
0.570851
0.573473
0.464121
0.500696
0.526891
0.541947
0.551865
0.55869
0.56374
0.567668
0.570842
0.573474
0.456878
0.497948
0.526356
0.541433
0.551387
0.558021
0.56289
0.566626
0.569591
0.572001
0.452395
0.496249
0.526013
0.540655
0.550451
0.556731
0.561349
0.564861
0.567618
0.569824
0.448061
0.493396
0.523982
0.537818
0.547335
0.553185
0.557561
0.560903
0.563578
0.565742
0.446092
0.4919
0.52293
0.53566
0.544752
0.550037
0.554105
0.55723
0.559791
0.561899
0.444061
0.489683
0.521063
0.53263
0.541356
0.546095
0.549915
0.552881
0.555444
0.557672
0.443972
0.489765
0.521617
0.531867
0.540165
0.5442
0.547674
0.550247
0.552467
0.554561
0.435257
0.481111
0.513346
0.523531
0.532732
0.537518
0.541738
0.544827
0.547428
0.549756
0.531599
0.538805
0.545047
0.550258
0.55463
0.558294
0.561362
0.563953
0.566234
0.56842
0.507173
0.519653
0.530985
0.540183
0.547512
0.553292
0.557881
0.561618
0.564789
0.567524
0.493593
0.510774
0.52553
0.536797
0.545481
0.552121
0.557289
0.561429
0.564853
0.567712
0.482485
0.504259
0.522113
0.534868
0.544348
0.551311
0.556591
0.560722
0.564062
0.566779
0.473279
0.49905
0.519506
0.53321
0.543126
0.550145
0.555381
0.559417
0.562646
0.565225
0.464158
0.493189
0.515764
0.529939
0.540033
0.546945
0.552081
0.556037
0.559234
0.561799
0.457474
0.489074
0.513318
0.52753
0.537559
0.544179
0.549118
0.552931
0.556065
0.558606
0.451333
0.484923
0.510551
0.524529
0.534399
0.540662
0.545409
0.549109
0.552253
0.554906
0.447747
0.483388
0.51025
0.523643
0.533163
0.538904
0.543354
0.546751
0.549634
0.552219
0.438596
0.475681
0.503429
0.516901
0.527007
0.533244
0.538186
0.541936
0.545059
0.547724
0.541592
0.545374
0.54866
0.551594
0.554262
0.556665
0.558806
0.560719
0.562512
0.564357
0.521215
0.527824
0.5348
0.541034
0.546313
0.550708
0.554381
0.557523
0.560322
0.562839
0.510046
0.51914
0.528468
0.53655
0.543247
0.548705
0.553176
0.55691
0.560115
0.56288
0.499828
0.512041
0.523882
0.533581
0.541323
0.547413
0.552261
0.556199
0.559485
0.562229
0.490165
0.505653
0.519925
0.530972
0.539503
0.546
0.551063
0.5551
0.558417
0.561123
0.479664
0.498364
0.514887
0.526979
0.536081
0.542819
0.54801
0.552124
0.555511
0.558263
0.470868
0.492644
0.511186
0.523982
0.533411
0.54019
0.545381
0.549484
0.552892
0.555667
0.462421
0.48709
0.507436
0.520651
0.530241
0.536936
0.542075
0.546155
0.549611
0.552499
0.45645
0.484185
0.506161
0.519407
0.528914
0.535328
0.540275
0.544141
0.547401
0.550251
0.447041
0.477087
0.500137
0.51371
0.523709
0.530486
0.535762
0.539866
0.54327
0.546081
0.548103
0.550422
0.552096
0.553555
0.554965
0.556332
0.557636
0.558883
0.560154
0.5616
0.53087
0.534999
0.539353
0.543325
0.54681
0.549844
0.55251
0.554917
0.557185
0.559337
0.522494
0.527549
0.533205
0.538501
0.543179
0.547223
0.550715
0.553775
0.556528
0.559012
0.514683
0.521229
0.528443
0.535017
0.540687
0.545459
0.549468
0.552878
0.555844
0.558419
0.50665
0.515
0.523922
0.531746
0.53831
0.543688
0.548107
0.551787
0.554922
0.557563
0.497062
0.507438
0.518149
0.527142
0.534492
0.540365
0.545121
0.54904
0.552359
0.555122
0.488455
0.501052
0.513554
0.523545
0.531506
0.537704
0.542666
0.546725
0.550164
0.553009
0.479817
0.494767
0.509004
0.519788
0.528192
0.534569
0.539646
0.543793
0.547338
0.550314
0.47352
0.491128
0.506947