/*--------------------------------*- C++ -*----------------------------------*\
| =========                 |                                                 |
| \\      /  F ield         | foam-extend: Open Source CFD                    |
|  \\    /   O peration     | Version:     4.0                                |
|   \\  /    A nd           | Web:         http://www.foam-extend.org         |
|    \\/     M anipulation  |                                                 |
\*---------------------------------------------------------------------------*/
FoamFile
{
    version     2.0;
    format      ascii;
    class       volScalarField;
    location    "350";
    object      p;
}
// * * * * * * * * * * * * * * * * * * * * * * * * * * * * * * * * * * * * * //

dimensions      [1 -1 -2 0 0 0 0];

internalField   nonuniform List<scalar> 
34480
(
112407
112260
112166
112118
112129
112224
112462
113009
113796
113871
112226
112076
111986
111936
111943
112023
112228
112710
113498
113001
112144
111983
111896
111840
111830
111863
111996
112356
113070
111867
112345
112160
112046
111945
111871
111811
111829
112023
112587
110655
112639
112424
112275
112113
111960
111789
111675
111681
112039
109400
113085
112859
112675
112455
112221
111938
111684
111487
111586
108238
113420
113185
112971
112692
112380
111993
111604
111209
111018
107028
113791
113589
113376
113082
112739
112303
111827
111277
110790
106180
113749
113624
113442
113148
112782
112319
111788
111125
110345
105244
113798
113731
113621
113429
113184
112874
112511
112013
111223
105613
112719
112568
112487
112466
112517
112657
112921
113372
114103
115082
112503
112341
112258
112236
112289
112438
112728
113257
114251
115578
112412
112235
112149
112117
112155
112276
112540
113069
114234
115829
112579
112375
112260
112185
112168
112217
112403
112855
114081
115816
112841
112606
112455
112322
112233
112184
112261
112588
113785
115534
113251
113001
112813
112623
112458
112305
112257
112421
113510
115136
113558
113294
113074
112825
112583
112327
112150
112142
113065
114505
113924
113682
113455
113183
112901
112586
112318
112160
112876
114058
113922
113739
113527
113241
112920
112558
112223
111960
112444
113445
113997
113861
113702
113490
113253
112991
112756
112580
112995
113761
112956
112827
112765
112763
112828
112971
113211
113566
114055
114637
112753
112602
112532
112529
112605
112776
113069
113532
114270
115162
112673
112500
112421
112408
112476
112644
112953
113482
114453
115690
112812
112608
112501
112451
112480
112604
112884
113415
114548
116089
113040
112804
112663
112562
112531
112582
112795
113272
114494
116268
113406
113153
112976
112822
112724
112690
112814
113193
114429
116339
113675
113405
113195
112986
112817
112692
112713
112974
114163
116145
114022
113766
113544
113308
113097
112912
112853
113000
114087
116063
114044
113830
113613
113358
113103
112860
112729
112795
113738
115747
114135
113956
113775
113568
113367
113184
113104
113212
114089
116059
113105
113009
112964
112968
113024
113136
113308
113537
113812
114086
112947
112820
112763
112768
112841
112993
113233
113574
114039
114516
112905
112746
112676
112671
112744
112909
113192
113626
114314
115072
113034
112840
112741
112705
112752
112900
113192
113684
114575
115632
113239
113010
112878
112799
112799
112899
113164
113663
114710
116049
113568
113317
113150
113023
112968
113003
113214
113678
114828
116398
113800
113528
113329
113151
113035
112995
113133
113533
114731
116496
114124
113858
113643
113438
113281
113187
113262
113591
114779
116683
114153
113917
113700
113475
113277
113131
113143
113415
114538
116608
114250
114040
113847
113652
113488
113377
113414
113708
114783
116957
113197
113132
113102
113107
113149
113227
113338
113477
113629
113766
113092
112993
112950
112957
113019
113137
113315
113549
113828
114087
113096
112962
112902
112901
112969
113112
113343
113668
114111
114554
113225
113052
112964
112940
112993
113139
113403
113808
114435
115106
113416
113205
113085
113025
113046
113166
113433
113882
114675
115585
113712
113475
113322
113221
113199
113276
113519
113978
114909
116044
113911
113648
113464
113318
113245
113266
113466
113906
114936
116285
114210
113947
113744
113571
113462
113440
113597
114006
115088
116616
114239
113994
113785
113591
113448
113381
113493
113874
114953
116692
114338
114112
113916
113741
113615
113567
113690
114087
115148
117050
113257
113216
113198
113201
113229
113278
113347
113426
113507
113574
113197
113126
113096
113103
113148
113234
113355
113506
113669
113809
113248
113141
113093
113095
113150
113265
113439
113670
113948
114204
113382
113235
113160
113144
113196
113325
113544
113856
114279
114697
113566
113379
113275
113230
113261
113383
113623
113996
114565
115165
113835
113619
113483
113404
113405
113503
113744
114153
114858
115645
114004
113759
113594
113477
113438
113498
113720
114143
114961
115940
114279
114028
113843
113701
113632
113660
113859
114282
115183
116336
114304
114060
113866
113703
113605
113600
113770
114188
115128
116489
114402
114172
113982
113830
113739
113743
113918
114352
115300
116821
113304
113279
113268
113271
113288
113317
113357
113401
113444
113478
113277
113229
113209
113214
113246
113303
113382
113474
113568
113645
113367
113286
113250
113252
113295
113380
113504
113661
113834
113984
113505
113387
113326
113315
113360
113466
113636
113866
114148
114410
113685
113527
113440
113406
113441
113551
113753
114047
114445
114840
113932
113743
113627
113567
113581
113682
113900
114244
114760
115300
114076
113856
113712
113620
113605
113685
113903
114279
114903
115599
114331
114100
113935
113821
113783
113842
114054
114449
115162
116008
114347
114115
113939
113807
113746
113781
113977
114384
115155
116180
114444
114220
114044
113915
113856
113895
114096
114520
115314
116470
113348
113333
113328
113329
113339
113356
113378
113403
113425
113442
113342
113312
113299
113303
113324
113360
113408
113464
113516
113558
113461
113404
113378
113379
113410
113469
113554
113656
113762
113851
113599
113508
113461
113454
113490
113571
113697
113860
114045
114210
113776
113648
113577
113553
113585
113678
113838
114059
114334
114595
114005
113846
113749
113704
113724
113818
114003
114276
114648
115017
114127
113936
113814
113743
113744
113829
114026
114341
114806
115298
114365
114160
114017
113928
113912
113986
114188
114534
115081
115693
114369
114158
114003
113898
113864
113924
114121
114488
115094
115846
114465
114257
114100
113994
113960
114021
114224
114608
115245
116094
113396
113388
113385
113386
113392
113401
113413
113426
113437
113446
113401
113383
113375
113378
113391
113413
113442
113473
113502
113525
113539
113500
113482
113483
113504
113543
113599
113663
113727
113779
113672
113605
113569
113564
113591
113650
113739
113851
113971
114075
113844
113744
113689
113672
113698
113772
113893
114054
114240
114411
114055
113927
113848
113815
113836
113918
114066
114275
114537
114788
114159
113999
113898
113845
113854
113935
114102
114354
114693
115037
114381
114206
114086
114018
114017
114094
114274
114559
114969
115406
114374
114188
114056
113974
113960
114030
114213
114524
114987
115525
114470
114285
114148
114064
114049
114120
114308
114637
115131
115739
113451
113447
113446
113446
113450
113455
113461
113467
113473
113477
113458
113448
113444
113446
113453
113466
113483
113500
113515
113528
113607
113581
113570
113570
113584
113609
113644
113684
113721
113751
113729
113681
113655
113651
113670
113712
113773
113847
113924
113989
113895
113820
113778
113765
113786
113842
113930
114042
114167
114278
114088
113988
113927
113903
113922
113988
114102
114256
114438
114607
114174
114045
113964
113925
113938
114009
114143
114337
114579
114817
114385
114241
114143
114092
114099
114171
114322
114548
114848
115153
114364
114206
114098
114035
114034
114104
114262
114514
114859
115237
114462
114302
114188
114123
114120
114192
114358
114626
114998
115425
113515
113512
113512
113513
113515
113517
113520
113523
113526
113527
113516
113511
113510
113511
113516
113523
113532
113541
113548
113555
113671
113655
113648
113648
113657
113673
113694
113717
113738
113755
113776
113743
113725
113722
113735
113763
113804
113852
113900
113941
113934
113879
113849
113840
113856
113896
113957
114034
114116
114187
114109
114034
113988
113971
113987
114037
114121
114231
114356
114468
114178
114077
114015
113986
114000
114057
114161
114305
114474
114637
114380
114265
114188
114151
114161
114224
114345
114517
114731
114941
114344
114215
114128
114082
114087
114151
114281
114477
114728
114990
114445
114314
114221
114172
114177
114242
114380
114591
114864
115159
113587
113586
113586
113586
113587
113589
113590
113591
113592
113592
113579
113577
113576
113578
113580
113584
113589
113593
113596
113599
113735
113726
113722
113722
113728
113737
113749
113762
113773
113782
113819
113798
113785
113783
113792
113810
113836
113866
113896
113921
113967
113930
113908
113902
113913
113941
113982
114033
114085
114131
114124
114070
114036
114024
114036
114073
114134
114210
114293
114366
114176
114100
114053
114033
114045
114090
114167
114270
114386
114495
114371
114283
114225
114198
114209
114260
114353
114479
114629
114771
114319
114216
114149
114116
114124
114178
114281
114428
114606
114784
114425
114321
114248
114213
114221
114277
114387
114546
114741
114942
113668
113667
113668
113668
113669
113669
113670
113670
113670
113669
113646
113646
113646
113647
113649
113651
113653
113655
113655
113656
113804
113799
113797
113797
113800
113806
113812
113819
113824
113827
113863
113849
113841
113840
113845
113856
113873
113891
113909
113924
114001
113976
113961
113957
113964
113983
114010
114042
114075
114103
114138
114100
114076
114068
114077
114103
114145
114196
114250
114297
114173
114118
114084
114070
114080
114113
114168
114240
114317
114390
114363
114299
114256
114238
114247
114287
114355
114445
114548
114641
114292
114214
114164
114140
114149
114192
114270
114377
114500
114620
114407
114328
114273
114248
114257
114302
114386
114502
114639
114773
113759
113759
113760
113760
113760
113760
113760
113760
113759
113758
113718
113719
113720
113721
113722
113723
113724
113724
113723
113723
113879
113877
113876
113877
113878
113881
113884
113887
113888
113888
113910
113902
113897
113896
113900
113906
113916
113927
113937
113946
114038
114022
114013
114010
114015
114027
114044
114064
114083
114099
114156
114131
114114
114109
114115
114133
114161
114194
114229
114258
114175
114137
114113
114104
114111
114134
114172
114220
114271
114318
114363
114317
114286
114274
114282
114311
114360
114421
114491
114550
114270
114212
114176
114160
114168
114200
114256
114331
114415
114495
114398
114339
114299
114282
114290
114325
114386
114468
114562
114649
113862
113862
113863
113863
113863
113863
113863
113862
113861
113860
113798
113799
113800
113801
113802
113802
113802
113801
113800
113800
113964
113964
113964
113965
113966
113967
113968
113968
113967
113965
113966
113961
113959
113958
113960
113964
113969
113975
113980
113985
114084
114074
114069
114067
114070
114077
114087
114099
114110
114118
114181
114165
114154
114151
114155
114167
114184
114205
114227
114244
114186
114160
114144
114138
114144
114159
114185
114216
114247
114277
114373
114342
114321
114313
114319
114339
114373
114414
114459
114495
114254
114213
114188
114177
114183
114207
114246
114297
114352
114404
114401
114360
114332
114320
114327
114352
114396
114452
114514
114570
113983
113983
113984
113984
113984
113984
113984
113983
113982
113980
113886
113887
113889
113890
113890
113890
113889
113888
113886
113885
114062
114063
114064
114065
114066
114066
114065
114064
114062
114058
114033
114031
114030
114030
114031
114032
114035
114037
114039
114041
114140
114135
114131
114131
114132
114136
114142
114148
114154
114157
114217
114206
114200
114198
114200
114208
114219
114231
114244
114254
114209
114193
114183
114179
114183
114193
114209
114228
114248
114265
114396
114376
114362
114356
114361
114375
114398
114424
114454
114474
114247
114218
114201
114194
114199
114215
114242
114276
114311
114345
114425
114397
114377
114370
114375
114393
114423
114460
114501
114536
114135
114135
114136
114136
114136
114136
114135
114134
114133
114131
113984
113986
113987
113988
113988
113987
113986
113985
113982
113982
114177
114179
114180
114180
114181
114180
114179
114177
114175
114170
114115
114115
114115
114115
114116
114117
114118
114118
114118
114118
114208
114205
114203
114203
114204
114207
114210
114213
114216
114217
114263
114257
114252
114251
114253
114258
114265
114273
114281
114286
114247
114237
114231
114229
114231
114238
114249
114260
114272
114281
114430
114417
114407
114403
114406
114416
114432
114449
114470
114480
114247
114227
114216
114211
114215
114226
114244
114266
114289
114311
114480
114461
114447
114442
114446
114459
114480
114504
114532
114553
114345
114345
114346
114347
114347
114346
114345
114344
114342
114340
114092
114092
114093
114094
114094
114094
114094
114092
114091
114090
114307
114308
114308
114308
114309
114309
114309
114309
114308
114304
114220
114219
114219
114219
114220
114221
114223
114224
114224
114223
114292
114289
114287
114287
114288
114290
114294
114298
114301
114302
114324
114318
114314
114313
114315
114319
114325
114332
114339
114343
114301
114294
114289
114288
114290
114295
114303
114312
114321
114326
114464
114454
114446
114443
114446
114453
114465
114479
114496
114503
114247
114233
114225
114221
114224
114232
114245
114261
114276
114292
114589
114576
114566
114562
114565
114574
114589
114607
114627
114640
114647
114646
114646
114646
114646
114646
114646
114647
114646
114645
114201
114200
114200
114200
114201
114202
114204
114206
114208
114210
114450
114445
114441
114440
114440
114443
114447
114454
114461
114465
114355
114351
114349
114348
114349
114352
114357
114363
114369
114373
114399
114393
114389
114387
114388
114392
114399
114407
114417
114424
114407
114399
114394
114392
114394
114398
114406
114416
114428
114437
114378
114371
114366
114364
114365
114371
114379
114390
114401
114409
114488
114476
114469
114466
114468
114474
114485
114499
114517
114530
114236
114226
114219
114217
114219
114226
114236
114249
114262
114274
114781
114770
114761
114759
114761
114768
114780
114795
114813
114824
114994
114989
114986
114984
114984
114986
114989
114994
115000
115008
114327
114319
114315
114313
114314
114318
114325
114335
114349
114370
114611
114593
114583
114578
114578
114583
114593
114610
114635
114670
114528
114516
114509
114506
114507
114511
114520
114534
114554
114582
114541
114528
114520
114516
114517
114522
114532
114546
114567
114596
114527
114514
114507
114504
114505
114510
114520
114534
114554
114581
114491
114480
114474
114471
114472
114478
114488
114501
114519
114542
114524
114510
114501
114498
114500
114506
114518
114533
114555
114583
114239
114231
114225
114222
114224
114231
114241
114254
114268
114279
115021
115010
115003
115000
115002
115009
115020
115034
115051
115065
125462
126675
126558
125441
127933
129335
129018
127633
130343
131931
131435
129747
132204
133945
133386
131496
133559
135410
134944
132927
134587
136515
136190
134085
135202
137169
136994
134820
135752
137725
137705
135478
135490
137438
137544
135316
135060
137003
137325
135238
116419
116620
116684
116606
118339
118721
118808
118584
120307
120873
120975
120574
122196
122940
123050
122461
123884
124784
124889
124130
125439
126472
126569
125662
126657
127793
127882
126851
127847
129060
129146
128024
128383
129651
129746
128576
128908
130239
130385
129239
115155
115250
115288
115275
116318
116506
116556
116507
117638
117927
117998
117905
119000
119401
119494
119342
120291
120810
120919
120689
121580
122211
122330
122010
122637
123370
123493
123074
123755
124573
124696
124181
124355
125231
125357
124761
125027
125956
126107
125462
114209
114236
114252
114259
114854
114918
114947
114950
115762
115884
115932
115925
116792
116984
117056
117035
117794
118066
118163
118114
118839
119196
119314
119225
119706
120144
120278
120138
120677
121189
121332
121131
121217
121784
121941
121688
121855
122475
122659
122378
113815
113827
113835
113838
114213
114240
114255
114260
114839
114898
114926
114932
115623
115724
115772
115779
116406
116557
116626
116632
117245
117451
117542
117540
117926
118190
118300
118281
118727
119046
119172
119127
119177
119538
119686
119620
119737
120140
120319
120241
113594
113599
113603
113604
113852
113860
113866
113870
114310
114332
114346
114354
114922
114969
114998
115013
115554
115634
115681
115702
116246
116365
116430
116455
116791
116950
117035
117060
117461
117659
117760
117779
117832
118062
118184
118198
118294
118555
118701
118710
113487
113490
113491
113492
113663
113665
113667
113669
114029
114037
114042
114048
114515
114538
114555
114567
115034
115078
115108
115128
115615
115684
115730
115756
116057
116155
116216
116249
116626
116750
116826
116862
116924
117072
117164
117201
117294
117462
117571
117608
113446
113447
113448
113448
113565
113564
113564
113565
113870
113871
113873
113876
114263
114274
114283
114292
114698
114722
114742
114756
115192
115233
115263
115285
115555
115615
115658
115687
116044
116123
116178
116212
116274
116369
116436
116473
116570
116680
116757
116796
113447
113448
113448
113448
113527
113525
113524
113523
113787
113786
113786
113787
114104
114109
114115
114120
114470
114485
114497
114508
114891
114917
114938
114954
115190
115228
115258
115280
115615
115666
115705
115732
115782
115845
115891
115922
116026
116098
116151
116185
113477
113477
113478
113478
113527
113525
113523
113522
113753
113751
113750
113750
114005
114008
114011
114014
114313
114322
114330
114338
114670
114687
114701
114713
114911
114936
114957
114974
115284
115317
115344
115365
115398
115440
115472
115496
115604
115652
115689
115715
113527
113527
113527
113527
113553
113551
113549
113548
113754
113752
113750
113750
113949
113950
113952
113955
114208
114213
114219
114224
114508
114518
114528
114537
114696
114712
114727
114739
115025
115047
115066
115081
115094
115122
115145
115162
115275
115306
115332
115351
113592
113592
113591
113591
113597
113595
113593
113592
113779
113777
113775
113775
113925
113925
113926
113928
114142
114145
114149
114153
114391
114398
114405
114411
114533
114543
114553
114563
114825
114839
114853
114863
114854
114873
114888
114901
115018
115039
115057
115070
113669
113669
113668
113668
113653
113652
113650
113649
113824
113822
113820
113820
113925
113924
113925
113927
114108
114110
114112
114116
114312
114317
114321
114326
114413
114419
114426
114433
114675
114685
114694
114702
114667
114679
114690
114699
114822
114837
114849
114858
113758
113757
113757
113757
113720
113719
113718
113717
113885
113883
113881
113881
113944
113944
113944
113946
114101
114102
114103
114106
114266
114269
114272
114275
114330
114334
114339
114344
114571
114578
114584
114589
114525
114534
114541
114547
114682
114691
114699
114706
113860
113860
113859
113859
113797
113795
113795
113794
113961
113959
113959
113959
113982
113981
113981
113983
114117
114117
114118
114120
114248
114249
114251
114254
114282
114285
114288
114291
114508
114512
114516
114520
114424
114430
114435
114439
114591
114596
114602
114606
113980
113980
113979
113979
113882
113881
113881
113881
114054
114053
114052
114052
114037
114036
114036
114037
114154
114154
114154
114156
114255
114256
114257
114259
114266
114266
114268
114271
114482
114485
114487
114489
114358
114361
114365
114367
114548
114551
114555
114558
114131
114130
114130
114130
113978
113977
113977
113978
114166
114165
114165
114165
114112
114111
114111
114112
114214
114213
114213
114214
114286
114287
114287
114288
114279
114279
114280
114281
114487
114488
114490
114491
114319
114321
114323
114325
114559
114561
114563
114566
114340
114339
114339
114339
114086
114085
114085
114086
114302
114301
114301
114301
114217
114216
114216
114216
114300
114300
114300
114300
114345
114345
114345
114346
114323
114323
114323
114324
114512
114514
114515
114516
114297
114299
114300
114301
114644
114645
114647
114649
114645
114645
114645
114644
114206
114206
114206
114207
114470
114471
114471
114471
114370
114370
114369
114370
114427
114427
114427
114428
114442
114443
114443
114444
114408
114408
114408
114409
114548
114551
114552
114552
114275
114275
114276
114277
114833
114834
114836
114837
115014
115016
115017
115017
114375
114377
114379
114379
114703
114710
114713
114713
114603
114608
114609
114609
114623
114628
114630
114630
114608
114614
114616
114615
114561
114565
114567
114566
114623
114631
114634
114631
114274
114272
114272
114275
115092
115097
115098
115096
119872
117622
115877
114720
113994
113511
113169
112917
112727
112574
120811
117976
115834
114599
113829
113320
112963
112703
112512
112372
121271
118126
115675
114509
113723
113207
112835
112560
112370
112258
121444
118163
115573
114519
113763
113296
112957
112710
112539
112447
121250
118027
115387
114473
113766
113379
113097
112903
112771
112718
120961
117913
115258
114510
113871
113585
113378
113252
113169
113146
120401
117594
114932
114359
113792
113616
113491
113444
113421
113450
120017
117479
114805
114386
113868
113779
113713
113724
113749
113799
119343
117002
114351
114065
113572
113526
113480
113533
113612
113702
119800
117493
114854
114525
113926
113787
113664
113664
113710
113758
116169
115553
114980
114493
114085
113747
113466
113236
113045
112892
117564
116441
115454
114699
114116
113666
113318
113045
112830
112672
118810
117191
115841
114890
114172
113640
113239
112931
112701
112559
119810
117787
116154
115101
114327
113783
113382
113082
112857
112721
120471
118150
116296
115206
114424
113910
113542
113276
113075
112966
120945
118438
116418
115350
114596
114144
113831
113616
113453
113364
121059
118450
116302
115292
114584
114211
113965
113813
113696
113646
121210
118565
116316
115377
114710
114406
114211
114108
114031
113996
120981
118283
115996
115140
114505
114239
114065
113996
113963
113955
121403
118677
116364
115482
114775
114446
114223
114119
114069
114032
115157
114896
114593
114295
114022
113779
113568
113387
113232
113104
116210
115670
115081
114565
114136
113784
113496
113259
113065
112918
117375
116497
115600
114870
114292
113838
113480
113196
112976
112831
118505
117275
116105
115224
114553
114049
113662
113361
113129
112978
119453
117873
116460
115474
114752
114235
113851
113562
113336
113198
120303
118402
116781
115740
115003
114507
114151
113892
113687
113560
120837
118648
116851
115792
115065
114612
114300
114084
113911
113810
121388
118952
117009
115955
115245
114836
114561
114381
114239
114148
121502
118848
116835
115815
115120
114734
114475
114321
114213
114142
121984
119194
117135
116081
115330
114903
114612
114437
114322
114233
114249
114175
114062
113930
113792
113655
113527
113409
113303
113213
114899
114713
114465
114208
113961
113734
113532
113355
113204
113085
115800
115442
115003
114582
114205
113879
113603
113371
113183
113054
116803
116249
115614
115047
114562
114163
113836
113569
113353
113204
117728
116951
116118
115426
114862
114419
114068
113790
113563
113413
118633
117622
116600
115812
115199
114741
114391
114119
113898
113747
119290
118037
116839
115982
115344
114893
114560
114311
114105
113970
119992
118503
117144
116240
115587
115151
114837
114608
114422
114290
120296
118587
117121
116195
115529
115097
114790
114580
114418
114301
120853
118956
117398
116415
115702
115240
114912
114689
114527
114398
113836
113806
113756
113691
113618
113542
113466
113394
113327
113269
114248
114175
114062
113928
113786
113645
113512
113391
113283
113196
114897
114745
114530
114294
114061
113844
113647
113473
113326
113221
115714
115463
115127
114782
114458
114168
113915
113698
113514
113381
116518
116145
115676
115225
114821
114475
114183
113939
113732
113588
117352
116838
116231
115685
115219
114838
114526
114270
114055
113899
117990
117318
116570
115942
115431
115032
114715
114463
114248
114098
118703
117861
116974
116278
115731
115322
115006
114760
114555
114401
119075
118063
117064
116313
115731
115310
114992
114756
114566
114420
119614
118432
117329
116514
115890
115443
115110
114864
114674
114520
113604
113592
113569
113538
113501
113460
113418
113376
113337
113301
113871
113843
113790
113721
113642
113560
113478
113399
113328
113269
114354
114293
114190
114062
113924
113785
113653
113530
113423
113345
115007
114899
114727
114527
114320
114121
113937
113770
113624
113514
115684
115512
115259
114981
114707
114454
114226
114025
113849
113722
116415
116167
115823
115468
115135
114838
114579
114356
114161
114015
116984
116643
116201
115772
115388
115060
114782
114548
114343
114193
117649
117201
116655
116157
115728
115375
115084
114845
114639
114479
118017
117452
116807
116243
115771
115396
115095
114858
114658
114501
118484
117795
117062
116439
115927
115528
115213
114967
114767
114602
113492
113486
113475
113459
113440
113418
113395
113372
113349
113329
113670
113656
113630
113593
113550
113502
113454
113406
113361
113324
114051
114024
113972
113901
113820
113733
113647
113564
113490
113436
114573
114525
114435
114319
114189
114056
113927
113805
113695
113611
115135
115057
114920
114751
114570
114391
114221
114064
113923
113817
115761
115644
115453
115228
114998
114777
114573
114388
114223
114094
116247
116080
115826
115543
115266
115010
114779
114576
114393
114253
116843
116614
116287
115946
115624
115338
115087
114870
114679
114525
117165
116860
116458
116057
115692
115380
115115
114893
114701
114544
117550
117167
116700
116250
115851
115516
115236
115005
114811
114646
113448
113445
113440
113432
113422
113410
113398
113385
113373
113362
113565
113559
113545
113526
113503
113476
113448
113419
113393
113371
113879
113867
113839
113799
113752
113699
113645
113591
113542
113508
114299
114277
114229
114160
114080
113993
113905
113820
113741
113679
114768
114732
114657
114554
114436
114312
114190
114073
113965
113883
115301
115247
115139
114998
114842
114683
114528
114384
114250
114142
115706
115627
115481
115298
115103
114911
114728
114561
114406
114284
116228
116116
115923
115696
115462
115240
115034
114849
114682
114542
116485
116327
116083
115809
115540
115292
115070
114875
114701
114555
116801
116598
116309
115998
115699
115431
115195
114991
114813
114659
113448
113447
113444
113440
113435
113429
113422
113416
113409
113403
113524
113521
113514
113504
113491
113476
113460
113444
113429
113417
113789
113782
113767
113745
113717
113686
113653
113619
113588
113568
114126
114115
114088
114048
113998
113943
113885
113827
113773
113729
114518
114500
114458
114395
114319
114236
114151
114066
113987
113926
114969
114944
114882
114794
114689
114578
114465
114356
114253
114167
115302
115265
115180
115062
114928
114788
114649
114517
114392
114291
115755
115702
115589
115439
115275
115108
114947
114796
114657
114536
115947
115868
115723
115541
115348
115159
114981
114819
114668
114540
116208
116105
115931
115722
115506
115300
115109
114937
114782
114645
113478
113477
113475
113473
113471
113468
113464
113461
113457
113455
113522
113521
113517
113512
113506
113498
113489
113481
113473
113466
113751
113748
113740
113727
113711
113693
113673
113652
113634
113624
114019
114013
113998
113974
113944
113909
113872
113834
113797
113768
114346
114337
114312
114274
114226
114171
114113
114054
113998
113954
114725
114713
114677
114622
114554
114477
114397
114317
114240
114175
114992
114975
114925
114850
114760
114660
114558
114458
114360
114281
115386
115362
115295
115199
115085
114964
114843
114725
114613
114514
115520
115483
115397
115278
115144
115004
114867
114737
114613
114506
115740
115691
115588
115451
115299
115146
114997
114858
114729
114613
113527
113526
113526
113525
113523
113522
113520
113519
113517
113516
113548
113547
113546
113543
113540
113536
113532
113527
113523
113520
113750
113748
113744
113737
113728
113717
113706
113693
113683
113679
113958
113955
113947
113933
113914
113893
113869
113845
113821
113802
114230
114226
114212
114188
114158
114122
114084
114044
114005
113975
114546
114541
114520
114486
114441
114390
114335
114278
114222
114174
114754
114746
114718
114670
114610
114541
114468
114394
114321
114260
115098
115088
115049
114987
114911
114825
114736
114647
114561
114483
115182
115166
115115
115039
114947
114847
114744
114643
114545
114459
115373
115351
115290
115202
115098
114987
114875
114767
114664
114570
113591
113591
113591
113590
113590
113589
113588
113588
113587
113587
113592
113592
113591
113590
113588
113587
113585
113583
113581
113580
113775
113774
113772
113768
113763
113757
113750
113743
113738
113738
113931
113930
113925
113917
113906
113893
113878
113863
113848
113836
114158
114156
114147
114133
114114
114092
114067
114040
114014
113995
114418
114416
114404
114383
114354
114320
114283
114244
114205
114171
114574
114571
114554
114524
114484
114438
114387
114334
114281
114237
114876
114873
114850
114811
114761
114702
114638
114574
114510
114450
114916
114910
114880
114831
114769
114699
114624
114549
114474
114408
115088
115079
115044
114988
114917
114839
114758
114677
114597
114524
113668
113668
113668
113668
113667
113667
113667
113667
113667
113667
113649
113649
113649
113649
113648
113648
113647
113647
113646
113646
113820
113819
113818
113816
113813
113810
113807
113803
113801
113803
113929
113929
113926
113921
113915
113907
113899
113889
113880
113873
114119
114118
114114
114105
114094
114079
114064
114047
114030
114018
114331
114331
114324
114311
114293
114271
114247
114221
114195
114171
114442
114441
114431
114413
114387
114356
114321
114285
114248
114217
114711
114711
114698
114674
114641
114601
114558
114512
114466
114422
114710
114708
114691
114660
114619
114570
114518
114464
114408
114359
114871
114869
114848
114813
114767
114713
114655
114597
114538
114483
113757
113757
113757
113757
113757
113757
113757
113757
113757
113758
113717
113717
113717
113717
113717
113718
113718
113718
113718
113718
113881
113881
113880
113879
113878
113876
113875
113873
113873
113876
113948
113948
113947
113944
113941
113936
113931
113926
113921
113916
114109
114108
114106
114101
114094
114086
114076
114066
114056
114049
114279
114279
114276
114268
114257
114244
114228
114211
114194
114178
114351
114351
114346