/*--------------------------------*- C++ -*----------------------------------*\
| =========                 |                                                 |
| \\      /  F ield         | foam-extend: Open Source CFD                    |
|  \\    /   O peration     | Version:     4.0                                |
|   \\  /    A nd           | Web:         http://www.foam-extend.org         |
|    \\/     M anipulation  |                                                 |
\*---------------------------------------------------------------------------*/
FoamFile
{
    version     2.0;
    format      ascii;
    class       surfaceScalarField;
    location    "350";
    object      phi;
}
// * * * * * * * * * * * * * * * * * * * * * * * * * * * * * * * * * * * * * //

dimensions      [1 0 -1 0 0 0 0];

internalField   nonuniform List<scalar> 
97302
(
-0.000111258
1.29188e-07
-0.000843315
0.000852565
-0.0001204
3.63731e-07
-0.000845366
0.000854145
-0.000129857
5.02081e-07
-0.000846566
0.000855521
-0.000140188
5.32357e-07
-0.000847238
0.000857037
-0.000152214
4.37745e-07
-0.000847419
0.000859007
-0.000167433
2.0801e-07
-0.000846921
0.000861932
-0.000188917
-1.82978e-07
-0.000845137
0.000866804
-0.000223529
-7.69919e-07
-0.000840069
0.000875432
-0.00027178
-1.64092e-06
-0.000830147
0.000879926
-4.0452e-06
-0.000800721
-0.000352847
0.000885833
-0.000153137
-5.56971e-07
-0.00112254
0.00113307
-0.000162655
-9.57428e-08
-0.00112662
0.0011366
-0.000172479
2.44578e-07
-0.00112898
0.00113907
-0.000183092
3.93516e-07
-0.0011301
0.00114085
-0.000195195
3.0613e-07
-0.00113004
0.00114227
-0.000210427
-3.81621e-08
-0.00112849
0.00114396
-0.000232484
-7.09507e-07
-0.0011247
0.00114729
-0.000270551
-1.7938e-06
-0.00111595
0.00115504
-0.000325495
-3.5067e-06
-0.00109853
0.00115524
-7.56266e-06
-0.00105415
-0.000428117
0.00116029
-0.000193236
-1.766e-06
-0.00140048
0.00141165
-0.000202902
-1.04513e-06
-0.00140598
0.00141659
-0.000212846
-4.362e-07
-0.00140945
0.00142008
-0.000223468
-6.92919e-08
-0.00141108
0.00142216
-0.000235572
-2.10487e-08
-0.00141099
0.00142342
-0.000251219
-3.19318e-07
-0.00140929
0.00142522
-0.000274789
-1.07288e-06
-0.00140571
0.00142964
-0.000317317
-2.39502e-06
-0.00139758
0.00144071
-0.000378957
-4.65767e-06
-0.00137962
0.00144235
-1.00849e-05
-0.0013259
-0.000496181
0.00144565
-0.00023293
-3.03576e-06
-0.00167585
0.00168709
-0.000242768
-1.95919e-06
-0.00168233
0.00169308
-0.000253014
-1.0313e-06
-0.00168701
0.00169785
-0.000264051
-3.96193e-07
-0.00168994
0.0017013
-0.000276731
-1.53516e-07
-0.00169119
0.001704
-0.000293335
-3.31354e-07
-0.00169101
0.00170763
-0.000318676
-1.07809e-06
-0.00168929
0.00171463
-0.000365209
-2.5272e-06
-0.00168346
0.00173013
-0.00043241
-5.23489e-06
-0.00166721
0.00173495
-1.20036e-05
-0.00160415
-0.000559716
0.00173338
-0.00027271
-4.06367e-06
-0.00194897
0.00195985
-0.000282538
-2.67144e-06
-0.00195724
0.00196778
-0.000292906
-1.4607e-06
-0.00196405
0.00197484
-0.000304192
-5.72011e-07
-0.00196911
0.00198058
-0.000317287
-1.16382e-07
-0.00197252
0.00198558
-0.000334616
-1.16458e-07
-0.00197455
0.00199166
-0.000361403
-7.44162e-07
-0.00197522
0.00200167
-0.000411302
-2.14625e-06
-0.00197231
0.00202183
-0.000483349
-5.0749e-06
-0.00195904
0.00203092
-1.30667e-05
-0.00188582
-0.000617854
0.00202139
-0.000313283
-4.71589e-06
-0.00221638
0.00222672
-0.000323067
-3.09644e-06
-0.00222749
0.00223769
-0.000333483
-1.70875e-06
-0.00223717
0.00224783
-0.000344881
-6.5397e-07
-0.002245
0.00225648
-0.000358156
-4.62341e-08
-0.00225105
0.00226425
-0.000375827
1.04408e-07
-0.00225571
0.00227316
-0.000403488
-3.78967e-07
-0.00225918
0.00228648
-0.000455824
-1.6338e-06
-0.00225956
0.00231138
-0.000531727
-4.50112e-06
-0.00225059
0.00232592
-1.34656e-05
-0.0021668
-0.000670891
0.00230636
-0.000354176
-4.66848e-06
-0.00248006
0.00248942
-0.000363746
-3.08877e-06
-0.0024951
0.00250466
-0.000374022
-1.71819e-06
-0.00250861
0.00251889
-0.000385315
-6.60454e-07
-0.00251991
0.00253121
-0.000398525
-2.14115e-08
-0.00252918
0.00254236
-0.000416186
1.66081e-07
-0.00253694
0.00255454
-0.00044423
-2.1207e-07
-0.00254369
0.00257157
-0.000498184
-1.23326e-06
-0.00254799
0.00260154
-0.000577132
-3.58603e-06
-0.00254461
0.00262264
-1.28911e-05
-0.00244972
-0.000718902
0.00259091
-0.000396819
-3.90788e-06
-0.00274183
0.00275031
-0.000406277
-2.71972e-06
-0.00276134
0.00277042
-0.000416436
-1.71489e-06
-0.00277869
0.00278884
-0.000427605
-9.72325e-07
-0.00279346
0.00280494
-0.000440625
-5.70603e-07
-0.00280575
0.00281932
-0.000457938
-5.86736e-07
-0.00281641
0.00283448
-0.000485643
-1.05023e-06
-0.00282635
0.00285489
-0.00053985
-1.91963e-06
-0.00283466
0.00288955
-0.000620336
-3.21623e-06
-0.00283803
0.00291815
-1.14802e-05
-0.00273411
-0.000762879
0.00287524
-0.000439395
-2.43457e-06
-0.00299697
0.00300354
-0.000447928
-1.91759e-06
-0.00302068
0.00302841
-0.000457273
-1.62226e-06
-0.00304238
0.00305163
-0.000467871
-1.67844e-06
-0.00306206
0.00307336
-0.00048066
-2.03781e-06
-0.00307947
0.00309373
-0.000497946
-2.73539e-06
-0.00309521
0.00311464
-0.000525752
-3.64221e-06
-0.00311053
0.00314093
-0.000579948
-4.4857e-06
-0.0031254
0.00318216
-0.000660487
-4.46466e-06
-0.00313591
0.00321769
-9.44047e-06
-0.00302361
-0.00080054
0.00316162
-0.000482896
-0.00324146
0.00324736
-0.000491856
-0.0032667
0.00327374
-0.000501558
-0.00328872
0.0032968
-0.000512489
-0.00330709
0.00331634
-0.000525508
-0.00332136
0.00333234
-0.000542733
-0.00333247
0.00334696
-0.000569683
-0.00334211
0.00336542
-0.000621078
-0.00335304
0.00339995
-0.000695238
-0.00336759
0.00343729
-0.00326918
-0.000828021
0.00339253
1.6408e-05
-7.18367e-10
-0.000834788
7.95131e-06
2.55532e-07
-0.000837165
-7.54167e-07
4.12151e-07
-0.000838273
-9.89944e-06
4.45582e-07
-0.000838538
-1.96872e-05
3.34586e-07
-0.000837966
-3.0381e-05
5.6319e-08
-0.000836284
-4.21959e-05
-4.28332e-07
-0.000832893
-5.4588e-05
-1.1992e-06
-0.000826478
-6.6781e-05
-2.43802e-06
-0.000815516
-3.92269e-06
-0.000796453
-6.71466e-05
1.7958e-05
-8.08113e-07
-0.0011122
8.67741e-06
-3.31022e-07
-0.00111675
-8.88156e-07
3.60112e-08
-0.00111904
-1.10295e-05
2.0268e-07
-0.00111971
-2.19385e-05
1.08701e-07
-0.0011189
-3.39732e-05
-2.85953e-07
-0.00111611
-4.80118e-05
-1.06637e-06
-0.00111003
-6.5071e-05
-2.35253e-06
-0.00109774
-8.68269e-05
-4.47552e-06
-0.00107474
-7.07906e-06
-0.00103743
-0.000100424
2.07807e-05
-2.09652e-06
-0.00138914
1.09869e-05
-1.36748e-06
-0.00139515
8.6613e-07
-7.26225e-07
-0.00139857
-9.83098e-06
-3.25628e-07
-0.00139985
-2.13442e-05
-2.69002e-07
-0.0013991
-3.44362e-05
-6.16166e-07
-0.00139587
-5.09505e-05
-1.50446e-06
-0.00138876
-7.3691e-05
-3.0736e-06
-0.00137411
-0.000107207
-5.86172e-06
-0.00134473
-9.52103e-06
-0.00129313
-0.000137563
2.41737e-05
-3.45008e-06
-0.0016642
1.40223e-05
-2.35455e-06
-0.00167119
3.38689e-06
-1.37921e-06
-0.00167572
-8.02094e-06
-6.89736e-07
-0.00167816
-2.05555e-05
-4.15468e-07
-0.00167851
-3.52266e-05
-6.28498e-07
-0.00167633
-5.45012e-05
-1.52987e-06
-0.00166999
-8.27389e-05
-3.26744e-06
-0.00165503
-0.000128057
-6.61931e-06
-0.00162113
-1.13371e-05
-0.00155462
-0.000175783
2.75961e-05
-4.55882e-06
-0.00193755
1.73457e-05
-3.13321e-06
-0.00194621
6.43239e-06
-1.85902e-06
-0.00195265
-5.47127e-06
-8.95927e-07
-0.001957
-1.88374e-05
-3.83031e-07
-0.00195919
-3.48367e-05
-3.99534e-07
-0.00195878
-5.647e-05
-1.20325e-06
-0.00195392
-8.96026e-05
-2.94059e-06
-0.0019395
-0.000146446
-6.61312e-06
-0.0019022
-1.22681e-05
-0.00182009
-0.000211246
3.06831e-05
-5.24669e-06
-0.00220553
2.0418e-05
-3.57246e-06
-0.00221678
9.32773e-06
-2.103e-06
-0.00222583
-2.92464e-06
-9.53243e-07
-0.00223269
-1.68898e-05
-2.6253e-07
-0.0022372
-3.3861e-05
-1.03769e-07
-0.00223904
-5.73158e-05
-7.65516e-07
-0.00223617
-9.45014e-05
-2.38827e-06
-0.00222293
-0.000162188
-6.06654e-06
-0.00218345
-1.2477e-05
-0.00208555
-0.000243228
3.31969e-05
-5.22226e-06
-0.00247025
2.31455e-05
-3.57257e-06
-0.00248504
1.20959e-05
-2.11187e-06
-0.00249755
-2.5492e-07
-9.52989e-07
-0.00250756
-1.45358e-05
-2.0492e-07
-0.00251495
-3.21039e-05
3.32186e-08
-0.00251951
-5.68543e-05
-5.06811e-07
-0.0025192
-9.72939e-05
-1.96203e-06
-0.00250797
-0.000174951
-5.20452e-06
-0.00246781
-1.20583e-05
-0.00235398
-0.00027111
3.4331e-05
-4.36104e-06
-0.00273322
2.45297e-05
-3.08437e-06
-0.00275202
1.36682e-05
-1.96459e-06
-0.00276797
1.43157e-06
-1.09378e-06
-0.00278108
-1.28411e-05
-5.42127e-07
-0.00279114
-3.05358e-05
-4.30894e-07
-0.00279825
-5.58347e-05
-9.4238e-07
-0.00280061
-9.82439e-05
-2.22337e-06
-0.00279199
-0.000184336
-4.46241e-06
-0.00275268
-1.11505e-05
-0.00262428
-0.00029507
3.39948e-05
-2.69564e-06
-0.00299058
2.5362e-05
-2.10686e-06
-0.00301302
1.55058e-05
-1.67733e-06
-0.00303281
4.05145e-06
-1.58342e-06
-0.00305011
-9.83596e-06
-1.75707e-06
-0.00306437
-2.76456e-05
-2.25802e-06
-0.00307557
-5.37545e-05
-3.09372e-06
-0.00308227
-9.81414e-05
-4.28238e-06
-0.00307895
-0.000191192
-5.23841e-06
-0.00304208
-9.22735e-06
-0.00289768
-0.000319051
3.22793e-05
-0.00323629
2.36954e-05
-0.00326022
1.40387e-05
-0.00328074
2.86057e-06
-0.0032975
-1.05598e-05
-0.0033097
-2.77046e-05
-0.00331758
-5.28059e-05
-0.0033201
-9.60587e-05
-0.00331407
-0.000190791
-0.0032781
-0.00313074
-0.000338458
1.33927e-05
-1.5969e-07
-0.000827861
6.30974e-06
1.04856e-07
-0.000830187
-1.0867e-06
2.65103e-07
-0.000831142
-8.73009e-06
2.8775e-07
-0.000831183
-1.65081e-05
1.52908e-07
-0.00083034
-2.41905e-05
-1.62911e-07
-0.000828439
-3.12419e-05
-6.90221e-07
-0.000825152
-3.63514e-05
-1.47165e-06
-0.000819897
-3.76087e-05
-2.58189e-06
-0.000811684
-3.67637e-06
-0.000799076
-3.13252e-05
1.58507e-05
-1.05902e-06
-0.00110305
7.47151e-06
-5.76908e-07
-0.00110769
-1.2538e-06
-2.11946e-07
-0.00110984
-1.04183e-05
-6.5866e-08
-0.0011102
-1.99978e-05
-2.00735e-07
-0.00110897
-2.98222e-05
-6.64902e-07
-0.00110578
-3.94687e-05
-1.53854e-06
-0.00109953
-4.77542e-05
-2.90258e-06
-0.00108802
-5.23904e-05
-4.91954e-06
-0.00106778
-6.94039e-06
-0.00103865
-4.79146e-05
1.94719e-05
-2.3474e-06
-0.00137859
1.0141e-05
-1.61832e-06
-0.00138477
3.78954e-07
-9.88147e-07
-0.00138803
-9.95733e-06
-6.18744e-07
-0.00138896
-2.08949e-05
-6.18451e-07
-0.00138774
-3.25132e-05
-1.06541e-06
-0.00138385
-4.49792e-05
-2.10791e-06
-0.00137572
-5.7882e-05
-3.86977e-06
-0.00136024
-6.91103e-05
-6.72166e-06
-0.00133171
-9.8056e-06
-0.00128911
-7.02687e-05
2.32195e-05
-3.68332e-06
-0.00165303
1.3253e-05
-2.58087e-06
-0.00166026
2.69999e-06
-1.61768e-06
-0.00166454
-8.67957e-06
-9.63481e-07
-0.00166644
-2.10669e-05
-7.52643e-07
-0.00166598
-3.48191e-05
-1.08253e-06
-0.00166256
-5.05988e-05
-2.18395e-06
-0.00165413
-6.87612e-05
-4.22644e-06
-0.00163651
-8.80512e-05
-7.87462e-06
-0.00160069
-1.21278e-05
-0.00154332
-9.70278e-05
2.68642e-05
-4.76779e-06
-0.00192637
1.6608e-05
-3.32608e-06
-0.00193521
5.60018e-06
-2.05918e-06
-0.0019412
-6.49099e-06
-1.12793e-06
-0.00194475
-2.00192e-05
-6.7542e-07
-0.00194574
-3.55904e-05
-8.1172e-07
-0.00194348
-5.43786e-05
-1.84702e-06
-0.00193546
-7.76949e-05
-3.99324e-06
-0.00191642
-0.000105998
-8.22852e-06
-0.00187354
-1.3591e-05
-0.0017999
-0.000124725
3.0141e-05
-5.41735e-06
-0.00219474
1.9738e-05
-3.71569e-06
-0.00220599
8.42959e-06
-2.24414e-06
-0.00221434
-4.16817e-06
-1.11556e-06
-0.0022201
-1.85418e-05
-4.74822e-07
-0.00222303
-3.55247e-05
-4.27248e-07
-0.00222244
-5.68247e-05
-1.32841e-06
-0.00221539
-8.48185e-05
-3.4235e-06
-0.0021955
-0.000122543
-7.90578e-06
-0.00214605
-1.42187e-05
-0.00205515
-0.000152311
3.27755e-05
-5.36848e-06
-0.00246037
2.24989e-05
-3.67786e-06
-0.00247481
1.11591e-05
-2.20246e-06
-0.00248625
-1.6257e-06
-1.05228e-06
-0.00249484
-1.64743e-05
-3.32111e-07
-0.00250025
-3.4403e-05
-1.62259e-07
-0.00250185
-5.76535e-05
-8.98348e-07
-0.00249638
-8.97089e-05
-2.83883e-06
-0.0024765
-0.000136824
-7.11177e-06
-0.00242149
-1.41824e-05
-0.00231269
-0.000178151
3.40025e-05
-4.47533e-06
-0.00272448
2.39347e-05
-3.13913e-06
-0.00274249
1.27611e-05
-1.97426e-06
-0.00275703
6.86706e-08
-1.07305e-06
-0.00276837
-1.48342e-05
-5.05712e-07
-0.00277606
-3.31318e-05
-3.97325e-07
-0.00277972
-5.75525e-05
-1.00087e-06
-0.00277609
-9.25986e-05
-2.6471e-06
-0.00275713
-0.000148304
-5.94291e-06
-0.00269815
-1.33694e-05
-0.00257186
-0.000201536
3.36618e-05
-2.72038e-06
-0.00298391
2.46358e-05
-2.08906e-06
-0.00300505
1.43842e-05
-1.57576e-06
-0.00302295
2.46299e-06
-1.37803e-06
-0.00303789
-1.19614e-05
-1.43099e-06
-0.00304902
-3.03119e-05
-1.79891e-06
-0.00305582
-5.58786e-05
-2.52897e-06
-0.00305518
-9.39711e-05
-3.80177e-06
-0.0030397
-0.000157062
-5.63012e-06
-0.0029793
-1.08954e-05
-0.00283369
-0.00022352
3.20407e-05
-0.00323094
2.31789e-05
-0.00325345
1.32407e-05
-0.00327238
1.6995e-06
-0.00328733
-1.21581e-05
-0.00329727
-2.97535e-05
-0.00330179
-5.44156e-05
-0.00329797
-9.24173e-05
-0.00327987
-0.00015836
-0.00321778
-0.00306114
-0.000238864
1.02122e-05
-3.59733e-07
-0.000822595
4.75237e-06
-1.01479e-07
-0.000824625
-1.05397e-06
5.49588e-08
-0.00082539
-6.95711e-06
6.71944e-08
-0.000825347
-1.26584e-05
-8.07369e-08
-0.000824558
-1.77307e-05
-4.08254e-07
-0.000822958
-2.15137e-05
-9.32027e-07
-0.000820437
-2.29175e-05
-1.65884e-06
-0.000816834
-2.02637e-05
-2.56736e-06
-0.000811774
-3.31587e-06
-0.000804039
-1.19966e-05
1.31739e-05
-1.35978e-06
-0.00109541
6.09516e-06
-8.88709e-07
-0.00109983
-1.37557e-06
-5.36321e-07
-0.00110178
-9.1169e-06
-4.15937e-07
-0.00110197
-1.69053e-05
-5.86768e-07
-0.00110067
-2.43261e-05
-1.09348e-06
-0.00109768
-3.05346e-05
-1.99452e-06
-0.00109226
-3.38837e-05
-3.32024e-06
-0.00108301
-3.15341e-05
-5.06738e-06
-0.00106763
-6.50886e-06
-0.00104633
-2.06819e-05
1.73782e-05
-2.62431e-06
-0.00136932
8.96262e-06
-1.9095e-06
-0.00137534
5.20139e-08
-1.30598e-06
-0.00137835
-9.33077e-06
-9.8672e-07
-0.00137901
-1.90417e-05
-1.05757e-06
-0.00137756
-2.8771e-05
-1.59657e-06
-0.00137362
-3.7798e-05
-2.7332e-06
-0.00136596
-4.44527e-05
-4.54588e-06
-0.00135236
-4.48244e-05
-7.18488e-06
-0.00132923
-9.60783e-06
-0.00129758
-3.32776e-05
2.145e-05
-3.90612e-06
-0.00164284
1.2088e-05
-2.81128e-06
-0.00165
2.07139e-06
-1.88136e-06
-0.00165395
-8.7015e-06
-1.29398e-06
-0.00165536
-2.02445e-05
-1.1818e-06
-0.00165432
-3.2479e-05
-1.6452e-06
-0.00165027
-4.49348e-05
-2.90266e-06
-0.0016415
-5.60091e-05
-5.10038e-06
-0.00162489
-6.08914e-05
-8.67316e-06
-0.00159433
-1.23145e-05
-0.00155087
-5.06513e-05
2.53381e-05
-4.92902e-06
-0.0019159
1.54312e-05
-3.48761e-06
-0.00192463
4.71321e-06
-2.25407e-06
-0.00193011
-7.04423e-06
-1.39618e-06
-0.00193289
-2.00451e-05
-1.05804e-06
-0.00193286
-3.44792e-05
-1.35721e-06
-0.00192933
-5.02371e-05
-2.60205e-06
-0.00192001
-6.60275e-05
-5.01314e-06
-0.00190072
-7.67974e-05
-9.37366e-06
-0.00186208
-1.42661e-05
-0.00180466
-7.01021e-05
2.88264e-05
-5.50574e-06
-0.00218444
1.85786e-05
-3.79632e-06
-0.00219543
7.3712e-06
-2.35252e-06
-0.00220303
-5.11504e-06
-1.29151e-06
-0.00220772
-1.9244e-05
-7.64097e-07
-0.00220919
-3.54796e-05
-8.87674e-07
-0.00220667
-5.41684e-05
-2.02961e-06
-0.00219727
-7.45546e-05
-4.478e-06
-0.00217565
-9.21788e-05
-9.31032e-06
-0.00212849
-1.53389e-05
-0.00205526
-9.09994e-05
3.16113e-05
-5.40329e-06
-0.00245077
2.13449e-05
-3.69268e-06
-0.00246464
9.97396e-06
-2.23349e-06
-0.002475
-2.85531e-06
-1.13857e-06
-0.00248216
-1.76702e-05
-5.18917e-07
-0.00248568
-3.51894e-05
-5.00259e-07
-0.00248472
-5.62862e-05
-1.46257e-06
-0.00247585
-8.09055e-05
-3.78655e-06
-0.00245257
-0.000105952
-8.63519e-06
-0.00239712
-1.56782e-05
-0.00230666
-0.000111642
3.29886e-05
-4.48216e-06
-0.00271587
2.28463e-05
-3.10494e-06
-0.00273294
1.15639e-05
-1.92608e-06
-0.00274605
-1.26664e-06
-1.03657e-06
-0.00275564
-1.62669e-05
-5.18197e-07
-0.00276106
-3.4399e-05
-4.95207e-07
-0.00276159
-5.71175e-05
-1.25749e-06
-0.00275358
-8.51915e-05
-3.24185e-06
-0.0027296
-0.000117628
-7.2245e-06
-0.00266712
-1.49467e-05
-0.00255896
-0.000131256
3.28005e-05
-2.68556e-06
-0.00297713
2.35529e-05
-2.02336e-06
-0.00299688
1.30651e-05
-1.44984e-06
-0.00301294
9.07637e-07
-1.18113e-06
-0.00302558
-1.36513e-05
-1.16211e-06
-0.00303382
-3.17975e-05
-1.46969e-06
-0.0030367
-5.5703e-05
-2.18796e-06
-0.00303034
-8.73522e-05
-3.58747e-06
-0.00300771
-0.00012687
-5.96029e-06
-0.00294105
-1.19007e-05
-0.00281339
-0.000150213
3.13548e-05
-0.00322549
2.23559e-05
-0.00324647
1.22639e-05
-0.00326374
5.47866e-07
-0.0032768
-1.3426e-05
-0.00328446
-3.08568e-05
-0.00328582
-5.4003e-05
-0.00327701
-8.6106e-05
-0.00325135
-0.000129001
-0.00318085
-0.0030385
-0.000163534
7.3778e-06
-5.64113e-07
-0.000818654
3.41373e-06
-3.29923e-07
-0.000820332
-8.7823e-07
-1.85028e-07
-0.000820913
-5.18733e-06
-1.807e-07
-0.000820857
-9.17059e-06
-3.28514e-07
-0.000820247
-1.24072e-05
-6.40572e-07
-0.000819081
-1.43684e-05
-1.11799e-06
-0.000817358
-1.43894e-05
-1.74385e-06
-0.00081507
-1.1714e-05
-2.44645e-06
-0.000812006
-2.93844e-06
-0.000806728
-6.09284e-06
1.03926e-05
-1.67033e-06
-0.00108926
4.72971e-06
-1.23303e-06
-0.00109326
-1.33854e-06
-9.04388e-07
-0.00109499
-7.55323e-06
-8.09099e-07
-0.00109513
-1.35669e-05
-1.0014e-06
-0.00109399
-1.8874e-05
-1.51537e-06
-0.00109149
-2.26633e-05
-2.38055e-06
-0.00108721
-2.36734e-05
-3.57872e-06
-0.00108017
-2.01501e-05
-4.99031e-06
-0.00106862
-5.93037e-06
-0.00105195
-1.155e-05
1.48891e-05
-2.91096e-06
-0.00136149
7.65214e-06
-2.23106e-06
-0.0013671
-1.16391e-07
-1.66609e-06
-0.00136982
-8.22902e-06
-1.40078e-06
-0.0013703
-1.63887e-05
-1.53516e-06
-0.00136886
-2.40892e-05
-2.13677e-06
-0.00136529
-3.03533e-05
-3.29819e-06
-0.00135878
-3.34488e-05
-5.03774e-06
-0.00134781
-3.03605e-05
-7.30984e-06
-0.00133
-9.04724e-06
-0.00130582
-1.90123e-05
1.91665e-05
-4.12764e-06
-0.00163393
1.07247e-05
-3.059e-06
-0.00164073
1.57818e-06
-2.17634e-06
-0.00164429
-8.19555e-06
-1.66662e-06
-0.00164532
-1.8419e-05
-1.65721e-06
-0.00164397
-2.87205e-05
-2.24055e-06
-0.00163987
-3.81287e-05
-3.59447e-06
-0.0016318
-4.45409e-05
-5.80518e-06
-0.00161771
-4.34117e-05
-9.05062e-06
-0.00159372
-1.19339e-05
-0.00156117
-3.02401e-05
2.32547e-05
-5.07231e-06
-0.00190645
1.40112e-05
-3.64956e-06
-0.0019148
3.90712e-06
-2.46668e-06
-0.00191972
-7.11552e-06
-1.70057e-06
-0.00192183
-1.90497e-05
-1.49407e-06
-0.00192109
-3.17392e-05
-1.96296e-06
-0.00191692
-4.43761e-05
-3.37788e-06
-0.00190759
-5.46918e-05
-5.9088e-06
-0.0018903
-5.68307e-05
-1.0054e-05
-0.00185894
-1.42172e-05
-0.00181586
-4.33554e-05
2.69377e-05
-5.5586e-06
-0.00217495
1.71358e-05
-3.85982e-06
-0.00218542
6.32623e-06
-2.46397e-06
-0.00219223
-5.66554e-06
-1.49455e-06
-0.00219594
-1.89922e-05
-1.10737e-06
-0.00219625
-3.37522e-05
-1.42555e-06
-0.00219245
-4.94412e-05
-2.79067e-06
-0.00218217
-6.38547e-05
-5.4593e-06
-0.00216169
-7.03499e-05
-1.02432e-05
-0.00212181
-1.56449e-05
-0.00206594
-5.82601e-05
2.98746e-05
-5.38495e-06
-0.00244174
1.98777e-05
-3.67122e-06
-0.00245483
8.73812e-06
-2.24858e-06
-0.00246408
-3.7869e-06
-1.23296e-06
-0.0024699
-1.80276e-05
-7.44547e-07
-0.0024718
-3.43503e-05
-9.15876e-07
-0.0024689
-5.26748e-05
-2.11642e-06
-0.0024582
-7.10723e-05
-4.71457e-06
-0.00243492
-8.2729e-05
-9.70347e-06
-0.002386
-1.62696e-05
-0.00231532
-7.3447e-05
3.14291e-05
-4.44044e-06
-0.00270763
2.14395e-05
-3.03451e-06
-0.00272359
1.02749e-05
-1.86242e-06
-0.00273528
-2.39222e-06
-1.00816e-06
-0.00274319
-1.70031e-05
-5.68366e-07
-0.00274663
-3.41823e-05
-6.72339e-07
-0.00274466
-5.43996e-05
-1.62611e-06
-0.00273385
-7.62759e-05
-3.88733e-06
-0.00270855
-9.35608e-05
-8.18615e-06
-0.00265135
-1.56062e-05
-0.00256473
-8.84643e-05
3.14438e-05
-2.62141e-06
-0.00297046
2.21827e-05
-1.93615e-06
-0.00298872
1.16613e-05
-1.32008e-06
-0.00300296
-4.68702e-07
-1.00485e-06
-0.00301346
-1.47704e-05
-9.45686e-07
-0.00301914
-3.20551e-05
-1.23316e-06
-0.00301885
-5.33935e-05
-1.98477e-06
-0.00300864
-7.87244e-05
-3.51433e-06
-0.00298275
-0.000102031
-6.17264e-06
-0.00291976
-1.20792e-05
-0.00281552
-0.000103427
3.02016e-05
-0.0032201
2.12323e-05
-0.00323944
1.11492e-05
-0.00325498
-5.21957e-07
-0.00326613
-1.42784e-05
-0.00327165
-3.09934e-05
-0.00327034
-5.18547e-05
-0.00325814
-7.78214e-05
-0.0032289
-0.000104147
-0.0031607
-0.00304139
-0.000113341
5.1013e-06
-7.46336e-07
-0.000815676
2.35632e-06
-5.49821e-07
-0.000817037
-6.66999e-07
-4.22469e-07
-0.000817467
-3.67459e-06
-4.23006e-07
-0.000817426
-6.35701e-06
-5.59027e-07
-0.000817005
-8.37154e-06
-8.36176e-07
-0.00081623
-9.35139e-06
-1.24446e-06
-0.000815133
-8.92721e-06
-1.7553e-06
-0.000813739
-6.81118e-06
-2.28213e-06
-0.000811841
-2.59243e-06
-0.000807801
-3.14896e-06
7.80552e-06
-1.95241e-06
-0.00108436
3.48183e-06
-1.57001e-06
-0.00108792
-1.22374e-06
-1.27455e-06
-0.00108943
-6.00029e-06
-1.20026e-06
-0.00108957
-1.04661e-05
-1.39572e-06
-0.00108868
-1.41344e-05
-1.88315e-06
-0.00108678
-1.63488e-05
-2.66713e-06
-0.00108357
-1.62797e-05
-3.6977e-06
-0.00107829
-1.30326e-05
-4.79955e-06
-0.00106935
-5.36484e-06
-0.0010554
-6.82061e-06
1.23045e-05
-3.17243e-06
-0.00135507
6.33176e-06
-2.55097e-06
-0.00136015
-1.74765e-07
-2.03515e-06
-0.00136255
-6.91388e-06
-1.82001e-06
-0.00136294
-1.34934e-05
-1.99736e-06
-0.00136168
-1.93461e-05
-2.6193e-06
-0.00135871
-2.35523e-05
-3.73813e-06
-0.0013535
-2.47439e-05
-5.32107e-06
-0.001345
-2.10306e-05
-7.19822e-06
-0.00133132
-8.36589e-06
-0.00131188
-1.19824e-05
1.66063e-05
-4.32357e-06
-0.0016264
9.27346e-06
-3.30495e-06
-0.00163264
1.21266e-06
-2.48221e-06
-0.00163578
-7.33657e-06
-2.05069e-06
-0.00163654
-1.60368e-05
-2.12831e-06
-0.00163514
-2.43494e-05
-2.79252e-06
-0.00163138
-3.11978e-05
-4.16919e-06
-0.00162452
-3.46879e-05
-6.27854e-06
-0.00161326
-3.14907e-05
-9.09452e-06
-0.00159503
-1.12611e-05
-0.00156997
-1.98085e-05
2.07879e-05
-5.18523e-06
-0.00189823
1.24449e-05
-3.80547e-06
-0.00190595
3.21147e-06
-2.68908e-06
-0.00191028
-6.78909e-06
-2.0219e-06
-0.00191186
-1.73413e-05
-1.94043e-06
-0.00191073
-2.8028e-05
-2.55098e-06
-0.00190647
-3.77541e-05
-4.06793e-06
-0.00189796
-4.42273e-05
-6.58781e-06
-0.00188352
-4.2562e-05
-1.03349e-05
-0.00185936
-1.37125e-05
-0.00182697
-2.90107e-05
2.46011e-05
-5.57552e-06
-0.00216651
1.54966e-05
-3.91096e-06
-0.00217621
5.3512e-06
-2.5817e-06
-0.00218219
-5.83238e-06
-1.71756e-06
-0.00218506
-1.79723e-05
-1.47393e-06
-0.00218458
-3.08377e-05
-1.97215e-06
-0.00218016
-4.34577e-05
-3.50487e-06
-0.00217011
-5.33228e-05
-6.25944e-06
-0.00215215
-5.4167e-05
-1.07394e-05
-0.00212056
-1.53612e-05
-0.00207862
-3.98476e-05
2.7656e-05
-5.32239e-06
-0.00243355
1.81759e-05
-3.62633e-06
-0.00244564
7.52544e-06
-2.25911e-06
-0.00245375
-4.38111e-06
-1.33851e-06
-0.00245837
-1.7633e-05
-9.90283e-07
-0.00245903
-3.22298e-05
-1.34921e-06
-0.00245493
-4.74669e-05
-2.75165e-06
-0.00244371
-6.0813e-05
-5.50271e-06
-0.00242233
-6.49614e-05
-1.03213e-05
-0.00238227
-1.61427e-05
-0.00232857
-5.09384e-05
2.93854e-05
-4.36154e-06
-0.00270002
1.97787e-05
-2.94283e-06
-0.00271466
8.96954e-06
-1.79751e-06
-0.00272493
-3.23891e-06
-9.97687e-07
-0.00273133
-1.70562e-05
-6.53155e-07
-0.00273315
-3.27166e-05
-8.93535e-07
-0.00272945
-4.99352e-05
-2.01781e-06
-0.00271737
-6.64763e-05
-4.45099e-06
-0.00269307
-7.46089e-05
-8.76144e-06
-0.00264478
-1.54863e-05
-0.00257784
-6.21581e-05
2.96152e-05
-2.53604e-06
-0.00296412
2.05615e-05
-1.838e-06
-0.00298077
1.02319e-05
-1.19769e-06
-0.00299323
-1.59426e-06
-8.59564e-07
-0.00300177
-1.52698e-05
-7.87955e-07
-0.00300533
-3.1202e-05
-1.08338e-06
-0.00300273
-4.95192e-05
-1.88268e-06
-0.00299046
-6.89999e-05
-3.49211e-06
-0.00296423
-8.17231e-05
-6.22773e-06
-0.00290957
-1.1595e-05
-0.00282804
-7.31063e-05
2.85931e-05
-0.00321497
1.98358e-05
-0.00323252
9.94856e-06
-0.00324629
-1.44075e-06
-0.0032556
-1.46513e-05
-0.00325923
-3.01928e-05
-0.00325588
-4.83597e-05
-0.00324185
-6.85957e-05
-0.00321216
-8.37207e-05
-0.0031518
-0.00305721
-7.95011e-05
3.41331e-06
-8.90278e-07
-0.000813345
1.5766e-06
-7.38173e-07
-0.000814462
-4.78763e-07
-6.31396e-07
-0.000814781
-2.51116e-06
-6.34251e-07
-0.00081476
-4.27491e-06
-7.51189e-07
-0.00081449
-5.5171e-06
-9.8366e-07
-0.000814004
-6.00007e-06
-1.316e-06
-0.000813334
-5.52838e-06
-1.7169e-06
-0.000812494
-4.01898e-06
-2.10225e-06
-0.000811248
-2.28162e-06
-0.000807852
-1.68726e-06
5.58924e-06
-2.17624e-06
-0.00108046
2.41431e-06
-1.86334e-06
-0.00108362
-1.09201e-06
-1.60729e-06
-0.00108495
-4.63129e-06
-1.54892e-06
-0.00108512
-7.84973e-06
-1.73135e-06
-0.00108449
-1.03362e-05
-2.16665e-06
-0.00108311
-1.16056e-05
-2.84216e-06
-0.00108078
-1.11432e-05
-3.69289e-06
-0.00107678
-8.54823e-06
-4.52981e-06
-0.00106952
-4.82191e-06
-0.00105716
-4.24874e-06
9.85476e-06
-3.37513e-06
-0.00134989
5.09374e-06
-2.83312e-06
-0.00135442
-1.69615e-07
-2.37513e-06
-0.00135652
-5.58495e-06
-2.20312e-06
-0.00135687
-1.07304e-05
-2.39945e-06
-0.00135587
-1.50637e-05
-2.9998e-06
-0.00135354
-1.78315e-05
-4.02192e-06
-0.00134955
-1.80769e-05
-5.39917e-06
-0.00134304
-1.47423e-05
-6.90311e-06
-0.00133228
-7.63475e-06
-0.0013158
-8.01339e-06
1.39832e-05
-4.46346e-06
-0.00162021
7.82499e-06
-3.52041e-06
-0.00162579
9.48937e-07
-2.76939e-06
-0.00162851
-6.29413e-06
-2.41122e-06
-0.00162909
-1.34686e-05
-2.55081e-06
-0.00162782
-1.99745e-05
-3.24652e-06
-0.00162463
-2.48294e-05
-4.57293e-06
-0.00161911
-2.65723e-05
-6.49588e-06
-0.00161042
-2.3063e-05
-8.85979e-06
-0.00159658
-1.04276e-05
-0.00157647
-1.37782e-05
1.81118e-05
-5.24497e-06
-0.00189129
1.08147e-05
-3.93697e-06
-0.00189824
2.62669e-06
-2.9026e-06
-0.00190196
-6.17723e-06
-2.33464e-06
-0.00190313
-1.5222e-05
-2.35777e-06
-0.00190187
-2.39321e-05
-3.06162e-06
-0.00189795
-3.11801e-05
-4.59807e-06
-0.00189069
-3.50438e-05
-6.99258e-06
-0.00187915
-3.20441e-05
-1.02581e-05
-0.00186097
-1.2913e-05
-0.00183603
-2.05127e-05
2.19514e-05
-5.54352e-06
-0.00215925
1.37346e-05
-3.94239e-06
-0.00216799
4.46989e-06
-2.69827e-06
-0.00217313
-5.67107e-06
-1.94611e-06
-0.0021753
-1.64029e-05
-1.83402e-06
-0.00217437
-2.7249e-05
-2.47221e-06
-0.00216991
-3.70505e-05
-4.09071e-06
-0.00216082
-4.35323e-05
-6.79847e-06
-0.00214586
-4.18131e-05
-1.0824e-05
-0.00212172
-1.46514e-05
-0.00209003
-2.86693e-05
2.50558e-05
-5.21246e-06
-0.00242637
1.6305e-05
-3.56069e-06
-0.00243727
6.37696e-06
-2.26801e-06
-0.00244425
-4.64616e-06
-1.45281e-06
-0.00244784
-1.6624e-05
-1.24015e-06
-0.00244765
-2.92448e-05
-1.75832e-06
-0.00244302
-4.14503e-05
-3.2922e-06
-0.00243231
-5.07632e-05
-6.06074e-06
-0.00241376
-5.09883e-05
-1.04983e-05
-0.00238237
-1.54584e-05
-0.00234185
-3.68998e-05
2.69306e-05
-4.24876e-06
-0.0026932
1.7919e-05
-2.83887e-06
-0.00270637
7.69565e-06
-1.74055e-06
-0.00271523
-3.78398e-06
-1.01087e-06
-0.00272029
-1.64952e-05
-7.68622e-07
-0.00272091
-3.03159e-05
-1.13623e-06
-0.00271625
-4.44429e-05
-2.38277e-06
-0.00270415
-5.64696e-05
-4.85681e-06
-0.00268224
-5.93462e-05
-8.92599e-06
-0.00264348
-1.47238e-05
-0.0025926
-4.53263e-05
2.73628e-05
-2.43419e-06
-0.00295834
1.87319e-05
-1.73702e-06
-0.00297324
8.82303e-06
-1.09112e-06
-0.00298397
-2.43199e-06
-7.51471e-07
-0.00299077
-1.51664e-05
-6.88962e-07
-0.00299267
-2.94191e-05
-1.00811e-06
-0.00298861
-4.46467e-05
-1.84996e-06
-0.00297577
-5.90183e-05
-3.4728e-06
-0.00295124
-6.50486e-05
-6.11066e-06
-0.00290635
-1.06695e-05
-0.00284426
-5.28801e-05
2.6567e-05
-0.00321026
1.82051e-05
-0.00322589
8.71026e-06
-0.00323788
-2.16026e-06
-0.00324548
-1.45314e-05
-0.00324755
-2.85651e-05
-0.00324286
-4.39032e-05
-0.00322836
-5.91075e-05
-0.00320043
-6.69899e-05
-0.00315003
-0.00307807
-5.68014e-05
2.23373e-06
-9.89983e-07
-0.000811437
1.03402e-06
-8.82128e-07
-0.00081238
-3.29531e-07
-7.95947e-07
-0.000812621
-1.67328e-06
-7.9941e-07
-0.000812616
-2.81605e-06
-8.94672e-07
-0.000812453
-3.58001e-06
-1.08126e-06
-0.000812159
-3.814e-06
-1.34218e-06
-0.000811758
-3.41311e-06
-1.64846e-06
-0.000811246
-2.36711e-06
-1.92526e-06
-0.000810369
-2.01177e-06
-0.000807347
-8.60359e-07
3.80906e-06
-2.32455e-06
-0.00107732
1.55312e-06
-2.08656e-06
-0.00108016
-9.72429e-07
-1.87209e-06
-0.00108135
-3.51604e-06
-1.82501e-06
-0.00108155
-5.78182e-06
-1.98366e-06
-0.00108113
-7.44819e-06
-2.35305e-06
-0.00108017
-8.17194e-06
-2.91113e-06
-0.00107848
-7.63488e-06
-3.58961e-06
-0.00107538
-5.663e-06
-4.20789e-06
-0.00106921
-4.30032e-06
-0.00105785
-2.68393e-06
7.69274e-06
-3.49416e-06
-0.00134575
4.00431e-06
-3.04531e-06
-0.00134977
-1.30048e-07
-2.65053e-06
-0.00135161
-4.36456e-06
-2.51391e-06
-0.00135195
-8.29943e-06
-2.70823e-06
-0.00135121
-1.14632e-05
-3.25482e-06
-0.00134947
-1.32767e-05
-4.14654e-06
-0.0013465
-1.30962e-05
-5.2993e-06
-0.00134151
-1.03546e-05
-6.47022e-06
-0.00133276
-6.86887e-06
-0.00131817
-5.41653e-06
1.14768e-05
-4.5202e-06
-0.00161522
6.45837e-06
-3.67493e-06
-0.00162014
7.63969e-07
-3.00517e-06
-0.00162246
-5.20217e-06
-2.71276e-06
-0.00162292
-1.09712e-05
-2.88762e-06
-0.00162187
-1.596e-05
-3.56837e-06
-0.00161933
-1.93504e-05
-4.78634e-06
-0.00161508
-2.00911e-05
-6.47003e-06
-0.00160851
-1.68918e-05
-8.39962e-06
-0.00159785
-9.48453e-06
-0.001581
-9.74598e-06
1.53994e-05
-5.22799e-06
-0.0018856
9.20173e-06
-4.02072e-06
-0.00189169
2.14643e-06
-3.08237e-06
-0.00189482
-5.39012e-06
-2.60915e-06
-0.0018957
-1.29402e-05
-2.70991e-06
-0.0018945
-1.98683e-05
-3.45311e-06
-0.00189113
-2.51494e-05
-4.93125e-06
-0.00188526
-2.73069e-05
-7.11196e-06
-0.00187636
-2.40784e-05
-9.87212e-06
-0.00186273
-1.19036e-05
-0.00184289
-1.48005e-05
1.91408e-05
-5.44606e-06
-0.00215319
1.1929e-05
-3.94034e-06
-0.00216086
3.69516e-06
-2.79884e-06
-0.00216518
-5.25472e-06
-2.15948e-06
-0.0021668
-1.44921e-05
-2.15701e-06
-0.00216569
-2.33988e-05
-2.88293e-06
-0.00216157
-3.08147e-05
-4.50028e-06
-0.00215383
-3.48762e-05
-7.04461e-06
-0.00214187
-3.21832e-05
-1.05388e-05
-0.00212375
-1.36263e-05
-0.00209937
-2.11241e-05
2.22008e-05
-5.04758e-06
-0.00242029
1.43389e-05
-3.47104e-06
-0.00242988
5.32206e-06
-2.27158e-06
-0.00243576
-4.61724e-06
-1.56686e-06
-0.0024385
-1.51559e-05
-1.475e-06
-0.00243779
-2.57671e-05
-2.109e-06
-0.00243319
-3.52586e-05
-3.69125e-06
-0.00242363
-4.14746e-05
-6.34917e-06
-0.00240824
-3.98027e-05
-1.0277e-05
-0.00238431
-1.43624e-05
-0.00235359
-2.73424e-05
2.41676e-05
-4.10155e-06
-0.00268729
1.59275e-05
-2.72693e-06
-0.00269888