/*--------------------------------*- C++ -*----------------------------------*\
| =========                 |                                                 |
| \\      /  F ield         | foam-extend: Open Source CFD                    |
|  \\    /   O peration     | Version:     4.0                                |
|   \\  /    A nd           | Web:         http://www.foam-extend.org         |
|    \\/     M anipulation  |                                                 |
\*---------------------------------------------------------------------------*/
FoamFile
{
    version     2.0;
    format      ascii;
    class       volScalarField;
    location    "350";
    object      T;
}
// * * * * * * * * * * * * * * * * * * * * * * * * * * * * * * * * * * * * * //

dimensions      [0 0 0 1 0 0 0];

internalField   nonuniform List<scalar> 
34480
(
281.318
281.164
281.047
280.95
280.869
280.801
280.747
280.767
281.034
281.126
281.054
280.842
280.69
280.577
280.5
280.458
280.446
280.5
280.852
280.601
281.139
280.903
280.727
280.598
280.508
280.435
280.355
280.266
280.447
279.718
281.358
281.104
280.893
280.714
280.559
280.397
280.201
279.929
279.872
278.639
281.62
281.336
281.076
280.833
280.601
280.343
280.026
279.568
279.242
277.488
281.988
281.666
281.353
281.047
280.739
280.388
279.955
279.315
278.699
276.402
282.334
281.969
281.6
281.231
280.85
280.41
279.866
279.052
278.125
275.292
282.67
282.271
281.864
281.45
281.02
280.522
279.899
278.945
277.72
274.342
282.935
282.536
282.109
281.651
281.155
280.579
279.854
278.749
277.214
273.357
283.737
283.344
282.946
282.538
282.115
281.637
281.025
280.025
278.409
274.055
281.656
281.53
281.465
281.447
281.477
281.572
281.769
282.152
282.755
283.634
281.316
281.143
281.054
281.025
281.06
281.178
281.424
281.908
282.762
283.878
281.306
281.124
281.022
280.985
281.014
281.121
281.345
281.787
282.64
283.742
281.408
281.224
281.108
281.041
281.031
281.084
281.24
281.596
282.39
283.434
281.548
281.35
281.206
281.098
281.036
281.026
281.109
281.369
282.081
283.042
281.793
281.572
281.395
281.244
281.132
281.058
281.066
281.228
281.836
282.682
282.019
281.768
281.553
281.357
281.194
281.059
280.993
281.055
281.541
282.26
282.259
281.987
281.747
281.522
281.326
281.15
281.028
281.004
281.354
281.908
282.458
282.18
281.919
281.658
281.414
281.183
280.991
280.87
281.072
281.461
283.203
282.945
282.711
282.494
282.31
282.153
282.039
281.971
282.099
282.15
281.998
281.873
281.818
281.813
281.86
281.968
282.156
282.46
282.936
283.623
281.663
281.486
281.403
281.388
281.44
281.574
281.834
282.3
283.103
284.198
281.639
281.448
281.349
281.321
281.364
281.494
281.761
282.254
283.171
284.458
281.704
281.511
281.398
281.343
281.353
281.444
281.67
282.134
283.104
284.541
281.805
281.598
281.46
281.369
281.335
281.374
281.545
281.958
282.949
284.498
282.01
281.783
281.613
281.482
281.403
281.386
281.498
281.848
282.828
284.443
282.197
281.944
281.74
281.567
281.44
281.367
281.415
281.692
282.632
284.285
282.407
282.134
281.906
281.705
281.546
281.434
281.428
281.632
282.504
284.15
282.575
282.298
282.05
281.817
281.618
281.457
281.39
281.506
282.279
283.936
283.291
283.03
282.8
282.598
282.439
282.329
282.311
282.445
283.135
284.663
282.252
282.146
282.103
282.105
282.151
282.246
282.398
282.615
282.918
283.344
281.951
281.786
281.712
281.706
281.764
281.894
282.124
282.504
283.113
283.907
281.928
281.745
281.654
281.636
281.688
281.824
282.082
282.525
283.267
284.239
281.97
281.78
281.676
281.636
281.666
281.78
282.025
282.479
283.314
284.452
282.039
281.836
281.708
281.638
281.633
281.71
281.926
282.37
283.278
284.571
282.207
281.984
281.828
281.722
281.679
281.714
281.892
282.31
283.27
284.694
282.358
282.111
281.924
281.78
281.695
281.683
281.814
282.194
283.18
284.714
282.535
282.271
282.061
281.891
281.777
281.731
281.82
282.151
283.129
284.738
282.676
282.408
282.179
281.98
281.831
281.744
281.788
282.055
282.98
284.674
283.36
283.106
282.889
282.708
282.582
282.526
282.596
282.873
283.738
285.414
282.433
282.347
282.316
282.319
282.356
282.426
282.53
282.667
282.845
283.107
282.18
282.033
281.97
281.967
282.018
282.127
282.308
282.594
283.033
283.613
282.172
282.003
281.922
281.91
281.961
282.085
282.306
282.664
283.224
283.931
282.203
282.024
281.93
281.902
281.941
282.058
282.288
282.679
283.332
284.169
282.251
282.057
281.942
281.889
281.903
282
282.223
282.632
283.376
284.353
282.389
282.176
282.036
281.951
281.935
282.004
282.21
282.623
283.45
284.567
282.509
282.273
282.104
281.987
281.936
281.969
282.147
282.551
283.443
284.695
282.658
282.406
282.216
282.074
281.997
282.002
282.153
282.535
283.461
284.826
282.771
282.515
282.308
282.141
282.034
282.006
282.124
282.471
283.385
284.872
283.422
283.179
282.976
282.819
282.725
282.713
282.845
283.199
284.084
285.619
282.562
282.495
282.473
282.476
282.501
282.548
282.614
282.698
282.804
282.988
282.358
282.233
282.179
282.176
282.217
282.299
282.434
282.642
282.966
283.423
282.37
282.221
282.15
282.141
282.187
282.29
282.465
282.739
283.154
283.692
282.398
282.237
282.154
282.134
282.175
282.283
282.479
282.793
283.282
283.9
282.434
282.256
282.155
282.115
282.14
282.241
282.448
282.794
283.366
284.086
282.55
282.352
282.228
282.163
282.166
282.252
282.459
282.83
283.489
284.325
282.644
282.425
282.275
282.181
282.157
282.22
282.416
282.8
283.538
284.499
282.768
282.533
282.364
282.248
282.203
282.245
282.428
282.812
283.606
284.682
282.856
282.617
282.432
282.294
282.224
282.24
282.403
282.775
283.586
284.786
283.474
283.245
283.061
282.927
282.862
282.886
283.055
283.436
284.243
285.511
282.658
282.606
282.59
282.591
282.608
282.637
282.677
282.727
282.791
282.936
282.498
282.391
282.345
282.342
282.371
282.431
282.526
282.678
282.927
283.314
282.528
282.399
282.339
282.331
282.367
282.448
282.581
282.786
283.098
283.531
282.557
282.415
282.345
282.33
282.367
282.46
282.617
282.858
283.219
283.693
282.586
282.428
282.342
282.312
282.341
282.436
282.613
282.891
283.317
283.854
282.686
282.508
282.401
282.352
282.367
282.457
282.647
282.96
283.464
284.085
282.76
282.561
282.432
282.358
282.354
282.431
282.624
282.964
283.546
284.267
282.864
282.65
282.502
282.41
282.389
282.453
282.644
283
283.645
284.467
282.93
282.711
282.549
282.438
282.397
282.443
282.623
282.983
283.66
284.588
283.514
283.304
283.14
283.03
282.989
283.038
283.223
283.594
284.281
285.271
282.734
282.691
282.68
282.681
282.691
282.708
282.732
282.761
282.803
282.927
282.61
282.518
282.479
282.474
282.493
282.534
282.601
282.714
282.916
283.261
282.654
282.543
282.492
282.485
282.512
282.571
282.669
282.821
283.063
283.431
282.683
282.562
282.503
282.492
282.523
282.596
282.717
282.897
283.166
283.545
282.709
282.573
282.501
282.479
282.507
282.589
282.733
282.948
283.262
283.672
282.797
282.642
282.552
282.515
282.536
282.62
282.784
283.037
283.413
283.878
282.855
282.681
282.571
282.515
282.522
282.602
282.778
283.064
283.508
284.048
282.944
282.755
282.628
282.556
282.552
282.626
282.808
283.118
283.623
284.242
282.99
282.796
282.657
282.569
282.549
282.612
282.791
283.114
283.655
284.354
283.542
283.355
283.212
283.123
283.102
283.165
283.349
283.685
284.244
284.986
282.798
282.762
282.753
282.753
282.759
282.769
282.783
282.8
282.83
282.94
282.702
282.62
282.586
282.58
282.593
282.62
282.667
282.754
282.925
283.243
282.754
282.659
282.616
282.608
282.627
282.669
282.739
282.853
283.049
283.375
282.783
282.68
282.631
282.622
282.646
282.702
282.791
282.923
283.127
283.444
282.807
282.692
282.633
282.617
282.641
282.708
282.82
282.981
283.212
283.536
282.885
282.754
282.68
282.652
282.674
282.748
282.881
283.078
283.355
283.71
282.931
282.781
282.69
282.648
282.662
282.738
282.888
283.118
283.451
283.857
283.008
282.845
282.739
282.685
282.69
282.765
282.927
283.185
283.569
284.034
283.038
282.868
282.752
282.685
282.68
282.748
282.913
283.189
283.607
284.123
283.557
283.395
283.274
283.204
283.197
283.266
283.436
283.726
284.164
284.704
282.854
282.822
282.816
282.816
282.819
282.825
282.833
282.843
282.866
282.967
282.78
282.706
282.675
282.668
282.676
282.694
282.728
282.797
282.948
283.247
282.836
282.753
282.716
282.708
282.72
282.749
282.799
282.886
283.049
283.347
282.86
282.773
282.733
282.725
282.743
282.783
282.848
282.944
283.103
283.378
282.883
282.787
282.74
282.728
282.748
282.8
282.883
283.001
283.172
283.437
282.953
282.844
282.785
282.765
282.785
282.845
282.95
283.098
283.301
283.579
282.988
282.864
282.79
282.759
282.775
282.841
282.964
283.143
283.388
283.697
283.058
282.921
282.835
282.794
282.805
282.874
283.011
283.217
283.503
283.851
283.072
282.929
282.834
282.783
282.787
282.854
282.997
283.222
283.537
283.914
283.561
283.425
283.325
283.271
283.273
283.341
283.489
283.728
284.062
284.445
282.906
282.877
282.872
282.872
282.873
282.877
282.882
282.888
282.906
282.999
282.848
282.779
282.75
282.743
282.747
282.759
282.784
282.842
282.977
283.261
282.904
282.83
282.797
282.79
282.797
282.817
282.852
282.92
283.06
283.336
282.921
282.846
282.814
282.807
282.819
282.848
282.893
282.963
283.09
283.335
282.942
282.863
282.826
282.817
282.832
282.87
282.931
283.015
283.144
283.368
283.004
282.916
282.87
282.855
282.872
282.919
282.998
283.107
283.255
283.478
283.031
282.929
282.871
282.849
282.864
282.918
283.014
283.149
283.327
283.567
283.095
282.983
282.915
282.885
282.898
282.958
283.068
283.227
283.436
283.698
283.096
282.979
282.903
282.865
282.874
282.934
283.052
283.229
283.461
283.733
283.555
283.444
283.363
283.323
283.33
283.392
283.516
283.705
283.952
284.218
282.954
282.928
282.923
282.923
282.924
282.926
282.929
282.933
282.948
283.033
282.907
282.841
282.815
282.807
282.809
282.818
282.837
282.886
283.01
283.28
282.962
282.894
282.866
282.858
282.863
282.876
282.901
282.955
283.077
283.335
282.968
282.905
282.878
282.872
282.88
282.9
282.931
282.982
283.085
283.308
282.988
282.924
282.895
282.888
282.899
282.926
282.969
283.029
283.126
283.321
283.043
282.972
282.937
282.927
282.94
282.975
283.033
283.11
283.219
283.403
283.061
282.98
282.935
282.919
282.932
282.975
283.048
283.146
283.275
283.464
283.123
283.034
282.981
282.96
282.973
283.022
283.107
283.225
283.376
283.575
283.11
283.017
282.958
282.931
282.941
282.992
283.086
283.22
283.387
283.583
283.54
283.453
283.39
283.361
283.37
283.423
283.522
283.667
283.845
284.026
283
282.975
282.972
282.971
282.972
282.973
282.975
282.978
282.99
283.066
282.96
282.897
282.871
282.864
282.865
282.871
282.886
282.928
283.041
283.299
283.013
282.95
282.925
282.918
282.921
282.929
282.948
282.99
283.098
283.34
283.007
282.952
282.93
282.925
282.93
282.943
282.964
283.002
283.087
283.292
283.025
282.973
282.951
282.945
282.953
282.972
283.001
283.043
283.118
283.29
283.073
283.017
282.991
282.983
282.993
283.019
283.059
283.113
283.193
283.349
283.082
283.019
282.986
282.974
282.985
283.017
283.07
283.14
283.232
283.384
283.144
283.076
283.036
283.022
283.033
283.07
283.134
283.219
283.326
283.479
283.118
283.046
283.001
282.982
282.992
283.033
283.104
283.202
283.32
283.462
283.52
283.454
283.406
283.385
283.395
283.438
283.514
283.621
283.746
283.867
283.044
283.021
283.019
283.018
283.019
283.019
283.021
283.023
283.033
283.1
283.006
282.945
282.922
282.915
282.915
282.919
282.932
282.968
283.071
283.314
283.058
283.001
282.978
282.972
282.973
282.979
282.992
283.026
283.12
283.347
283.039
282.991
282.973
282.969
282.972
282.98
282.995
283.022
283.093
283.281
283.057
283.014
282.997
282.994
282.999
283.011
283.03
283.059
283.117
283.271
283.097
283.054
283.034
283.029
283.036
283.054
283.082
283.119
283.176
283.31
283.098
283.05
283.026
283.018
283.026
283.049
283.086
283.134
283.199
283.324
283.163
283.111
283.083
283.072
283.081
283.109
283.155
283.215
283.289
283.408
283.122
283.067
283.035
283.021
283.03
283.061
283.114
283.183
283.264
283.368
283.497
283.449
283.414
283.399
283.408
283.441
283.498
283.573
283.66
283.738
283.088
283.067
283.065
283.065
283.065
283.065
283.066
283.068
283.075
283.133
283.046
282.989
282.967
282.961
282.961
282.964
282.973
283.004
283.096
283.325
283.1
283.048
283.029
283.024
283.024
283.027
283.037
283.064
283.144
283.355
283.067
283.025
283.011
283.008
283.009
283.014
283.024
283.044
283.102
283.274
283.086
283.051
283.039
283.036
283.039
283.047
283.059
283.079
283.123
283.26
283.118
283.085
283.071
283.068
283.072
283.084
283.103
283.127
283.169
283.284
283.112
283.076
283.059
283.053
283.059
283.075
283.1
283.133
283.177
283.28
283.181
283.144
283.123
283.116
283.123
283.143
283.175
283.216
283.266
283.359
283.123
283.083
283.06
283.051
283.058
283.08
283.118
283.165
283.22
283.295
283.475
283.441
283.415
283.406
283.413
283.437
283.477
283.53
283.588
283.638
283.135
283.115
283.114
283.114
283.114
283.114
283.114
283.116
283.121
283.168
283.08
283.027
283.008
283.003
283.003
283.005
283.012
283.037
283.117
283.33
283.14
283.095
283.079
283.075
283.075
283.077
283.083
283.104
283.171
283.362
283.093
283.058
283.047
283.044
283.045
283.048
283.054
283.068
283.115
283.268
283.113
283.086
283.077
283.075
283.077
283.082
283.089
283.102
283.135
283.255
283.139
283.113
283.104
283.101
283.104
283.112
283.124
283.14
283.169
283.266
283.125
283.099
283.088
283.084
283.088
283.099
283.115
283.136
283.167
283.249
283.201
283.175
283.161
283.156
283.161
283.175
283.197
283.223
283.257
283.328
283.123
283.095
283.079
283.073
283.078
283.094
283.119
283.151
283.187
283.241
283.455
283.432
283.415
283.408
283.413
283.431
283.459
283.494
283.532
283.563
283.188
283.172
283.171
283.171
283.171
283.171
283.172
283.172
283.176
283.212
283.108
283.062
283.047
283.043
283.042
283.044
283.049
283.068
283.133
283.325
283.182
283.144
283.132
283.129
283.128
283.13
283.134
283.148
283.2
283.368
283.119
283.091
283.083
283.082
283.082
283.084
283.088
283.097
283.131
283.263
283.141
283.12
283.114
283.113
283.114
283.117
283.122
283.13
283.153
283.253
283.159
283.141
283.134
283.132
283.134
283.139
283.147
283.157
283.177
283.256
283.141
283.123
283.115
283.113
283.115
283.122
283.133
283.146
283.166
283.23
283.224
283.205
283.196
283.193
283.196
283.205
283.22
283.237
283.26
283.313
283.122
283.102
283.091
283.087
283.09
283.101
283.118
283.139
283.163
283.202
283.445
283.43
283.418
283.414
283.417
283.429
283.448
283.471
283.497
283.515
283.278
283.253
283.252
283.252
283.252
283.252
283.252
283.252
283.254
283.279
283.131
283.093
283.082
283.079
283.079
283.079
283.083
283.096
283.145
283.309
283.226
283.196
283.187
283.185
283.185
283.186
283.188
283.198
283.235
283.373
283.15
283.129
283.124
283.123
283.123
283.124
283.127
283.133
283.156
283.26
283.172
283.156
283.152
283.151
283.151
283.154
283.157
283.163
283.179
283.256
283.181
283.167
283.162
283.161
283.162
283.166
283.172
283.179
283.193
283.252
283.16
283.147
283.142
283.14
283.142
283.147
283.154
283.163
283.176
283.222
283.245
283.231
283.224
283.222
283.224
283.231
283.241
283.253
283.27
283.307
283.115
283.101
283.094
283.091
283.093
283.101
283.112
283.127
283.142
283.169
283.456
283.446
283.437
283.434
283.437
283.445
283.458
283.474
283.492
283.502
283.387
283.376
283.375
283.375
283.375
283.375
283.376
283.376
283.377
283.392
283.143
283.116
283.109
283.107
283.107
283.108
283.111
283.119
283.151
283.275
283.271
283.249
283.242
283.24
283.24
283.242
283.245
283.253
283.277
283.377
283.191
283.176
283.172
283.171
283.172
283.173
283.177
283.182
283.197
283.268
283.208
283.196
283.192
283.191
283.192
283.194
283.198
283.205
283.217
283.269
283.208
283.197
283.193
283.192
283.193
283.196
283.201
283.209
283.22
283.259
283.184
283.175
283.171
283.169
283.17
283.175
283.181
283.189
283.199
283.228
283.256
283.245
283.239
283.236
283.238
283.243
283.252
283.262
283.276
283.302
283.097
283.087
283.082
283.08
283.081
283.087
283.096
283.106
283.117
283.135
283.506
283.498
283.491
283.489
283.491
283.497
283.507
283.518
283.532
283.54
283.535
283.537
283.535
283.534
283.534
283.535
283.537
283.539
283.542
283.55
283.147
283.131
283.127
283.126
283.126
283.128
283.132
283.139
283.155
283.226
283.317
283.301
283.294
283.291
283.291
283.294
283.3
283.31
283.328
283.386
283.247
283.236
283.231
283.229
283.23
283.233
283.238
283.247
283.26
283.299
283.256
283.246
283.24
283.238
283.239
283.242
283.248
283.257
283.271
283.302
283.247
283.237
283.232
283.23
283.231
283.235
283.241
283.251
283.264
283.289
283.221
283.213
283.208
283.206
283.208
283.212
283.218
283.227
283.239
283.258
283.259
283.249
283.243
283.241
283.242
283.247
283.254
283.265
283.28
283.301
283.07
283.063
283.058
283.056
283.058
283.063
283.07
283.079
283.089
283.1
283.592
283.584
283.578
283.576
283.578
283.583
283.591
283.601
283.613
283.622
291.47
293.109
293.482
292.179
292.83
294.881
295.437
294.104
294.092
296.613
297.292
295.727
294.915
297.866
298.685
297.103
295.42
298.77
299.761
298.383
295.808
299.534
300.711
299.581
296.073
300.155
301.527
300.654
296.32
300.725
302.296
301.709
296.366
301.08
302.869
302.618
296.801
301.727
303.787
304.007
287.964
288.475
288.478
288.009
289.407
290.053
290.075
289.541
290.788
291.576
291.564
290.861
291.946
292.873
292.841
291.98
292.874
293.951
293.943
292.953
293.677
294.903
294.937
293.834
294.294
295.663
295.743
294.535
294.818
296.306
296.432
295.134
295.094
296.665
296.842
295.484
295.672
297.252
297.523
296.214
284.443
284.601
284.642
284.566
285.611
285.875
285.954
285.849
286.625
287.004
287.098
286.909
287.611
288.103
288.203
287.908
288.536
289.145
289.251
288.85
289.462
290.188
290.303
289.8
290.262
291.104
291.231
290.631
291.011
291.954
292.092
291.411
291.58
292.577
292.726
292.006
292.56
293.513
293.695
293.061
283.724
283.824
283.851
283.808
284.531
284.672
284.731
284.712
285.17
285.37
285.45
285.416
285.824
286.093
286.187
286.119
286.485
286.832
286.938
286.827
287.218
287.647
287.765
287.603
287.891
288.404
288.532
288.312
288.569
289.159
289.294
289.013
289.154
289.782
289.918
289.596
290.224
290.796
290.949
290.674
283.328
283.404
283.421
283.382
283.98
284.07
284.11
284.098
284.408
284.523
284.579
284.574
284.834
284.985
285.056
285.05
285.283
285.482
285.57
285.556
285.832
286.087
286.192
286.163
286.35
286.666
286.787
286.736
286.903
287.277
287.408
287.328
287.396
287.802
287.933
287.826
288.387
288.732
288.875
288.806
283.177
283.247
283.261
283.219
283.727
283.804
283.834
283.817
284.036
284.123
284.162
284.153
284.315
284.416
284.465
284.463
284.618
284.743
284.807
284.81
285.026
285.184
285.264
285.272
285.414
285.613
285.711
285.718
285.846
286.086
286.197
286.197
286.232
286.494
286.609
286.593
287.107
287.309
287.434
287.458
283.114
283.183
283.196
283.151
283.596
283.667
283.692
283.67
283.823
283.898
283.928
283.913
284.004
284.082
284.117
284.109
284.211
284.298
284.342
284.343
284.52
284.624
284.681
284.693
284.815
284.943
285.015
285.035
285.154
285.309
285.395
285.417
285.442
285.613
285.702
285.717
286.208
286.317
286.415
286.474
283.101
283.171
283.182
283.136
283.537
283.606
283.629
283.604
283.705
283.774
283.799
283.779
283.812
283.879
283.906
283.892
283.948
284.016
284.047
284.042
284.184
284.259
284.3
284.305
284.41
284.498
284.549
284.565
284.679
284.783
284.845
284.867
284.887
285.001
285.066
285.085
285.56
285.611
285.681
285.749
283.113
283.184
283.195
283.147
283.517
283.585
283.607
283.58
283.64
283.706
283.729
283.706
283.691
283.753
283.775
283.756
283.772
283.83
283.854
283.844
283.951
284.01
284.039
284.038
284.121
284.186
284.222
284.231
284.336
284.41
284.454
284.469
284.481
284.561
284.607
284.621
285.076
285.089
285.138
285.203
283.138
283.209
283.22
283.171
283.518
283.586
283.606
283.578
283.607
283.672
283.693
283.668
283.615
283.674
283.693
283.672
283.654
283.708
283.727
283.712
283.786
283.837
283.859
283.852
283.91
283.962
283.988
283.99
284.081
284.137
284.168
284.175
284.176
284.235
284.267
284.273
284.703
284.692
284.725
284.783
283.168
283.239
283.249
283.2
283.531
283.598
283.617
283.589
283.593
283.657
283.676
283.65
283.567
283.625
283.642
283.619
283.576
283.626
283.643
283.625
283.669
283.716
283.733
283.722
283.754
283.799
283.819
283.814
283.89
283.936
283.958
283.958
283.941
283.988
284.011
284.01
284.407
284.383
284.405
284.456
283.199
283.269
283.279
283.229
283.547
283.613
283.632
283.603
283.59
283.653
283.671
283.644
283.538
283.595
283.611
283.586
283.525
283.574
283.588
283.568
283.588
283.632
283.646
283.631
283.639
283.68
283.696
283.686
283.747
283.787
283.804
283.797
283.76
283.8
283.816
283.808
284.172
284.139
284.153
284.198
283.228
283.298
283.307
283.257
283.564
283.629
283.647
283.618
283.592
283.654
283.672
283.644
283.521
283.576
283.591
283.566
283.493
283.542
283.555
283.533
283.532
283.575
283.587
283.569
283.555
283.595
283.608
283.593
283.642
283.679
283.692
283.68
283.62
283.656
283.667
283.654
283.983
283.946
283.955
283.994
283.254
283.323
283.332
283.282
283.577
283.641
283.659
283.63
283.597
283.658
283.675
283.647
283.51
283.565
283.58
283.553
283.475
283.524
283.536
283.512
283.495
283.538
283.549
283.527
283.495
283.535
283.545
283.525
283.567
283.603
283.613
283.596
283.513
283.546
283.554
283.537
283.832
283.795
283.801
283.835
283.278
283.345
283.353
283.303
283.586
283.649
283.666
283.637
283.603
283.662
283.678
283.65
283.503
283.558
283.572
283.544
283.467
283.516
283.527
283.5
283.471
283.515
283.525
283.5
283.452
283.492
283.5
283.477
283.515
283.552
283.559
283.538
283.431
283.463
283.468
283.449
283.714
283.678
283.682
283.711
283.3
283.364
283.372
283.323
283.587
283.649
283.666
283.637
283.608
283.667
283.681
283.653
283.498
283.552
283.565
283.536
283.463
283.513
283.522
283.493
283.456
283.5
283.508
283.48
283.421
283.461
283.468
283.441
283.482
283.518
283.524
283.499
283.368
283.399
283.403
283.381
283.624
283.592
283.594
283.619
283.327
283.387
283.394
283.348
283.581
283.641
283.657
283.628
283.612
283.67
283.683
283.653
283.492
283.546
283.557
283.525
283.461
283.51
283.519
283.486
283.443
283.487
283.494
283.463
283.397
283.436
283.441
283.412
283.459
283.495
283.499
283.472
283.318
283.347
283.35
283.327
283.563
283.535
283.536
283.557
283.37
283.425
283.43
283.389
283.561
283.62
283.634
283.604
283.613
283.669
283.681
283.649
283.483
283.536
283.545
283.511
283.456
283.504
283.51
283.476
283.429
283.471
283.476
283.444
283.375
283.412
283.416
283.386
283.44
283.474
283.477
283.45
283.271
283.298
283.3
283.278
283.538
283.517
283.517
283.533
283.455
283.5
283.505
283.47
283.517
283.573
283.585
283.552
283.603
283.656
283.666
283.632
283.471
283.519
283.526
283.491
283.446
283.489
283.494
283.46
283.411
283.449
283.453
283.422
283.355
283.387
283.39
283.362
283.414
283.443
283.446
283.422
283.216
283.238
283.24
283.221
283.566
283.552
283.553
283.564
283.586
283.615
283.618
283.597
283.428
283.477
283.484
283.452
283.571
283.617
283.623
283.592
283.453
283.492
283.496
283.466
283.432
283.466
283.469
283.443
283.397
283.426
283.429
283.406
283.344
283.369
283.371
283.351
283.384
283.407
283.41
283.392
283.148
283.164
283.166
283.153
283.644
283.642
283.643
283.646
284.906
283.595
282.95
282.582
282.292
282.055
281.863
281.704
281.566
281.433
285.833
284.484
283.496
282.904
282.438
282.09
281.819
281.598
281.409
281.239
286.419
285.019
283.832
283.165
282.64
282.265
281.972
281.731
281.526
281.346
286.901
285.496
284.119
283.412
282.855
282.478
282.183
281.943
281.741
281.566
287.342
285.928
284.386
283.67
283.096
282.727
282.435
282.199
282.002
281.835
287.866
286.424
284.745
284.04
283.46
283.105
282.817
282.584
282.386
282.216
288.308
286.828
285.03
284.35
283.774
283.442
283.164
282.939
282.744
282.577
288.795
287.271
285.361
284.701
284.124
283.808
283.535
283.312
283.112
282.931
289.123
287.574
285.537
284.896
284.31
284.008
283.741
283.535
283.355
283.188
290.578
289.018
286.874
286.152
285.46
285.065
284.721
284.457
284.235
284.024
286.058
284.815
283.89
283.24
282.794
282.478
282.245
282.065
281.918
281.781
287.132
285.455
284.166
283.326
282.763
282.367
282.074
281.845
281.659
281.5
287.723
285.733
284.251
283.375
282.788
282.381
282.078
281.842
281.65
281.491
288.111
285.887
284.283
283.404
282.814
282.418
282.126
281.902
281.723
281.578
288.352
285.982
284.303
283.448
282.868
282.493
282.217
282.006
281.841
281.708
288.584
286.139
284.418
283.612
283.049
282.701
282.44
282.241
282.081
281.952
288.691
286.22
284.478
283.736
283.199
282.885
282.644
282.458
282.306
282.181
288.792
286.337
284.582
283.91
283.397
283.117
282.891
282.716
282.565
282.433
288.774
286.34
284.568
283.975
283.491
283.253
283.048
282.895
282.763
282.639
289.578
287.234
285.487
284.918
284.395
284.121
283.878
283.699
283.547
283.412
284.292
283.87
283.504
283.196
282.938
282.721
282.539
282.386
282.25
282.119
285.381
284.673
284.02
283.484
283.053
282.71
282.437
282.214
282.024
281.859
286.126
285.169
284.328
283.676
283.167
282.775
282.467
282.219
282.014
281.841
286.731
285.534
284.525
283.788
283.233
282.822
282.507
282.26
282.06
281.896
287.223
285.821
284.673
283.884
283.305
282.89
282.578
282.337
282.144
281.988
287.703
286.141
284.884
284.072
283.484
283.077
282.772
282.537
282.346
282.192
288.049
286.362
285.021
284.209
283.627
283.238
282.946
282.72
282.533
282.382
288.361
286.582
285.174
284.379
283.809
283.442
283.163
282.945
282.759
282.602
288.537
286.67
285.202
284.444
283.896
283.562
283.301
283.101
282.931
282.778
289.389
287.506
286.022
285.277
284.708
284.353
284.07
283.853
283.672
283.516
283.69
283.47
283.278
283.106
282.949
282.808
282.682
282.569
282.463
282.353
284.571
284.195
283.792
283.429
283.119
282.86
282.642
282.455
282.289
282.138
285.194
284.684
284.151
283.684
283.292
282.972
282.707
282.486
282.295
282.129
285.763
285.085
284.414
283.856
283.405
283.047
282.761
282.527
282.331
282.167
286.292
285.442
284.639
284.006
283.51
283.13
282.831
282.592
282.394
282.233
286.857
285.843
284.923
284.235
283.709
283.315
283.01
282.767
282.566
282.402
287.321
286.154
285.13
284.405
283.862
283.468
283.164
282.922
282.72
282.556
287.759
286.452
285.337
284.593
284.044
283.656
283.357
283.117
282.914
282.744
288.069
286.616
285.42
284.677
284.136
283.766
283.478
283.252
283.06
282.892
288.953
287.417
286.186
285.44
284.88
284.496
284.194
283.957
283.76
283.597
283.299
283.163
283.065
282.98
282.898
282.817
282.741
282.667
282.593
282.507
284.015
283.777
283.524
283.292
283.087
282.908
282.751
282.608
282.474
282.346
284.486
284.198
283.873
283.565
283.292
283.055
282.849
282.669
282.506
282.358
284.928
284.559
284.147
283.767
283.437
283.158
282.922
282.721
282.545
282.392
285.377
284.911
284.405
283.955
283.575
283.261
283.002
282.785
282.6
282.443
285.906
285.333
284.732
284.219
283.796
283.455
283.177
282.947
282.751
282.587
286.372
285.685
284.989
284.423
283.967
283.609
283.32
283.082
282.88
282.712
286.833
286.027
285.242
284.636
284.157
283.79
283.496
283.254
283.046
282.871
287.174
286.235
285.369
284.742
284.255
283.892
283.602
283.368
283.168
282.993
288.031
287.01
286.102
285.454
284.948
284.573
284.272
284.031
283.828
283.662
283.134
283.022
282.959
282.912
282.867
282.822
282.777
282.731
282.68
282.613
283.73
283.538
283.352
283.189
283.049
282.926
282.815
282.71
282.606
282.5
284.076
283.871
283.649
283.44
283.252
283.083
282.932
282.792
282.66
282.535
284.389
284.154
283.888
283.634
283.402
283.197
283.016
282.854
282.706
282.571
284.732
284.456
284.136
283.83
283.555
283.314
283.104
282.921
282.758
282.615
285.178
284.849
284.466
284.106
283.787
283.512
283.277
283.073
282.895
282.741
285.591
285.195
284.741
284.329
283.971
283.669
283.413
283.195
283.004
282.843
286.018
285.541
285.016
284.557
284.167
283.846
283.577
283.349
283.149
282.978
286.332
285.758
285.166
284.677
284.27
283.942
283.671
283.444
283.248
283.076
287.131
286.502
285.869
285.352
284.924
284.583
284.302
284.069
283.87
283.709
283.062
282.96
282.913
282.884
282.859
282.834
282.808
282.781
282.745
282.692
283.577
283.405
283.252
283.128
283.027
282.94
282.862
282.786
282.706
282.619
283.831
283.66
283.492
283.343
283.21
283.092
282.983
282.879
282.775
282.671
284.04
283.865
283.68
283.506
283.347
283.202
283.069
282.944
282.825
282.71
284.287
284.103
283.893
283.687
283.495
283.319
283.158
283.011
282.875
282.75
284.647
284.444
284.199
283.954
283.724
283.515
283.326
283.156
283
282.862
284.989
284.755
284.464
284.177
283.909
283.669
283.455
283.266
283.095
282.947
285.357
285.077
284.736
284.406
284.106
283.841
283.609
283.405
283.222
283.063
285.615
285.276
284.89
284.53
284.208
283.931
283.691
283.484
283.301
283.139
286.343
285.979
285.56
285.172
284.829
284.537
284.287
284.073
283.888
283.737
283.043
282.946
282.906
282.887
282.872
282.858
282.843
282.826
282.8
282.756
283.505
283.342
283.207
283.105
283.027
282.963
282.907
282.85
282.787
282.716
283.691
283.535
283.396
283.28
283.184
283.099
283.021
282.944
282.863
282.777
283.818
283.67
283.53
283.406
283.296
283.194
283.099
283.006
282.911
282.816
283.986
283.845
283.698
283.558
283.427
283.302
283.183
283.069
282.959
282.853
284.268
284.128
283.965
283.8
283.639
283.485
283.34
283.203
283.074
282.954
284.54
284.39
284.202
284.005
283.812
283.629
283.459
283.302
283.156
283.024
284.845
284.673
284.453
284.224
284.001
283.793
283.602
283.428
283.269
283.126
285.042
284.842
284.596
284.342
284.098
283.874
283.672
283.492
283.329
283.182
285.695
285.494
285.227
284.949
284.686
284.448
284.235
284.048
283.882
283.747
283.051
282.957
282.922
282.907
282.898
282.89
282.881
282.87
282.851
282.812
283.477
283.32
283.196
283.108
283.044
282.995
282.953
282.91
282.859
282.797
283.612
283.464
283.342
283.248
283.174
283.112
283.056
282.998
282.934
282.862
283.677
283.542
283.427
283.335
283.256
283.186
283.118
283.05
282.976
282.897
283.783
283.663
283.552
283.454
283.363
283.276
283.191
283.106
283.019
282.931
283.998
283.888
283.774
283.662
283.55
283.44
283.332
283.226
283.122
283.022
284.207
284.099
283.972
283.839
283.703
283.568
283.437
283.312
283.191
283.079
284.453
284.338
284.194
284.038
283.878
283.72
283.569
283.427
283.293
283.17
284.593
284.47
284.314
284.141
283.962
283.789
283.626
283.475
283.336
283.208
285.174
285.069