/*--------------------------------*- C++ -*----------------------------------*\
| =========                 |                                                 |
| \\      /  F ield         | foam-extend: Open Source CFD                    |
|  \\    /   O peration     | Version:     4.0                                |
|   \\  /    A nd           | Web:         http://www.foam-extend.org         |
|    \\/     M anipulation  |                                                 |
\*---------------------------------------------------------------------------*/
FoamFile
{
    version     2.0;
    format      ascii;
    class       volVectorField;
    location    "350";
    object      U;
}
// * * * * * * * * * * * * * * * * * * * * * * * * * * * * * * * * * * * * * //

dimensions      [0 1 -1 0 0 0 0];

internalField   nonuniform List<vector> 
34480
(
(196.39 2.03306 3.71371)
(196.991 1.15095 2.16401)
(197.375 0.41032 0.506837)
(197.62 -0.188787 -1.29234)
(197.734 -0.669606 -3.36471)
(197.695 -1.02198 -5.89391)
(197.431 -1.20879 -9.27308)
(196.641 -1.09851 -13.8257)
(194.234 -0.453069 -21.6125)
(187.354 2.20967 -48.4113)
(196.121 2.16808 3.81337)
(196.925 1.44422 2.15977)
(197.4 0.814153 0.400639)
(197.64 0.269528 -1.45731)
(197.642 -0.221428 -3.52192)
(197.374 -0.668745 -5.99646)
(196.769 -1.08181 -9.31078)
(195.506 -1.38652 -14.1891)
(192.056 -1.37247 -22.6246)
(183.87 0.716199 -52.9918)
(195.896 1.41421 4.72656)
(196.76 0.648372 3.0224)
(197.277 0.0180668 1.14616)
(197.526 -0.498735 -0.797563)
(197.515 -0.967469 -2.92214)
(197.303 -1.4149 -5.48213)
(196.879 -1.86209 -8.98188)
(195.98 -2.22946 -14.4688)
(192.712 -2.2916 -23.8923)
(184.065 -0.128085 -57.4584)
(195.103 1.6854 5.26971)
(195.989 1.02809 3.50665)
(196.595 0.468875 1.54842)
(197.002 0.0134533 -0.475222)
(197.209 -0.405916 -2.69858)
(197.299 -0.812298 -5.40365)
(197.256 -1.2349 -9.10923)
(196.87 -1.59622 -15.1244)
(194.019 -1.67608 -25.4323)
(185.012 0.527796 -61.3294)
(194.128 1.15077 6.24378)
(195.117 0.486918 4.46399)
(195.889 -0.0906638 2.41096)
(196.527 -0.547108 0.282972)
(197.012 -0.965513 -2.08713)
(197.441 -1.36001 -4.98858)
(197.788 -1.75264 -8.94886)
(197.909 -2.05694 -15.5041)
(195.573 -2.0427 -26.7537)
(186.316 0.296093 -64.5884)
(192.639 1.90268 6.46775)
(193.767 1.30707 4.71805)
(194.731 0.757675 2.69021)
(195.603 0.327315 0.563435)
(196.361 -0.0516326 -1.82864)
(197.117 -0.384006 -4.78817)
(197.848 -0.689789 -8.83698)
(198.468 -0.887119 -15.7108)
(196.763 -0.740883 -27.6904)
(187.465 1.68546 -67.0689)
(191.253 1.47324 7.19002)
(192.569 0.805752 5.50689)
(193.75 0.166924 3.46987)
(194.872 -0.343694 1.31836)
(195.903 -0.797618 -1.14143)
(196.971 -1.18592 -4.1986)
(198.071 -1.50138 -8.3883)
(199.177 -1.63531 -15.5924)
(198.159 -1.2569 -28.3643)
(188.885 1.46986 -69.0796)
(189.877 2.65195 6.78203)
(191.317 1.94515 5.2315)
(192.636 1.27562 3.33733)
(193.909 0.745716 1.28125)
(195.1 0.311136 -1.09665)
(196.351 -0.0372324 -4.07236)
(197.7 -0.272782 -8.16734)
(199.192 -0.272478 -15.3513)
(198.901 0.429177 -28.4927)
(189.925 3.49819 -70.0085)
(188.85 1.98764 6.99363)
(190.325 1.15522 5.70906)
(191.755 0.313163 4.02634)
(193.237 -0.438828 2.12022)
(194.699 -1.13153 -0.221035)
(196.225 -1.74668 -3.24261)
(197.881 -2.19996 -7.49263)
(199.773 -2.29449 -14.8896)
(200.127 -1.22095 -28.5863)
(191.27 2.82407 -70.3089)
(187.643 3.47057 5.88801)
(188.993 2.49973 4.70767)
(190.211 1.55822 3.19233)
(191.348 0.686275 1.40875)
(192.344 -0.0769695 -0.805867)
(193.28 -0.692894 -3.6807)
(194.254 -1.04639 -7.71074)
(195.529 -0.886172 -14.5984)
(195.991 0.611377 -27.5076)
(188.544 5.53518 -67.4691)
(194.054 1.69942 3.31421)
(194.746 0.972031 2.01445)
(195.094 0.334063 0.578408)
(195.19 -0.184971 -0.946742)
(195.017 -0.599829 -2.61315)
(194.485 -0.908422 -4.44774)
(193.393 -1.1058 -6.50993)
(191.288 -1.1951 -8.78818)
(187.995 -1.24607 -10.9031)
(183.204 -1.01057 -14.383)
(194.014 1.89383 3.59784)
(194.935 1.26494 2.1113)
(195.412 0.707658 0.507797)
(195.559 0.214687 -1.17807)
(195.366 -0.23827 -2.99722)
(194.725 -0.658993 -5.00823)
(193.388 -1.0667 -7.30073)
(190.752 -1.49052 -10.1525)
(186.091 -2.00931 -13.2114)
(179.757 -1.88815 -20.5281)
(193.997 1.2075 4.588)
(194.978 0.484424 2.99947)
(195.525 -0.109159 1.22041)
(195.73 -0.597935 -0.641887)
(195.572 -1.03758 -2.63004)
(194.99 -1.45235 -4.83258)
(193.772 -1.8834 -7.43999)
(191.318 -2.34511 -11.0397)
(186.572 -2.89282 -15.4052)
(179.846 -2.47356 -26.7567)
(193.442 1.52302 5.13721)
(194.439 0.892446 3.46943)
(195.072 0.358875 1.59145)
(195.432 -0.0774629 -0.374296)
(195.482 -0.476232 -2.49994)
(195.179 -0.858544 -4.90927)
(194.3 -1.27356 -7.82578)
(192.262 -1.72051 -12.0994)
(187.73 -2.25526 -17.6344)
(180.677 -1.54228 -32.8612)
(192.678 0.991482 6.10464)
(193.763 0.347433 4.41098)
(194.551 -0.207752 2.43025)
(195.132 -0.643511 0.350812)
(195.448 -1.03477 -1.94634)
(195.474 -1.39708 -4.60075)
(194.973 -1.78237 -7.84852)
(193.398 -2.17042 -12.7782)
(189.206 -2.59896 -19.4784)
(181.856 -1.49905 -38.5157)
(191.375 1.76073 6.31476)
(192.588 1.18556 4.64436)
(193.559 0.658087 2.68782)
(194.369 0.245123 0.608666)
(194.955 -0.115569 -1.72194)
(195.31 -0.429637 -4.47296)
(195.193 -0.742733 -7.87709)
(194.108 -1.02723 -13.2382)
(190.387 -1.29893 -20.8546)
(182.881 0.144244 -43.4319)
(190.155 1.31728 7.02419)
(191.537 0.674874 5.41686)
(192.716 0.0649959 3.44781)
(193.77 -0.417097 1.34461)
(194.63 -0.835803 -1.06386)
(195.307 -1.18603 -3.94497)
(195.573 -1.49665 -7.54445)
(194.989 -1.72091 -13.3225)
(191.835 -1.76143 -21.8814)
(184.231 0.141472 -47.7696)
(188.886 2.51088 6.60534)
(190.385 1.84071 5.12524)
(191.703 1.20508 3.30809)
(192.912 0.70029 1.31548)
(193.945 0.291374 -0.999529)
(194.838 -0.0291652 -3.82032)
(195.399 -0.264755 -7.38601)
(195.26 -0.372509 -13.2558)
(192.759 -0.0863153 -22.3593)
(185.312 2.15457 -50.9792)
(187.937 1.83975 6.80273)
(189.464 1.0499 5.56395)
(190.89 0.266355 3.94118)
(192.291 -0.41905 2.11113)
(193.579 -1.03385 -0.133587)
(194.759 -1.55873 -2.97754)
(195.671 -1.93945 -6.72133)
(196.019 -2.09856 -12.8974)
(194.19 -1.45474 -22.8102)
(186.769 1.47655 -53.4828)
(186.753 3.37877 5.68502)
(188.191 2.46716 4.57321)
(189.483 1.60446 3.15204)
(190.66 0.80909 1.47963)
(191.64 0.123044 -0.591025)
(192.438 -0.421104 -3.24373)
(192.94 -0.734935 -6.77965)
(193.004 -0.673464 -12.5967)
(191.476 0.388446 -22.3266)
(185.141 4.39976 -53.3707)
(192.236 1.17851 2.57251)
(192.909 0.641076 1.56764)
(193.207 0.146098 0.417481)
(193.232 -0.265328 -0.786488)
(192.977 -0.602334 -2.06321)
(192.387 -0.860625 -3.36781)
(191.359 -1.04421 -4.65376)
(189.708 -1.17401 -5.77805)
(187.139 -1.33408 -6.39163)
(183.425 -1.45455 -6.63914)
(192.218 1.43735 3.01779)
(193.156 0.948892 1.7626)
(193.599 0.495582 0.388421)
(193.672 0.0762795 -1.04369)
(193.389 -0.32681 -2.55542)
(192.663 -0.72229 -4.15236)
(191.263 -1.1253 -5.79214)
(188.757 -1.56377 -7.42403)
(184.429 -2.11646 -8.48509)
(178.394 -2.41879 -10.0546)
(192.287 0.854308 4.10149)
(193.303 0.228811 2.69169)
(193.831 -0.297091 1.08871)
(193.981 -0.744482 -0.596152)
(193.747 -1.16101 -2.38347)
(193.039 -1.56843 -4.29586)
(191.597 -2.00295 -6.34353)
(188.913 -2.49405 -8.66259)
(183.914 -3.13916 -10.6117)
(176.665 -3.40268 -14.0078)
(191.922 1.26121 4.64828)
(192.962 0.701324 3.12416)
(193.573 0.214968 1.39465)
(193.863 -0.198071 -0.429779)
(193.8 -0.588405 -2.40153)
(193.296 -0.976723 -4.58145)
(192.053 -1.41158 -7.01616)
(189.494 -1.91699 -10.0281)
(184.143 -2.62499 -12.9031)
(175.86 -2.82653 -18.3841)
(191.364 0.762689 5.61167)
(192.487 0.173674 4.03121)
(193.24 -0.343456 2.1766)
(193.728 -0.76266 0.212602)
(193.896 -1.14872 -1.96327)
(193.663 -1.5172 -4.43767)
(192.693 -1.92269 -7.28417)
(190.366 -2.3794 -11.02)
(184.833 -3.04474 -14.9278)
(175.642 -3.05756 -22.8355)
(190.271 1.57459 5.80701)
(191.511 1.04258 4.22921)
(192.435 0.547534 2.38382)
(193.135 0.147154 0.402719)
(193.547 -0.212889 -1.83063)
(193.602 -0.540457 -4.44281)
(192.94 -0.887193 -7.52363)
(190.917 -1.26136 -11.794)
(185.375 -1.8224 -16.5855)
(175.458 -1.62482 -27.0158)
(189.252 1.12383 6.51891)
(190.643 0.520335 4.98273)
(191.759 -0.0537706 3.10898)
(192.689 -0.516293 1.08798)
(193.355 -0.923318 -1.24222)
(193.705 -1.27126 -4.01949)
(193.373 -1.59647 -7.36649)
(191.709 -1.89474 -12.1702)
(186.312 -2.25993 -17.9191)
(175.782 -1.7253 -30.9635)
(188.143 2.33221 6.1008)
(189.641 1.70553 4.67678)
(190.889 1.11034 2.94728)
(191.968 0.627821 1.03275)
(192.802 0.230308 -1.20873)
(193.363 -0.0857949 -3.94484)
(193.31 -0.334618 -7.31859)
(192.018 -0.517646 -12.3557)
(186.937 -0.582739 -18.7601)
(176.02 0.187306 -34.125)
(187.334 1.63211 6.33584)
(188.856 0.880165 5.10917)
(190.21 0.151365 3.53321)
(191.462 -0.480474 1.75022)
(192.514 -1.03928 -0.432111)
(193.327 -1.50341 -3.17876)
(193.595 -1.82774 -6.73102)
(192.751 -1.97229 -12.1679)
(188.12 -1.63206 -19.5242)
(176.678 -0.371208 -36.685)
(186.216 3.1967 5.23365)
(187.664 2.33483 4.15149)
(188.931 1.54281 2.79218)
(190.032 0.818258 1.18086)
(190.875 0.205175 -0.813993)
(191.425 -0.265609 -3.36096)
(191.432 -0.5148 -6.70381)
(190.467 -0.432028 -11.8613)
(186.151 0.358759 -19.359)
(174.899 2.64734 -37.0448)
(190.848 0.682533 1.89047)
(191.426 0.32058 1.17759)
(191.659 -0.035844 0.322429)
(191.648 -0.341432 -0.557854)
(191.397 -0.601397 -1.46426)
(190.88 -0.809762 -2.32061)
(190.059 -0.975443 -3.05987)
(188.88 -1.11916 -3.54635)
(187.245 -1.29631 -3.55937)
(184.954 -1.50258 -2.86203)
(190.704 0.954202 2.40916)
(191.583 0.610751 1.41488)
(191.977 0.26982 0.304883)
(192.005 -0.0654915 -0.839326)
(191.695 -0.404774 -2.01112)
(190.995 -0.755175 -3.18218)
(189.761 -1.12925 -4.27108)
(187.721 -1.54624 -5.14173)
(184.454 -2.0384 -5.33158)
(180.142 -2.3879 -4.83426)
(190.769 0.450318 3.53282)
(191.75 -0.0567978 2.34434)
(192.236 -0.497273 0.967358)
(192.332 -0.887787 -0.475355)
(192.049 -1.26732 -1.98276)
(191.313 -1.65426 -3.54102)
(189.921 -2.07552 -5.07748)
(187.525 -2.55449 -6.5139)
(183.505 -3.15497 -7.21208)
(178.166 -3.56929 -7.34826)
(190.531 0.952976 4.06208)
(191.553 0.487742 2.72614)
(192.117 0.066302 1.19514)
(192.327 -0.309855 -0.4202)
(192.163 -0.68101 -2.14806)
(191.539 -1.06528 -4.00883)
(190.201 -1.50336 -5.95273)
(187.722 -2.0233 -7.9992)
(183.164 -2.74228 -9.30979)
(176.845 -3.25585 -10.3489)
(190.143 0.497829 5.02054)
(191.248 -0.0139317 3.59329)
(191.94 -0.477976 1.90933)
(192.319 -0.871216 0.123348)
(192.336 -1.24764 -1.84058)
(191.9 -1.62059 -4.02993)
(190.705 -2.03749 -6.42246)
(188.25 -2.52373 -9.16258)
(183.244 -3.25387 -11.2565)
(175.963 -3.75312 -13.5854)
(189.242 1.35919 5.20305)
(190.459 0.889177 3.75283)
(191.307 0.438755 2.05669)
(191.875 0.0585668 0.228896)
(192.098 -0.297076 -1.82151)
(191.884 -0.636211 -4.18336)
(190.884 -1.00783 -6.85783)
(188.537 -1.43745 -10.144)
(183.199 -2.12667 -12.9465)
(175.044 -2.57007 -16.7604)
(188.418 0.909222 5.92213)
(189.771 0.359746 4.48619)
(190.793 -0.169417 2.73977)
(191.57 -0.607971 0.848413)
(192.016 -1.00421 -1.32473)
(192.049 -1.35475 -3.88489)
(191.286 -1.69512 -6.87605)
(189.121 -2.0415 -10.7353)
(183.588 -2.57919 -14.3717)
(174.636 -2.83173 -19.9112)
(187.473 2.14154 5.51151)
(188.923 1.57048 4.16952)
(190.07 1.02255 2.55346)
(190.988 0.566808 0.754262)
(191.589 0.181195 -1.34675)
(191.805 -0.134775 -3.88925)
(191.262 -0.399907 -6.94982)
(189.336 -0.640672 -11.112)
(183.804 -0.932924 -15.3734)
(174.226 -1.06296 -22.5478)
(186.805 1.40949 5.81171)
(188.278 0.708137 4.6264)
(189.524 0.0363899 3.12124)
(190.597 -0.543716 1.41579)
(191.391 -1.05269 -0.65546)
(191.819 -1.46793 -3.21917)
(191.518 -1.75593 -6.44169)
(189.918 -1.90506 -11.0091)
(184.611 -1.78401 -16.2471)
(174.315 -1.56746 -24.7877)
(185.766 2.99928 4.73886)
(187.177 2.19828 3.70867)
(188.375 1.47813 2.42678)
(189.359 0.82271 0.898908)
(190.026 0.278021 -0.983121)
(190.298 -0.128046 -3.35681)
(189.845 -0.327657 -6.38964)
(188.164 -0.240418 -10.7333)
(183.063 0.339198 -16.2418)
(172.529 1.49772 -25.2033)
(189.837 0.279148 1.35158)
(190.3 0.0476048 0.87385)
(190.474 -0.197066 0.269152)
(190.455 -0.414071 -0.340549)
(190.257 -0.608299 -0.955937)
(189.877 -0.772233 -1.49941)
(189.312 -0.913772 -1.92029)
(188.564 -1.04689 -2.12518)
(187.601 -1.19714 -2.01751)
(186.184 -1.35403 -1.49222)
(189.494 0.523779 1.85359)
(190.274 0.300811 1.10388)
(190.614 0.0612022 0.249732)
(190.627 -0.193714 -0.621932)
(190.352 -0.467 -1.48811)
(189.769 -0.761994 -2.30543)
(188.795 -1.08564 -2.99437)
(187.267 -1.44608 -3.43367)
(184.912 -1.83484 -3.37449)
(181.776 -2.07161 -2.69538)
(189.481 0.0563759 2.96198)
(190.385 -0.336048 2.00414)
(190.819 -0.688917 0.867092)
(190.884 -1.01645 -0.31801)
(190.604 -1.34931 -1.531)
(189.935 -1.70105 -2.73526)
(188.744 -2.08934 -3.83751)
(186.812 -2.52436 -4.70293)
(183.788 -3.0174 -4.90243)
(179.927 -3.31679 -4.2996)
(189.304 0.635954 3.4499)
(190.266 0.272584 2.3243)
(190.774 -0.0757433 1.01574)
(190.925 -0.405372 -0.361229)
(190.713 -0.745754 -1.80823)
(190.073 -1.11087 -3.313)
(188.826 -1.53169 -4.78635)
(186.698 -2.02918 -6.12199)
(183.143 -2.66749 -6.67077)
(178.547 -3.13387 -6.31649)
(189.029 0.218956 4.39263)
(190.081 -0.203623 3.14601)
(190.705 -0.604928 1.6598)
(190.995 -0.962889 0.0859955)
(190.913 -1.32001 -1.61868)
(190.377 -1.68684 -3.46276)
(189.153 -2.10139 -5.37307)
(186.906 -2.58644 -7.30569)
(182.827 -3.27339 -8.39414)
(177.413 -3.82921 -8.60274)
(188.283 1.12547 4.55878)
(189.446 0.730618 3.26459)
(190.213 0.334089 1.74438)
(190.666 -0.0175862 0.104602)
(190.745 -0.360326 -1.71155)
(190.358 -0.70161 -3.74887)
(189.215 -1.0848 -5.95165)
(186.921 -1.5389 -8.37641)
(182.359 -2.23824 -9.96732)
(176.107 -2.8562 -10.8989)
(187.626 0.678182 5.28356)
(188.917 0.196158 3.9756)
(189.841 -0.279975 2.38152)
(190.478 -0.688011 0.652863)
(190.743 -1.06773 -1.31209)
(190.543 -1.41646 -3.57415)
(189.538 -1.76734 -6.11716)
(187.273 -2.14269 -9.09427)
(182.315 -2.73402 -11.3446)
(175.225 -3.28305 -13.2583)
(186.831 1.938 4.88206)
(188.214 1.43473 3.64789)
(189.255 0.941006 2.16729)
(190.022 0.518654 0.512445)
(190.424 0.151414 -1.4026)
(190.372 -0.159914 -3.6733)
(189.511 -0.437643 -6.31257)
(187.35 -0.719681 -9.60197)
(182.173 -1.12882 -12.3641)
(174.35 -1.6557 -15.2649)
(186.304 1.16901 5.25325)
(187.709 0.531228 4.13712)
(188.842 -0.0792717 2.72577)
(189.746 -0.606272 1.12658)
(190.314 -1.06632 -0.79275)
(190.438 -1.4377 -3.11294)
(189.75 -1.69838 -5.91582)
(187.766 -1.85886 -9.561)
(182.604 -1.88527 -13.1854)
(173.98 -2.17029 -17.0152)
(185.35 2.78782 4.21125)
(186.702 2.05813 3.25326)
(187.815 1.41219 2.0646)
(188.674 0.825819 0.642193)
(189.174 0.347105 -1.09392)
(189.21 0.000636617 -3.24296)
(188.44 -0.158551 -5.89173)
(186.385 -0.07646 -9.37369)
(181.291 0.338832 -13.2356)
(172.194 0.87118 -17.2736)
(189.088 -0.0189073 0.962577)
(189.449 -0.164269 0.656823)
(189.573 -0.328379 0.242335)
(189.558 -0.478102 -0.164072)
(189.419 -0.620079 -0.571109)
(189.164 -0.745818 -0.9111)
(188.802 -0.860754 -1.15455)
(188.346 -0.972256 -1.24331)
(187.769 -1.08924 -1.14188)
(186.766 -1.19849 -0.808822)
(188.543 0.184662 1.38574)
(189.214 0.0495186 0.842301)
(189.503 -0.108251 0.211209)
(189.514 -0.293134 -0.426983)
(189.298 -0.504315 -1.04429)
(188.852 -0.741964 -1.59771)
(188.13 -1.00754 -2.02425)
(187.016 -1.30042 -2.23649)
(185.283 -1.59098 -2.12019)
(182.807 -1.72672 -1.56632)
(188.427 -0.284097 2.43656)
(189.228 -0.580389 1.6927)
(189.606 -0.853621 0.784433)
(189.655 -1.11891 -0.157392)
(189.409 -1.40024 -1.10136)
(188.851 -1.70629 -2.00138)
(187.903 -2.04664 -2.77219)
(186.425 -2.42045 -3.2932)
(184.185 -2.80329 -3.31589)
(181.254 -2.97206 -2.67127)
(188.268 0.345267 2.85677)
(189.139 0.0764638 1.94128)
(189.585 -0.199104 0.858565)
(189.693 -0.477353 -0.276686)
(189.472 -0.777985 -1.44555)
(188.883 -1.11008 -2.61441)
(187.817 -1.49471 -3.68789)
(186.114 -1.94347 -4.53522)
(183.459 -2.47327 -4.73338)
(180.075 -2.81221 -4.04902)
(188.062 -0.048205 3.76633)
(189.029 -0.381531 2.71077)
(189.577 -0.716528 1.43461)
(189.795 -1.03235 0.0872027)
(189.655 -1.36036 -1.34552)
(189.099 -1.70782 -2.84093)
(187.97 -2.10308 -4.30488)
(186.073 -2.56183 -5.62357)
(182.946 -3.16122 -6.17808)
(178.986 -3.62813 -5.67992)
(187.436 0.890683 3.90706)
(188.513 0.575255 2.78516)
(189.19 0.237749 1.45733)
(189.543 -0.0783759 0.0258511)
(189.52 -0.399002 -1.53319)
(189.043 -0.730043 -3.22433)
(187.903 -1.10728 -4.95857)
(185.856 -1.55724 -6.67468)
(182.233 -2.20306 -7.55909)
(177.602 -2.79532 -7.33613)
(186.915 0.442131 4.63087)
(188.116 0.0347959 3.47032)
(188.935 -0.382791 2.04696)
(189.445 -0.754115 0.504167)
(189.567 -1.10993 -1.22381)
(189.215 -1.44783 -3.15334)
(188.122 -1.79777 -5.22344)
(185.988 -2.18255 -7.42672)
(181.901 -2.75779 -8.81061)
(176.535 -3.35608 -9.08376)
(186.251 1.72803 4.23556)
(187.539 1.30038 3.12929)
(188.467 0.866118 1.80188)
(189.093 0.483238 0.314432)
(189.331 0.141469 -1.38471)
(189.086 -0.157252 -3.34455)
(188.062 -0.436293 -5.52182)
(185.917 -0.738511 -8.00271)
(181.5 -1.18634 -9.76464)
(175.44 -1.82955 -10.5601)
(185.853 0.915076 4.6764)
(187.166 0.350532 3.65288)
(188.178 -0.195269 2.35554)
(188.924 -0.667645 0.88802)
(189.298 -1.07919 -0.848043)
(189.192 -1.4093 -2.88823)
(188.279 -1.64561 -5.2439)
(186.19 -1.81177 -8.03024)
(181.645 -1.92534 -10.4623)
(174.834 -2.39235 -11.833)
(184.982 2.56763 3.66284)
(186.249 1.91774 2.79484)
(187.262 1.34794 1.71423)
(187.992 0.830669 0.417709)
(188.338 0.415411 -1.1457)
(188.187 0.123532 -3.03552)
(187.228 -0.00255022 -5.26887)
(185.064 0.0706998 -7.95091)
(180.483 0.362198 -10.5438)
(173.166 0.578314 -11.9522)
(188.508 -0.222958 0.701092)
(188.79 -0.316782 0.512198)
(188.878 -0.427756 0.230497)
(188.869 -0.530086 -0.0351363)
(188.779 -0.632903 -0.303506)
(188.619 -0.72739 -0.518752)
(188.399 -0.816934 -0.668064)
(188.129 -0.90429 -0.71593)
(187.771 -0.99026 -0.653359)
(186.981 -1.06081 -0.463882)
(187.793 -0.0515415 1.01367)
(188.366 -0.129187 0.631217)
(188.61 -0.226309 0.179841)
(188.628 -0.354615 -0.272944)
(188.472 -0.511538 -0.701177)
(188.152 -0.695393 -1.06976)
(187.638 -0.903788 -1.33456)
(186.827 -1.13082 -1.43847)
(185.493 -1.33908 -1.3361)
(183.4 -1.39594 -0.950192)
(187.581 -0.547466 1.98158)
(188.276 -0.771275 1.42056)
(188.599 -0.978315 0.714132)
(188.641 -1.18709 -0.015642)
(188.444 -1.41689 -0.733774)
(188.008 -1.6724 -1.39511)
(187.289 -1.95684 -1.93169)
(186.184 -2.26221 -2.25515)
(184.499 -2.54693 -2.23319)
(182.143 -2.6127 -1.74237)
(187.421 0.105926 2.31244)
(188.186 -0.0840733 1.59075)
(188.567 -0.293677 0.721337)
(188.646 -0.520514 -0.187152)
(188.445 -0.776496 -1.10391)
(187.944 -1.066 -1.98626)
(187.086 -1.40113 -2.74889)
(185.779 -1.7853 -3.27907)
(183.819 -2.20548 -3.32629)
(181.234 -2.42141 -2.69951)
(187.252 -0.28183 3.17042)
(188.112 -0.534729 2.30171)
(188.582 -0.805509 1.23437)
(188.743 -1.07589 0.11134)
(188.583 -1.36743 -1.0602)
(188.064 -1.68388 -2.23911)
(187.095 -2.04429 -3.32995)
(185.575 -2.45698 -4.21073)
(183.248 -2.95572 -4.48473)
(180.307 -3.30306 -3.8777)
(186.714 0.671744 3.27426)
(187.682 0.432033 2.32888)
(188.267 0.154184 1.19919)
(188.536 -0.121817 -0.0170252)
(188.451 -0.412541 -1.31741)
(187.955 -0.721519 -2.67798)
(186.911 -1.07566 -3.99691)
(185.189 -1.49621 -5.16891)
(182.425 -2.05757 -5.63774)
(179.002 -2.55203 -5.07187)
(186.302 0.213898 3.98719)
(187.389 -0.118117 2.98398)
(188.1 -0.474973 1.74183)
(188.499 -0.805046 0.397809)
(188.521 -1.13026 -1.08251)
(188.092 -1.44774 -2.68076)
(187.024 -1.78286 -4.31021)
(185.145 -2.15592 -5.88213)
(181.932 -2.67731 -6.716)
(177.927 -3.21514 -6.36327)
(185.746 1.52034 3.59219)
(186.917 1.17075 2.62656)
(187.728 0.798652 1.46428)
(188.227 0.459726 0.159721)
(188.339 0.149404 -1.30765)
(187.977 -0.129208 -2.94807)
(186.917 -0.397598 -4.68054)
(184.945 -0.696554 -6.47244)
(181.373 -1.12869 -7.55489)
(176.782 -1.74158 -7.42701)
(185.463 0.654543 4.09822)
(186.663 0.168316 3.18422)
(187.549 -0.310904 2.01651)
(188.151 -0.727823 0.699936)
(188.371 -1.09141 -0.83288)
(188.11 -1.38224 -2.57912)
(187.109 -1.59511 -4.50136)
(185.11 -1.75795 -6.56185)
(181.339 -1.90864 -8.12929)
(176.132 -2.3835 -8.3157)
(184.668 2.34602 3.10766)
(185.827 1.78122 2.34294)
(186.728 1.28849 1.38259)
(187.334 0.839899 0.228277)
(187.549 0.485382 -1.14396)
(187.267 0.24313 -2.7583)
(186.232 0.144101 -4.57934)
(184.15 0.206992 -6.57214)
(180.279 0.407738 -8.22931)
(174.652 0.482189 -8.36173)
(188.03 -0.35534 0.534159)
(188.257 -0.420392 0.421081)
(188.32 -0.498494 0.226665)
(188.316 -0.569174 0.052989)
(188.261 -0.64395 -0.127518)
(188.165 -0.714138 -0.268782)
(188.034 -0.782024 -0.368658)
(187.874 -0.847868 -0.404572)
(187.637 -0.909171 -0.377045)
(186.962 -0.951962 -0.276745)
(187.189 -0.192223 0.728132)
(187.685 -0.235062 0.464793)
(187.895 -0.290047 0.150057)
(187.92 -0.375275 -0.163497)
(187.815 -0.487658 -0.454825)
(187.595 -0.624862 -0.6984)
(187.235 -0.78248 -0.865474)
(186.632 -0.952243 -0.920052)
(185.55 -1.0965 -0.848056)
(183.682 -1.10003 -0.586389)
(186.906 -0.727677 1.60499)
(187.503 -0.900838 1.19094)
(187.777 -1.05649 0.652187)
(187.818 -1.21733 0.0966307)
(187.671 -1.39958 -0.442444)
(187.348 -1.60531 -0.926626)
(186.821 -1.8334 -1.30567)
(185.999 -2.072 -1.51986)
(184.689 -2.27448 -1.50053)
(182.688 -2.26729 -1.16007)
(186.744 -0.0687732 1.83401)
(187.401 -0.198455 1.2805)
(187.72 -0.352536 0.601201)
(187.782 -0.531727 -0.106702)
(187.614 -0.742324 -0.808246)
(187.214 -0.984983 -1.46112)
(186.556 -1.26468 -1.99617)
(185.579 -1.57874 -2.3285)
(184.12 -1.8994 -2.31683)
(182.053 -2.01825 -1.82696)
(186.594 -0.466569 2.62588)
(187.337 -0.652899 1.92888)
(187.73 -0.865758 1.05802)
(187.85 -1.09092 0.144881)
(187.694 -1.34204 -0.790623)
(187.247 -1.61968 -1.70087)
(186.46 -1.93472 -2.50055)
(185.286 -2.28905 -3.08518)
(183.574 -2.68872 -3.21481)
(181.329 -2.92846 -2.69166)
(186.122 0.482812 2.68238)
(186.966 0.309293 1.90722)
(187.459 0.0877598 0.971285)
(187.66 -0.146365 -0.0346382)
(187.547 -0.40185 -1.09037)
(187.082 -0.679627 -2.15661)
(186.185 -0.997636 -3.13418)
(184.8 -1.3705 -3.91433)
(182.739 -1.83569 -4.13971)
(180.18 -2.21969 -3.55519)
(185.796 0.00599367 3.37351)
(186.753 -0.255798 2.52816)
(187.356 -0.553114 1.46923)
(187.661 -0.839593 0.326462)
(187.619 -1.12924 -0.910436)
(187.176 -1.41834 -2.20145)
(186.208 -1.72644 -3.45194)
(184.633 -2.06917 -4.54417)
(182.183 -2.51769 -5.02752)
(179.197 -2.95925 -4.51115)
(185.322 1.32466 2.97153)
(186.36 1.05029 2.15129)
(187.053 0.740221 1.15919)
(187.443 0.447723 0.0443434)
(187.466 0.173165 -1.18865)
(187.053 -0.0792264 -2.52297)
(186.049 -0.32711 -3.85988)
(184.336 -0.604445 -5.10959)
(181.55 -0.987424 -5.73076)
(178.109 -1.5046 -5.26739)
(185.14 0.395726 3.53642)
(186.209 -0.0119693 2.74146)
(186.97 -0.424769 1.7131)
(187.444 -0.786534 0.55899)
(187.55 -1.10307 -0.762293)
(187.203 -1.3563 -2.21987)
(186.214 -1.54562 -3.74817)
(184.426 -1.69776 -5.23442)
(181.427 -1.85257 -6.20492)
(177.534 -2.25827 -5.89318)
(184.409 2.13165 2.5608)
(185.444 1.65353 1.90709)
(186.227 1.23722 1.07524)
(186.716 0.855957 0.0737755)
(186.827 0.559006 -1.09819)
(186.47 0.36143 -2.43747)
(185.45 0.284578 -3.87462)
(183.572 0.337033 -5.30623)
(180.445 0.472112 -6.30264)
(176.264 0.490114 -5.89576)
(187.611 -0.438498 0.432569)
(187.8 -0.48819 0.366941)
(187.846 -0.546928 0.227164)
(187.846 -0.597291 0.110807)
(187.814 -0.652739 -0.0161553)
(187.757 -0.704939 -0.114797)
(187.681 -0.755803 -0.189009)
(187.584 -0.804514 -0.223568)
(187.417 -0.847615 -0.221361)
(186.812 -0.871269 -0.175171)
(186.691 -0.253588 0.512907)
(187.13 -0.276283 0.334378)
(187.315 -0.303323 0.119173)
(187.346 -0.357218 -0.0940382)
(187.28 -0.434875 -0.289506)
(187.132 -0.534069 -0.450012)
(186.879 -0.649814 -0.557676)
(186.416 -0.773416 -0.589656)
(185.496 -0.870409 -0.544818)
(183.773 -0.840974 -0.365945)
(186.364 -0.83069 1.30332)
(186.88 -0.970076 1.00189)
(187.114 -1.08786 0.595887)
(187.154 -1.21023 0.176899)
(187.052 -1.3514 -0.226031)
(186.823 -1.5121 -0.583144)
(186.443 -1.68885 -0.859088)
(185.829 -1.86838 -1.01511)
(184.772 -2.00543 -1.01444)
(182.998 -1.94963 -0.790631)
(186.211 -0.176104 1.42747)
(186.77 -0.262627 1.01307)
(187.034 -0.372754 0.495266)
(187.083 -0.510447 -0.043494)
(186.953 -0.678283 -0.569357)
(186.65 -0.87448 -1.04571)
(186.163 -1.09917 -1.42024)
(185.444 -1.3458 -1.63354)
(184.338 -1.58157 -1.60717)
(182.611 -1.62785 -1.24678)
(186.072 -0.594552 2.14505)
(186.7 -0.729566 1.59805)
(187.022 -0.893219 0.903458)
(187.11 -1.0762 0.17733)
(186.975 -1.28623 -0.554644)
(186.611 -1.52155 -1.24686)
(186 -1.78665 -1.8292)
(185.121 -2.07846 -2.22215)
(183.861 -2.38785 -2.28395)
(182.088 -2.53883 -1.8846)
(185.652 0.333375 2.14751)
(186.368 0.21339 1.52834)
(186.773 0.0419038 0.77325)
(186.922 -0.151255 -0.0370492)
(186.804 -0.368916 -0.872452)
(186.399 -0.609766 -1.68913)
(185.667 -0.883933 -2.39978)
(184.592 -1.19961 -2.91182)
(183.074 -1.56952 -3.00162)
(181.124 -1.85034 -2.50474)
(185.394 -0.171233 2.80694)
(186.214 -0.371895 2.11182)
(186.713 -0.613759 1.23005)
(186.943 -0.856597 0.281443)
(186.868 -1.10791 -0.727795)
(186.451 -1.36311 -1.74802)
(185.625 -1.63576 -2.68948)
(184.357 -1.93581 -3.4373)
(182.528 -2.30533 -3.70542)
(180.287 -2.64591 -3.21109)
(184.982 1.1502 2.3909)
(185.876 0.943906 1.7132)
(186.455 0.69294 0.889165)
(186.752 0.447181 -0.0379441)
(186.72 0.21083 -1.04551)
(186.307 -0.0110031 -2.10138)
(185.416 -0.231356 -3.10473)
(183.995 -0.475981 -3.95241)
(181.879 -0.79604 -4.27365)
(179.31 -1.19981 -3.74459)
(184.886 0.147136 3.0077)
(185.814 -0.186264 2.33378)
(186.452 -0.535053 1.44796)
(186.818 -0.843374 0.459503)
(186.844 -1.11444 -0.653071)
(186.467 -1.33174 -1.84182)
(185.56 -1.49705 -3.02971)
(184.041 -1.63329 -4.08209)
(181.73 -1.77444 -4.66172)
(178.868 -2.09123 -4.20602)
(184.208 1.93366 2.03691)
(185.104 1.54007 1.49603)
(185.769 1.19765 0.796004)
(186.154 0.881099 -0.0485145)
(186.19 0.637898 -1.02057)
(185.805 0.480073 -2.09884)
(184.865 0.42143 -3.19642)
(183.255 0.464362 -4.19104)
(180.814 0.552647 -4.74125)
(177.793 0.552896 -4.17043)
(187.225 -0.49128 0.374549)
(187.388 -0.532765 0.337671)
(187.424 -0.580508 0.230586)
(187.425 -0.618209 0.148411)
(187.407 -0.660752 0.0529435)
(187.374 -0.700217 -0.0219817)
(187.329 -0.738499 -0.0832351)
(187.269 -0.774461 -0.119997)
(187.142 -0.804707 -0.134754)
(186.59 -0.815386 -0.121508)
(186.266 -0.254114 0.350928)
(186.667 -0.264838 0.231276)
(186.835 -0.273803 0.0864478)
(186.87 -0.305644 -0.0564254)
(186.831 -0.357335 -0.186133)
(186.733 -0.427074 -0.291605)
(186.55 -0.510165 -0.361987)
(186.18 -0.598524 -0.382174)
(185.369 -0.662078 -0.355304)
(183.75 -0.614767 -0.226871)
(185.922 -0.868991 1.06722)
(186.375 -0.986048 0.848786)
(186.576 -1.07696 0.543797)
(186.617 -1.16988 0.227837)
(186.551 -1.27748 -0.0748789)
(186.392 -1.40006 -0.342728)
(186.122 -1.53329 -0.551497)
(185.654 -1.66425 -0.676379)
(184.772 -1.7521 -0.695186)
(183.153 -1.6678 -0.552616)
(185.794 -0.221142 1.09085)
(186.268 -0.278331 0.787176)
(186.485 -0.355432 0.401053)
(186.527 -0.458817 -0.000667317)
(186.431 -0.588758 -0.388115)
(186.211 -0.742221 -0.732297)
(185.86 -0.916615 -0.995534)
(185.336 -1.10363 -1.13815)
(184.476 -1.27104 -1.11597)
(182.978 -1.26736 -0.856478)
(185.664 -0.664685 1.73248)
(186.187 -0.76246 1.31104)
(186.445 -0.886396 0.768068)
(186.511 -1.03208 0.201685)
(186.401 -1.20309 -0.361466)
(186.12 -1.39629 -0.882412)
(185.664 -1.61189 -1.30685)
(185.02 -1.84368 -1.57905)
(184.086 -2.07592 -1.61541)
(182.635 -2.15864 -1.32989)
(185.288 0.227557 1.67932)
(185.882 0.147747 1.19696)
(186.207 0.0183539 0.603559)
(186.316 -0.136901 -0.0325721)
(186.208 -0.31677 -0.677721)
(185.874 -0.518373 -1.2906)
(185.303 -0.745903 -1.79958)
(184.493 -1.00241 -2.1348)
(183.383 -1.28613 -2.15701)
(181.859 -1.47921 -1.76881)
(185.089 -0.31072 2.29945)
(185.773 -0.461354 1.74088)
(186.176 -0.653941 1.02339)
(186.345 -0.855157 0.254071)
(186.259 -1.06759 -0.551188)
(185.895 -1.28607 -1.3421)
(185.222 -1.51894 -2.04085)
(184.238 -1.77077 -2.55121)
(182.891 -2.06461 -2.69687)
(181.189 -2.31337 -2.2869)
(184.718 1.00422 1.86395)
(185.468 0.855991 1.31961)
(185.939 0.658919 0.654834)
(186.161 0.458152 -0.0944221)
(186.099 0.26053 -0.894569)
(185.72 0.0716585 -1.70769)
(184.97 -0.116969 -2.44088)
(183.837 -0.323565 -3.0027)
(182.264 -0.580048 -3.14162)
(180.344 -0.879335 -2.66094)
(184.698 -0.0837785 2.52618)
(185.482 -0.3506 1.96864)
(186.004 -0.63991 1.22201)
(186.28 -0.897971 0.394447)
(186.257 -1.12605 -0.521686)
(185.891 -1.30936 -1.47114)
(185.105 -1.45049 -2.37721)
(183.868 -1.5675 -3.11374)
(182.133 -1.68666 -3.45113)
(180.052 -1.92084 -3.01456)
(184.06 1.76073 1.54868)
(184.813 1.44627 1.117)
(185.363 1.17327 0.546899)
(185.658 0.917474 -0.143233)
(185.645 0.723516 -0.924245)
(185.269 0.600568 -1.76537)
(184.448 0.556869 -2.57533)
(183.126 0.591657 -3.24223)
(181.277 0.647086 -3.50518)
(179.143 0.646041 -2.94426)
(186.858 -0.528157 0.345783)
(187.003 -0.56492 0.325535)
(187.031 -0.606625 0.236905)
(187.034 -0.63667 0.173894)
(187.023 -0.670852 0.0960711)
(187.004 -0.701674 0.0334176)
(186.978 -0.731106 -0.0220188)
(186.939 -0.758021 -0.0622747)
(186.838 -0.779502 -0.088532)
(186.329 -0.781611 -0.0962097)
(185.897 -0.210623 0.227608)
(186.272 -0.213172 0.148207)
(186.427 -0.210438 0.0521875)
(186.465 -0.227065 -0.04217)
(186.444 -0.259986 -0.127203)
(186.378 -0.307821 -0.19594)
(186.243 -0.366554 -0.241847)
(185.935 -0.429105 -0.254321)
(185.204 -0.469903 -0.236942)
(183.667 -0.415248 -0.137479)
(185.555 -0.857367 0.885607)
(185.959 -0.959087 0.726169)
(186.136 -1.03142 0.495497)
(186.177 -1.10271 0.254775)
(186.135 -1.18421 0.0238725)
(186.028 -1.27625 -0.182182)
(185.836 -1.37459 -0.346902)
(185.472 -1.46768 -0.454258)
(184.715 -1.52036 -0.487722)
(183.212 -1.42299 -0.398895)
(185.467 -0.213809 0.817432)
(185.872 -0.251724 0.599171)
(186.05 -0.305124 0.316722)
(186.086 -0.381395 0.0223398)
(186.02 -0.479455 -0.259183)
(185.865 -0.595898 -0.506257)
(185.618 -0.727036 -0.692626)
(185.236 -0.864397 -0.792398)
(184.55 -0.979301 -0.779386)
(183.213 -0.944944 -0.591495)
(185.348 -0.681098 1.38665)
(185.779 -0.753153 1.06647)
(185.982 -0.846413 0.649151)