/*--------------------------------*- C++ -*----------------------------------*\
| =========                 |                                                 |
| \\      /  F ield         | foam-extend: Open Source CFD                    |
|  \\    /   O peration     | Version:     4.0                                |
|   \\  /    A nd           | Web:         http://www.foam-extend.org         |
|    \\/     M anipulation  |                                                 |
\*---------------------------------------------------------------------------*/
FoamFile
{
    version     2.0;
    format      ascii;
    class       volScalarField;
    location    "4400";
    object      divFlux;
}
// * * * * * * * * * * * * * * * * * * * * * * * * * * * * * * * * * * * * * //

dimensions      [1 -3 -1 0 0 0 0];

internalField   nonuniform List<scalar> 
34480
(
2.37573e-05
8.90319e-06
9.01674e-06
8.32964e-06
7.723e-06
7.24785e-06
6.88263e-06
0.000299205
0.000182272
6.14257e-06
7.17043e-06
3.82534e-06
3.71394e-06
3.4455e-06
3.25288e-06
3.16634e-06
3.16039e-06
3.16594e-06
0.00346335
3.05855e-06
2.06335e-06
1.22892e-06
1.21559e-06
1.1551e-06
1.13701e-06
1.17673e-06
1.24056e-06
1.28354e-06
0.00334094
1.26828e-06
7.37266e-07
4.64875e-07
4.69228e-07
4.45402e-07
4.46433e-07
4.70144e-07
5.00385e-07
5.18598e-07
0.000801426
5.13176e-07
3.02432e-07
1.87597e-07
1.9663e-07
1.84521e-07
1.86092e-07
1.96107e-07
2.08216e-07
2.14762e-07
2.18624e-07
2.13322e-07
1.2576e-07
8.43075e-08
8.60257e-08
8.01265e-08
8.16729e-08
8.62548e-08
9.14668e-08
9.32996e-08
9.46741e-08
9.2555e-08
6.02778e-08
3.691e-08
4.06774e-08
3.60954e-08
3.84882e-08
3.89464e-08
4.13392e-08
4.22556e-08
4.35283e-08
4.22556e-08
2.92843e-08
2.13976e-08
1.95648e-08
1.84194e-08
1.85568e-08
1.86943e-08
2.0298e-08
2.03896e-08
2.07103e-08
2.12143e-08
2.27847e-08
1.04551e-08
1.27878e-08
1.07884e-08
1.06634e-08
1.09966e-08
1.05801e-08
1.12049e-08
1.16214e-08
1.083e-08
6.59607e-09
1.05766e-08
6.83471e-09
8.78203e-09
7.48382e-09
7.17836e-09
7.7511e-09
7.21654e-09
7.29291e-09
7.40746e-09
3.2941e-05
1.14963e-05
1.14623e-05
1.07326e-05
1.00881e-05
9.59536e-06
9.27078e-06
9.10147e-06
9.08699e-06
0.00106452
1.07364e-05
5.58312e-06
5.41274e-06
5.08443e-06
4.85357e-06
4.75603e-06
4.7605e-06
4.8491e-06
5.01112e-06
0.00345572
3.23815e-06
2.06097e-06
2.00509e-06
1.93204e-06
1.92577e-06
1.99614e-06
2.09824e-06
2.21798e-06
2.34299e-06
0.0043107
1.32141e-06
8.61276e-07
8.80302e-07
8.48994e-07
8.57442e-07
9.01848e-07
9.55198e-07
1.01462e-06
1.07436e-06
0.0014979
6.19948e-07
3.55123e-07
4.19807e-07
3.95223e-07
3.94006e-07
4.21693e-07
4.43051e-07
4.71651e-07
4.98912e-07
5.12546e-07
2.59903e-07
1.55579e-07
2.07119e-07
1.95725e-07
1.85875e-07
2.06321e-07
2.11965e-07
2.265e-07
2.39811e-07
2.44224e-07
1.04054e-07
6.08165e-08
8.66577e-08
1.19787e-07
8.01737e-08
1.06251e-07
1.06015e-07
1.11978e-07
1.19835e-07
1.21408e-07
1.49238e-07
4.18711e-08
5.37978e-08
6.18057e-08
4.42991e-08
5.83981e-08
5.58424e-08
6.10816e-08
6.52559e-08
6.5405e-08
4.93343e-08
3.86068e-08
3.93038e-08
4.98364e-08
2.68737e-08
3.72902e-08
3.59349e-08
3.83357e-08
4.08527e-08
4.25614e-08
3.32831e-07
1.84934e-08
3.94006e-09
4.14239e-08
2.36404e-08
2.78289e-08
2.78644e-08
2.98167e-08
3.15205e-08
3.35615e-08
3.05248e-05
8.74899e-06
8.9451e-06
8.41802e-06
7.93347e-06
7.5887e-06
7.3988e-06
7.37494e-06
3.1946e-05
0.000872991
9.47021e-06
4.024e-06
3.97312e-06
3.72345e-06
3.51952e-06
3.38242e-06
3.34049e-06
3.41558e-06
8.07716e-05
0.00135278
2.72194e-06
1.44569e-06
1.40042e-06
1.32677e-06
1.27367e-06
1.25011e-06
1.27248e-06
1.35338e-06
0.00012014
0.00127401
1.04066e-06
5.61962e-07
5.63645e-07
5.36026e-07
5.1593e-07
5.08868e-07
5.20054e-07
5.59124e-07
6.27134e-07
7.85194e-07
4.57086e-07
2.20448e-07
2.45564e-07
2.28481e-07
2.18751e-07
2.1564e-07
2.20618e-07
2.38211e-07
2.69776e-07
3.43032e-07
1.92696e-07
9.84506e-08
1.12359e-07
1.00233e-07
9.67677e-08
9.60748e-08
9.64707e-08
1.05529e-07
1.20824e-07
1.55577e-07
1.01159e-07
4.17979e-08
5.25774e-08
4.67697e-08
4.41298e-08
4.39978e-08
4.47018e-08
4.86616e-08
5.64052e-08
7.44361e-08
1.6062e-08
3.2708e-08
2.8075e-08
2.20957e-08
2.25313e-08
2.27293e-08
2.28085e-08
2.40756e-08
2.81938e-08
3.82963e-08
3.53278e-08
7.70362e-09
2.14549e-08
1.50113e-08
1.42553e-08
1.34273e-08
1.38233e-08
1.49033e-08
1.67032e-08
2.28386e-08
3.7183e-08
1.33973e-08
4.52078e-09
1.21104e-08
8.64557e-09
9.07455e-09
9.23955e-09
9.56953e-09
1.15164e-08
1.66106e-08
2.99439e-05
7.93281e-06
8.1581e-06
7.69148e-06
7.26621e-06
6.97052e-06
6.81404e-06
6.80993e-06
1.67815e-05
0.000373063
9.40809e-06
3.75461e-06
3.72926e-06
3.50121e-06
3.30574e-06
3.16793e-06
3.10079e-06
3.12371e-06
3.45849e-05
0.00114378
2.72528e-06
1.41549e-06
1.36837e-06
1.28944e-06
1.22535e-06
1.18416e-06
1.17625e-06
1.21692e-06
0.000121632
0.00228952
1.0573e-06
5.70122e-07
5.59232e-07
5.29169e-07
5.04628e-07
4.87449e-07
4.86314e-07
5.08063e-07
0.000113052
0.00210554
4.67989e-07
2.29074e-07
2.41906e-07
2.28285e-07
2.16558e-07
2.0988e-07
2.08933e-07
2.18977e-07
4.51052e-05
0.00156989
2.02012e-07
9.99439e-08
1.10849e-07
1.01923e-07
9.73671e-08
9.35939e-08
9.38239e-08
9.81953e-08
1.0739e-05
0.000986979
1.09532e-07
3.98794e-08
5.39906e-08
4.80598e-08
4.49921e-08
4.36424e-08
4.36833e-08
4.61374e-08
5.28044e-08
0.000414868
3.51316e-08
2.54737e-08
2.8934e-08
2.35595e-08
2.35227e-08
2.19398e-08
2.17189e-08
2.38172e-08
2.72407e-08
0.000156078
4.36909e-08
4.68513e-09
2.22209e-08
1.439e-08
1.3955e-08
1.4457e-08
1.439e-08
1.44235e-08
1.66991e-08
2.30366e-08
1.794e-08
2.0001e-08
3.129e-09
1.31909e-08
8.15994e-09
1.00312e-08
9.20294e-09
1.00312e-08
1.09208e-08
1.67589e-08
2.8961e-05
7.09931e-06
7.33686e-06
6.92672e-06
6.55672e-06
6.29336e-06
6.15228e-06
6.13737e-06
2.12148e-05
0.000142592
9.18053e-06
3.43361e-06
3.43152e-06
3.2282e-06
3.05393e-06
2.92906e-06
2.85981e-06
2.84903e-06
3.98856e-06
0.000578848
2.69292e-06
1.34278e-06
1.30634e-06
1.229e-06
1.16685e-06
1.12086e-06
1.0981e-06
1.1045e-06
7.63434e-05
0.0013345
1.03976e-06
5.61261e-07
5.43409e-07
5.1415e-07
4.88597e-07
4.6969e-07
4.60735e-07
4.64928e-07
7.88069e-05
0.00142021
4.60517e-07
2.33488e-07
2.37155e-07
2.24102e-07
2.12956e-07
2.04596e-07
2.00245e-07
2.0396e-07
5.29512e-05
0.0012795
2.03099e-07
1.01937e-07
1.0814e-07
1.01381e-07
9.6248e-08
9.30825e-08
9.02164e-08
9.20986e-08
4.01182e-05
0.00101546
1.11627e-07
4.01532e-08
5.32715e-08
4.69975e-08
4.53625e-08
4.33092e-08
4.26248e-08
4.34993e-08
5.85496e-06
0.000666407
4.5867e-08
2.20729e-08
2.87118e-08
2.37155e-08
2.2552e-08
2.24835e-08
2.18333e-08
2.26204e-08
8.61865e-06
0.000499052
5.07752e-08
4.26213e-09
1.89152e-08
1.53375e-08
1.36886e-08
1.42486e-08
1.40619e-08
1.44353e-08
1.63019e-08
0.000305677
4.90954e-09
2.34417e-08
4.24917e-09
1.26905e-08
8.2702e-09
9.58202e-09
9.95275e-09
9.89572e-09
1.16923e-08
0.000402763
2.7465e-05
6.23919e-06
6.47906e-06
6.12559e-06
5.80215e-06
5.57187e-06
5.44509e-06
5.41964e-06
5.49441e-06
2.38815e-05
8.79859e-06
3.08822e-06
3.10424e-06
2.92179e-06
2.76746e-06
2.65742e-06
2.58954e-06
2.5689e-06
1.59609e-05
0.000222553
2.64778e-06
1.24286e-06
1.21957e-06
1.14885e-06
1.08977e-06
1.04676e-06
1.01864e-06
1.00963e-06
3.49041e-05
0.000718287
1.00484e-06
5.32187e-07
5.1811e-07
4.89504e-07
4.65988e-07
4.46397e-07
4.3383e-07
4.30437e-07
4.15125e-05
0.000847812
4.38262e-07
2.31375e-07
2.28012e-07
2.15877e-07
2.05515e-07
1.96653e-07
1.9229e-07
1.89881e-07
3.68599e-05
0.000863248
1.97044e-07
1.03394e-07
1.04786e-07
9.85026e-08
9.39294e-08
8.93562e-08
8.74474e-08
8.72883e-08
3.51911e-05
0.000779447
1.08514e-07
4.24534e-08
5.04421e-08
4.67659e-08
4.43268e-08
4.29129e-08
4.13222e-08
4.15343e-08
1.93257e-05
0.000593999
5.02512e-08
2.15696e-08
2.73914e-08
2.38283e-08
2.29694e-08
2.2015e-08
2.14423e-08
2.18877e-08
2.61434e-05
0.000524096
5.48625e-08
4.39605e-09
1.81048e-08
1.51548e-08
1.39112e-08
1.37087e-08
1.33328e-08
1.45185e-08
9.54813e-06
0.000446859
3.07614e-09
2.51857e-08
3.31391e-09
1.21422e-08
9.30545e-09
9.04034e-09
8.90779e-09
9.62359e-09
2.60648e-05
0.000523451
2.56591e-05
5.40882e-06
5.64165e-06
5.33042e-06
5.04214e-06
4.84004e-06
4.71772e-06
4.68369e-06
4.72736e-06
2.49211e-06
8.24532e-06
2.71949e-06
2.75188e-06
2.59572e-06
2.45857e-06
2.36038e-06
2.29982e-06
2.27439e-06
1.07829e-05
7.10639e-05
2.54771e-06
1.12553e-06
1.11072e-06
1.04876e-06
9.9641e-07
9.56218e-07
9.29275e-07
9.14192e-07
1.33649e-05
0.000378003
9.74842e-07
4.93902e-07
4.80692e-07
4.56095e-07
4.3384e-07
4.16391e-07
4.04462e-07
3.96329e-07
1.63967e-05
0.000490269
4.12105e-07
2.19108e-07
2.15728e-07
2.04025e-07
1.94392e-07
1.87083e-07
1.80534e-07
1.77999e-07
1.75295e-05
0.000542643
1.8351e-07
1.00222e-07
1.00333e-07
9.36048e-08
8.9834e-08
8.60632e-08
8.35863e-08
8.19227e-08
2.01924e-05
0.000536453
1.00805e-07
4.36066e-08
4.82401e-08
4.47239e-08
4.26208e-08
4.08135e-08
3.99262e-08
3.94004e-08
1.59301e-05
0.000441523
5.07751e-08
2.09391e-08
2.52866e-08
2.2684e-08
2.18559e-08
2.1501e-08
2.05546e-08
2.07321e-08
2.56526e-05
0.00043308
5.33572e-08
6.77536e-09
1.54328e-08
1.59436e-08
1.27441e-08
1.39002e-08
1.34969e-08
1.35507e-08
1.94453e-05
0.000409049
8.77102e-09
2.59767e-08
3.25325e-09
1.10413e-08
8.62603e-09
8.8232e-09
8.87249e-09
9.26682e-09
3.31409e-05
0.000468898
2.34574e-05
4.58516e-06
4.83648e-06
4.5796e-06
4.32225e-06
4.13642e-06
4.02534e-06
3.98616e-06
4.01132e-06
4.26804e-06
7.59099e-06
2.34217e-06
2.39046e-06
2.25756e-06
2.14123e-06
2.05335e-06
1.99816e-06
1.97235e-06
3.17792e-06
1.44379e-05
2.39658e-06
1.00017e-06
9.92284e-07
9.36938e-07
8.90309e-07
8.54512e-07
8.282e-07
8.13601e-07
4.76313e-06
0.000180685
9.27008e-07
4.46708e-07
4.37978e-07
4.15365e-07
3.94996e-07
3.7976e-07
3.67319e-07
3.58865e-07
5.2414e-06
0.000266908
3.91398e-07
2.01845e-07
1.98388e-07
1.8908e-07
1.79771e-07
1.72269e-07
1.67281e-07
1.63785e-07
5.78594e-06
0.000321726
1.71221e-07
9.42698e-08
9.34107e-08
8.81181e-08
8.40627e-08
8.04198e-08
7.84608e-08
7.68456e-08
7.99682e-06
0.000350013
9.00333e-08
4.32266e-08
4.54566e-08
4.22796e-08
4.07521e-08
3.90108e-08
3.76056e-08
3.7239e-08
8.84844e-06
0.000302717
4.72095e-08
2.16377e-08
2.36448e-08
2.25725e-08
2.12253e-08
2.0428e-08
1.95482e-08
1.98781e-08
1.91463e-05
0.000325762
4.87957e-08
1.04727e-08
1.26472e-08
1.44218e-08
1.29971e-08
1.25472e-08
1.22723e-08
1.24473e-08
1.82146e-05
0.000311955
1.37606e-08
2.5913e-08
3.7575e-09
1.06768e-08
8.06489e-09
8.70641e-09
8.15654e-09
8.6835e-09
3.05377e-05
0.000366782
2.10392e-05
3.67922e-06
3.97682e-06
3.82091e-06
3.6231e-06
3.46896e-06
3.36704e-06
3.32497e-06
3.33879e-06
3.52872e-06
6.88617e-06
1.97292e-06
2.03817e-06
1.92995e-06
1.82832e-06
1.75302e-06
1.70299e-06
1.67717e-06
1.66915e-06
6.304e-07
2.17654e-06
8.62142e-07
8.61989e-07
8.16646e-07
7.7639e-07
7.44646e-07
7.21719e-07
7.06741e-07
1.46493e-06
7.9647e-05
8.57629e-07
3.96574e-07
3.8912e-07
3.68757e-07
3.51654e-07
3.36893e-07
3.2684e-07
3.18491e-07
1.53154e-06
0.00013558
3.67483e-07
1.82822e-07
1.79427e-07
1.70444e-07
1.62849e-07
1.5635e-07
1.51056e-07
1.47368e-07
9.95463e-07
0.00017691
1.60947e-07
8.50167e-08
8.5496e-08
8.07356e-08
7.64544e-08
7.39304e-08
7.18856e-08
1.22919e-05
1.43771e-06
0.00021483
8.12689e-08
3.98442e-08
4.26841e-08
3.8765e-08
3.6919e-08
3.65215e-08
3.51867e-08
3.43063e-08
3.57027e-06
0.000190125
4.20475e-08
2.04219e-08
2.24155e-08
2.07542e-08
1.94251e-08
1.88117e-08
1.86839e-08
1.01747e-05
1.24112e-05
0.000227325
4.03647e-08
1.43829e-08
1.03167e-08
1.44062e-08
1.21988e-08
1.15946e-08
1.18967e-08
1.18967e-08
1.36354e-05
0.000214243
1.89582e-08
2.67308e-08
3.6848e-09
8.75407e-09
8.07249e-09
7.6039e-09
7.98729e-09
4.82601e-06
2.44175e-05
0.000264512
2.00049e-05
2.85701e-06
3.14962e-06
3.06725e-06
2.93268e-06
2.82037e-06
2.74297e-06
2.70715e-06
2.7083e-06
2.83028e-06
6.12201e-06
1.59438e-06
1.6877e-06
1.6062e-06
1.52393e-06
1.45996e-06
1.41876e-06
1.39649e-06
1.38799e-06
1.30707e-06
1.96225e-06
7.28817e-07
7.32832e-07
6.95457e-07
6.61075e-07
6.33512e-07
6.13268e-07
6.00176e-07
2.01967e-09
3.15668e-05
7.69818e-07
3.42156e-07
3.36988e-07
3.20395e-07
3.0505e-07
2.92991e-07
2.8216e-07
2.75289e-07
4.05816e-07
6.42287e-05
3.33766e-07
1.61947e-07
1.57229e-07
1.50033e-07
1.43448e-07
1.37338e-07
1.32925e-07
1.28954e-07
4.19176e-07
9.10087e-05
1.51448e-07
7.57377e-08
7.58863e-08
7.18469e-08
6.93817e-08
6.59067e-08
6.3887e-08
1.76106e-05
1.34273e-06
0.000125581
7.51256e-08
3.46381e-08
3.84926e-08
3.55885e-08
3.40572e-08
3.2658e-08
3.15227e-08
3.08891e-08
8.20067e-07
0.00010897
3.69253e-08
1.87711e-08
2.00779e-08
1.88899e-08
1.75355e-08
1.72741e-08
1.68702e-08
1.90111e-05
7.39044e-06
0.000150127
2.78009e-08
1.74318e-08
8.81312e-09
1.23773e-08
1.11244e-08
1.0822e-08
1.04116e-08
1.08436e-08
8.82472e-06
0.000136403
2.41315e-08
2.54637e-08
4.55417e-09
8.2767e-09
7.40547e-09
6.91045e-09
7.26686e-09
1.01673e-05
1.79242e-05
0.000180337
1.91972e-05
2.33999e-06
2.57966e-06
2.50095e-06
2.37944e-06
2.28147e-06
2.21861e-06
2.19047e-06
2.20262e-06
2.31737e-06
5.45191e-06
1.23648e-06
1.36275e-06
1.31112e-06
1.24267e-06
1.18932e-06
1.15395e-06
1.13294e-06
1.12041e-06
1.04201e-06
1.70888e-06
5.99361e-07
6.05944e-07
5.76256e-07
5.48998e-07
5.25982e-07
5.08465e-07
4.97067e-07
4.85846e-07
1.0747e-05
6.76755e-07
2.86475e-07
2.84082e-07
2.70976e-07
2.57815e-07
2.47065e-07
2.38358e-07
2.31915e-07
1.52782e-09
2.73339e-05
2.90016e-07
1.41369e-07
1.34774e-07
1.28873e-07
1.23225e-07
1.18428e-07
1.14042e-07
1.10255e-07
5.75922e-07
4.39575e-05
1.37592e-07
6.60735e-08
6.6184e-08
6.24841e-08
5.99162e-08
5.7376e-08
5.5388e-08
1.68806e-05
2.26232e-06
7.13222e-05
7.12698e-08
2.96728e-08
3.34034e-08
3.11209e-08
2.97219e-08
2.8642e-08
2.74885e-08
2.6924e-08
2.0663e-07
5.66523e-05
3.57263e-08
1.53739e-08
1.77153e-08
1.70527e-08
1.60366e-08
1.56611e-08
9.19518e-07
2.11603e-05
4.06607e-06
9.62095e-05
1.43569e-08
2.02214e-08
7.65081e-09
1.05625e-08
1.03216e-08
9.61873e-09
9.63881e-09
9.23719e-09
4.88547e-06
7.99461e-05
2.69629e-08
2.20705e-08
5.76153e-09
6.36898e-09
6.75553e-09
6.60827e-09
5.74312e-09
1.12165e-05
1.23847e-05
0.000117776
1.52071e-05
1.6284e-06
1.86761e-06
1.83931e-06
1.75087e-06
1.665e-06
1.59597e-06
1.54214e-06
1.5012e-06
1.5022e-06
4.91484e-06
8.80141e-07
1.05371e-06
1.03833e-06
9.85664e-07
9.38793e-07
9.0794e-07
8.91204e-07
8.83632e-07
8.19903e-07
1.44205e-06
4.80593e-07
4.89177e-07
4.6587e-07
4.41618e-07
4.23363e-07
4.09338e-07
3.97756e-07
3.88721e-07
3.30542e-06
5.84573e-07
2.34437e-07
2.32452e-07
2.21346e-07
2.12055e-07
2.03259e-07
1.95011e-07
1.89963e-07
1.83802e-07
8.90891e-06
2.42614e-07
1.17048e-07
1.13381e-07
1.07778e-07
1.02527e-07
9.84197e-08
9.45181e-08
9.22886e-08
3.7951e-07
1.9728e-05
1.19272e-07
5.60339e-08
5.60339e-08
5.2158e-08
5.07976e-08
4.89752e-08
1.22435e-06
1.43177e-05
2.36359e-06
3.98213e-05
6.73236e-08
2.40255e-08
2.89767e-08
2.7197e-08
2.55086e-08
2.43906e-08
2.38887e-08
2.34323e-08
2.47511e-07
2.53855e-05
3.58197e-08
1.23413e-08
1.44564e-08
1.49287e-08
1.41278e-08
1.29368e-08
1.6441e-05
2.02917e-05
1.9919e-06
6.09841e-05
1.20072e-09
2.0908e-08
7.28047e-09
9.16592e-09
9.01658e-09
8.26987e-09
8.26987e-09
8.43788e-09
2.07576e-06
4.15774e-05
2.60078e-08
1.78138e-08
5.97216e-09
5.7497e-09
5.78393e-09
5.51013e-09
5.97216e-09
1.01519e-05
8.18209e-06
7.43513e-05
1.58556e-05
1.75373e-06
1.99472e-06
2.04438e-06
2.0424e-06
2.0366e-06
2.041e-06
2.06837e-06
2.12189e-06
2.23626e-06
4.53623e-06
4.86192e-07
7.43522e-07
7.98691e-07
7.84612e-07
7.5519e-07
7.31638e-07
7.13503e-07
6.93029e-07
6.12201e-07
1.16158e-06
3.64996e-07
3.7876e-07
3.6366e-07
3.47223e-07
3.33307e-07
3.21548e-07
3.14026e-07
3.17405e-07
2.18894e-06
4.84276e-07
1.86364e-07
1.84152e-07
1.75801e-07
1.67942e-07
1.60927e-07
1.55788e-07
1.50443e-07
1.45782e-07
5.44295e-08
1.99174e-07
9.49306e-08
9.16308e-08
8.65038e-08
8.30677e-08
7.93043e-08
7.70953e-08
7.35501e-08
1.91934e-07
8.26487e-06
9.74414e-08
4.67937e-08
4.52904e-08
4.36201e-08
4.121e-08
3.96112e-08
8.90622e-06
1.17168e-05
2.17062e-06
2.21834e-05
6.0422e-08
1.94079e-08
2.36501e-08
2.22714e-08
2.13381e-08
2.04472e-08
1.98958e-08
1.84746e-08
1.86019e-08
8.04283e-06
2.9597e-06
1.02703e-08
1.16447e-08
1.25611e-08
1.16638e-08
1.57337e-05
2.42288e-05
1.84367e-05
7.46409e-07
3.89752e-05
9.8039e-09
1.96451e-08
6.6467e-09
7.47971e-09
7.18469e-09
7.32352e-09
6.78554e-09
6.50787e-09
2.89088e-07
1.69378e-05
1.88223e-08
1.15175e-08
6.64959e-09
4.75653e-09
4.59745e-09
4.59745e-09
1.96798e-06
8.32882e-06
5.23468e-06
4.57254e-05
1.68927e-06
1.77113e-06
2.02051e-06
2.13174e-06
2.17921e-06
2.19842e-06
2.16043e-06
2.04264e-06
1.83054e-06
1.52782e-06
5.62203e-06
2.38069e-07
4.66733e-07
5.31818e-07
5.14294e-07
4.85855e-07
4.69284e-07
4.72989e-07
4.89338e-07
4.73535e-07
5.85837e-05
6.81029e-06
9.43871e-06
7.16359e-06
5.88664e-06
4.9394e-06
3.76393e-06
1.52962e-06
1.71179e-06
3.94342e-06
3.83123e-07
1.43717e-07
1.42874e-07
1.34252e-07
1.29195e-07
1.23693e-07
1.18133e-07
1.14184e-07
1.09082e-07
9.26622e-08
1.58253e-07
7.4155e-08
7.06057e-08
6.77663e-08
6.4217e-08
6.17325e-08
5.9248e-08
5.7017e-08
1.20904e-07
3.55798e-06
9.77586e-06
3.64469e-08
3.6336e-08
3.42729e-08
3.26979e-08
7.39071e-06
1.19362e-05
9.61756e-06
1.92727e-06
1.25914e-05
5.13983e-08
1.55972e-08
1.80028e-08
1.80423e-08
1.66423e-08
1.59916e-08
1.56564e-08
1.51831e-08
1.4631e-08
1.39338e-08
5.02562e-05
4.56841e-05
4.11017e-05
3.65126e-05
3.47337e-05
3.23333e-05
2.75806e-05
1.65857e-05
2.14733e-09
2.57293e-05
1.76145e-08
1.58912e-08
7.0986e-09
6.04994e-09
5.90475e-09
5.69501e-09
5.69501e-09
5.63048e-09
5.85635e-09
2.04128e-06
6.90796e-09
5.7824e-09
5.17606e-09
4.06691e-09
4.3331e-09
3.93381e-09
5.08794e-06
6.38365e-06
3.25793e-06
2.74761e-05
9.10176e-05
1.32562e-05
1.36056e-05
1.30632e-05
1.25043e-05
1.16279e-05
1.037e-05
8.82562e-06
7.09494e-06
5.21105e-06
3.18624e-06
4.47811e-07
1.9158e-08
2.41899e-07
3.57775e-07
3.8613e-07
3.78438e-07
3.66849e-07
3.8479e-07
4.18997e-07
0.000200939
0.000127886
6.97879e-05
3.98491e-05
2.24553e-05
1.2634e-05
6.507e-06
1.56399e-06
3.78315e-06
7.07664e-06
2.78678e-07
1.05545e-07
1.02987e-07
9.82855e-08
9.48485e-08
9.05315e-08
8.76032e-08
8.5211e-08
8.12928e-08
6.80456e-08
1.21725e-07
5.50083e-08
5.22979e-08
5.03418e-08
4.78435e-08
4.60759e-08
4.42376e-08
1.75796e-07
1.57459e-07
2.10281e-06
3.938e-05
3.00241e-05
1.96733e-05
1.57459e-05
1.50406e-05
1.43094e-05
1.23509e-05
7.94949e-06
1.71466e-06
7.40126e-06
4.01667e-08
1.13101e-08
1.42981e-08
1.33815e-08
1.32899e-08
1.27399e-08
1.19517e-08
1.12002e-08
1.10168e-08
9.94048e-09
0.000219216
4.35009e-05
7.99371e-05
7.01321e-05
5.46521e-05
4.07528e-05
2.86866e-05
1.51853e-05
4.75416e-07
1.8051e-05
2.00676e-08
1.12185e-08
6.47913e-09
4.37941e-09
4.66437e-09
4.69437e-09
4.52939e-09
4.40941e-09
4.15444e-09
3.82371e-09
6.658e-09
2.10347e-09
3.82198e-09
3.35455e-09
2.81837e-09
3.05209e-09
5.26896e-06
4.37874e-06
1.90897e-06
1.57245e-05
0.000302822
3.30707e-05
3.83594e-05
3.74068e-05
3.28048e-05
2.66453e-05
2.02635e-05
1.42469e-05
8.68032e-06
3.31059e-06
1.38997e-05
1.47641e-06
1.05211e-06
8.59174e-07
7.90484e-07
7.20892e-07
5.85966e-07
3.49222e-07
3.87832e-08
6.38942e-07
0.000340735
0.000241499
0.000117302
6.11196e-05
3.07814e-05
1.4996e-05
6.17979e-06
5.18388e-09
6.70941e-06
1.12583e-05
1.81519e-07
7.17768e-08
7.12144e-08
6.72268e-08
6.35076e-08
6.27535e-08
6.00824e-08
5.96989e-08
5.8063e-08
4.61455e-08
1.83643e-05
3.86928e-08
3.72249e-08
2.12745e-07
1.59936e-06
2.42001e-06
2.47218e-06
1.63612e-06
2.36495e-07
1.8456e-06
3.98248e-05
4.5031e-05
3.52111e-05
2.6317e-05
2e-05
1.51561e-05
1.09261e-05
6.34155e-06
1.49347e-06
4.40655e-06
2.94932e-08
8.94653e-09
9.62817e-09
9.93491e-09
8.92949e-09
8.87837e-09
8.33306e-09
8.31602e-09
7.94111e-09
6.77323e-09
0.000486728
1.65047e-05
8.40224e-05
8.3052e-05
6.35262e-05
4.44295e-05
2.87616e-05
1.43108e-05
8.36583e-07
1.37426e-05
1.43509e-08
5.29821e-09
4.44771e-09
4.01548e-09
3.44383e-09
3.42989e-09
2.95584e-09
3.20681e-09
2.87219e-09
3.40122e-09
1.39354e-08
6.7738e-10
2.50503e-09
2.58171e-09
2.35166e-09
3.66297e-08
2.91235e-06
2.18001e-06
9.13684e-07
7.57704e-06
0.000907158
0.000123828
0.000112639
8.3254e-05
5.74878e-05
3.77712e-05
2.31487e-05
1.20837e-05
3.06582e-06
5.21712e-06
1.33343e-05
3.31348e-06
3.13708e-06
2.89468e-06
2.35994e-06
1.58892e-06
6.5288e-07
4.52291e-07
1.80515e-06
3.40144e-06
0.000488406
0.000365238
0.00015924
7.48651e-05
3.29699e-05
1.31022e-05
3.21589e-06
3.10784e-06
1.05408e-05
1.64544e-05
1.2579e-07
4.36049e-08
4.53158e-08
4.31297e-08
3.80088e-08
3.51216e-08
3.24007e-08
2.99531e-08
2.98937e-08
3.08991e-08
5.89499e-05
3.53697e-05
2.04394e-05
1.31815e-05
8.94256e-06
6.15971e-06
4.03258e-06
2.09742e-06
2.78168e-07
1.63038e-06
2.92352e-05
3.71528e-05
3.07076e-05
2.28663e-05
1.65966e-05
1.17794e-05
7.92502e-06
4.42373e-06
1.15953e-06
2.40908e-06
1.92636e-08
6.5744e-09
6.66945e-09
5.97241e-09
6.44767e-09
6.22588e-09
5.62389e-09
5.5922e-09
5.16447e-09
4.72119e-09
0.000834376
0.000119406
6.16332e-05
7.95952e-05
6.31577e-05
4.36508e-05
2.73242e-05
1.33453e-05
1.12686e-06
1.09791e-05
3.11575e-09
1.55539e-09
2.87747e-09
2.35901e-09
2.2942e-09
2.26828e-09
2.19051e-09
1.80166e-09
2.16458e-09
2.14469e-09
1.36201e-08
6.05954e-10
1.20003e-09
1.61588e-09
1.92479e-09
1.4733e-09
1.49706e-09
2.60976e-07
2.44627e-07
2.14923e-06
0.00330068
6.80844e-05
5.1936e-05
2.96108e-05
1.40281e-05
4.24371e-06
2.01771e-06
6.58324e-06
1.07606e-05
1.53796e-05
2.39726e-05
1.5208e-05
1.13156e-05
7.74275e-06
4.69655e-06
2.18911e-06
4.49162e-08
1.98811e-06
4.18469e-06
6.51581e-06
0.000554644
0.000459769
0.000178356
7.48629e-05
2.78463e-05
7.82015e-06
7.59324e-07
5.65105e-06
1.20706e-05
1.85251e-05
8.67756e-08
1.99701e-08
2.58684e-08
2.50952e-08
2.15606e-08
1.61484e-08
9.44383e-09
2.81658e-09
4.90416e-09
2.15389e-08
5.06002e-05
3.42701e-05
1.93682e-05
1.20513e-05
7.73697e-06
4.98931e-06
3.06285e-06
1.53586e-06
2.25932e-07
1.05306e-06
1.65426e-05
1.99964e-05
1.69667e-05
1.26788e-05
9.08591e-06
6.29986e-06
4.12468e-06
2.28682e-06
6.74439e-07
1.00257e-06
9.93506e-09
4.60962e-09
3.71126e-09
4.12362e-09
3.96162e-09
3.41672e-09
3.44617e-09
2.85708e-09
3.34308e-09
2.28737e-09
0.00106778
0.000215528
2.05458e-05
5.7704e-05
4.97652e-05
3.49432e-05
2.17342e-05
1.06692e-05
1.18127e-06
7.8818e-06
6.00941e-09
1.16881e-09
1.39775e-09
1.51824e-09
1.85563e-09
1.2411e-09
1.78333e-09
1.08446e-09
1.53029e-09
8.17033e-10
1.24011e-06
7.93447e-07
7.06907e-10
1.08245e-09
5.96452e-10
4.96083e-07
8.04747e-07
3.80835e-07
2.018e-07
1.24637e-06
0.00249947
0.000648908
0.000455309
0.000309963
0.00021623
0.000148407
9.56858e-05
5.40018e-05
1.03706e-05
2.50148e-05
1.15926e-05
8.71612e-06
4.34844e-06
1.15537e-06
7.43947e-07
1.88298e-06
2.68431e-06
3.41836e-06
4.23226e-06
4.77918e-06
0.000287756
0.000372549
0.000124948
4.62159e-05
1.33677e-05
8.55297e-07
3.72826e-06
6.12868e-06
9.81943e-06
1.45539e-05
9.36659e-08
1.29379e-09
1.28866e-08
2.24668e-08
2.82992e-08
3.32177e-08
3.76022e-08
4.08469e-08
4.24282e-08
4.16526e-08
2.0667e-05
1.5287e-05
8.38197e-06
5.0606e-06
3.14478e-06
1.96324e-06
1.17475e-06
5.87189e-07
9.91381e-08
3.84541e-07
6.23396e-06
5.83802e-06
4.95001e-06
3.69562e-06
2.63144e-06
1.80273e-06
1.16545e-06
6.49177e-07
2.16418e-07
2.32961e-07
3.01688e-09
2.20424e-09
1.69768e-09
2.23162e-09
1.6703e-09
1.8072e-09
1.49231e-09
1.45124e-09
1.60184e-09
1.24644e-09
0.000713969
0.000178246
8.17518e-06
2.3935e-05
2.35913e-05
1.71021e-05
1.07132e-05
5.3293e-06
7.26065e-07
3.63476e-06
1.75579e-09
9.40941e-10
4.48067e-10
1.15377e-09
7.28109e-10
8.40126e-10
4.70471e-10
5.82487e-10
4.70471e-10
8.39071e-10
9.12236e-05
0.000129192
8.54028e-05
5.05392e-05
2.88913e-05
1.62696e-05
8.70819e-06
3.49593e-06
8.31509e-07
5.54668e-06
0.00409517
0.0006819
0.000508647
0.000382827
0.000286832
0.000211695
0.000151545
0.000102448
6.09265e-05
2.7037e-05
8.85293e-06
1.79459e-05
1.24938e-05
8.29705e-06
5.44025e-06
3.53526e-06
2.22032e-06
1.19606e-06
1.85568e-07
1.14033e-06
9.72807e-05
8.38024e-05
1.98484e-05
5.6288e-06
3.33049e-07
1.19791e-06
1.49608e-06
1.61313e-06
2.12616e-06
3.37012e-06
3.35555e-08
1.49772e-08
6.59607e-09
1.58458e-09
2.76825e-09
7.17836e-09
1.07866e-08
1.5044e-08
1.77836e-08
2.19646e-08
1.70761e-06
1.78874e-06
9.39803e-07
5.5173e-07
3.31797e-07
2.0226e-07
1.18443e-07
5.88287e-08
1.1733e-08
4.29392e-08
7.93106e-07
4.52809e-07
3.70249e-07
2.72167e-07
1.9121e-07
1.27635e-07
8.17588e-08
4.55186e-08
1.76548e-08
1.50774e-08
1.04618e-09
2.92734e-10
7.382e-10
5.34559e-10
8.90931e-11
5.21831e-10
1.03093e-09
4.96376e-10
2.41824e-10
2.29097e-10
5.29836e-05
2.82584e-05
2.45608e-06
2.70715e-06
2.99228e-06
2.23016e-06
1.40956e-06
7.09649e-07
1.10207e-07
4.73669e-07
2.29506e-09
5.51914e-10
3.54058e-10
4.16539e-11
3.74885e-10
1.77029e-10
2.0827e-10
1.87443e-10
3.74885e-10
1.35375e-10
0.000264505
0.000160038
9.49134e-05
5.42094e-05
3.05136e-05
1.69601e-05
8.91512e-06
3.58467e-06
7.69554e-07
5.35493e-06
0.526019
0.418973
0.530159
0.919632
0.686127
0.623867
0.739202
1.11567
0.849572
0.791482
0.937835
1.44122
0.616639
0.593183
0.702749
1.09974
0.450496
0.44906
0.533217
0.863279
0.298409
0.294922
0.365819
0.622505
0.198634
0.189612
0.253265
0.455002
0.128204
0.11823
0.169405
0.315538
0.0885319
0.0808761
0.1221
0.230972
0.0666943
0.0615629
0.0993525
0.188047
0.0358311
0.00179428
1.78396e-05
0.0190158
0.0785118
0.00651966
1.33095e-05
0.0409452
0.136613
0.0152009
7.18979e-06
0.0704177
0.12498
0.01702
3.70864e-06
0.0603773
0.110286
0.0169897
1.91723e-06
0.0489175
0.0853347
0.0142365
9.82844e-07
0.0375738
0.0644159
0.0110623
5.21569e-07
0.0305237
0.0464386
0.00833699
2.96721e-07
0.0231942
0.0357236
0.00714206
0.00104045
0.0184311
0.0301001
0.0082443
0.00382087
0.0155008
0.0171063
0.0134508
0.0141286
0.0196818
0.0387145
0.0266639
0.0261753
0.04081
0.0749424
0.0486866
0.0492556
0.0796676
0.0710508
0.043072
0.0446852
0.0749942
0.0650954
0.037061
0.0395665
0.0699565
0.0519868
0.0280388
0.030678
0.0566907
0.0404128
0.0206545
0.0232326
0.0452023
0.0299329
0.0145384
0.016689
0.0336753
0.0234812
0.0104544
0.0123933
0.025986
0.0200746
0.00850483
0.0105693
0.0215271
0.00192113
0.00138897
0.00133768
0.00194965
0.00609346
0.0041737
0.0038627
0.00631461
0.0162343
0.0110081
0.0104766
0.0165938
0.0190434
0.0125544
0.012394
0.018969
0.0207144
0.0131688
0.0136024
0.0207292
0.0189491
0.0116299
0.012446
0.0190383
0.0164217
0.00967188
0.0106892
0.0167371
0.0133856
0.00760373
0.00860487
0.0136686
0.0111884
0.00583594
0.00691413
0.0112357
0.00994014
0.00508159
0.00648137
0.0100753
0.000608393
0.000569748
0.000599604
0.000817336
0.00226646
0.0021035
0.00236482
0.00340731
0.00609181
0.00574191
0.00640284
0.00889199
0.00729258
0.00654768
0.00705808
0.00959954
0.00837932
0.00713405
0.00763202
0.0103481
0.00813561
0.00655893
0.00704034
0.00951427
0.0074553
0.00568242
0.00617891
0.00841245
0.00648661
0.00469285
0.00517416
0.00704966
0.00583495
0.00387384
0.00445879
0.00604611
0.00558693
0.00369054
0.00456156
0.0058265
0.000110026
0.000104113
0.000104036
0.000163366
0.000765714
0.000721531
0.000845565
0.0012343
0.00245394
0.00248829
0.00298591
0.0041086
0.00301908
0.00305278
0.0035426
0.00471725
0.00358378
0.00354996
0.00403773
0.00531266
0.00361423
0.0034489
0.00386829
0.00503551
0.0034246
0.00313019
0.00349264
0.0045189
0.0031536
0.00273737
0.00304614
0.00389814
0.00305443
0.00244026
0.00279348
0.00347058
0.00302852
0.00238178
0.00289284
0.00336866
8.00037e-06
9.09453e-06
4.51831e-06
2.33215e-05
0.000270104
0.000251312
0.000300749
0.000459602
0.00117305
0.00119777
0.00148011
0.00206808
0.00149163
0.0015709
0.00189596
0.00252738
0.00179899
0.00191335
0.0022756
0.00297658
0.0018428
0.00193165
0.00226033
0.00291514
0.00174876
0.00179566
0.00207855
0.00264656
0.00166974
0.00164265
0.00187392
0.00235156
0.00169588
0.00155562
0.00178887
0.00213893
0.00169417
0.00153251
0.00182972
0.00205677
1.49937e-05
5.39353e-06
5.20741e-06
5.34386e-06
7.43688e-05
6.29194e-05
7.51739e-05
0.000129042
0.000535952
0.000528946
0.000659599
0.000946994
0.000755099
0.000795399
0.000972185
0.00130424
0.000954686
0.0010352
0.00125495
0.00164664
0.00102079
0.0011078
0.00132601
0.00171293
0.000971342
0.00105438
0.00125077
0.00158566
0.000959498
0.00101063
0.00117664
0.00146876
0.000961841
0.000966128
0.00111382
0.00131132
0.000976101
0.00097934
0.00115425
0.00128491
1.2213e-05
4.2579e-06
4.09959e-06
4.22503e-06
1.1183e-05
5.82869e-06
5.6793e-06
1.97814e-05
0.000232413
0.000209981
0.000261773
0.000400757
0.000376797
0.00039083
0.000479343
0.000649192
0.000503431
0.000548136
0.000670015
0.00088348
0.000577578
0.000635088
0.000767677
0.000995715
0.000554157
0.000618809
0.000742746
0.00093923
0.00057462
0.000627538
0.000738719
0.000921627
0.000548121
0.000583955
0.000672907
0.000789279
0.000579494
0.000624113
0.000727943
0.000809892
9.48728e-06
3.16046e-06
3.06055e-06
3.14586e-06
2.93439e-06
1.15048e-06
1.11078e-06
1.23667e-06
8.74112e-05
6.04118e-05
7.35301e-05
0.000138186
0.000181448
0.000181861
0.000222533
0.000305733
0.000256146
0.00027666
0.000339717
0.000451749
0.00032148
0.000353867
0.000429866
0.000561555
0.000307215
0.000349125
0.00042153
0.000531413
0.000343632
0.000382276
0.000452676
0.000566684
0.000313635
0.00034626
0.00039879
0.000468312
0.000350031
0.00039369
0.000455694
0.000507913
7.89533e-06
2.61067e-06
2.49707e-06
2.60008e-06
2.41755e-06
8.49576e-07
8.2588e-07
9.24762e-07
2.20235e-05
3.63308e-07
3.47184e-07
2.16629e-05
8.31406e-05
7.84932e-05
9.50777e-05
0.000133283
0.000125138
0.000132382
0.000163052
0.000220056
0.000176862
0.000192975
0.000235207
0.000310954
0.000163242
0.000187849
0.000227757
0.000285674
0.000204626
0.000228856
0.000272219
0.000343522
0.000177285
0.000199552
0.000229797
0.000270379
0.000212091
0.000244333
0.000281758
0.000314349
4.01591e-06
1.2237e-06
1.22671e-06
1.36269e-06
1.79032e-06
6.1064e-07
5.96145e-07
6.66952e-07
7.13013e-07
2.65e-07
2.55859e-07
2.89998e-07
3.47144e-05
2.94477e-05
3.46669e-05
4.97483e-05
5.7344e-05
5.83384e-05
7.19847e-05
9.96647e-05
9.61917e-05
0.000103126
0.000125991
0.000169579
8.11869e-05
9.4729e-05
0.000115275
0.000142937
0.000121869
0.000135527
0.000161904
0.00020716
9.56263e-05
0.000108661
0.000125094
0.000147201
0.000127269
0.000148345
0.000171177
0.000190681
8.7905e-06
2.44339e-06
2.13923e-06
2.03658e-06
1.35085e-06
4.54792e-07
4.53791e-07
5.11574e-07
5.26531e-07
1.87884e-07