/*--------------------------------*- C++ -*----------------------------------*\
| =========                 |                                                 |
| \\      /  F ield         | foam-extend: Open Source CFD                    |
|  \\    /   O peration     | Version:     4.0                                |
|   \\  /    A nd           | Web:         http://www.foam-extend.org         |
|    \\/     M anipulation  |                                                 |
\*---------------------------------------------------------------------------*/
FoamFile
{
    version     2.0;
    format      ascii;
    class       volScalarField;
    location    "2000";
    object      alphat;
}
// * * * * * * * * * * * * * * * * * * * * * * * * * * * * * * * * * * * * * //

dimensions      [1 -1 -1 0 0 0 0];

internalField   nonuniform List<scalar> 
34480
(
0.00190202
0.00189977
0.00189867
0.00189903
0.00190185
0.00190943
0.00192661
0.00195855
0.00200524
0.00212235
0.0178349
0.016359
0.013761
0.00989754
0.00582564
0.00306459
0.00187964
0.00169763
0.00200306
0.00236918
0.0516409
0.0468961
0.0394191
0.0290433
0.0174484
0.00838196
0.00387565
0.00255437
0.00265286
0.00304895
0.0641746
0.0592657
0.0513531
0.0397063
0.0252855
0.0124171
0.00528383
0.0029938
0.00293691
0.00339451
0.0695263
0.0652692
0.0580858
0.0466988
0.0311911
0.0158141
0.00650184
0.0033449
0.0031688
0.00370171
0.0714155
0.0679587
0.0616428
0.0507818
0.034804
0.0179227
0.00726048
0.00359028
0.00342183
0.00407849
0.0700479
0.0676102
0.0624791
0.0525702
0.0367793
0.0192073
0.00777122
0.00378033
0.00366518
0.0044526
0.059366
0.0585197
0.0554984
0.047945
0.034156
0.0179506
0.00732001
0.00364193
0.00372258
0.00468056
0.0192282
0.0199231
0.020444
0.019501
0.0151891
0.00851185
0.0037779
0.00216695
0.00265311
0.00382907
0.00177356
0.00176222
0.00175346
0.00174754
0.00174552
0.00174697
0.00175088
0.00175759
0.00175701
0.00172609
0.00191532
0.00191424
0.00191501
0.0019181
0.00192394
0.00193331
0.00194885
0.00197529
0.00201977
0.00209595
0.0165382
0.0162399
0.0156632
0.0143894
0.0119107
0.00821664
0.00461158
0.00272018
0.00244118
0.00326296
0.0497409
0.0475329
0.0436932
0.037789
0.0299202
0.0204731
0.0110401
0.00519747
0.00376668
0.00491238
0.0613741
0.0591051
0.0550836
0.0485636
0.0394341
0.0279779
0.0154932
0.00671851
0.00439933
0.00582081
0.0661625
0.0644353
0.0611266
0.0552319
0.0460666
0.0337828
0.0192768
0.00798435
0.00490156
0.00665183
0.0678166
0.0667613
0.0643402
0.0593494
0.0505525
0.0379347
0.0220767
0.00889217
0.00536887
0.0076708
0.0665091
0.0662392
0.0649302
0.061172
0.053248
0.0408481
0.0242521
0.0096072
0.0057925
0.00872743
0.0562422
0.0569438
0.0572162
0.0556756
0.0501824
0.0397584
0.0241469
0.00943976
0.00583675
0.00939186
0.0180028
0.0187039
0.0198275
0.0212144
0.0220843
0.0206227
0.0140752
0.00549307
0.00374165
0.00703653
0.0017753
0.00176314
0.00175291
0.00174531
0.0017418
0.00174307
0.0017473
0.00175376
0.00178479
0.00189446
0.00192056
0.00192041
0.00192186
0.00192543
0.00193145
0.00194024
0.00195252
0.00196976
0.00199463
0.00202984
0.0146339
0.014596
0.0146237
0.0144918
0.0137575
0.0120491
0.00950156
0.00696008
0.00533952
0.00480218
0.046164
0.0450973
0.0430071
0.0395695
0.034555
0.0277907
0.0197953
0.0124674
0.0081698
0.00700688
0.0566348
0.0556225
0.0535012
0.0496538
0.0438402
0.0356573
0.0252608
0.0150022
0.00912294
0.00801713
0.0607625
0.0602243
0.0587814
0.0555633
0.0499782
0.0414507
0.0295693
0.0168174
0.00965832
0.00888198
0.0621844
0.062189
0.0615525
0.0592569
0.0542518
0.0457792
0.0328549
0.0180019
0.00999543
0.00983217
0.0610806
0.0616582
0.061952
0.0608247
0.0568138
0.0488589
0.0353788
0.0187651
0.010172
0.0107654
0.0517842
0.0528967
0.0542436
0.0548686
0.0530362
0.0471217
0.0347842
0.0179886
0.00971478
0.0112302
0.0168118
0.0173607
0.0183429
0.0197719
0.0214013
0.0220954
0.0188475
0.0103529
0.00590164
0.00791781
0.00177105
0.00176012
0.00175101
0.00174443
0.00174162
0.00174422
0.00175281
0.00176652
0.00179837
0.00189749
0.00191773
0.00191794
0.00191919
0.0019218
0.00192596
0.0019318
0.00193952
0.00194953
0.00196296
0.001982
0.0130338
0.0130389
0.0132218
0.0135321
0.0137641
0.0136352
0.0129223
0.0116506
0.0101828
0.00906292
0.0423697
0.041895
0.0408648
0.0390621
0.0362241
0.0321292
0.0268826
0.0210995
0.0160222
0.0130247
0.0514901
0.051118
0.0500826
0.0479644
0.0445059
0.0393467
0.0324441
0.0245013
0.0175615
0.014063
0.054893
0.0549109
0.0544523
0.0528237
0.0496047
0.0442634
0.0364407
0.0267502
0.0182536
0.0147399
0.0561118
0.0565331
0.0567273
0.0558663
0.0531833
0.0479836
0.0395269
0.0282839
0.0185685
0.0155128
0.0553025
0.0561156
0.0570165
0.0570995
0.055273
0.0505765
0.0418131
0.0291904
0.0184755
0.0161449
0.0472404
0.0483149
0.0498516
0.0511821
0.0510513
0.0480711
0.0404295
0.0278263
0.0172253
0.0160452
0.0157957
0.0161896
0.0169424
0.0180732
0.0195299
0.0208087
0.0202454
0.0155888
0.0102486
0.0107824
0.0017649
0.00175537
0.00174763
0.00174229
0.00174032
0.00174353
0.00175382
0.00177212
0.0018048
0.00188211
0.00190874
0.00190909
0.00190996
0.00191151
0.00191381
0.00191685
0.00192071
0.00192564
0.00193258
0.00194413
0.0119907
0.0119722
0.0121081
0.012427
0.0128865
0.0134004
0.0138297
0.0140128
0.0138265
0.0133441
0.0387068
0.0386099
0.0383275
0.0377123
0.0365319
0.0345617
0.0317236
0.0281468
0.0242136
0.0208826
0.046467
0.046484
0.0462084
0.0453714
0.0437191
0.0409606
0.0369855
0.0319481
0.0264234
0.0220887
0.0491726
0.0494742
0.0496151
0.0491261
0.0476641
0.0448151
0.0403248
0.0342533
0.0274117
0.0225714
0.0502291
0.0507924
0.0513987
0.0514613
0.0504306
0.0477527
0.0429655
0.0359903
0.0279948
0.0231498
0.0497403
0.0505442
0.05163
0.052359
0.0519739
0.0497232
0.0448539
0.0370506
0.0279557
0.0234323
0.0429846
0.0438773
0.0452761
0.0467711
0.0475511
0.0466045
0.0427413
0.0352205
0.026069
0.0225401
0.0149631
0.015226
0.0157656
0.0165804
0.017687
0.0189473
0.0196764
0.0183772
0.0148288
0.0140815
0.00175755
0.00174942
0.00174304
0.00173892
0.00173785
0.0017414
0.00175158
0.00177023
0.00180046
0.00185673
0.00189513
0.00189552
0.00189606
0.00189683
0.00189784
0.00189904
0.00190046
0.00190233
0.00190564
0.00191322
0.0115476
0.0115043
0.0115618
0.0117534
0.0120767
0.0125288
0.0130976
0.0137551
0.0144328
0.0149782
0.0351546
0.0352584
0.0354022
0.0355196
0.0354677
0.035068
0.0341708
0.0327065
0.0307265
0.0286266
0.0416799
0.041909
0.0421153
0.0421606
0.041843
0.0409249
0.0392358
0.0367288
0.0334955
0.0302544
0.0438647
0.0442795
0.044754
0.045029
0.0448413
0.0438705
0.041873
0.0387485
0.0345595
0.0305403
0.0448422
0.0454022
0.0461612
0.0467925
0.0469197
0.046113
0.044008
0.0404158
0.0353711
0.0309045
0.0446692
0.0453617
0.0464116
0.0474516
0.0480102
0.0475284
0.045462
0.0414592
0.0355281
0.0308466
0.0391813
0.0398638
0.0410026
0.0424002
0.0436131
0.0439931
0.0427293
0.0391546
0.033203
0.0290666
0.014312
0.0144743
0.0148426
0.015394
0.0161564
0.0171377
0.0181517
0.0185255
0.0172918
0.0164651
0.00174874
0.00174197
0.00173686
0.00173387
0.00173364
0.00173741
0.00174677
0.0017634
0.00178885
0.00182782
0.00187823
0.00187862
0.00187893
0.0018792
0.00187944
0.0018796
0.00187971
0.00187998
0.00188142
0.0018869
0.011582
0.0115306
0.0115414
0.0116383
0.0118197
0.0120874
0.0124485
0.0129231
0.0135408
0.0142775
0.0320625
0.0321845
0.0323977
0.0326996
0.0330459
0.0333621
0.0335596
0.0335468
0.0332553
0.0327423
0.0373968
0.037645
0.0379809
0.0383747
0.038727
0.0389039
0.0387632
0.0381921
0.0371332
0.0357961
0.0392343
0.0396082
0.0401277
0.0406952
0.0411709
0.0413632
0.0410702
0.0401384
0.0384594
0.0364054
0.0401977
0.0406496
0.0413342
0.0421313
0.0428414
0.0432001
0.0429156
0.0417656
0.039542
0.0368821
0.0402982
0.0408257
0.0416838
0.0427164
0.043696
0.0442866
0.0440822
0.0427525
0.0399365
0.0367479
0.0359604
0.0364421
0.0372774
0.0384017
0.0396306
0.0406514
0.0409548
0.0400094
0.0372364
0.0341939
0.0138475
0.013936
0.0141754
0.0145269
0.0150092
0.0156574
0.01646
0.0171992
0.0171814
0.0169398
0.00173822
0.00173273
0.00172877
0.00172673
0.00172716
0.00173098
0.00173926
0.00175314
0.00177311
0.00179927
0.00185896
0.00185935
0.00185952
0.00185951
0.00185931
0.0018589
0.00185832
0.00185778
0.00185823
0.00186255
0.0119234
0.0118762
0.0118674
0.0119147
0.012016
0.0121716
0.0123878
0.0126909
0.0131391
0.0137984
0.0299314
0.0299991
0.0301235
0.0303182
0.030577
0.0308823
0.031209
0.031518
0.0317516
0.031857
0.0340898
0.0342491
0.0344827
0.0348077
0.0351945
0.0356006
0.0359674
0.0362249
0.0362985
0.0361986
0.0355827
0.0358328
0.0362029
0.0366745
0.0372048
0.0377263
0.0381436
0.0383511
0.0382362
0.0378572
0.0364925
0.0367924
0.037269
0.0379051
0.038634
0.0393595
0.0399307
0.0401805
0.0399066
0.039201
0.0367613
0.0371146
0.0377092
0.0384984
0.0394161
0.0403369
0.0410461
0.0412986
0.0407575
0.0396228
0.0333843
0.0336966
0.0342476
0.0350259
0.0359794
0.037026
0.0379472
0.0384121
0.0378864
0.0366884
0.0135653
0.0136017
0.0137501
0.013962
0.0142462
0.0146267
0.0151204
0.0156606
0.0157865
0.0157493
0.00172576
0.00172144
0.00171847
0.0017172
0.00171805
0.00172167
0.00172872
0.00173982
0.00175468
0.00177197
0.00183791
0.0018383
0.0018384
0.00183822
0.00183779
0.00183708
0.00183614
0.00183516
0.00183505
0.00183863
0.0124378
0.0124002
0.012385
0.0124069
0.0124651
0.0125601
0.0126992
0.0129122
0.0132703
0.013886
0.0287718
0.0287988
0.0288496
0.0289345
0.0290537
0.0292029
0.0293759
0.0295595
0.0297237
0.029819
0.0319333
0.0320087
0.0321196
0.0322859
0.0324979
0.0327434
0.033004
0.0332506
0.0334392
0.033546
0.0330298
0.0331647
0.0333642
0.0336285
0.0339483
0.034307
0.0346758
0.0350131
0.0352551
0.0353939
0.0337943
0.0339625
0.0342313
0.0346086
0.0350789
0.0356252
0.0362045
0.036749
0.0371396
0.0373494
0.0341001
0.0343091
0.0346638
0.0351495
0.0357618
0.0364802
0.0372419
0.0379429
0.0383792
0.0385351
0.0314556
0.0316408
0.0319695
0.0324386
0.0330364
0.0337663
0.0345828
0.0353612
0.035769
0.0358321
0.0134568
0.0134578
0.0135451
0.0136664
0.0138246
0.0140302
0.014294
0.014582
0.014534
0.0143591
0.00171119
0.0017079
0.00170576
0.00170504
0.00170608
0.00170929
0.00171503
0.00172354
0.00173415
0.00174542
0.00181539
0.00181577
0.00181583
0.00181557
0.00181501
0.00181415
0.00181302
0.00181179
0.00181133
0.00181436
0.0130455
0.013019
0.0130029
0.0130109
0.0130438
0.013103
0.0131978
0.0133612
0.013673
0.0142748
0.0282677
0.0282771
0.0282944
0.028326
0.0283733
0.0284357
0.0285127
0.0286006
0.0286844
0.0287262
0.0306935
0.0307232
0.0307662
0.0308358
0.0309267
0.0310337
0.0311492
0.0312608
0.0313475
0.0313933
0.0314196
0.0314828
0.0315738
0.0316936
0.0318387
0.0320031
0.0321771
0.0323452
0.0324798
0.032574
0.0319907
0.0320736
0.032204
0.0323893
0.0326235
0.0329047
0.0332227
0.0335558
0.033851
0.0340797
0.0322403
0.0323508
0.0325384
0.0327934
0.0331208
0.0335213
0.0339829
0.0344755
0.0349037
0.035243
0.0301174
0.0302169
0.0303963
0.030649
0.0309678
0.0313647
0.0318406
0.0323622
0.032756
0.0330416
0.0135113
0.0134889
0.0135372
0.0136032
0.013687
0.0137917
0.0139217
0.0140508
0.0138819
0.0136206
0.00169437
0.00169196
0.00169048
0.00169014
0.00169117
0.00169382
0.00169826
0.00170449
0.00171175
0.00171889
0.00179148
0.00179187
0.0017919
0.0017916
0.00179098
0.00179003
0.0017888
0.00178743
0.00178671
0.00178927
0.0137101
0.0136946
0.0136799
0.0136798
0.0136965
0.0137326
0.0137992
0.0139323
0.0142181
0.0148187
0.0281268
0.0281305
0.0281357
0.0281465
0.0281649
0.028192
0.0282294
0.0282776
0.028328
0.0283479
0.0300371
0.0300472
0.030062
0.0300895
0.0301266
0.0301705
0.0302181
0.0302635
0.0302969
0.030309
0.0304779
0.0305045
0.0305421
0.0305913
0.0306496
0.0307142
0.0307807
0.0308432
0.0308916
0.0309242
0.030868
0.0309047
0.0309617
0.0310435
0.0311456
0.0312671
0.0314043
0.0315493
0.031681
0.0317824
0.0310274
0.0310794
0.0311697
0.0312904
0.0314447
0.031633
0.0318517
0.0320903
0.0323055
0.0324812
0.0292718
0.0293186
0.0294091
0.0295337
0.0296848
0.0298681
0.0300876
0.0303308
0.0305037
0.0306361
0.0137183
0.0136807
0.0137053
0.0137394
0.0137819
0.0138328
0.0138933
0.0139421
0.0137353
0.0134795
0.0016752
0.00167353
0.00167255
0.00167244
0.00167334
0.00167539
0.00167861
0.00168293
0.00168764
0.00169194
0.0017662
0.00176658
0.0017666
0.00176628
0.00176562
0.00176463
0.00176334
0.00176188
0.00176095
0.00176307
0.0144236
0.0144184
0.0144061
0.0144014
0.0144073
0.0144278
0.0144754
0.0145889
0.0148595
0.0154648
0.0281687
0.0281714
0.0281728
0.0281762
0.0281835
0.0281966
0.0282182
0.0282502
0.028287
0.0282986
0.0297111
0.0297139
0.0297187
0.0297297
0.0297455
0.0297647
0.0297861
0.0298067
0.0298217
0.0298243
0.0299586
0.0299683
0.0299828
0.0300023
0.0300254
0.0300506
0.0300761
0.0300995
0.0301174
0.03013
0.0302097
0.0302241
0.030247
0.030281
0.0303232
0.0303727
0.0304278
0.0304856
0.0305384
0.0305775
0.0302866
0.0303072
0.0303469
0.0304005
0.0304693
0.0305531
0.0306497
0.0307547
0.0308474
0.0309187
0.0288057
0.0288228
0.0288649
0.0289217
0.0289867
0.0290614
0.0291479
0.029239
0.0292806
0.0293083
0.0140699
0.0140228
0.0140335
0.0140502
0.014071
0.0140949
0.0141217
0.0141336
0.013936
0.0137254
0.00165363
0.00165255
0.00165195
0.00165196
0.00165266
0.00165412
0.0016563
0.00165909
0.00166191
0.00166426
0.00173945
0.00173983
0.00173985
0.00173952
0.00173884
0.00173783
0.0017365
0.00173496
0.00173385
0.00173554
0.0151956
0.0151996
0.0151904
0.0151832
0.015182
0.0151918
0.0152265
0.0153269
0.0155891
0.0162028
0.0282975
0.0283004
0.028301
0.0283019
0.0283049
0.0283123
0.0283267
0.0283512
0.0283817
0.0283899
0.0295594
0.0295601
0.0295616
0.0295663
0.0295735
0.0295827
0.0295935
0.0296046
0.0296129
0.0296135
0.0296873
0.0296897
0.0296948
0.0297027
0.0297126
0.0297239
0.0297357
0.0297468
0.0297562
0.0297642
0.029844
0.0298486
0.029857
0.0298708
0.0298882
0.0299086
0.0299313
0.0299552
0.0299777
0.0299944
0.0298633
0.0298687
0.0298841
0.0299069
0.0299378
0.0299765
0.0300216
0.0300709
0.0301139
0.0301455
0.0286117
0.0286133
0.0286311
0.0286551
0.0286801
0.0287064
0.0287348
0.0287605
0.0287516
0.0287449
0.0145637
0.0145107
0.0145137
0.0145214
0.0145314
0.0145426
0.0145538
0.0145498
0.0143832
0.0142266
0.00162964
0.00162902
0.00162869
0.00162875
0.00162924
0.00163017
0.0016315
0.00163311
0.00163459
0.00163561
0.00171115
0.00171153
0.00171154
0.0017112
0.00171051
0.00170948
0.00170813
0.00170653
0.00170525
0.0017065
0.0160468
0.0160594
0.0160535
0.0160454
0.0160398
0.0160422
0.0160681
0.0161601
0.0164187
0.0170447
0.028465
0.0284685
0.0284691
0.0284694
0.0284708
0.0284755
0.0284863
0.0285067
0.0285338
0.0285414
0.0294946
0.0294949
0.0294956
0.0294977
0.0295011
0.0295058
0.0295116
0.0295181
0.0295235
0.029524
0.0295534
0.029553
0.0295545
0.029558
0.0295631
0.0295695
0.0295766
0.0295839
0.0295908
0.0295976
0.0296506
0.0296514
0.0296542
0.0296598
0.0296673
0.0296765
0.0296868
0.0296979
0.0297088
0.0297174
0.0296389
0.0296376
0.0296423
0.029652
0.0296669
0.029687
0.0297112
0.0297384
0.0297626
0.0297806
0.0285994
0.0285939
0.0286005
0.0286096
0.0286178
0.0286246
0.0286303
0.0286318
0.0286099
0.0285988
0.0152055
0.0151488
0.0151476
0.0151511
0.015156
0.0151614
0.0151658
0.0151551
0.0150282
0.0149224
0.00160324
0.00160295
0.00160282
0.00160288
0.00160317
0.00160367
0.00160434
0.00160509
0.00160562
0.00160574
0.00168118
0.00168155
0.00168156
0.00168122
0.00168052
0.00167948
0.0016781
0.00167646
0.00167502
0.0016758
0.0170083
0.0170288
0.0170267
0.0170188
0.0170106
0.0170082
0.017028
0.0171146
0.0173738
0.0180182
0.0286479
0.0286518
0.0286527
0.028653
0.0286539
0.0286572
0.0286659
0.0286834
0.0287087
0.0287174
0.0294702
0.0294707
0.0294712
0.0294722
0.0294738
0.029476
0.0294791
0.029483
0.0294869
0.0294878
0.0294916
0.0294904
0.0294906
0.0294924
0.0294956
0.0294999
0.0295051
0.0295107
0.0295164
0.0295222
0.0295526
0.0295521
0.0295529
0.0295553
0.029559
0.0295637
0.0295691
0.029575
0.0295811
0.0295862
0.0295304
0.0295268
0.0295272
0.0295315
0.0295398
0.0295519
0.0295672
0.0295848
0.0296011
0.0296141
0.0286993
0.0286911
0.0286928
0.0286958
0.0286976
0.0286978
0.028696
0.0286902
0.0286695
0.028663
0.0160125
0.0159534
0.0159503
0.0159518
0.0159546
0.0159574
0.015959
0.0159471
0.0158607
0.0157981
0.00157444
0.0015744
0.00157439
0.00157444
0.00157456
0.00157473
0.00157491
0.00157504
0.00157493
0.00157446
0.00164946
0.00164983
0.00164984
0.00164948
0.00164878
0.00164773
0.00164633
0.00164465
0.00164305
0.00164335
0.0181223
0.0181506
0.0181523
0.0181455
0.0181362
0.018131
0.0181467
0.0182298
0.018493
0.0191673
0.028834
0.0288379
0.0288392
0.0288396
0.0288404
0.028843
0.0288501
0.0288654
0.0288893
0.0289007
0.0294628
0.0294635
0.029464
0.0294645
0.0294651
0.0294659
0.0294674
0.0294696
0.0294724
0.0294739
0.0294654
0.0294642
0.0294641
0.0294651
0.0294673
0.0294704
0.0294742
0.0294785
0.029483
0.0294877
0.0295039
0.0295032
0.0295034
0.0295045
0.0295066
0.0295093
0.0295126
0.0295161
0.0295197
0.0295231
0.029484
0.0294801
0.0294791
0.0294813
0.0294866
0.0294948
0.0295053
0.0295177
0.0295295
0.02954
0.02886
0.0288515
0.0288514
0.028852
0.0288519
0.0288506
0.0288473
0.0288409
0.0288257
0.0288253
0.0170186
0.0169581
0.0169541
0.0169549
0.0169566
0.0169584
0.0169587
0.0169522
0.0168997
0.0168721
0.00154329
0.00154344
0.00154351
0.00154354
0.00154352
0.00154345
0.00154328
0.00154299
0.00154245
0.00154159
0.001616
0.00161637
0.00161638
0.00161602
0.00161531
0.00161424
0.00161283
0.0016111
0.00160936
0.00160915
0.019447
0.0194829
0.0194889
0.019484
0.0194748
0.0194683
0.0194814
0.0195617
0.0198308
0.0205509
0.0290148
0.0290186
0.0290199
0.0290206
0.0290213
0.0290234
0.0290292
0.0290422
0.0290645
0.0290794
0.0294608
0.0294616
0.0294621
0.0294622
0.0294623
0.0294624
0.0294629
0.029464
0.0294661
0.0294682
0.029455
0.029454
0.0294539
0.0294545
0.029456
0.0294581
0.0294608
0.0294639
0.0294671
0.0294706
0.0294788
0.0294782
0.0294782
0.0294789
0.0294801
0.0294818
0.0294838
0.0294859
0.0294881
0.0294903
0.0294665
0.0294632
0.0294621
0.0294633
0.0294669
0.0294725
0.0294798
0.0294884
0.0294967
0.0295051
0.0290437
0.0290362
0.0290355
0.0290355
0.0290351
0.029034
0.0290315
0.0290269
0.0290174
0.0290219
0.0182818
0.0182211
0.0182169
0.0182174
0.0182186
0.0182197
0.0182193
0.0182165
0.0181934
0.0181929
0.00150994
0.0015102
0.00151033
0.00151034
0.00151023
0.00150998
0.00150958
0.00150901
0.00150819
0.00150708
0.00158101
0.00158137
0.00158137
0.00158101
0.00158029
0.00157922
0.00157779
0.00157603
0.00157415
0.00157339
0.021063
0.0211062
0.0211166
0.0211145
0.0211073
0.0211015
0.0211133
0.02119
0.0214629
0.0222472
0.029181
0.0291843
0.0291856
0.0291863
0.0291871
0.0291888
0.0291933
0.0292037
0.0292232
0.0292413
0.0294587
0.0294593
0.0294597
0.0294597
0.0294596
0.0294594
0.0294593
0.0294598
0.0294612
0.0294635
0.02945
0.0294494
0.0294493
0.0294497
0.0294506
0.029452
0.0294537
0.0294556
0.0294577
0.02946
0.0294639
0.0294635
0.0294635
0.0294639
0.0294646
0.0294656
0.0294667
0.0294679
0.0294691
0.0294705
0.0294581
0.0294557
0.0294548
0.0294556
0.0294579
0.0294616
0.0294662
0.0294716
0.029477
0.0294831
0.0292199
0.0292142
0.0292134
0.0292133
0.0292132
0.0292127
0.0292112
0.0292088
0.0292034
0.0292109
0.0198994
0.0198401
0.0198363
0.0198366
0.0198374
0.0198379
0.0198366
0.0198332
0.0198238
0.0198431
0.00147461
0.00147495
0.00147511
0.0014751
0.00147492
0.00147456
0.00147402
0.00147327
0.00147228
0.00147103
0.00154451
0.00154494
0.00154495
0.0015446
0.00154389
0.00154283
0.00154142
0.00153966
0.00153767
0.00153637
0.0230696
0.0231185
0.0231339
0.0231366
0.0231346
0.0231338
0.0231475
0.0232185
0.0234828
0.0243333
0.0293201
0.0293225
0.0293235
0.0293241
0.0293249
0.0293263
0.0293295
0.0293367
0.0293518
0.0293708
0.0294543
0.0294547
0.0294549
0.0294549
0.0294548
0.0294545
0.0294544
0.0294545
0.0294553
0.0294571
0.0294464
0.0294461
0.029446
0.0294462
0.0294467
0.0294475
0.0294485
0.0294496
0.0294508
0.0294521
0.0294535
0.0294533
0.0294533
0.0294535
0.0294539
0.0294544
0.0294549
0.0294555
0.0294561
0.0294568
0.0294488
0.0294473
0.0294468
0.0294472
0.0294486
0.0294507
0.0294532
0.0294561
0.029459
0.0294629
0.0293614
0.0293578
0.0293574
0.0293574
0.0293573
0.0293571
0.0293563
0.029355
0.0293517
0.0293598
0.0220376
0.021983
0.0219801
0.0219803
0.0219806
0.0219803
0.0219784
0.0219741
0.0219636
0.0219759
0.00143749
0.00143785
0.00143803
0.001438
0.00143779
0.00143737
0.00143674
0.0014359
0.00143482
0.00143351
0.00150587
0.00150623
0.00150625
0.00150591
0.00150522
0.00150418
0.0015028
0.00150108
0.00149905
0.0014973
0.0257141
0.0257531
0.0257628
0.0257638
0.0257614
0.0257587
0.0257628
0.0258014
0.0259898
0.0268281
0.0294194
0.0294205
0.029421
0.0294214
0.029422
0.029423
0.0294248
0.0294286
0.0294371
0.0294517
0.029449
0.0294491
0.0294492
0.0294492
0.0294492
0.0294491
0.029449
0.029449
0.0294492
0.02945
0.0294441
0.0294439
0.0294438
0.0294439
0.0294442
0.0294446
0.0294452
0.0294458
0.0294465
0.0294473
0.0294465
0.0294463
0.0294463
0.0294464
0.0294467
0.029447
0.0294474
0.0294479
0.0294483
0.0294487
0.0294392
0.0294384
0.0294381
0.0294384
0.0294391
0.0294403
0.0294417
0.0294432
0.0294447
0.0294465
0.029448
0.0294464
0.0294463
0.0294463
0.0294464
0.0294464
0.0294462
0.0294461
0.0294456
0.0294515
0.0250085
0.0249671
0.0249654
0.0249655
0.0249656
0.0249651
0.0249635
0.0249598
0.0249511
0.0249542
0.00139784
0.0013982
0.00139838
0.00139835
0.00139811
0.00139767
0.00139701
0.00139614
0.00139504
0.00139374
0.00239284
0.00246252
0.00243258
0.00231099
0.00232575
0.00232632
0.0022974
0.00225626
0.00287965
0.00288845
0.00284962
0.00275951
0.00319427
0.00321045
0.00317077
0.00305609
0.00349135
0.00351355
0.00347111
0.00334501
0.00381594
0.00383403
0.00378225
0.00365055
0.00408588
0.00409764
0.00404266
0.00392215
0.00421922
0.00422302
0.00416654
0.00405215
0.00372975
0.00371267
0.00364522
0.003529
0.00255892
0.00262099
0.00265908
0.00265928
0.00204784
0.00209956
0.00211892
0.00209334
0.0041122
0.00429188
0.00425025
0.00394149
0.00627352
0.00644909
0.00634472
0.00589832
0.00757706
0.00772534
0.00758603
0.00710728
0.00889099
0.00906888
0.00891548
0.00841807
0.0107304
0.0110423
0.0109319
0.0104843
0.0127062
0.0131277
0.0130328
0.01263
0.0142222
0.0147198
0.0146609
0.0143882
0.0119115
0.0123274
0.0122462
0.0119894
0.00235796
0.00239054
0.00239446
0.00237529
0.00193776
0.00196079
0.00196693
0.00195419
0.00475886
0.00497824
0.00507277
0.00518531
0.00700894
0.00728859
0.00736923
0.007523
0.00819188
0.00846765
0.00853512
0.00867918
0.00934484
0.00963287
0.00969888
0.00978321
0.0108256
0.0112336
0.0114193
0.011631
0.0124769
0.0130242
0.0133169
0.0136105
0.0137759
0.0144477
0.0148331
0.0152308
0.0108057
0.0113641
0.0116664
0.0119348
0.00214149
0.00216793
0.00217853
0.0021764
0.00188464
0.00189575
0.00189805
0.00188994
0.00821275
0.00824453
0.00852926
0.00921313
0.0116683
0.0117598
0.0122176
0.013235
0.0127142
0.0129083
0.0134665
0.0146169
0.0135771
0.0138692
0.0144952
0.0157162
0.0147067
0.0151301
0.0158829
0.0172863
0.0158345
0.0163812
0.0172308
0.0187336
0.0164421
0.0171182
0.018058
0.0195927
0.0120155
0.0126076
0.0133228
0.0143231
0.00200803
0.00202453
0.00203587
0.00204391
0.00184813
0.00185587
0.00185665
0.00185003
0.012491
0.0125101
0.0127873
0.0133813
0.0193425
0.0193478
0.0199154
0.0210676
0.0203789
0.0205415
0.0213142
0.02272
0.0209053
0.0212355
0.0221592
0.0237214
0.0217601
0.0223084
0.0234324
0.0251715
0.0224546
0.0231891
0.0244454
0.0262448
0.0221711
0.0230433
0.024331
0.0260189
0.0146189
0.0152977
0.0161071
0.0169459
0.00193348
0.00194458
0.00195349
0.00196113
0.00181863
0.00182495
0.00182536
0.00181955
0.0139992
0.0140888
0.0142465
0.0144862
0.0274855
0.0273877
0.0277524
0.0285123
0.0288619
0.0288581
0.0294144
0.030431
0.0290376
0.0291716
0.0298809
0.0310513
0.029462
0.0297788
0.0306622
0.0319798
0.0295666
0.0300432
0.0310395
0.0324096
0.0281329
0.0287179
0.0297086
0.0309492
0.016501
0.0168928
0.0173695
0.0177826
0.00187894
0.00188598
0.0018925
0.00189905
0.00179335
0.00179895
0.00179917
0.00179382
0.0130481
0.0131814
0.0132771
0.0133505
0.0322212
0.0321748
0.0322969
0.0325591
0.0351852
0.0351526
0.0353791
0.0358031
0.0356052
0.0356186
0.0359427
0.03649
0.0359427
0.0360427
0.0364908
0.0371752
0.0357123
0.0358971
0.036432
0.0371863
0.0332404
0.0334852
0.0340089
0.0346756
0.0170582
0.0172012
0.0173411
0.0173799
0.00183711
0.00184155
0.00184619
0.00185147
0.00176981
0.00177497
0.00177508
0.00177003
0.0124439
0.0125756
0.0126411
0.0126507
0.0315303
0.0315118
0.0315329
0.0315902
0.0360935
0.0360922
0.0361352
0.0362095
0.0376823
0.0376859
0.0377631
0.037888
0.0389085
0.0389353
0.0390826
0.039309
0.0391665
0.0392103
0.0394079
0.0397015
0.0361988
0.0362524
0.0364313
0.0366694
0.0160501
0.0160929
0.0160843
0.0159692
0.00180241
0.00180517
0.00180842
0.00181256
0.0017466
0.00175141
0.00175147
0.0017467
0.0124418
0.0125676
0.0126139
0.0125879
0.0294918
0.0294668
0.0294709
0.0295042
0.0335338
0.0335384
0.0335426
0.0335444
0.0354241
0.035437
0.035442
0.0354343
0.0374137
0.037449
0.0374879
0.0375211
0.0385839
0.0386272
0.0386887
0.038752
0.0358938
0.0359272
0.0359639
0.0359816
0.0146112
0.0146288
0.0146016
0.0144917
0.00177155
0.00177321
0.00177545
0.00177863
0.00172299
0.00172748
0.00172751
0.00172303
0.0127357
0.0128537
0.0128869
0.0128404
0.0284041
0.0283748
0.028377
0.0284111
0.0313725
0.0313725
0.0313755
0.0313805
0.0325965
0.0326032
0.0326009
0.0325879
0.0341609
0.034187
0.034202
0.0342028
0.0353918
0.0354337
0.0354606
0.0354669
0.0332664
0.0333047
0.0333118
0.033278
0.0137835
0.0137876
0.0137636
0.0136865
0.0017424
0.00174334
0.00174485
0.00174726
0.00169855
0.00170273
0.00170274
0.00169856
0.0131764
0.0132838
0.0133072
0.0132514
0.0280411
0.0280108
0.0280122
0.0280457
0.0302869
0.0302856
0.0302891
0.0302971
0.0309313
0.030934
0.0309332
0.030928
0.0318177
0.0318302
0.0318383
0.0318409
0.0325623
0.032585
0.0325996
0.0326035
0.030797
0.0308202
0.0308207
0.0307928
0.0136109
0.0136097
0.0135886
0.0135324
0.00171376
0.00171425
0.00171526
0.00171706
0.00167299
0.00167683
0.00167684
0.00167299
0.01371
0.0138009
0.0138164
0.0137627
0.0280094
0.0279792
0.02798
0.028012
0.0298057
0.0298043
0.0298073
0.0298146
0.0301336
0.0301354
0.0301355
0.0301339
0.0305911
0.0305969
0.0306018
0.0306053
0.0309525
0.0309625
0.0309705
0.0309754
0.0294089
0.0294198
0.0294169
0.0293973
0.0138642
0.0138639
0.0138461
0.0138018
0.00168499
0.00168519
0.00168585
0.00168719
0.0016461
0.00164958
0.00164958
0.00164609
0.0143229
0.0143848
0.0143937
0.0143581
0.0281199
0.0280905
0.0280908
0.0281211
0.0295984
0.0295971
0.0295994
0.029605
0.0297676
0.0297691
0.0297696
0.0297692
0.0300007
0.0300038
0.0300069
0.0300098
0.0301604
0.0301649
0.0301696
0.0301739
0.0288177
0.0288235
0.0288198
0.0288052
0.0143903
0.0143941
0.01438
0.0143426
0.00165563
0.00165565
0.00165608
0.00165707
0.00161769
0.00162082
0.00162082
0.00161768
0.0150236
0.015066
0.0150715
0.0150441
0.0282927
0.028265
0.028265
0.0282931
0.029512
0.0295108
0.0295123
0.0295163
0.029601
0.0296023
0.0296029
0.0296028
0.0297211
0.0297231
0.0297251
0.0297271
0.0297884
0.0297908
0.0297937
0.0297971
0.0286587
0.0286629
0.0286598
0.0286487
0.0151186
0.0151279
0.0151175
0.015084
0.00162532
0.00162524
0.00162551
0.00162623
0.00158763
0.00159042
0.00159042
0.00158762
0.0158345
0.0158741
0.0158781
0.0158493
0.0284931
0.0284681
0.0284681
0.0284932
0.0294786
0.0294777
0.0294785
0.0294811
0.0295253
0.0295265
0.029527
0.029527
0.0295888
0.0295901
0.0295914
0.0295927
0.0296189
0.0296203
0.0296223
0.0296249
0.028715
0.0287186
0.0287165
0.028708
0.01603
0.0160453
0.0160382
0.0160067
0.00159376
0.00159364
0.00159381
0.00159432
0.00155583
0.00155825
0.00155825
0.00155583
0.01681
0.0168538
0.0168564
0.0168199
0.0287045
0.0286832
0.0286832
0.0287046
0.0294676
0.029467
0.0294674
0.0294689
0.0294904
0.0294912
0.0294916
0.0294916
0.0295249
0.0295258
0.0295266
0.0295274
0.0295431
0.0295441
0.0295454
0.0295473
0.0288704
0.0288738
0.0288725
0.0288661
0.0171396
0.0171603
0.0171561
0.0171258
0.00156075
0.00156062
0.00156072
0.00156108
0.00152229
0.00152431
0.00152431
0.00152229
0.0180071
0.0180682
0.0180698
0.0180131
0.0289161
0.0288997
0.0288997
0.0289163
0.0294647
0.0294645
0.0294646
0.0294651
0.0294726
0.0294733
0.0294735
0.0294734
0.0294916
0.0294922
0.0294926
0.0294929
0.0295072
0.0295079
0.0295088
0.0295101
0.0290605
0.0290637
0.0290629
0.0290579
0.0184896
0.0185132
0.0185115
0.0184839
0.00152619
0.00152607
0.00152613
0.00152637
0.0014872
0.00148878
0.00148878
0.0014872
0.019518
0.0196216
0.0196224
0.0195209
0.0291165
0.0291062
0.0291062
0.0291167
0.0294624
0.0294626
0.0294626
0.0294624
0.0294615
0.0294619
0.029462
0.0294619
0.0294713
0.0294716
0.0294718
0.0294718
0.0294845
0.029485
0.0294856
0.0294863
0.0292432
0.0292462
0.0292455
0.0292412
0.0201456
0.0201634
0.0201637
0.0201465
0.00149014
0.00149005
0.00149009
0.00149025
0.00145085
0.00145195
0.00145195
0.00145085
0.0215062
0.0217022
0.0217024
0.0215069
0.0292898
0.0292864
0.0292865
0.02929
0.0294575
0.0294579
0.0294579
0.0294574
0.029453
0.0294533
0.0294533
0.0294532
0.0294573
0.0294574
0.0294574
0.0294573
0.0294639
0.0294643
0.0294647
0.0294649
0.0293854
0.0293882
0.0293874
0.0293831
0.0222601
0.0222717
0.0222721
0.0222615
0.00145273
0.00145268
0.0014527
0.00145278
0.00141259
0.0014132
0.0014132
0.00141259
0.0243532
0.0246977
0.0246977
0.0243533
0.0294171
0.0294192
0.0294193
0.0294174
0.0294505
0.0294508
0.0294508
0.0294505
0.0294478
0.0294479
0.0294479
0.0294479
0.0294489
0.0294489
0.0294489
0.0294488
0.029447
0.0294473
0.0294476
0.0294478
0.0294649
0.0294661
0.0294651
0.0294622
0.0251701
0.0251712
0.0251719
0.025172
0.00141315
0.00141316
0.00141317
0.00141319
0.00219652
0.00208302
0.00202166
0.00198587
0.00196465
0.00194882
0.00193526
0.00192366
0.00191426
0.00190679
0.0028075
0.00252498
0.00384893
0.00830554
0.013368
0.0171459
0.0192234
0.0198357
0.0195592
0.018829
0.00403172
0.00498333
0.0114526
0.0211236
0.0322232
0.0417979
0.0487861
0.0530206
0.0547429
0.0542173
0.00557412
0.0089706
0.0176614
0.0302546
0.043456
0.0540529
0.0614697
0.0657995
0.0674414
0.0668312
0.00876969
0.0121183
0.0230623
0.0370108
0.0505322
0.0609154
0.0677781
0.0714765
0.0725841
0.0718587
0.0132393
0.0159616
0.0274714
0.0417025
0.0549625
0.0648104
0.0708956
0.0737625
0.0742154
0.073349
0.0167136
0.0188423
0.0294897
0.0436947
0.0565232
0.0656465
0.0707073
0.0725963
0.072343
0.0714124
0.0185322