/*--------------------------------*- C++ -*----------------------------------*\
| =========                 |                                                 |
| \\      /  F ield         | foam-extend: Open Source CFD                    |
|  \\    /   O peration     | Version:     4.0                                |
|   \\  /    A nd           | Web:         http://www.foam-extend.org         |
|    \\/     M anipulation  |                                                 |
\*---------------------------------------------------------------------------*/
FoamFile
{
    version     2.0;
    format      ascii;
    class       volScalarField;
    location    "2000";
    object      divFlux;
}
// * * * * * * * * * * * * * * * * * * * * * * * * * * * * * * * * * * * * * //

dimensions      [1 -3 -1 0 0 0 0];

internalField   nonuniform List<scalar> 
34480
(
0.077659
0.0247634
0.0252995
0.0233505
0.0212013
0.0191549
0.0172465
0.0155201
0.0140321
0.0127791
0.0198047
0.0100092
0.0100745
0.0097429
0.00943381
0.00906106
0.00855145
0.00793267
0.00728299
0.00666777
0.00450879
0.00296753
0.00302821
0.00307902
0.00317581
0.00325851
0.00324917
0.00312428
0.0029184
0.00267701
0.00120378
0.000901523
0.000926769
0.000960716
0.0010157
0.0010743
0.00110445
0.00108693
0.00102607
0.000937148
0.000306731
0.000252001
0.000263813
0.000279312
0.000301697
0.000326673
0.000343559
0.000343762
0.000325731
0.000293878
5.27624e-05
4.98189e-05
5.67525e-05
6.45693e-05
7.38909e-05
8.36557e-05
9.07742e-05
9.23746e-05
8.71784e-05
7.76097e-05
1.64998e-05
9.78215e-06
4.98426e-06
3.39426e-07
4.04213e-06
7.92996e-06
1.07527e-05
1.18829e-05
1.07987e-05
8.36825e-06
3.42775e-05
2.62554e-05
2.22099e-05
1.86703e-05
1.5944e-05
1.40201e-05
1.27121e-05
1.1939e-05
1.17627e-05
1.2146e-05
4.54313e-05
3.58709e-05
3.09709e-05
2.66624e-05
2.32837e-05
2.08457e-05
1.91595e-05
1.8109e-05
1.7511e-05
1.74561e-05
4.75275e-05
3.82789e-05
3.32804e-05
2.87582e-05
2.49225e-05
2.18884e-05
1.97424e-05
1.85009e-05
1.79671e-05
1.81636e-05
0.100344
0.0286533
0.0292236
0.0273273
0.0252106
0.0233396
0.0217571
0.0205268
0.0197675
0.0208611
0.0278603
0.012818
0.0129256
0.0125369
0.0121487
0.0118404
0.0115697
0.0113005
0.0110691
0.0118425
0.00681775
0.00418486
0.00428087
0.00435772
0.00449876
0.00464657
0.0047634
0.0048144
0.004789
0.00513576
0.00198749
0.00141157
0.00145085
0.00150017
0.00158648
0.00168251
0.00176534
0.00181443
0.00181248
0.00192856
0.000543726
0.000430095
0.000449151
0.000473731
0.000509896
0.0005525
0.00058994
0.000612914
0.000610682
0.000639579
9.1015e-05
8.64129e-05
9.94765e-05
0.000113478
0.000129282
0.000146215
0.000160441
0.000168385
0.000165631
0.000167588
4.76402e-05
2.88144e-05
1.805e-05
8.4015e-06
2.68185e-07
6.20762e-06
1.07384e-05
1.22597e-05
1.00285e-05
5.70347e-06
9.21012e-05
6.83214e-05
5.78065e-05
4.92184e-05
4.32752e-05
4.01911e-05
3.90417e-05
3.99139e-05
4.15991e-05
4.69784e-05
0.000133914
0.000102089
8.75985e-05
7.53356e-05
6.59995e-05
6.02507e-05
5.75323e-05
5.77766e-05
5.87854e-05
6.44317e-05
0.000149474
0.000116346
0.000100701
8.69394e-05
7.55808e-05
6.77e-05
6.31915e-05
6.21123e-05
6.29871e-05
6.95662e-05
0.100926
0.0246855
0.0256505
0.0243042
0.0228275
0.0215953
0.0206752
0.0201507
0.0202485
0.0190311
0.0270705
0.0105639
0.0107715
0.0103778
0.0100353
0.00987112
0.00986347
0.00999471
0.0103646
0.00472193
0.00624464
0.00328734
0.00335435
0.00335717
0.00340368
0.00351638
0.00369448
0.00391206
0.00418658
0.00130926
0.00173207
0.00106693
0.00108801
0.00110246
0.00113926
0.00119798
0.00128474
0.00138957
0.00151046
0.00176858
0.000457899
0.000317615
0.000327624
0.000336829
0.00035363
0.000377434
0.000410452
0.000450138
0.000492857
0.000576592
8.25548e-05
6.76853e-05
7.51324e-05
8.2242e-05
9.04739e-05
0.000100007
0.000111238
0.00012341
0.000134184
0.000152013
2.38413e-05
1.1272e-05
4.90474e-06
1.03787e-06
6.09944e-06
1.02422e-05
1.34748e-05
1.53352e-05
1.4615e-05
1.04402e-05
5.25462e-05
3.50495e-05
2.91456e-05
2.36569e-05
1.95496e-05
1.7126e-05
1.64846e-05
1.81124e-05
2.26102e-05
3.3574e-05
6.90618e-05
4.78139e-05
4.14079e-05
3.53356e-05
3.05452e-05
2.75103e-05
2.65396e-05
2.83229e-05
3.36166e-05
4.75066e-05
6.59506e-05
4.59017e-05
4.03868e-05
3.51715e-05
3.1038e-05
2.83186e-05
2.71352e-05
2.82898e-05
3.3518e-05
5.04897e-05
0.101904
0.0224048
0.0235164
0.0225704
0.0214712
0.0205716
0.0199448
0.0183475
0.00940202
0.00794121
0.0278364
0.00997868
0.0102072
0.00981207
0.00944171
0.00921983
0.00916641
0.00929271
0.00852465
0.00364364
0.00646488
0.00317754
0.00323793
0.00320386
0.00319951
0.00325653
0.00338486
0.00358219
0.00385001
0.00100699
0.00181702
0.0010587
0.00107778
0.00108144
0.00109863
0.00113629
0.00120196
0.00129518
0.00141395
0.000370522
0.000487796
0.000323428
0.000333088
0.000339568
0.000351279
0.000368275
0.000394353
0.0004297
0.000472393
0.000459792
9.10892e-05
7.15197e-05
7.89855e-05
8.56151e-05
9.27929e-05
0.000100694
0.000110175
0.000121257
0.000132593
0.00020841
2.27573e-05
1.00522e-05
3.60863e-06
2.37227e-06
7.42387e-06
1.15256e-05
1.46507e-05
1.64915e-05
1.62009e-05
1.29787e-05
5.34662e-05
3.50735e-05
2.91752e-05
2.36196e-05
1.93479e-05
1.65828e-05
1.56313e-05
1.70299e-05
2.1366e-05
3.05604e-05
6.90825e-05
4.75649e-05
4.14653e-05
3.56296e-05
3.09461e-05
2.77753e-05
2.66118e-05
2.8237e-05
3.35659e-05
4.56984e-05
6.52484e-05
4.53179e-05
4.0147e-05
3.52421e-05
3.13666e-05
2.87432e-05
2.7688e-05
2.90062e-05
3.43449e-05
4.94861e-05
0.100668
0.0199203
0.0211319
0.0204959
0.0196601
0.0189587
0.0165214
0.0127483
0.00801776
0.000377762
0.0280039
0.00922239
0.00949574
0.00915293
0.00879542
0.00853238
0.00838874
0.00838254
0.00582736
0.000790366
0.00661765
0.00302692
0.00308729
0.00303075
0.00299021
0.00299434
0.00305215
0.00316935
0.00320701
1.1458e-05
0.00188895
0.00103644
0.00105563
0.00105068
0.00105332
0.00107088
0.00110894
0.00117015
0.00125218
0.00055023
0.000514241
0.000324685
0.000334519
0.000339345
0.000346391
0.000357183
0.000374325
0.000398951
0.000430033
0.0004986
9.84444e-05
7.41368e-05
8.17467e-05
8.80075e-05
9.42626e-05
0.000100598
0.000107787
0.000116106
0.000124906
0.000319597
2.20626e-05
8.86632e-06
2.41593e-06
3.52698e-06
8.51098e-06
1.25161e-05
1.5484e-05
1.72256e-05
1.72409e-05
0.000147778
5.4385e-05
3.46689e-05
2.89132e-05
2.34432e-05
1.91314e-05
1.61294e-05
1.4771e-05
1.55153e-05
1.88477e-05
5.23035e-05
6.89189e-05
4.6591e-05
4.08712e-05
3.53749e-05
3.09142e-05
2.77401e-05
2.6335e-05
2.73966e-05
3.1755e-05
2.00476e-05
6.45144e-05
4.40556e-05
3.92472e-05
3.46708e-05
3.10401e-05
2.85358e-05
2.75367e-05
2.87418e-05
3.34057e-05
4.59824e-05
0.0973637
0.0173275
0.0185652
0.0181583
0.0173694
0.0156181
0.0136134
0.0116223
0.00932498
0.00566361
0.0274389
0.00830947
0.00862105
0.00835061
0.0080413
0.00778784
0.00760777
0.00706475
0.00519704
0.00169169
0.00668387
0.00283583
0.00289942
0.00283228
0.00277025
0.00273775
0.0027405
0.00278262
0.00269453
0.000919064
0.00194195
0.00100016
0.00102017
0.00100904
0.00100103
0.00100285
0.00101798
0.00104836
0.00111434
0.000760783
0.000536041
0.000321346
0.000331726
0.000334775
0.000338311
0.000344021
0.000353548
0.000367744
0.000385383
0.000517822
0.000104904
7.57124e-05
8.34555e-05
8.93976e-05
9.4742e-05
9.97382e-05
0.00010491
0.000110488
0.000116008
0.000321277
2.12511e-05
7.55758e-06
1.16994e-06
4.66793e-06
9.53436e-06
1.34003e-05
1.62032e-05
1.78406e-05
1.80347e-05
0.000165736
5.49078e-05
3.37888e-05
2.82481e-05
2.29395e-05
1.86542e-05
1.55163e-05
1.38233e-05
1.38967e-05
1.60423e-05
8.53634e-05
6.83811e-05
4.50802e-05
3.97475e-05
3.45968e-05
3.03735e-05
2.72752e-05
2.5713e-05
2.62031e-05
2.93356e-05
3.30096e-05
6.36042e-05
4.23581e-05
3.79048e-05
3.36428e-05
3.0232e-05
2.78407e-05
2.68448e-05
2.779e-05
3.15162e-05
1.81026e-05
0.091969
0.0143305
0.0154448
0.0149481
0.0139444
0.0129724
0.0118043
0.0107967
0.00956244
0.00792723
0.0261919
0.00729989
0.00763029
0.00742919
0.00717756
0.00696054
0.00676842
0.00621181
0.00504288
0.00314424
0.00663436
0.00260686
0.0026768
0.00261115
0.00254284
0.00249273
0.00246439
0.00245977
0.00236706
0.00132324
0.00196715
0.00094895
0.000970856
0.000957086
0.000943232
0.000935211
0.000935066
0.000943702
0.00105514
0.000813838
0.000550831
0.000312841
0.000323869
0.000325826
0.000327091
0.000329264
0.000333349
0.000339788
0.000347016
0.000483142
0.000110252
7.61184e-05
8.39564e-05
8.956e-05
9.41954e-05
9.81718e-05
0.000101811
0.00010526
0.000108054
0.000283107
2.00117e-05
6.04233e-06
1.96224e-07
5.85432e-06
1.05535e-05
1.42483e-05
1.6888e-05
1.84223e-05
1.86939e-05
0.000139395
5.46916e-05
3.23267e-05
2.70645e-05
2.1979e-05
1.77961e-05
1.46282e-05
1.27205e-05
1.22717e-05
1.3429e-05
6.63222e-05
6.72112e-05
4.30019e-05
3.806e-05
3.32518e-05
2.92726e-05
2.63011e-05
2.46683e-05
2.4719e-05
2.68006e-05
2.10521e-05
6.22937e-05
4.02218e-05
3.61196e-05
3.21572e-05
2.89525e-05
2.66718e-05
2.56462e-05
2.62719e-05
2.9077e-05
1.02151e-05
0.0849044
0.0111364
0.0123034
0.0121836
0.0115889
0.0110431
0.0103223
0.0098172
0.00905708
0.00836119
0.0244293
0.0062684
0.00659683
0.00645157
0.00625036
0.00607131
0.00587592
0.00549937
0.00482076
0.00381186
0.00643308
0.00234309
0.00241931
0.00236349
0.00230034
0.00224855
0.00221067
0.00221742
0.00211481
0.00148444
0.00195253
0.000881619
0.000906006
0.000892894
0.000877848
0.000866076
0.000858754
0.000856212
0.000961755
0.000785841
0.000555685
0.000298552
0.000310255
0.000311874
0.000312155
0.000312523
0.00031356
0.000315434
0.000349554
0.00042382
0.000114053
7.51583e-05
8.29835e-05
8.82797e-05
9.24415e-05
9.57561e-05
9.84123e-05
0.00010048
0.000104571
0.000234294
1.81724e-05
4.32151e-06
1.66596e-06
7.06363e-06
1.15354e-05
1.50339e-05
1.7516e-05
1.89574e-05
1.92519e-05
0.000105666
5.34915e-05
3.02332e-05
2.5309e-05
2.05201e-05
1.65146e-05
1.34253e-05
1.14277e-05
1.06385e-05
1.11075e-05
4.04667e-05
6.52024e-05
4.03245e-05
3.57821e-05
3.13217e-05
2.76016e-05
2.4792e-05
2.31503e-05
2.28972e-05
2.42182e-05
1.62426e-06
6.03893e-05
3.76167e-05
3.38666e-05
3.02011e-05
2.72043e-05
2.50391e-05
2.3975e-05
2.42863e-05
2.62993e-05
1.1255e-05
0.0781493
0.00896339
0.0100345
0.0100889
0.00971183
0.00939076
0.00890466
0.0086481
0.00811007
0.00784401
0.0223401
0.00527771
0.00558809
0.00548509
0.00532449
0.00518609
0.00501531
0.00476232
0.00436624
0.00381402
0.00607959
0.00205482
0.00213373
0.00208965
0.00203588
0.0019898
0.00195371
0.00196883
0.00187647
0.0015022
0.0018911
0.00079915
0.000825268
0.00081435
0.000800658
0.000788937
0.000779964
0.000773865
0.000849589
0.000727483
0.00054841
0.000278376
0.000290449
0.00029211
0.000292203
0.000292015
0.00029188
0.000291839
0.000330137
0.000361785
0.000115853
7.26883e-05
8.03133e-05
8.52749e-05
8.9084e-05
9.20055e-05
9.41437e-05
9.55157e-05
0.000122156
0.000187865
1.56917e-05
2.46673e-06
3.15837e-06
8.19919e-06
1.23718e-05
1.56382e-05
1.79631e-05
1.9329e-05
1.9643e-05
7.58927e-05
5.11727e-05
2.75382e-05
2.30093e-05
1.85728e-05
1.48314e-05
1.19166e-05
9.94156e-06
8.97583e-06
8.1774e-06
1.94012e-05
6.2229e-05
3.70665e-05
3.29353e-05
2.88437e-05
2.53999e-05
2.27827e-05
2.11745e-05
2.0717e-05
2.1514e-05
1.85401e-05
5.77549e-05
3.45418e-05
3.11515e-05
2.77931e-05
2.50164e-05
2.29834e-05
2.18947e-05
2.19361e-05
2.33119e-05
2.70395e-05
0.0713489
0.00730468
0.00821818
0.00834172
0.00808218
0.00788122
0.00752415
0.00739524
0.00697741
0.00691114
0.0200788
0.00436718
0.00464863
0.00457672
0.00446245
0.00434685
0.00420399
0.0040307
0.00379085
0.00346775
0.00560975
0.00175945
0.00183634
0.00180225
0.00175736
0.00171782
0.001686
0.00169753
0.00162513
0.00140261
0.00178615
0.000705982
0.000732278
0.000723548
0.000711678
0.000701106
0.000692486
0.000685898
0.000730148
0.000650495
0.000528652
0.000253142
0.000265034
0.000266689
0.000266758
0.000266437
0.000265949
0.000265297
0.000291243
0.000303657
0.000115348
6.87073e-05
7.59e-05
8.04124e-05
8.384e-05
8.64357e-05
8.8263e-05
8.9318e-05
0.000117255
0.00014718
1.26444e-05
6.032e-07
4.55137e-06
9.13554e-06
1.29261e-05
1.59e-05
1.80357e-05
1.93175e-05
1.96504e-05
5.16785e-05
4.77266e-05
2.43506e-05
2.02654e-05
1.62368e-05
1.28332e-05
1.01613e-05
8.29762e-06
7.28159e-06
3.68437e-06
4.16384e-06
5.8246e-05
3.33009e-05
2.96003e-05
2.58932e-05
2.27626e-05
2.03649e-05
1.88243e-05
1.82376e-05
1.86637e-05
2.69226e-05
5.43168e-05
3.10438e-05
2.80217e-05
2.49835e-05
2.2454e-05
2.05791e-05
1.94957e-05
1.93311e-05
2.0573e-05
3.47866e-05
0.0647176
0.00599583
0.00674339
0.00688642
0.00669363
0.00655658
0.00626989
0.00620213
0.00584403
0.00585289
0.0177602
0.00360169
0.00381104
0.00377404
0.00368063
0.00357328
0.00345984
0.00333877
0.00318785
0.00298296
0.00506573
0.00147319
0.00154422
0.0015179
0.00148039
0.00144648
0.00144268
0.00142503
0.00136872
0.00122919
0.00164676
0.000608039
0.000632989
0.000625937
0.000615575
0.000606065
0.000598036
0.000591572
0.000612752
0.00056014
0.000497556
0.000224326
0.000235471
0.000236921
0.000236838
0.000236344
0.000235625
0.000234679
0.000248141
0.000250863
0.000112405
6.3361e-05
6.98985e-05
7.38335e-05
7.67811e-05
7.89884e-05
8.05043e-05
8.13221e-05
0.000103547
0.000113793
9.21841e-06
1.1201e-06
5.70792e-06
9.74967e-06
1.30809e-05
1.56967e-05
1.75856e-05
1.87376e-05
1.90546e-05
3.38559e-05
4.32607e-05
2.08397e-05
1.7239e-05
1.36674e-05
1.06517e-05
8.27373e-06
6.58275e-06
5.6024e-06
2.75471e-06
5.6078e-06
5.3295e-05
2.91535e-05
2.59004e-05
2.2605e-05
1.98203e-05
1.76675e-05
1.6232e-05
1.55786e-05
1.57413e-05
2.83679e-05
5.00644e-05
2.72133e-05
2.45696e-05
2.18715e-05
1.96182e-05
1.79258e-05
1.68869e-05
1.65875e-05
2.07633e-05
3.62343e-05
0.0569309
0.00471496
0.00529932
0.00545333
0.00532927
0.00526604
0.00506991
0.00509289
0.0048334
0.00494161
0.0154386
0.0029179
0.00308427
0.00304764
0.00296726
0.00287891
0.00279211
0.0027061
0.00260659
0.00246236
0.00447968
0.00120633
0.0012689
0.00124848
0.00121861
0.0012103
0.00119433
0.00116667
0.00112191
0.0010276
0.00148225
0.00051042
0.000532867
0.000527028
0.000517885
0.000509277
0.000501818
0.0004956
0.000501861
0.00046547
0.000456811
0.000193496
0.000203445
0.000204539
0.000204192
0.00020345
0.000202479
0.000201285
0.00020659
0.0002035
0.000106976
5.6872e-05
6.25847e-05
6.58571e-05
6.82515e-05
7.0006e-05
7.11654e-05
7.17262e-05
8.7751e-05
8.72118e-05
5.68417e-06
2.55311e-06
6.5062e-06
9.94718e-06
1.27666e-05
1.49739e-05
1.65675e-05
1.75419e-05
1.77999e-05
2.21625e-05
3.79847e-05
1.72058e-05
1.41175e-05
1.10403e-05
8.4463e-06
6.39586e-06
4.91729e-06
4.02719e-06
3.17235e-06
1.10915e-05
4.74987e-05
2.47873e-05
2.1995e-05
1.9137e-05
1.67213e-05
1.48392e-05
1.35462e-05
1.2884e-05
1.28701e-05
2.51264e-05
4.50579e-05
2.31816e-05
2.09239e-05
1.85845e-05
1.66282e-05
1.51421e-05
1.41868e-05
1.38196e-05
1.94381e-05
3.37696e-05
0.0530348
0.0040266
0.0044247
0.00446296
0.00423964
0.00405367
0.00373466
0.00362655
0.00323291
0.00320099
0.0131795
0.00225905
0.00240305
0.00237988
0.00232418
0.00226387
0.00220927
0.00216056
0.00210889
0.00202108
0.00389915
0.000997007
0.0010498
0.00103454
0.00101066
0.00098607
0.000960282
0.000931431
0.000895027
0.000826187
0.00129982
0.000416614
0.000435805
0.000430893
0.000422868
0.000415168
0.000408374
0.000402576
0.000399886
0.000373743
0.000408049
0.000161992
0.000170453
0.000171136
0.000170514
0.000169536
0.000168358
0.000166993
0.000168167
0.000161443
9.905e-05
4.94934e-05
5.42809e-05
5.68657e-05
5.86922e-05
5.99832e-05
6.0781e-05
6.27471e-05
7.2026e-05
6.58924e-05
2.35932e-06
3.56829e-06
6.85223e-06
9.66934e-06
1.19593e-05
1.37403e-05
1.5016e-05
1.57878e-05
1.59635e-05
1.52818e-05
3.2183e-05
1.36525e-05
1.10875e-05
8.52339e-06
6.36663e-06
4.66016e-06
3.42161e-06
2.11493e-06
4.33323e-06
1.39608e-05
4.10574e-05
2.03845e-05
1.80576e-05
1.56513e-05
1.36197e-05
1.20266e-05
1.09061e-05
1.02859e-05
1.0169e-05
1.8923e-05
3.94251e-05
1.91031e-05
1.72286e-05
1.52625e-05
1.3617e-05
1.23554e-05
1.15159e-05
1.11367e-05
1.72894e-05
2.94012e-05
0.0391303
0.00301372
0.00359573
0.00405892
0.00434373
0.00464792
0.00478948
0.00508252
0.00501607
0.00525066
0.0109937
0.00172405
0.00184333
0.00180449
0.00172748
0.00164571
0.00156935
0.00150045
0.00143229
0.00132106
0.0032606
0.000787208
0.000837918
0.000824967
0.000799159
0.000771749
0.000744802
0.000718357
0.000689375
0.000638987
0.00110521
0.000328812
0.0003443
0.000340101
0.000333151
0.000326417
0.000320427
0.00031526
0.000308718
0.000288914
0.000352771
0.000130903
0.000137725
0.000138017
0.000137182
0.000136053
0.00013477
0.000133347
0.000133138
0.000124338
8.86635e-05
4.15015e-05
4.5328e-05
4.72558e-05
4.8553e-05
4.94203e-05
4.98977e-05
5.59269e-05
5.69663e-05
4.83919e-05
4.33331e-07
4.08778e-06
6.70246e-06
8.9083e-06
1.06833e-05
1.20498e-05
1.30161e-05
1.3586e-05
1.36755e-05
1.18711e-05
2.61852e-05
1.03619e-05
8.312e-06
6.25671e-06
4.53503e-06
3.17448e-06
1.2484e-06
1.94353e-06
6.39125e-06
1.57847e-05
3.42338e-05
1.61315e-05
1.42598e-05
1.23065e-05
1.06595e-05
9.36254e-06
8.4355e-06
7.893e-06
7.73219e-06
1.08698e-05
3.33556e-05
1.51426e-05
1.36401e-05
1.20474e-05
1.07149e-05
9.6864e-06
8.98555e-06
8.63505e-06
1.48882e-05
2.45048e-05
0.0346168
0.000426858
0.00139854
0.00232681
0.00318787
0.00375413
0.00416713
0.00415472
0.00429686
0.00395783
0.00891777
0.00134412
0.0015321
0.00161761
0.0016717
0.00171108
0.00173987
0.00175991
0.00177038
0.00176692
0.00260993
0.000576514
0.000636262
0.000632437
0.000610808
0.000584157
0.000556305
0.000528311
0.000497781
0.000450033
0.000905319
0.000249606
0.00026131
0.00025766
0.000251669
0.000245816
0.0002406
0.00023611
0.000230566
0.000213533
0.000292788
0.000101292
0.000106468
0.000106449
0.0001055
0.000104324
0.000103045
0.000101678
0.000101387
9.1811e-05
7.60008e-05
3.32234e-05
3.61195e-05
3.74671e-05
3.83132e-05
4.02745e-05
4.50554e-05
4.55077e-05
4.26422e-05
3.36439e-05
2.42485e-06
4.09272e-06
6.07466e-06
7.71503e-06
9.01912e-06
1.00085e-05
1.06951e-05
1.10839e-05
1.10983e-05
1.01257e-05
0.000179743
5.8962e-05
1.57241e-05
6.90673e-06
4.59028e-06
2.69964e-06
2.32026e-07
4.42686e-06
9.98729e-06
1.80137e-05
2.73352e-05
1.21977e-05
1.07558e-05
9.24029e-06
7.9641e-06
6.95693e-06
6.22937e-06
5.78708e-06
5.62413e-06
5.74387e-06
2.70891e-05
1.14577e-05
1.03027e-05
9.07118e-06
8.04096e-06
7.24406e-06
6.69132e-06
6.74615e-06
1.22606e-05
1.96101e-05
0.116444
0.0175879
0.0208344
0.0219178
0.0217367
0.0208159
0.0193382
0.0177534
0.0157871
0.0141674
0.00573448
4.18427e-05
0.00014203
0.000367328
0.000551115
0.000666785
0.000714556
0.000706206
0.000657421
0.000612666
0.00184039
0.000348497
0.000440452
0.000463962
0.000463375
0.000452061
0.000436363
0.00041984
0.00040224
0.000371656
0.000696245
0.000177089
0.000185759
0.000183462
0.000179223
0.000174822
0.000170623
0.00016672
0.000161803
0.000147874
0.000229797
7.38395e-05
7.74532e-05
7.72551e-05
7.636e-05
7.57497e-05
7.62821e-05
7.52879e-05
7.25436e-05
6.34395e-05
0.000126201
6.0277e-05
4.61214e-05
4.14361e-05
3.97277e-05
3.83663e-05
3.63549e-05
3.32287e-05
2.90382e-05
2.09916e-05
3.45837e-06
3.64235e-06
5.05321e-06
6.19906e-06
7.09642e-06
7.76655e-06
8.21832e-06
8.45757e-06
8.42008e-06
7.55942e-06
0.000601515
0.000253974
0.000101812
4.32699e-05
1.76588e-05
4.43468e-06
3.98193e-06
1.0272e-05
1.64572e-05
2.23653e-05
2.06823e-05
8.72085e-06
7.66938e-06
6.55748e-06
5.62384e-06
4.88722e-06
4.35086e-06
4.01699e-06
3.87737e-06
3.89778e-06
2.08929e-05
8.18025e-06
7.33901e-06
6.44069e-06
5.69165e-06
5.11097e-06
4.70405e-06
5.26823e-06
8.55208e-06
1.41188e-05
0.523978
0.0527792
0.0555356
0.050805
0.0443856
0.037832
0.0316788
0.0261016
0.0212455
0.0167267
0.013036
0.00416225
0.00462294
0.00477899
0.00469676
0.00443754
0.0040616
0.00361685
0.0031301
0.00267503
0.00158875
0.000124034
0.000202459
0.000204188
0.000191955
0.000177567
0.000165101
0.000155863
0.000149301
0.000143904
0.000514095
0.000119124
0.000124366
0.000122061
0.000118582
0.000115317
0.000112508
0.000110051
0.000106686
9.60429e-05
0.000178753
6.15622e-05
6.22958e-05
6.02387e-05
5.78401e-05
5.53631e-05
5.27409e-05
4.98962e-05
4.63956e-05
3.88818e-05
0.000134134
7.17958e-05
5.03288e-05
3.9273e-05
3.26763e-05
2.79852e-05
2.40845e-05
2.04176e-05
1.65521e-05
1.03881e-05
3.52271e-06
2.85836e-06
3.78472e-06
4.52485e-06
5.09434e-06
5.51016e-06
5.78054e-06
5.90852e-06
5.84286e-06
5.13971e-06
0.00102998
0.00043405
0.000170573
6.56832e-05
2.02516e-05
1.64608e-06
1.37886e-05
2.12339e-05
2.78101e-05
3.09229e-05
1.45752e-05
5.79275e-06
5.07936e-06
4.32403e-06
3.69138e-06
3.1934e-06
2.82966e-06
2.60029e-06
2.4971e-06
2.47145e-06
1.50433e-05
5.40621e-06
4.83509e-06
4.2295e-06
3.72745e-06
3.33862e-06
3.06571e-06
2.91167e-06
3.30338e-06
7.3801e-06
2.04015
0.0796475
0.0791103
0.0677502
0.0554823
0.044515
0.0352143
0.0274363
0.0207743
0.0154543
0.0178296
0.00985657
0.00936628
0.00843556
0.00729724
0.00609103
0.00489755
0.00375264
0.00265563
0.00168442
0.000148693
0.000113248
0.000329219
0.000389942
0.000387168
0.000348383
0.000290296
0.000221508
0.000143528
4.99322e-05
0.00030713
6.64663e-05
6.85074e-05
6.79729e-05
6.7331e-05
6.70235e-05
6.72277e-05
6.8191e-05
6.95526e-05
6.6926e-05
0.000119279
4.05994e-05
4.03771e-05
3.78562e-05
3.51086e-05
3.24867e-05
3.00053e-05
2.76055e-05
2.48461e-05
1.9626e-05
8.74542e-05
4.72751e-05
3.19947e-05
2.35777e-05
1.83015e-05
1.45924e-05
1.16914e-05
9.21123e-06
6.6346e-06
2.67417e-06
2.82621e-06
1.91687e-06
2.45678e-06
2.88111e-06
3.20246e-06
3.4309e-06
3.57065e-06
3.62627e-06
3.55745e-06
3.04376e-06
0.00125926
0.000518016
0.000189729
6.15246e-05
7.56555e-06
1.72023e-05
2.99943e-05
3.71679e-05
4.35369e-05
4.35064e-05
9.26498e-06
3.45754e-06
3.02119e-06
2.5621e-06
2.18043e-06
1.88071e-06
1.66242e-06
1.52388e-06
1.45889e-06
1.42244e-06
9.79445e-06
3.18249e-06
2.83452e-06
2.47314e-06
2.17525e-06
1.94649e-06
1.78656e-06
3.309e-06
3.52132e-06
5.68695e-06
3.10546
0.0347971
0.0325581
0.0278447
0.0229288
0.018388
0.0143453
0.010747
0.00776299
0.00492512
0.0245186
0.0142437
0.0121833
0.00989195
0.00779297
0.00597151
0.00440881
0.00305257
0.00183518
0.000779389
0.000666657
0.000384998
0.000241856
0.00017666
0.000115152
5.38996e-05
9.7986e-06
7.83655e-05
0.00015463
0.000234829
0.000187653
3.80206e-05
3.81179e-05
3.44966e-05
2.94914e-05
2.38035e-05
1.75151e-05
1.0451e-05
2.15325e-06
7.16475e-06
6.01537e-05
1.68471e-05
1.70444e-05
1.6167e-05
1.51299e-05
1.41464e-05
1.32713e-05
1.24935e-05
1.15138e-05
9.03022e-06
3.19596e-05
1.60455e-05
1.07859e-05
7.82044e-06
5.89521e-06
4.52348e-06
3.43942e-06
2.49439e-06
1.3299e-06
9.20487e-07
1.68204e-06
9.97594e-07
1.24812e-06
1.44578e-06
1.5921e-06
1.69334e-06
1.75055e-06
1.76497e-06
1.71201e-06
1.39864e-06
0.000806503
0.000335335
0.000105309
1.81499e-05
1.77169e-05
3.36627e-05
4.1612e-05
4.603e-05
5.06929e-05
4.91751e-05
4.92563e-06
1.70168e-06
1.48e-06
1.25395e-06
1.06687e-06
9.21673e-07
8.16522e-07
7.50628e-07
7.19694e-07
6.90909e-07
0.000129206
0.000123693
9.53674e-05
7.03915e-05
5.50626e-05
4.64052e-05
4.17573e-05
3.98923e-05
3.79399e-05
3.81967e-05
0.627948
0.0249464
0.0210392
0.0167943
0.0130106
0.00981408
0.00714485
0.00488066
0.00288737
0.00120076
0.00135865
0.00276879
0.00236709
0.00188564
0.00141738
0.000984874
0.000587037
0.000213949
0.000147881
0.000489229
0.000167796
2.44682e-05
2.85649e-05
2.79962e-05
1.2821e-05
1.07263e-05
3.93534e-05
7.19663e-05
0.00010798
0.000139279
4.89938e-05
1.02879e-05
1.19514e-05
1.34878e-05
1.50701e-05
1.67833e-05
1.86884e-05
2.08134e-05
2.28798e-05
2.28061e-05
1.64579e-05
3.51529e-06
3.40922e-06
3.13469e-06
2.82273e-06
2.50009e-06
2.1695e-06
1.82595e-06
1.33633e-06
9.65329e-09
4.86948e-06
1.77022e-06
1.38083e-06
1.16141e-06
1.01025e-06
8.96781e-07
7.96409e-07
6.79113e-07
3.68133e-07
9.71822e-07
5.17442e-07
3.13801e-07
3.93239e-07
4.55662e-07
5.01703e-07
5.32274e-07
5.47265e-07
5.48813e-07
5.23511e-07
3.99658e-07
4.76474e-05
3.10267e-05
2.84264e-06
1.56365e-05
2.1088e-05
2.35526e-05
2.48503e-05
2.57332e-05
2.74183e-05
2.84707e-05
1.60942e-06
5.82142e-07
5.00975e-07
4.25259e-07
3.64697e-07
3.17904e-07
2.84924e-07
2.65175e-07
2.55423e-07
2.39037e-07
0.000339644
0.000250216
0.000201838
0.000170624
0.000152304
0.000142099
0.000136646
0.000134021
0.000132289
0.000134714
1.25595
1.26955
1.46266
1.89498
0.952025
1.00511
1.20121
1.77484
0.526597
0.508738
0.710554
1.17405
0.221858
0.187476
0.334011
0.593433
0.0642411
0.0489301
0.109993
0.203442
0.000247756
0.00117395
0.00557129
0.0151025
0.0240907
0.0137777
0.0340588
0.0721982
0.0308507
0.0170857
0.0454143
0.104292
0.0319408
0.0168922
0.0490329
0.120013
0.0291364
0.014567
0.0483672
0.125357
0.10427
0.0196288
0.0281436
0.0594334
0.119515
0.0302169
0.0244014
0.0427472
0.0833138
0.0223855
0.0129328
0.0262001
0.0436577
0.0111372
0.00219959
0.0211108
0.0158613
0.0030541
0.00091559
0.0103012
0.000242738
0.000151569
0.00035604
0.000217789
0.00711594
0.000428054
2.49878e-05
6.78099e-05
0.0102923
0.000152966
0.000201909
0.000203243
0.0120629
0.00025009
0.000285382
0.000286039
0.0124376
0.000321698
0.000382772
0.000380381
0.106153
0.1013
0.0977087
0.127963
0.0907307
0.0819961
0.07818
0.112678
0.0569214
0.0490146
0.04908
0.0714084
0.027859
0.0228639
0.025411
0.0375202
0.00984149
0.00788211
0.00995028
0.0153833
0.000430454
0.000916866
0.0016181
0.0029721
0.0043543
0.00243573
0.00261103
0.00363809
0.00670946
0.00394419
0.00435878
0.00636067
0.00838733
0.00474646
0.0051223
0.00752649
0.0101343
0.00543408
0.0057827
0.0075744
0.0174802
0.0244141
0.026392
0.029885
0.0186278
0.020907
0.0230363
0.0305688
0.0139427
0.014169
0.0163867
0.0227508
0.00754209
0.00732969
0.00878859
0.0131261
0.00286084
0.00279416
0.00342185
0.00566013
4.30199e-05
0.00039705
0.000636989
0.00130814
0.00152222
0.000764753
0.000580837
0.000814727
0.00236091
0.00126311
0.000947357
0.00164256
0.0029277
0.00139291
0.000846545
0.00183648
0.00311986
0.00108134
0.000336465
0.00146908
0.000843675
0.00637131
0.00752026
0.00924483
0.00420011
0.0082349
0.0106506
0.014726
0.00387602
0.00623524
0.00813834
0.0113938
0.00216405
0.00347614
0.00455644
0.00663483
0.00079254
0.00142821
0.00188588
0.00294252
9.942e-05
0.000274609
0.000470302
0.00085437
0.000664151
0.000370129
0.00024681
0.000271476
0.00101282
0.000699147
0.00053131
0.000772125
0.0013029
0.000862549
0.000560705
0.000946457
0.00145835
0.00085098
0.000420627
0.00090613
0.00792759
0.00421491
0.00342636
0.00237144
0.00202235
0.00153606
0.00319083
0.00534613
7.40055e-05
0.00216523
0.00341409
0.00520062
0.000154909
0.00138931
0.00213909
0.0032465
6.93263e-06
0.000620751
0.000956663
0.00151825
0.000157256
0.000143132
0.000286341
0.000507732
0.000300902
0.000153569
8.07152e-05
6.31177e-05
0.000408283
0.000314713
0.000233377
0.000322864
0.000511213
0.000399723
0.00024353
0.000408677
0.000509778
0.000366201
0.000154703
0.000408687
0.010436
0.0078075
0.00731246
0.00665929
0.00465595
0.00166985
0.000750581
0.000346953
0.00127449
0.000409239
0.00115229
0.00209497
0.00053025
0.000458657
0.000939491
0.00150084
0.000255582
0.0002411
0.000474014
0.000758678
0.000165806
6.95712e-05
0.000175762
0.000295434
0.000157262
6.45851e-05
1.89247e-05
3.06526e-06
0.000172135
0.000145607
0.000110935
0.000140019
0.000194793
0.000188781
0.000118928
0.000186096
0.000149473
0.000155011
7.01479e-05
0.000197565
0.0106085
0.00863243
0.00834383
0.00795972
0.00565946
0.00323195
0.00276141
0.00224579
0.00187815
0.000505925
9.68995e-05
0.000377109
0.00081368
2.74686e-05
0.000255103
0.000519871
0.000354777
3.55765e-05
0.000182592
0.000319549
0.000160954
2.03673e-05
9.27232e-05
0.000153374
8.90178e-05
2.479e-05
3.91156e-06
1.89996e-05
6.33306e-05
5.78474e-05
4.40679e-05
5.26105e-05
4.53598e-05
7.03267e-05
4.2871e-05
7.2196e-05
8.70254e-06
3.60224e-05
1.01976e-05
8.0132e-05
0.00971228
0.00816302
0.00799928
0.00777245
0.00556777
0.00358872
0.00335136
0.00314499
0.00206894
0.000928634
0.000714229
0.000493153
0.000920998
0.000275688
0.000118989
1.10507e-05
0.000390783
7.4967e-05
1.16378e-05
7.23633e-05
0.000153119
1.00291e-05
3.65079e-05
6.51748e-05
5.45221e-05
8.11844e-06
9.45144e-06
1.73834e-05
1.15192e-05
1.45769e-05
1.03515e-05
1.31329e-05
2.51283e-05
8.12104e-06
8.35624e-07
1.56198e-05
7.27507e-05
2.26396e-05
2.48989e-05
1.71136e-05
0.00841335
0.00717918
0.0070918
0.00696057
0.00496939
0.00335267
0.00323319
0.00318704
0.00197824
0.00103513
0.000926695
0.000836046
0.000910211
0.000378334
0.000296811
0.000270587
0.000388294
0.000130048
8.31066e-05
6.31656e-05
0.000143195
2.86679e-05
1.14985e-06
9.49722e-06
3.58874e-05
1.98116e-06
7.4728e-06
9.869e-06
1.40053e-05
6.76642e-06
6.35172e-06
4.55217e-06
5.50345e-05
2.18519e-05
2.01494e-05
1.15185e-05
9.38687e-05
4.82431e-05
4.28511e-05
1.56021e-05
0.00700924
0.00599654
0.00593359
0.00584365
0.00420009
0.00289069
0.00283324
0.0028696
0.00173173
0.000960809
0.000905981
0.000875675
0.000819665
0.000385277
0.000344917
0.000356729
0.000355129
0.000145429
0.000121955
0.000122224
0.00012869
3.73389e-05
2.24624e-05
2.17415e-05
2.54456e-05
7.55394e-07
2.9718e-06
1.46351e-06
2.50385e-05
1.59691e-05
1.31182e-05
1.10475e-05
6.2615e-05
3.24712e-05
2.70082e-05
2.13694e-05
9.38309e-05
5.52088e-05
4.84103e-05
2.98832e-05
0.00595167
0.00516304
0.00515862
0.00512885
0.00339987
0.00235231
0.00232465
0.00240128
0.00142822
0.000810418
0.000782368
0.000777174
0.000690993
0.000342267
0.000323458
0.000349874
0.000303899
0.000136068
0.000125311
0.000133629
0.00011003
3.80636e-05
3.07683e-05
3.46189e-05
1.93121e-05
1.51602e-06
1.39462e-06
5.31462e-06
2.76366e-05
1.8239e-05
1.42553e-05
1.179e-05
5.86831e-05
3.25925e-05
2.59008e-05
2.19048e-05
8.34935e-05
5.2248e-05
4.61266e-05
3.31818e-05
0.00359636
0.00300275
0.00296646
0.0029612
0.00278195
0.00195903
0.00195355
0.00204755
0.00112422
0.000641772
0.000626992
0.000630788
0.000552703
0.000279957
0.000272319
0.000302116
0.000245891
0.000114683
0.000110387
0.000120434
8.93567e-05
3.3783e-05
3.06688e-05
3.58247e-05
1.542e-05
2.7565e-06
4.58139e-06
9.69373e-06
2.5927e-05
1.70459e-05
1.28082e-05
1.02403e-05
4.92924e-05
2.75372e-05
2.09145e-05
1.79607e-05
6.87999e-05
4.46202e-05
3.9651e-05
3.04118e-05
0.00648476
0.005549
0.00542482
0.00526302
0.00167142
0.00116062
0.00117315
0.00122374
0.000846085
0.000485826
0.000477325
0.000479843
0.000420273
0.00021488
0.000212993
0.000241149
0.000188265
8.91658e-05
8.78425e-05
9.66752e-05
6.85492e-05
2.69712e-05
2.59525e-05
3.06819e-05
1.27516e-05
3.88499e-06