/*--------------------------------*- C++ -*----------------------------------*\
| =========                 |                                                 |
| \\      /  F ield         | foam-extend: Open Source CFD                    |
|  \\    /   O peration     | Version:     4.0                                |
|   \\  /    A nd           | Web:         http://www.foam-extend.org         |
|    \\/     M anipulation  |                                                 |
\*---------------------------------------------------------------------------*/
FoamFile
{
    version     2.0;
    format      ascii;
    class       volScalarField;
    location    "2000";
    object      epsilon;
}
// * * * * * * * * * * * * * * * * * * * * * * * * * * * * * * * * * * * * * //

dimensions      [0 2 -3 0 0 0 0];

internalField   nonuniform List<scalar> 
34480
(
4843.19
4836.71
4834.33
4833.93
4836.88
4853.65
4914.4
5079.82
5443.08
6228.48
5608.57
6907.42
9581.95
15790.9
32424.5
80972.5
220942
581008
1.32212e+06
2.41239e+06
7329.03
8763.91
11503.5
17305.2
31907.5
75615
216549
646012
1.72711e+06
3.72212e+06
6075.74
7335.58
9665.05
14399.5
25907.3
60962.2
183548
605758
1.83001e+06
4.45414e+06
4877.06
5998.49
8048.73
12123.5
21829.5
51604.6
161930
578838
1.92702e+06
5.17576e+06
3838.27
4776.74
6514.83
10017
18467.2
45080.6
149534
576268
2.08259e+06
6.05779e+06
2993.91
3749.1
5176.97
8121.09
15417
39135.8
136960
562642
2.17624e+06
6.75787e+06
2115.35
2636.31
3640.82
5796.37
11407.7
30730.8
115345
506620
2.08854e+06
6.87429e+06
1189.22
1386.5
1774.75
2673.56
5316.48
15637.9
65119
310379
1.3701e+06
4.7483e+06
5631.03
5614.5
5616.85
5644.34
5704.77
5793.73
5891.67
5996.19
6182.46
6430.65
4773.72
4772.17
4779.86
4797.32
4824.06
4861.6
4922.2
5031.8
5234.63
5628.99
3020.25
3487.18
4378.21
6076.31
9651.55
18305.7
43848
130483
410561
1.14509e+06
4165.28
4795.39
5924.46
7967.89
11947
21030.1
46852.7
142451
513690
1.67009e+06
3669.68
4285.12
5370.5
7311.68
10963.4
19052.1
41881.3
132832
541430
1.9864e+06
3090.33
3678.99
4720.12
6566.75
10024.5
17502.7
38435.5
126404
571504
2.31183e+06
2533.78
3048.02
3974.47
5654.14
8872.98
15849.4
35601.8
123666
619828
2.73266e+06
2052.19
2480.37
3269.38
4733.26
7628.95
13999.6
32348.7
118380
650015
3.08033e+06
1511.54
1812.49
2375.82
3458.15
5679.95
10729.1
25836
102011
621919
3.1713e+06
961.694
1075.78
1289.47
1710.79
2630.22
4872.89
12228
55849.1
402964
2.30058e+06
5507.92
5484.74
5475.99
5488.87
5536.77
5624.05
5724.58
5806.43
6049.57
6662.36
4694.79
4693.16
4698.88
4713.52
4737.78
4772.17
4819.84
4890.29
5002.36
5183.25
1613.46
1795.24
2123.7
2707.16
3776.62
5856.59
10329.5
20990.3
47291.6
104675
2196.08
2485.48
2989.82
3837.5
5306.93
8091.52
14066.6
29332.3
73606.1
189737
2084.35
2393.26
2931.53
3849.66
5407.28
8339.19
14704.5
32154.9
90816.8
270400
1870.7
2186.71
2745.48
3703.83
5342.34
8409.89
15125.5
34645.7
109333
369677
1615.97
1905.93
2431.1
3360.03
5006.86
8139.27
15183.1
37106.2
131836
500622
1371.78
1624.47
2093.95
2945.67
4518.3
7583.75
14699.9
38329.5
152249
639598
1065.29
1249.58
1597.2
2252.36
3515.74
6076.6
12323.2
34908
157282
730950
786.633
860.75
1000.47
1266.43
1811.72
3011.82
6218.16
19325.8
101823
540974
5401.42
5376.11
5361.83
5364.06
5392.31
5454.48
5542.07
5618.23
5750.23
6165.4
4605.67
4604.3
4608.28
4618.93
4636.98
4663.15
4698.63
4746.78
4817.59
4936.83
907.398
972.169
1079.07
1263.4
1572.96
2100.41
3029.9
4726.3
7876.57
13280.4
1092.89
1212.69
1414.6
1738.87
2262.69
3136.66
4675.95
7615.69
13757
26357.7
1123.06
1264.61
1506.46
1904.26
2541.41
3615.12
5541.67
9415.9
18534.9
40683.8
1087.98
1244.82
1519.93
1979.1
2720.63
3985.66
6294.8
11149.9
23929.6
60002.1
1000.8
1153.45
1429.81
1909.02
2716.49
4136.3
6827.34
12839.8
30577.9
87606.3
898.487
1039.28
1301.78
1768.85
2592.99
4091.57
7050.5
14071.9
37155.6
120350
745.23
852.98
1056.39
1432.97
2130.16
3459.15
6240.85
13398.7
39887
146345
651.073
697.888
786
946.869
1257.9
1899.45
3385.72
7622.67
25406.2
107176
5279.58
5255.72
5240.86
5238.88
5255.68
5298.82
5371.41
5455.31
5554.11
5829.81
4504.87
4503.45
4505.8
4512.69
4524.41
4541.35
4564.31
4595.58
4642.35
4727.32
577.031
599.66
631.301
682.992
762.323
884.467
1073.56
1361.88
1780.01
2356.75
547.024
591.068
661.799
770.616
936.1
1188.19
1578.75
2193.38
3162.16
4676.9
598.117
656.091
751.957
904.064
1135.58
1494.55
2064.08
3001.6
4621.4
7576.42
625.551
696.405
817.954
1013.35
1313.48
1788.1
2557.54
3873
6364.06
11686.9
614.484
688.343
820.175
1042.4
1398.37
1985.14
2979.61
4779.16
8552.95
17872.3
585.026
657.961
792.628
1025.1
1415.65
2085.11
3271.45
5538.81
10791.7
25608.5
522.311
581.73
692.177
890.312
1239.5
1869.58
3058.78
5515.12
11891.4
32276.9
545.126
573.741
626.866
718.811
883.767
1198.42
1852.99
3350.67
7667.22
23437.4
5152.99
5131.19
5116.95
5113.06
5123.04
5152.37
5206.43
5281.57
5369.49
5549.6
4393.49
4392.05
4393.43
4398.07
4406.04
4417.41
4432.62
4453.44
4486.21
4551.49
421.041
429.811
439.466
453.864
473.425
500.061
536.148
582.988
637.3
698.559
300.937
316.118
338.911
372.505
420.652
488.281
582.713
711.58
876.837
1079.99
335.412
357.258
391.845
445.039
522.184
633.44
793.37
1021.08
1332.93
1768.47
371.248
401.055
450.373
526.349
637.659
801.998
1044.5
1402.68
1928.88
2791.09
385.529
419.031
477.089
571.529
715.731
939.774
1288.43
1835.69
2714.84
4391.27
386.585
422.324
486.692
593.421
763.77
1040.15
1491.57
2239.76
3550.65
6442.64
371.46
402.901
459.431
556.55
718.21
994.407
1476.29
2340.52
4026.36
8280.93
462.567
479.722
510.802
561.614
646.04
793.711
1070.41
1616.54
2785.17
6107.78
5020.27
5001.01
4988.31
4984.27
4991.15
5012.58
5052.78
5113
5187.12
5302.02
4272.83
4271.39
4272.18
4275.5
4281.38
4289.83
4301.11
4316.65
4342.05
4395.84
341.569
345.471
348.695
352.79
357.414
362.649
368.372
373.629
375.771
374.675
194.65
199.824
206.858
216.694
229.885
246.976
268.7
295.097
323.982
353.421
211.268
219.065
230.706
248.163
272.254
304.677
347.369
401.512
463.681
532.189
238.803
250.775
269.586
297.165
335.536
388.426
460.077
554.475
669.115
817.015
256.484
271.036
295.083
332.504
386.885
466.337
580.91
742.82
956.865
1277.53
266.64
283.52
312.656
358.478
427.702
533.548
694.16
934.488
1277.11
1873.42
273.14
289.361
317.011
361.966
432.028
544.548
727.056
1023.59
1492.73
2428.96
399.369
409.495
427.152
454.388
496.552
564.153
678.05
878.042
1224.44
1983.36
4880.55
4864.03
4853.27
4849.97
4855.68
4872.82
4904.09
4951.21
5010.08
5082.08
4144.36
4142.93
4143.38
4145.94
4150.64
4157.49
4166.72
4179.54
4200.89
4247.63
296.564
298.519
299.77
300.965
301.851
302.341
302.188
300.541
295.551
286.345
148.165
150.028
152.22
155.048
158.538
162.663
167.418
172.59
177.477
181.889
153.497
156.236
160.011
165.588
172.891
182.062
193.155
205.833
218.372
229.506
171.309
176.062
183.028
192.647
205.249
221.389
241.45
265.297
290.152
316.377
185.529
191.74
201.354
215.552
235.048
261.708
297.362
343.465
396.308
460.708
196.034
203.883
216.655
235.441
262.188
300.425
354.274
428.228
519.006
647.216
210.485
218.783
231.924
251.933
280.932
324.28
389.456
487.037
620.576
836.41
351.396
357.317
367.068
381.273
402.048
432.865
479.987
555.062
670.547
869.858
4733.03
4719.23
4710.5
4708.23
4713.56
4728.09
4753.43
4790.66
4835.56
4882.25
4009.15
4007.74
4008
4010.11
4014.11
4020.02
4028.03
4039.2
4057.9
4099.48
267.872
268.911
269.508
269.901
269.945
269.563
268.562
266.231
261.003
251.282
126.79
127.531
128.25
129.053
129.925
130.829
131.748
132.619
133.282
133.909
126.143
127.122
128.333
130.128
132.356
134.969
137.88
140.876
143.392
145.053
136.754
138.68
141.264
144.585
148.633
153.41
158.822
164.604
169.758
174.241
146.688
149.359
153.166
158.466
165.281
173.96
184.707
197.492
210.533
223.819
154.947
158.6
164.139
171.677
181.733
195.093
212.495
234.532
258.525
286.871
171.06
175.33
181.487
190.193
201.877
218.013
240.44
271.56
310.125
362.386
315.046
318.509
323.732
330.93
341.074
355.217
375.25
405.014
450.391
515.444
4577.15
4565.9
4559.05
4557.76
4562.83
4575.3
4596.06
4625.57
4659.33
4691.37
3867.86
3866.49
3866.64
3868.48
3872.03
3877.32
3884.52
3894.52
3911.19
3948.49
247.333
247.873
248.227
248.427
248.386
248.047
247.244
245.349
240.903
231.878
116.339
116.664
116.918
117.132
117.305
117.426
117.503
117.539
117.523
117.633
112.845
113.204
113.59
114.18
114.876
115.639
116.424
117.148
117.628
117.735
118.782
119.59
120.568
121.72
123.005
124.379
125.775
127.084
128.007
128.591
125.305
126.478
127.994
129.974
132.334
135.118
138.311
141.82
145.041
147.767
131.108
132.824
135.232
138.24
141.989
146.612
152.186
158.725
165.112
171.529
146.4
148.632
151.5
155.239
159.858
165.735
173.309
183.135
194.653
208.322
287.272
289.333
292.033
295.569
300.491
307.071
315.92
328.595
349.951
377.044
4412.6
4403.62
4398.39
4397.84
4402.53
4413.08
4429.9
4453.03
4478.27
4501.27
3720.88
3719.57
3719.67
3721.31
3724.53
3729.36
3735.94
3745.01
3759.96
3793.41
231.094
231.332
231.575
231.747
231.788
231.649
231.184
229.818
226.172
218.011
110.888
111.039
111.136
111.182
111.182
111.138
111.064
110.983
110.919
111.018
106.281
106.416
106.536
106.734
106.955
107.181
107.395
107.568
107.636
107.538
109.346
109.693
110.069
110.469
110.865
111.233
111.546
111.773
111.837
111.793
113.492
114.019
114.626
115.365
116.166
117.029
117.939
118.863
119.628
120.121
117.323
118.133
119.179
120.374
121.765
123.361
125.153
127.124
128.861
130.334
131.013
132.208
133.539
135.117
136.888
138.948
141.423
144.477
148.089
152.098
265.581
266.867
268.203
269.882
272.274
275.423
279.54
285.412
297.119
310.729
4239.32
4232.27
4228.35
4228.29
4232.45
4241.16
4254.53
4272.4
4291.23
4308.26
3568.47
3567.22
3567.29
3568.78
3571.73
3576.17
3582.21
3590.47
3603.86
3633.69
217.221
217.264
217.441
217.616
217.741
217.773
217.576
216.629
213.64
206.314
107.817
107.886
107.926
107.929
107.9
107.845
107.778
107.719
107.703
107.853
103.046
103.099
103.135
103.202
103.273
103.339
103.396
103.434
103.429
103.344
104.417
104.567
104.712
104.849
104.964
105.046
105.087
105.083
105.016
104.931
107.006
107.248
107.492
107.762
108.017
108.256
108.476
108.673
108.811
108.837
109.433
109.809
110.257
110.725
111.234
111.782
112.36
112.968
113.45
113.778
121.407
122.067
122.681
123.326
123.96
124.61
125.327
126.19
127.336
128.677
247.977
248.851
249.472
250.246
251.438
253.037
255.115
258.139
265.254
272.883
4057.51
4052.04
4049.13
4049.34
4052.87
4059.89
4070.33
4083.97
4098.1
4111.06
3410.82
3409.63
3409.67
3411.04
3413.75
3417.83
3423.37
3430.87
3442.8
3469.15
204.658
204.572
204.697
204.871
205.046
205.184
205.16
204.506
202.029
195.477
105.91
105.938
105.955
105.951
105.93
105.896
105.858
105.837
105.867
106.055
101.475
101.498
101.51
101.532
101.554
101.571
101.583
101.589
101.58
101.531
101.899
101.96
102.015
102.062
102.094
102.107
102.1
102.072
102.021
101.98
103.507
103.621
103.718
103.813
103.883
103.928
103.951
103.956
103.942
103.89
105.005
105.172
105.355
105.534
105.719
105.911
106.106
106.312
106.458
106.531
115.363
115.742
116.024
116.273
116.465
116.612
116.739
116.896
117.217
117.734
232.898
233.563
233.825
234.177
234.814
235.715
236.896
238.669
243.212
247.692
3867.61
3863.38
3861.23
3861.55
3864.45
3869.98
3878.04
3888.38
3899.14
3909.27
3248.13
3247.02
3247.04
3248.29
3250.77
3254.5
3259.56
3266.33
3276.87
3299.85
192.765
192.594
192.674
192.834
193.025
193.214
193.285
192.821
190.737
184.889
104.591
104.596
104.603
104.602
104.593
104.579
104.568
104.573
104.631
104.839
100.726
100.74
100.746
100.753
100.757
100.758
100.757
100.754
100.75
100.729
100.663
100.685
100.704
100.722
100.733
100.737
100.733
100.722
100.704
100.7
101.669
101.723
101.763
101.794
101.806
101.8
101.778
101.746
101.708
101.662
102.591
102.657
102.725
102.792
102.864
102.942
103.025
103.119
103.186
103.219
111.464
111.692
111.822
111.908
111.942
111.929
111.881
111.832
111.865
112.104
219.161
219.722
219.811
219.977
220.359
220.941
221.708
222.896
225.785
228.416
3670.26
3666.98
3665.38
3665.71
3668.03
3672.33
3678.52
3686.37
3694.72
3702.84
3080.69
3079.66
3079.67
3080.8
3083.05
3086.44
3091.03
3097.1
3106.31
3126.04
181.119
180.892
180.932
181.068
181.25
181.449
181.558
181.209
179.424
174.201
103.581
103.575
103.577
103.579
103.58
103.581
103.585
103.605
103.674
103.886
100.376
100.388
100.393
100.394
100.392
100.387
100.38
100.375
100.375
100.372
100.097
100.102
100.108
100.116
100.123
100.131
100.137
100.141
100.144
100.16
100.733
100.759
100.776
100.786
100.784
100.771
100.749
100.72
100.689
100.66
101.321
101.339
101.358
101.384
101.419
101.464
101.518
101.585
101.638
101.676
108.812
108.955
109.015
109.038
109.025
108.978
108.9
108.813
108.746
108.891
205.887
206.391
206.401
206.489
206.751
207.174
207.731
208.586
210.338
211.823
3466.28
3463.73
3462.51
3462.8
3464.63
3467.96
3472.71
3478.74
3485.35
3492.01
2908.91
2907.95
2907.96
2908.97
2911
2914.05
2918.16
2923.56
2931.51
2948.12
169.413
169.152
169.156
169.261
169.419
169.6
169.708
169.425
167.864
163.16
102.748
102.737
102.738
102.742
102.748
102.757
102.771
102.796
102.865
103.067
100.214
100.225
100.23
100.23
100.225
100.218
100.209
100.203
100.204
100.213
99.8714
99.8696
99.8707
99.8753
99.8826
99.892
99.9028
99.9144
99.9262
99.9475
100.276
100.289
100.297
100.3
100.297
100.288
100.273
100.255
100.235
100.22
100.676
100.674
100.674
100.686
100.709
100.744
100.789
100.845
100.894
100.94
106.85
106.94
106.967
106.969
106.95
106.91
106.846
106.775
106.678
106.792
192.432
192.894
192.871
192.926
193.124
193.455
193.884
194.468
195.463
196.233
3256.68
3254.66
3253.73
3253.96
3255.39
3257.97
3261.66
3266.35
3271.68
3277.23
2733.36
2732.49
2732.49
2733.39
2735.19
2737.9
2741.55
2746.28
2753.05
2766.7
157.41
157.132
157.105
157.177
157.299
157.444
157.529
157.278
155.89
151.594
102.031
102.02
102.02
102.025
102.034
102.046
102.063
102.088
102.148
102.329
100.136
100.146
100.151
100.15
100.145
100.138
100.129
100.122
100.123
100.14
99.8112
99.8079
99.8076
99.8107
99.8167
99.8253
99.8358
99.8475
99.86
99.8792
100.067
100.073
100.077
100.079
100.077
100.072
100.064
100.053
100.041
100.034
100.354
100.344
100.34
100.346
100.364
100.392
100.429
100.473
100.515
100.561
105.247
105.304
105.315
105.311
105.298
105.273
105.232
105.185
105.088
105.192
178.308
178.723
178.688
178.727
178.884
179.147
179.484
179.891
180.36
180.697
3042.65
3041.04
3040.31
3040.49
3041.6
3043.62
3046.51
3050.22
3054.56
3059.23
2554.9
2554.11
2554.1
2554.89
2556.47
2558.85
2562.05
2566.15
2571.81
2582.7
144.919
144.638
144.586
144.623
144.702
144.798
144.844
144.61
143.374
139.392
101.409
101.399
101.399
101.404
101.413
101.425
101.441
101.464
101.51
101.657
100.089
100.097
100.101
100.1
100.097
100.09
100.083
100.078
100.079
100.097
99.826
99.8235
99.823
99.8248
99.8289
99.8348
99.8422
99.8505
99.8597
99.8732
99.9849
99.9888
99.991
99.9916
99.9906
99.9877
99.9828
99.9764
99.9687
99.9649
100.18
100.17
100.166
100.17
100.182
100.202
100.227
100.257
100.287
100.325
103.832
103.867
103.87
103.867
103.859
103.846
103.822
103.793
103.71
103.802
163.072
163.424
163.387
163.416
163.537
163.741
163.998
164.299
164.506
164.598
2825.62
2824.32
2823.74
2823.87
2824.75
2826.34
2828.63
2831.59
2835.13
2839.08
2374.41
2373.74
2373.74
2374.43
2375.81
2377.88
2380.66
2384.19
2388.85
2397.26
131.832
131.567
131.495
131.492
131.516
131.547
131.538
131.315
130.262
126.607
100.884
100.877
100.877
100.881
100.889
100.899
100.913
100.931
100.962
101.062
100.049
100.054
100.056
100.056
100.054
100.05
100.046
100.042
100.043
100.058
99.8718
99.8704
99.8701
99.871
99.8731
99.8761
99.88
99.8843
99.8893
99.8966
99.9684
99.9711
99.9725
99.9727
99.9716
99.9693
99.9655
99.9606
99.9549
99.9517
100.063
100.056
100.053
100.056
100.063
100.074
100.087
100.101
100.117
100.142
102.535
102.557
102.558
102.556
102.551
102.541
102.525
102.505
102.449
102.516
146.122
146.386
146.352
146.371
146.457
146.599
146.778
146.979
147.089
147.184
2607.09
2606.03
2605.56
2605.66
2606.35
2607.62
2609.45
2611.85
2614.74
2618.07
2192.4
2191.82
2191.82
2192.42
2193.6
2195.39
2197.77
2200.78
2204.56
2210.99
117.389
117.218
117.183
117.183
117.196
117.215
117.219
117.117
116.489
113.441
100.466
100.463
100.463
100.466
100.472
100.48
100.491
100.505
100.524
100.573
100.017
100.019
100.021
100.021
100.02
100.018
100.016
100.014
100.014
100.022
99.9313
99.9307
99.9306
99.9309
99.9317
99.9328
99.9341
99.9357
99.9375
99.9403
99.9847
99.9865
99.9873
99.9873
99.9863
99.9844
99.9815
99.9779
99.9739
99.9709
99.9919
99.9891
99.988
99.989
99.9918
99.9958
100
100.004
100.008
100.018
101.345
101.357
101.359
101.357
101.352
101.343
101.33
101.316
101.292
101.33
126.176
126.312
126.286
126.294
126.341
126.421
126.519
126.625
126.665
126.733
2387.87
2386.99
2386.59
2386.67
2387.22
2388.24
2389.73
2391.67
2394.06
2396.9
8538.12
9003.52
8766.38
7686.45
2.71843e+06
2.61815e+06
2.55692e+06
2.4748e+06
5.07722e+06
4.92339e+06
4.76354e+06
4.43047e+06
6.88178e+06
6.70372e+06
6.42553e+06
5.9137e+06
8.92435e+06
8.71229e+06
8.26432e+06
7.61901e+06
1.14483e+07
1.10688e+07
1.03087e+07
9.43434e+06
1.3794e+07
1.32142e+07
1.21866e+07
1.11855e+07
1.49148e+07
1.41769e+07
1.29935e+07
1.1908e+07
1.03464e+07
9.67406e+06
8.70425e+06
7.81629e+06
9638.28
9841.96
9743.9
9573.3
6444.48
6785.07
6927.81
6756.38
1.76969e+06
1.42562e+06
1.38858e+06
1.41085e+06
2.85841e+06
2.41458e+06
2.33553e+06
2.20385e+06
3.71401e+06
3.27232e+06
3.15896e+06
2.84537e+06
4.70219e+06
4.29891e+06
4.06933e+06
3.55775e+06
5.96296e+06
5.46593e+06
4.88436e+06
4.0505e+06
7.07251e+06
6.43543e+06
5.50005e+06
4.47036e+06
7.62456e+06
6.89142e+06
5.73869e+06
4.48897e+06
6.00134e+06
5.3435e+06
4.30465e+06
3.18335e+06
9233.49
9313.67
9122.66
8754.97
5639
5782.05
5822.59
5730.58
179374
180613
164565
132262
350113
348753
311646
239364
529073
521598
460528
348518
764726
750187
655359
492508
1.09908e+06
1.07625e+06
929049
679833
1.48396e+06
1.44823e+06
1.23773e+06
895141
1.78809e+06
1.72929e+06
1.45412e+06
1.02985e+06
1.46325e+06
1.3905e+06
1.13728e+06
761661
7065.39
7152.71
7136.2
7040.67
5376.12
5441.49
5451.66
5391.72
17745.2
17955
16825
14183.7
38352.4
38447.4
34875.4
28448
63311.2
62264
55200.9
44103
99592.2
96552.1
84049.8
65415.2
154545
147902
126390
96226.8
224845
212859
179525
135201
290018
271638
226880
169910
232790
212115
173608
125714
6145.2
6197.84
6223.97
6229.24
5166.35
5214.19
5215.5
5166.2
2763.96
2816.25
2709.16
2480.39
5818
5936.14
5589.98
4931.79
9946.24
10017.9
9273.97
8027.56
16250.4
16176.1
14728.1
12466.2
26443.1
26101.3
23518.9
19688.1
40360.5
39575.3
35423.8
29471.8
54561
53231.8
47542.3
39488.1
43938.5
42249.7
37570.7
30539.2
5628.15
5663.62
5693.18
5717.12
4984.17
5024.8
5025.22
4982.89
761.811
761.325
749.008
729.673
1194.63
1211.7
1176.81
1104.15
2029.02
2049.71
1973.37
1832.17
3353.92
3375.34
3217.68
2944.63
5591.92
5624.32
5341.71
4860.93
8737.74
8784.34
8323.64
7541.58
12083.4
12158.1
11536.1
10436.9
9706.62
9706.76
9265.64
8298.73
5276.51
5296.35
5318.86
5345.41
4816.68
4853.2
4853.3
4815.55
409.614
404.861
401.785
400.947
367.087
369.203
364.667
354.67
563.196
566.916
558.617
541.103
894.127
901.504
884.274
848.278
1467.63
1487.19
1459.91
1396.46
2276.56
2317.7
2277.23
2171.22
3156.37
3231.17
3186.19
3034.98
2697.53
2760.68
2755.68
2628.15
5010.15
5020.8
5037.08
5061.62
4653.32
4686.75
4686.72
4652.42
318.701
314.488
312.909
314.005
184.539
184.669
183.622
181.51
233.006
233.394
232.274
229.841
327.605
329.036
326.793
321.236
493.358
498.492
496.318
487.335
723.193
735.339
733.929
719.258
984.873
1008.69
1011.52
991.576
1026.5
1051.05
1066.61
1055.34
4790.62
4795.76
4807.11
4827.88
4488.05
4518.57
4518.51
4487.36
283.243
279.939
278.942
280.216
135.335
135.315
134.886
134.072
145.156
145.086
144.884
144.542
175.806
175.989
175.548
174.447
229.707
230.85
230.793
229.393
301.953
304.986
305.691
303.645
394.772
401.307
404.032
401.771
554.075
562.733
570.805
573.172
4592.73
4594.57
4602.24
4618.87
4318.59
4346.18
4346.12
4318.08
263.339
260.802
260.158
261.359
118.946
118.974
118.736
118.248
117.519
117.432
117.388
117.377
128.705
128.684
128.535
128.232
148.77
148.991
149.023
148.789
174.522
175.227
175.558
175.326
215.88
217.664
218.743
218.694
386.716
389.922
393.55
396.301
4401.91
4401.84
4406.87
4419.73
4143.96
4168.55
4168.49
4143.6
248.719
246.827
246.423
247.449
112.317
112.396
112.249
111.888
107.386
107.332
107.326
107.364
111.741
111.71
111.64
111.522
120.221
120.248
120.257
120.219
130.818
130.963
131.08
131.103
153.945
154.465
154.854
154.978
311.843
313.055
314.751
316.71
4211.4
4210.28
4213.5
4223.25
3963.76
3985.28
3985.2
3963.5
236.104
234.83
234.596
235.32
109.118
109.229
109.135
108.844
103.269
103.24
103.245
103.28
104.899
104.881
104.844
104.784
108.791
108.784
108.783
108.778
113.737
113.747
113.785
113.833
129.085
129.246
129.384
129.459
270.915
271.285
272.136
273.519
4018.53
4016.91
4018.92
4026.21
3777.88
3796.29
3796.22
3777.69
224.272
223.71
223.6
223.821
107.262
107.393
107.333
107.089
101.507
101.494
101.501
101.523
101.977
101.971
101.949
101.914
103.841
103.832
103.83
103.829
106.402
106.382
106.393
106.434
117.752
117.803
117.849
117.879
244.401
244.362
244.819
245.86
3822.22
3820.45
3821.67
3827.04
3586.47
3602.02
3601.98
3586.31
212.644
212.544
212.489
212.431
105.972
106.112
106.075
105.865
100.738
100.735
100.74
100.751
100.714
100.714
100.702
100.68
101.63
101.625
101.623
101.623
103.1
103.078
103.082
103.112
112.023
112.042
112.054
112.056
224.489
224.23
224.484
225.327
3622.05
3620.35
3621.07
3624.95
3389.88
3402.82
3402.79
3389.79
200.884
200.963
200.929
200.75
104.933
105.076
105.054
104.87
100.403
100.406
100.409
100.41
100.18
100.183
100.177
100.162
100.644
100.642
100.641
100.64
101.588
101.572
101.574
101.596
108.803
108.815
108.814
108.801
207.606
207.225
207.368
208.087
3417.99
3416.5
3416.9
3419.65
3188.74
3199.16
3199.15
3188.69
188.528
188.702
188.682
188.45
104.016
104.156
104.143
103.982
100.258
100.266
100.268
100.26
99.9676
99.9715
99.9681
99.9584
100.213
100.213
100.213
100.211
100.884
100.875
100.876
100.891
106.733
106.749
106.744
106.718
191.966
191.53
191.608
192.234
3210.31
3209.1
3209.31
3211.2
2983.71
2991.76
2991.76
2983.69
175.4
175.553
175.543
175.36
103.165
103.296
103.29
103.148
100.193
100.205
100.205
100.192
99.8955
99.8989
99.8969
99.8904
100.032
100.033
100.032
100.029
100.532
100.529
100.531
100.538
105.176
105.201
105.195
105.155
176.617
176.194
176.233
176.755
2999.6
2998.69
2998.79
3000.03
2775.83
2781.69
2781.69
2775.82
161.247
161.199
161.195
161.231
102.355
102.471
102.468
102.349
100.151
100.165
100.164
100.149
99.8841
99.8864
99.885
99.8807
99.964
99.9641
99.9627
99.9594
100.316
100.318
100.32
100.321
103.825
103.862
103.853
103.797
161.029
160.722
160.738
161.089
2786.8
2786.18
2786.22
2786.97
2566.4
2570.33
2570.33
2566.4
145.545
145.027
145.026
145.541
101.58
101.668
101.667
101.579
100.101
100.114
100.113
100.099
99.9022
99.9032
99.9022
99.8998
99.9497
99.9488
99.9469
99.9439
100.146
100.152
100.153
100.15
102.541
102.58
102.568
102.504
144.357
144.185
144.198
144.403
2573.15
2572.82
2572.84
2573.2
2356.09
2358.47
2358.47
2356.09
126.769
125.625
125.625
126.768
100.854
100.897
100.897
100.855
100.044
100.051
100.05
100.043
99.942
99.942
99.9415
99.9405
99.9682
99.9667
99.9649
99.9629
100.026
100.03
100.031
100.029
101.31
101.324
101.31
101.27
124.918
124.914
124.926
124.956
2359.31
2359.22
2359.22
2359.32
6110.86
5480.58
5193.53
5080.35
5028.18
4984.2
4939.82
4901.02
4872.31
4854.31
1.84293e+06
554414
126931
37694.8
17973.5
10751.4
7477.71
5867.83
5169.79
5083.23
2.33552e+06
403378
87027
33439.4
17937.1
11686.4
8775.03
7330.2
6701.41
6688.14
2.2669e+06
258536
68971
27278.1
14839.3
9703.58
7281.23
6061.95
5506.65
5500.32
2.05583e+06
237289
62589.2
24594.6
13029.6
8289.77
6063.94
4942.98
4403.23
4374.37
1.97245e+06
256562
64437
24244.3
12148.9
7365.91
5161.3
4065.61
3519.62
3443.75
2.07706e+06
287169
65935
23376.1
11036.8
6407.79
4328.57
3315.71
2798.11
2695.3
2.09941e+06
292479
59434
19615.5
8696.6
4861.65
3198.34
2415.23
2019.52
1922.98
1.46841e+06
179961
29524.5
8927.39
3897.21
2300.15
1625.9
1315.73
1161.13
1114.24
9368.59
7010.16
6391.02
6121.92
5954.48
5843.85
5770.35
5718.44
5675.63
5645.7
5745.09
5332.71
5132.7
5021.89
4951.43
4898.1
4854.37
4819.69
4795.47
4781.34
654699
196898
61866.1
23298.2
11209.1
6607.8
4535.87
3503.09
3019.11
2870.59
808348
197528
58130.5
22443.6
11635.6
7404.7
5445.8
4462.29
4005.86
3910.47
844006
174662
49118.7
19017.9
10026.3
6429.64
4745.41
3894.44
3487.49
3411.83
887823
165474
45457.8
17532.9
9091.84
5707.83
4128.66
3334.45
2935.84
2851.91
1.01134e+06
179499
47775.9
17786.9
8795.97
5281.48
3669.31
2869.54
2456.63
2345.31
1.18426e+06
202345
50225.3
17669.9
8268.35
4762.55
3196.01
2435.76
2034.42
1909.13
1.29498e+06
210685
46915.1
15338.5
6750.01
3745.68
2450.51
1843.08
1528.16
1421.17
953366
134284
24601.5
7358.93
3233.99
1923.67
1366.62
1106.21
975.122
926.226
8139.31
6698.09
6196.41
5962.29
5817.95
5720.91
5654.33
5605.76
5564.44
5532.01
5229.47
5049.87
4952.69
4884.95
4831.3
4787.44
4752.61
4726.61
4709.4
4700.06
63127
27607.8
13398.6
7316.87
4459.43
3006.81
2236.77
1818.99
1616.57
1552.56
95574.5
36888.1
16979.8
8926.78
5418.1
3708.28
2820.89
2349.49
2126.78
2078.59
118343
40260.2
17388.2
8741.3
5193
3515.6
2662.35
2214.06
1998.04
1955.31
145592
44336.7
18254.3
8776.84
5032.84
3317.25
2461.82
2019.1
1795.66
1744.66
192703
54294.4
20857
9454.47
5132.09
3229.5
2302.91
1830.59
1584.96
1513.5
255176
66158.8
23023.8
9795.03
5026.7
3035.08
2092.57
1623.83
1374.34
1291.27
307810
72758.9
22102.8
8793.51
4258.78
2484.24
1674.31
1285.51
1083.46
1012.59
223461
44912.8
11277.3
4396.67
2227.59
1435.69
1067.19
886.33
796.415
763.733
6967.65
6309.06
5978.77
5799.41
5683.16
5602.79
5544.83
5500.13
5460.2
5427.73
4946.29
4840.85
4778.42
4731.47
4693.84
4663.79
4640.67
4623.97
4613.48
4608.6
9582.91
5912.6
3744.77
2480.96
1753.95
1335.86
1097.17
961.17
895.762
878.841
16734.9
9250.71
5434.82
3370.67
2274.33
1671.2
1333.17
1145.35
1056.72
1040.85
23393.7
11652.2
6343.24
3720.59
2428.25
1747.61
1377.29
1175.12
1078.07
1061.54
31578.9
14340.1
7288.16
4044.12
2534.32
1772.46
1369.3
1154.45
1046.59
1023.98
45265.7
19022.2
8884.7
4628.51
2740.55
1828.66
1358.34
1111.35
983.021
946.519
63668.7
24262.4
10229.1
5014.95
2810.54
1801.04
1295.53
1037.08
899.349
853.751
81708.5
27459
10134.3
4695.5
2495.19
1551.82
1095.86
870.897
754.339
714.34
61106.6
16843.5
5371.77
2605.49
1515.08
1065.8
835.328
715.55
657.06
636.445
6302.27
5946.48
5738.66
5609.46
5521.6
5457.27
5408.68
5369.68
5333.66
5304.02
4724.86
4651.31
4610.1
4580.6
4557.37
4538.85
4524.6
4514.44
4508.46
4506.44
2061.05
1573.8
1201.77
946.306
781.502
678.41
615.917
578.683
562.231
561.945
3733.66
2537.03
1736.68
1228.9
920.702
734.303
622.714
558.23
528.441
525.534
5730.78
3583.68
2262.83
1507.47
1081.49
836.125
694.262
613.793
575.544
571.016
8365.41
4829.42
2816.75
1768.77
1214.49
911.164
741.787
649.03
602.954
595.081
12826.5
6857.79
3659.38
2152.72
1393.54
996.569
780.607
663.792
603.278
587.186
18839
9114.65
4409.2
2444.97
1498.93
1030.27
782.83
652.78
583.402
561.084
25091
10578.8
4557.48
2408.26
1408.27
944.552
707.63
587.235
525.085
504.625
19101.6
6591.55
2700.34
1586.85
1053.6
805.074
664.005
585.976
548.918
536.046
5820.9
5629.67
5511.29
5423.17
5358.48
5307.43
5266.99
5233.45
5201.55
5175.12
4547.62
4489.9
4460.46
4440.77
4425.57
4413.48
4404.24
4397.88
4394.59
4394.27
661.448
600.56
539.335
490.41
455.72
432.737
418.481
410.053
407.968
411.955
965.21
765.79
601.351
483.293
403.51
351.562
318.894
299.528
291.241
292.113
1549.14
1143.21
828.206
624.61
495.677
415.427
366.468
337.62
324.229
323.96
2385.49
1627.64
1087.66
772.739
586.285
476.639
412.442
376.462
358.969
357.299
3845.31
2425.91
1485.01
986.201
704.292
545.628
454.826
404.247
378.197
372.232
5833
3331.78
1863.08
1166.38
789.524
588.383
476.565
416.131
383.825
374.069
7937.44
3976.09
2025.97
1216.09
790.923
577.791
462.481
401.962
370.908
361.431
6188.41
2712.2
1473.37
1020.5
762.903
625.443
539.225
488.291
465.103
457.03
5461.79
5365.02
5299.81
5240.3
5192.48
5151.98
5118.58
5090.23
5062.61
5039.67
4392.54
4343.47
4319.97
4305.06
4293.83
4285.04
4278.51
4274.29
4272.54
4273.18
362.861
360.903
352.525
343.836
337.226
332.981
330.722
329.874
331.317
335.677
333.825
297.676
263.801
237.222
217.882
204.679
196.16
191.12
189.467
190.847
501.729
421.488
348.413
295.898
259.33
235.028
219.466
209.904
205.695
206.437
761.296
594.16
456.732
367.223
309.094
272.728
250.571
237.95
232.112
232.475
1228.58
889.901
630.31
473.959
376.466
317.649
282.292
262.004
251.699
250.054
1868.14
1232.92
805.838
571.767
431.763
351.294
304.152
277.935
263.896
260.143
2562.03
1512.9
922.895
630.944
460.914
368.258
314.957
285.992
271.343
267.439
2210.26
1281.08
895.827
705.264
579.754
502.543
449.375
415.735
401.292
396.096
5181.78
5135.8
5098.66
5057.96
5022.24
4990.29
4963.06
4939.62
4916.33
4897.02
4245.21
4201.34
4181.04
4168.55
4159.34
4152.31
4147.27
4144.25
4143.35
4144.48
279.374
286.291
287.38
286.618
285.889
285.736
286.133
286.962
288.874
292.612
176.309
168.799
161.572
155.648
151.2
148.15
146.24
145.227
145.279
146.374
223.815
207.166
190.125
176.77
166.724
159.655
154.908
151.839
150.637
151.367
305.622
267.612
233.372
208.8
191.656
180.364
173.283
169.252
167.618
168.368
457.162
376.234
306.933
259.693
227.633
206.955
193.915
186.223
182.456
182.359
662.526
504.08
384.837
309.364
259.977
229.353
210.416
199.602
193.841
192.639
899.78
630.337
458.477
356.663
291.386
252.416
228.512
215.083
208.533
207.201
978.544
732.864
609.282
525.422
462.537
418.082
384.759
362.125
353.074
349.555
4946.59
4925.17
4902.22
4873.8
4846.96
4822
4800.2
4781.31
4762.28
4746.58
4097.83
4057.94
4039.82
4028.81
4020.79
4014.78
4010.6
4008.25
4007.81
4009.16
246.681
254.764
257.509
258.208
258.526
259.015
259.713
260.625
262.218
265.199
131.479
129.495
127.828
126.505
125.567
125.005
124.755
124.758
125.122
125.872
143.608
139.929
135.764
132.274
129.471
127.395
125.932
124.929
124.624
125.14
171.058
161.85
153.194
146.507
141.592
138.235
136.126
134.982
134.69
135.329
223.437
203.652
185.091
170.95
160.593
153.476
148.8
145.998
144.746