/*--------------------------------*- C++ -*----------------------------------*\
| =========                 |                                                 |
| \\      /  F ield         | foam-extend: Open Source CFD                    |
|  \\    /   O peration     | Version:     4.0                                |
|   \\  /    A nd           | Web:         http://www.foam-extend.org         |
|    \\/     M anipulation  |                                                 |
\*---------------------------------------------------------------------------*/
FoamFile
{
    version     2.0;
    format      ascii;
    class       volScalarField;
    location    "2000";
    object      k;
}
// * * * * * * * * * * * * * * * * * * * * * * * * * * * * * * * * * * * * * //

dimensions      [0 2 -2 0 0 0 0];

internalField   nonuniform List<scalar> 
34480
(
8.71412
8.70779
8.70494
8.70304
8.70372
8.71953
8.78634
8.97503
9.38868
10.2596
28.7772
30.6181
33.1022
36.0572
39.6364
45.3826
58.5655
89.9161
147.104
214.891
56.0675
58.515
61.5473
64.8717
68.3273
72.8979
83.7553
117.053
194.834
305.702
56.9734
60.2798
64.5264
69.3751
74.3699
80.0123
90.5132
123.452
212.462
356.332
53.1709
57.27
62.7197
69.1685
76.0099
83.3479
94.6974
128.189
227.791
404.666
47.8192
52.176
58.1748
65.634
73.9581
83.1018
96.4283
132.982
247.175
462.725
41.8564
46.1466
52.2628
60.2002
69.5626
80.295
95.6906
135.232
262.508
513.756
32.3879
36.0008
41.3077
48.5709
57.6653
68.793
85.2612
126.075
259.664
533.525
13.8365
15.2512
17.524
21.0584
26.27
33.8049
46.0375
76.1772
177.857
402.704
9.15314
9.13722
9.14067
9.17029
9.23434
9.3277
9.42899
9.5355
9.72607
9.97748
8.63059
8.63015
8.63943
8.65904
8.68834
8.72904
8.79563
8.91838
9.14743
9.59022
20.2311
21.5592
23.7366
26.8065
30.7249
35.1019
40.5997
53.5644
89.4172
170.802
41.2919
43.3642
46.2574
49.9234
54.4083
59.6792
65.288
77.7964
124.892
253.88
43.1159
45.8003
49.5713
54.3763
60.053
66.6939
73.4999
85.8937
139.355
302.632
41.1182
44.3689
49.0412
55.0769
62.2361
70.4853
78.8716
91.7909
151.916
350.504
37.7074
41.1348
46.2142
53.0484
61.4464
71.2437
81.4847
96.1835
166.313
410.942
33.6295
36.9966
42.1558
49.346
58.5763
69.6303
81.6328
98.16
177.663
467.522
26.5389
29.3245
33.7401
40.2518
49.0893
60.1811
72.8788
90.4935
174.939
493.898
11.9887
12.962
14.65
17.4978
22.1872
29.2441
38.3293
51.1736
113.08
365.381
9.01924
8.99588
8.9872
9.00111
9.05216
9.14468
9.24987
9.33325
9.5862
10.2157
8.53519
8.53463
8.54158
8.55791
8.58442
8.62167
8.67327
8.75038
8.8748
9.07701
13.8556
14.6029
15.8998
17.8651
20.5424
23.9044
28.1243
34.195
44.7447
62.7414
28.7853
30.2918
32.4599
35.2778
38.7506
42.8589
47.5838
54.3257
69.2696
102.15
31.1214
33.089
35.9487
39.7074
44.2195
49.4863
55.2
62.6678
81.6099
130.677
30.5776
32.9661
36.54
41.301
47.0644
53.7596
60.798
69.1433
92.4586
161.13
28.769
31.3052
35.2306
40.6896
47.5654
55.7151
64.3922
74.2679
103.592
197.614
26.2937
28.8114
32.8487
38.6631
46.3302
55.6878
65.9254
77.303
112.648
234.224
21.3365
23.4104
26.8556
32.1287
39.5164
49.0041
59.9337
72.36
112.122
256.139
10.4564
11.1426
12.3747
14.4813
18.0458
23.6609
31.3924
40.9289
70.4957
185.395
8.9026
8.87671
8.86186
8.86414
8.894
8.95993
9.05221
9.13046
9.26731
9.70119
8.42684
8.42656
8.43142
8.44303
8.46223
8.48985
8.52725
8.57834
8.65489
8.78699
9.7786
10.1263
10.7429
11.7555
13.2185
15.1841
17.7223
20.9675
25.2323
30.814
19.3995
20.3314
21.6923
23.511
25.8111
28.5859
31.8622
35.9191
41.9027
52.0556
21.7238
22.9893
24.8502
27.347
30.4222
34.0807
38.2394
43.1739
51.033
67.2432
22.1087
23.6821
26.0821
29.3284
33.3217
38.0681
43.3266
49.2335
59.244
83.6532
21.4562
23.1567
25.8566
29.6727
34.5453
40.4694
47.1094
54.4571
67.6657
103.734
20.2034
21.9277
24.7723
28.9271
34.4769
41.4169
49.3598
58.0624
74.555
124.134
17.0088
18.4393
20.8776
24.6677
30.0588
37.168
45.7253
55.3993
74.6815
136.493
9.20147
9.66503
10.5111
11.9317
14.3081
18.1503
23.8744
31.3347
46.0632
95.8373
8.76822
8.74369
8.72806
8.72569
8.74313
8.78865
8.8654
8.95309
9.05537
9.34589
8.30342
8.30305
8.30596
8.31306
8.32472
8.34137
8.36395
8.3952
8.44371
8.5366
7.46482
7.60509
7.84677
8.26572
8.88704
9.75268
10.9024
12.3424
13.9932
15.7922
13.0895
13.5941
14.3333
15.3389
16.6294
18.2045
20.074
22.2425
24.7091
27.8345
15.027
15.7514
16.8186
18.2733
20.0942
22.2906
24.8499
27.782
31.2467
36.4441
15.8321
16.7717
18.2133
20.1765
22.6202
25.5676
28.9536
32.7446
37.3943
45.758
15.8736
16.9151
18.5895
20.9792
24.0522
27.8639
32.3225
37.3487
43.8513
57.2917
15.4297
16.5192
18.3443
21.0221
24.6159
29.2012
34.6785
40.875
49.2858
69.0033
13.5563
14.4782
16.0625
18.5304
22.0519
26.7981
32.7706
39.81
49.989
75.9409
8.17856
8.47889
9.03086
9.92671
11.3729
13.7016
17.3338
22.4495
30.3137
51.1588
8.62749
8.60501
8.58995
8.58542
8.5954
8.62595
8.68294
8.76197
8.85358
9.04395
8.16598
8.16556
8.16728
8.1717
8.17887
8.18891
8.20228
8.22118
8.2533
8.32358
6.24983
6.30331
6.38917
6.54495
6.77289
7.08556
7.49573
8.00307
8.56323
9.12525
9.23749
9.48385
9.84012
10.3312
10.9653
11.7382
12.6447
13.6525
14.6672
15.6888
10.6386
11.0147
11.5662
12.3316
13.3012
14.4757
15.8417
17.3576
18.898
20.6414
11.4982
12.0157
12.8062
13.8874
15.2478
16.8988
18.8127
20.9263
23.109
26.0506
11.858
12.4512
13.4044
14.7743
16.5516
18.7857
21.4531
24.4775
27.7488
32.8544
11.8644
12.5111
13.5959
15.1858
17.3268
20.1017
23.5021
27.4246
31.8296
39.7505
10.895
11.4605
12.4233
13.9118
16.0278
18.9271
22.6881
27.263
32.7708
43.7101
7.35467
7.54319
7.89049
8.43131
9.26485
10.5692
12.6096
15.6045
19.686
28.2501
8.47871
8.45886
8.44537
8.44064
8.44723
8.46922
8.51126
8.57454
8.65195
8.77293
8.01579
8.01532
8.01631
8.01916
8.02388
8.03046
8.03923
8.05197
8.07553
8.13272
5.63345
5.65326
5.68197
5.73823
5.81891
5.9251
6.05738
6.21244
6.37398
6.5324
7.08686
7.19522
7.34499
7.55122
7.81594
8.13554
8.50485
8.90369
9.28025
9.60948
7.98663
8.16219
8.41448
8.77103
9.22534
9.77486
10.4084
11.094
11.7392
12.3312
8.7082
8.97089
9.36444
9.90067
10.5778
11.3987
12.3469
13.3786
14.3583
15.4059
9.14287
9.4581
9.95563
10.6702
11.6025
12.7809
14.1983
15.808
17.4136
19.3804
9.34377
9.70671
10.3056
11.173
12.34
13.8638
15.7528
17.9586
20.2281
23.4203
8.93577
9.2685
9.81866
10.652
11.8198
13.4287
15.5492
18.1889
21.1134
25.7003
6.71093
6.82521
7.03607
7.34928
7.80824
8.49375
9.53125
11.0563
12.9964
16.3424
8.32065
8.30367
8.29226
8.28833
8.29369
8.31106
8.34345
8.39268
8.45395
8.52861
7.8543
7.8538
7.85437
7.85632
7.85968
7.86445
7.87089
7.88054
7.89955
7.94888
5.32403
5.33113
5.34016
5.36089
5.39064
5.42859
5.47369
5.52348
5.57163
5.61857
5.96932
6.01416
6.07046
6.1456
6.23929
6.3491
6.47221
6.6004
6.71425
6.80504
6.49289
6.56731
6.66923
6.81555
7.00066
7.22165
7.47158
7.73413
7.96721
8.14961
7.01539
7.13969
7.31824
7.55629
7.85309
8.20794
8.61135
9.04089
9.42851
9.78394
7.3992
7.55691
7.79623
8.13492
8.57328
9.12456
9.78593
10.5347
11.2578
12.0088
7.64142
7.83573
8.14511
8.57994
9.15863
9.91002
10.842
11.9355
13.0244
14.3069
7.54723
7.73687
8.03479
8.47015
9.0628
9.86964
10.9345
12.2774
13.7267
15.6359
6.22141
6.28791
6.41158
6.58613
6.83008
7.17524
7.67064
8.37571
9.21432
10.4454
8.15213
8.13805
8.12882
8.12605
8.13106
8.14566
8.17168
8.21026
8.25647
8.30356
7.68252
7.682
7.68233
7.68378
7.68636
7.69011
7.69526
7.70313
7.71926
7.76296
5.16715
5.16942
5.1719
5.17993
5.19199
5.20736
5.22555
5.24538
5.26424
5.28295
5.41123
5.42993
5.45
5.47462
5.50348
5.53547
5.56968
5.60364
5.63131
5.65189
5.69249
5.72214
5.75949
5.81409
5.88155
5.95965
6.04469
6.12949
6.19793
6.24033
6.03323
6.08959
6.16517
6.26141
6.37686
6.50966
6.65472
6.80228
6.92575
7.02455
6.32454
6.40021
6.50809
6.65587
6.84152
7.0693
7.3373
7.63577
7.91605
8.17528
6.53545
6.63577
6.78733
6.98997
7.25197
7.584
7.98924
8.46066
8.91971
9.39993
6.59622
6.7019
6.85637
7.07065
7.34925
7.71581
8.19096
8.78847
9.42745
10.1791
5.85983
5.89644
5.96639
6.05998
6.18595
6.355
6.58462
6.89702
7.24465
7.6844
7.97214
7.96081
7.95364
7.95198
7.95677
7.96922
7.99031
8.02053
8.05463
8.08569
7.50095
7.50043
7.50063
7.50178
7.5039
7.50703
7.51137
7.51807
7.53207
7.57115
5.08484
5.08528
5.08572
5.08916
5.09489
5.10257
5.11225
5.12355
5.13532
5.14745
5.1362
5.14446
5.15163
5.15896
5.16652
5.17412
5.18188
5.18963
5.19581
5.20107
5.27573
5.28721
5.30004
5.31946
5.34267
5.36838
5.39494
5.41948
5.43611
5.4407
5.48012
5.50527
5.53607
5.57266
5.61368
5.65764
5.70217
5.74362
5.77311
5.79149
5.68246
5.71798
5.76455
5.82538
5.89785
5.98264
6.07841
6.1812
6.27324
6.34819
5.83995
5.89037
5.96185
6.05124
6.16166
6.29568
6.45337
6.63172
6.79819
6.95499
5.96489
6.02294
6.10035
6.20083
6.32333
6.47588
6.66631
6.90045
7.14739
7.41585
5.60091
5.61939
5.65737
5.70558
5.769
5.85045
5.9561
6.09426
6.24104
6.40588
7.77991
7.77104
7.76566
7.76487
7.76931
7.77972
7.79655
7.81983
7.84459
7.86576
7.30971
7.3092
7.30934
7.31029
7.31211
7.31482
7.31859
7.32441
7.33664
7.37159
5.03898
5.03877
5.03868
5.04045
5.04381
5.04873
5.05562
5.06464
5.07531
5.08681
5.001
5.0049
5.00755
5.0094
5.01071
5.01168
5.0128
5.01463
5.01703
5.02051
5.06316
5.06756
5.07174
5.07856
5.08643
5.09472
5.10281
5.10961
5.11288
5.11047
5.17578
5.18692
5.19923
5.2126
5.22617
5.23912
5.25056
5.25937
5.26302
5.26289
5.30876
5.32528
5.3448
5.36881
5.39531
5.42417
5.45482
5.48596
5.51198
5.52923
5.41541
5.44012
5.47277
5.5106
5.55481
5.60564
5.66254
5.72437
5.77824
5.82262
5.55825
5.58992
5.62762
5.67264
5.72296
5.78101
5.84973
5.93136
6.01631
6.10457
5.42161
5.4295
5.44909
5.47291
5.50426
5.54344
5.59264
5.65536
5.72061
5.78866
7.57488
7.56813
7.56421
7.56399
7.56789
7.57633
7.5894
7.6069
7.62461
7.63928
7.10871
7.10823
7.10832
7.10914
7.11073
7.11311
7.11643
7.12149
7.13214
7.16318
5.01132
5.01093
5.01082
5.01197
5.01436
5.01817
5.02404
5.03254
5.04369
5.05627
4.93445
4.93638
4.93742
4.93769
4.93749
4.93713
4.93714
4.93823
4.94074
4.94486
4.95728
4.95899
4.96031
4.9627
4.96539
4.9681
4.97062
4.97256
4.97298
4.9705
5.0126
5.01743
5.02225
5.027
5.0312
5.0345
5.03661
5.0373
5.03597
5.03383
5.09709
5.10475
5.11274
5.12184
5.13081
5.13953
5.14791
5.15569
5.16151
5.16363
5.1643
5.17596
5.19032
5.20573
5.22275
5.2413
5.26106
5.2818
5.29829
5.30944
5.30424
5.32151
5.33939
5.35852
5.3773
5.39648
5.4174
5.44124
5.46615
5.49395
5.3018
5.30383
5.31321
5.3245
5.34004
5.35948
5.3835
5.41376
5.44501
5.47656
7.35673
7.35171
7.34893
7.34904
7.35229
7.35888
7.36874
7.38156
7.39409
7.40435
6.89776
6.89731
6.89737
6.89808
6.89947
6.90156
6.90447
6.90886
6.91803
6.94528
4.99318
4.99281
4.9928
4.99371
4.99561
4.99883
5.00418
5.01256
5.02444
5.03856
4.90155
4.90251
4.90296
4.90289
4.90256
4.90225
4.90245
4.90386
4.90699
4.91188
4.90609
4.90684
4.90728
4.90813
4.90904
4.90992
4.91074
4.91136
4.9114
4.90986
4.92799
4.92996
4.93179
4.93346
4.93474
4.93549
4.93564
4.93515
4.93395
4.9329
4.98085
4.98441
4.98763
4.9909
4.99359
4.99563
4.99709
4.99806
4.99841
4.99742
5.02106
5.02619
5.03213
5.03817
5.04461
5.05143
5.05851
5.06594
5.07131
5.07404
5.15033
5.15981
5.16809
5.17563
5.18145
5.18581
5.18943
5.1931
5.19709
5.20573
5.2246
5.22362
5.22756
5.23276
5.24086
5.25142
5.26446
5.2808
5.29734
5.31394
7.12536
7.12172
7.11978
7.12003
7.12261
7.12758
7.13479
7.14396
7.15279
7.16002
6.67664
6.67622
6.67627
6.67688
6.67809
6.6799
6.68242
6.68617
6.69393
6.71744
4.98028
4.98002
4.98014
4.98093
4.9825
4.98528
4.99017
4.99837
5.01086
5.02657
4.88518
4.88564
4.88587
4.88583
4.88568
4.88568
4.88623
4.88797
4.89153
4.89693
4.88222
4.88267
4.88289
4.88319
4.88345
4.88367
4.8839
4.88412
4.88421
4.88349
4.88606
4.88674
4.88738
4.88801
4.88851
4.88882
4.88891
4.88879
4.88845
4.88847
4.91916
4.92082
4.92212
4.92323
4.92386
4.92398
4.92368
4.92308
4.92233
4.9212
4.94273
4.94466
4.94685
4.94915
4.95172
4.9546
4.95773
4.96122
4.96375
4.96498
5.05938
5.06464
5.0684
5.07102
5.07201
5.07146
5.06969
5.06732
5.06463
5.06769
5.17649
5.17418
5.17534
5.17777
5.18252
5.18922
5.19754
5.20785
5.21764
5.22762
6.88086
6.87827
6.87695
6.87722
6.87917
6.88278
6.88792
6.89434
6.90056
6.9057
6.44517
6.4448
6.44483
6.44535
6.44637
6.44791
6.45005
6.45318
6.45959
6.47944
4.97047
4.97034
4.97056
4.97127
4.97256
4.97492
4.97928
4.98711
4.99988
5.01708
4.87703
4.87724
4.87739
4.87744
4.87749
4.87774
4.87853
4.88043
4.88412
4.8898
4.87155
4.87194
4.87211
4.8722
4.87221
4.87216
4.87212
4.87216
4.87231
4.87217
4.86662
4.86674
4.86694
4.86723
4.86755
4.86789
4.86821
4.8685
4.86875
4.86934
4.88754
4.88833
4.88887
4.88923
4.8893
4.88906
4.88856
4.88789
4.88718
4.88646
4.9019
4.90232
4.90293
4.90383
4.90509
4.90675
4.90874
4.91115
4.9131
4.91443
5.00597
5.00891
5.01058
5.01126
5.01079
5.00914
5.0064
5.00302
4.99872
5.00063
5.14717
5.14445
5.14427
5.14551
5.1488
5.15381
5.16003
5.16755
5.17394
5.18075
6.6235
6.62169
6.6208
6.62104
6.62244
6.62499
6.62856
6.63296
6.63735
6.64101
6.20329
6.20296
6.20299
6.20341
6.20425
6.20552
6.20728
6.20981
6.21493
6.23119
4.96256
4.96258
4.96287
4.96348
4.96451
4.96642
4.97016
4.97734
4.98997
5.00843
4.87302
4.87312
4.87324
4.87337
4.87356
4.87396
4.87484
4.8767
4.8803
4.88604
4.86697
4.86734
4.8675
4.86752
4.86742
4.86725
4.86708
4.86702
4.86718
4.86745
4.85861
4.85853
4.85857
4.85874
4.85901
4.85938
4.8598
4.86027
4.86075
4.8615
4.87192
4.87229
4.87254
4.87266
4.87264
4.87245
4.87211
4.87167
4.87119
4.87083
4.88163
4.88143
4.88142
4.88183
4.88266
4.8839
4.8855
4.88747
4.88923
4.89078
4.97332
4.97493
4.97563
4.97566
4.97498
4.97355
4.97128
4.96851
4.96435
4.96645
5.12909
5.12644
5.12565
5.12643
5.12904
5.13322
5.13834
5.14435
5.14874
5.15392
6.35373
6.35249
6.3519
6.35208
6.35305
6.35479
6.35719
6.36017
6.36322
6.36583
5.95113
5.95086
5.95088
5.9512
5.95186
5.95285
5.95423
5.95618
5.96007
5.97286
4.9558
4.95597
4.95629
4.9568
4.95756
4.95901
4.962
4.96825
4.98016
4.99942
4.87111
4.87116
4.87128
4.87145
4.8717
4.87215
4.873
4.87468
4.87795
4.88351
4.86494
4.86528
4.86543
4.86542
4.86529
4.86508
4.86487
4.86475
4.8649
4.86542
4.85612
4.856
4.85599
4.8561
4.85632
4.85663
4.85702
4.85745
4.85791
4.85857
4.86454
4.86472
4.86484
4.8649
4.86488
4.86478
4.86459
4.86434
4.86405
4.8639
4.87184
4.87144
4.87127
4.8715
4.87212
4.8731
4.87437
4.87591
4.87737
4.87891
4.95082
4.95166
4.9519
4.95177
4.95128
4.95036
4.94886
4.94701
4.94353
4.94607
5.11673
5.11438
5.11336
5.11395
5.11617
5.11979
5.12415
5.12909
5.13205
5.13629
6.07221
6.07139
6.07101
6.07114
6.07178
6.0729
6.07447
6.07641
6.07848
6.08031
5.68921
5.68897
5.68898
5.68921
5.68968
5.69041
5.6914
5.69279
5.69553
5.70502
4.94943
4.9497
4.95003
4.95041
4.95091
4.95188
4.95406
4.95904
4.96949
4.98871
4.87016
4.87019
4.8703
4.87046
4.87073
4.87116
4.8719
4.87327
4.87598
4.881
4.86368
4.86395
4.86407
4.86406
4.86394
4.86377
4.86357
4.86345
4.86357
4.86418
4.85608
4.85599
4.85598
4.85604
4.85619
4.8564
4.85666
4.85695
4.85728
4.85774
4.86132
4.86143
4.8615
4.86153
4.86151
4.86145
4.86133
4.86116
4.86096
4.86087
4.86662
4.86626
4.8661
4.86625
4.86668
4.86735
4.86821
4.86924
4.87025
4.87152
4.93215
4.93259
4.93263
4.93252
4.93222
4.9317
4.93081
4.92966
4.92698
4.92964
5.10526
5.10327
5.10224
5.10271
5.10459
5.10763
5.11124
5.1152
5.11692
5.1205
5.77991
5.7794
5.77917
5.77925
5.77964
5.78032
5.78128
5.78247
5.78378
5.78499
5.41787
5.41788
5.41789
5.41805
5.41837
5.41885
5.4195
5.4204
5.4221
5.42857
4.94162
4.94189
4.94218
4.94241
4.94266
4.94318
4.94449
4.94788
4.95599
4.9737
4.8695
4.86952
4.8696
4.86973
4.86996
4.87032
4.87089
4.87189
4.87385
4.87781
4.86235
4.86251
4.8626
4.86259
4.86252
4.86241
4.86228
4.86219
4.86226
4.86278
4.857
4.85696
4.85695
4.85698
4.85705
4.85716
4.85729
4.85744
4.85761
4.85786
4.86019
4.86027
4.86032
4.86032
4.8603
4.86023
4.86012
4.85997
4.85981
4.85971
4.86288
4.86265
4.86256
4.86264
4.86288
4.86324
4.86367
4.86417
4.86469
4.86552
4.91377
4.91406
4.91408
4.914
4.9138
4.91344
4.91284
4.91207
4.91024
4.91237
5.08662
5.08498
5.08408
5.08441
5.08585
5.08817
5.09087
5.09368
5.09422
5.09707
5.47792
5.47763
5.47751
5.47755
5.47775
5.47812
5.47864
5.4793
5.48002
5.48073
5.1375
5.13742
5.13743
5.13751
5.13768
5.13793
5.13827
5.13872
5.13953
5.14359
4.92451
4.92468
4.92488
4.92499
4.92506
4.92523
4.92576
4.92737
4.93213
4.9452
4.86826
4.86826
4.86831
4.86841
4.86858
4.86884
4.86923
4.86983
4.87096
4.8733
4.86104
4.86112
4.86116
4.86117
4.86114
4.86109
4.86102
4.86097
4.861
4.86125
4.85834
4.85832
4.85832
4.85833
4.85836
4.85839
4.85844
4.85849
4.85855
4.85864
4.8601
4.86016
4.86019
4.86019
4.86015
4.86009
4.86
4.85988
4.85975
4.85965
4.86029
4.86019
4.86016
4.86019
4.86028
4.86041
4.86055
4.86068
4.86082
4.86114
4.89342
4.89364
4.8937
4.89365
4.89347
4.89315
4.8927
4.89217
4.89138
4.89259
5.03657
5.03518
5.03453
5.03468
5.03555
5.03698
5.03863
5.04022
5.04001
5.04163
5.16637
5.16622
5.16617
5.16618
5.16625
5.1664
5.16661
5.16687
5.16718
5.16754
12.1682
12.6064
12.3841
11.3449
213.015
207.744
204.492
200.09
323.059
316.5
309.612
295.006
395.669
388.814
377.981
357.633
470.524
463.041
447.029
423.445
555.509
543.165
518.004
488.284
629.012
611.259
579.143
546.976
662.638
640.599
604.433
570.284
519.267
496.52
462.756
430.723
13.1922
13.3774
13.2884
13.1328
10.0873
10.4397
10.5856
10.4102
236.147
215.551
211.347
205.449
370.169
343.175
334.097
313.149
463.154
436.5
423.934
389.416
563.614
541.008
520.248
472.372
696.104
671.982
629.855
561.254
823.951
794.068
728.756
646.163
903.547
868.717
788.155
689.459
733.669
700.251
623.957
529.706
12.8202
12.8943
12.7174
12.3734
9.22824
9.38365
9.42747
9.32789
81.3628
83.3352
80.2436
72.7478
137.797
139.898
132.836
117.628
182.961
184.151
173.459
152.132
234.634
235.149
220.105
191.543
302.183
303.469
283.606
244.629
376.312
378.282
352.674
302.836
433.112
434.348
402.411
342.633
346.735
345.165
315.342
260.544
10.7253
10.8135
10.7968
10.7002
8.93916
9.01148
9.0227
8.95644
33.8396
34.0705
33.5288
31.9944
59.2506
59.4792
57.6978
54.2261
79.4089
79.2219
76.1108
70.8445
102.813
102.123
97.2825
89.2991
133.096
131.784
124.626
113.331
166.363
164.254
154.438
139.564
192.168
189.289
177.338
159.599
147.084
143.447
133.132
117.249
9.77256
9.82828
9.85589
9.86145
8.70509
8.75875
8.76022
8.70492
16.53
16.6896
16.5445
16.1927
29.83
30.1135
29.6341
28.6227
40.0137
40.2798
39.4519
37.8813
51.758
51.9867
50.6308
48.1669
67.2695
67.5804
65.6806
62.2354
84.3236
84.7262
82.2061
77.6172
97.2422
97.7591
94.81
89.2474
70.8046
70.9009
68.5098
63.2704
9.2164
9.25508
9.28726
9.31327
8.49923
8.54536
8.54583
8.49777
9.20811
9.23199
9.20637
9.16209
16.1541
16.2333
16.0993
15.8036
21.5667
21.6628
21.4503
21.0162
27.7934
27.9266
27.5807
26.8842
36.1084
36.3763
35.948
35.0002
45.1732
45.6126
45.0943
43.828
51.7326
52.3719
51.8398
50.2823
35.4837
35.8608
35.4925
33.9532
8.8284
8.85052
8.87558
8.90509
8.30773
8.34968
8.34979
8.30644
6.52776
6.52181
6.51979
6.53054
9.71037
9.72888
9.68545
9.58923
12.5669
12.5981
12.5423
12.4151
15.9204
15.9817
15.8942
15.6804
20.4744
20.6276
20.5546
20.282
25.3992
25.6772
25.6266
25.2674
28.8115
29.2364
29.2397
28.7976
19.0683
19.3554
19.4029
18.9568
8.52873
8.54082
8.55927
8.58705
8.11882
8.15765
8.15762
8.11776
5.62828
5.61996
5.62002
5.63173
6.81715
6.81651
6.79864
6.76498
8.19573
8.20061
8.1843
8.14848
9.926
9.94522
9.91894
9.84835
12.3685
12.4324
12.4248
12.3438
15.0163
15.1438
15.1615
15.0595
16.8257
17.032
17.0903
16.9688
11.4326
11.5776
11.6542
11.5455
8.27774
8.28366
8.29673
8.32061
7.92542
7.96132
7.96125
7.92461
5.30883
5.3041
5.30419
5.31064
5.64961
5.64624
5.63728
5.6231
6.23956
6.23762
6.23292
6.22511
7.05582
7.05944
7.04991
7.02596
8.28395
8.30644
8.30794
8.28473
9.64171
9.69261
9.70896
9.68188
10.6219
10.7108
10.7493
10.7186
8.02644
8.09073
8.13822
8.12171
8.04818
8.05034
8.05929
8.07869
7.72465
7.75752
7.75744
7.72404
5.18123
5.17991
5.18005
5.18251
5.20003
5.19764
5.19242
5.18465
5.43289
5.43039
5.42921
5.42903
5.79434
5.79374
5.78954
5.78099
6.37462
6.38075
6.38189
6.3761
7.0262
7.04315
7.05119
7.04594
7.56934
7.60318
7.6212
7.61493
6.52055
6.54681
6.56993
6.5729
7.82369
7.82361
7.82956
7.84479
7.51498
7.54468
7.5446
7.51454
5.12331
5.12448
5.1247
5.12451
5.02203
5.02088
5.01759
5.0124
5.1044
5.10271
5.10264
5.10398
5.26125
5.26032
5.25822
5.25466
5.53306
5.53418
5.53455
5.53339
5.83848
5.84296
5.84616
5.84634
6.15468
6.16641
6.17333
6.17215
5.82381
5.83384
5.84416
5.84929
7.59629
7.59494
7.59882
7.61054
7.29551
7.32189
7.3218
7.29519
5.09291
5.09592
5.0962
5.09407
4.94807
4.94781
4.94566
4.94183
4.96678
4.9658
4.96602
4.96731
5.03272
5.03219
5.03107
5.02927
5.16276
5.16271
5.16276
5.16264
5.31005
5.31066
5.3118
5.31291
5.51031
5.51418
5.51631
5.51555
5.48211
5.48514
5.48963
5.49417
7.36256
7.36058
7.36304
7.37194
7.06561
7.08855
7.08846
7.06537
5.07426
5.07884
5.07913
5.07531
4.91606
4.91642
4.91502
4.91204
4.90783
4.90731
4.90755
4.90848
4.93271
4.93252
4.93191
4.93087
4.99618
4.99599
4.99598
4.99602
5.07138
5.07099
5.07138
5.07244
5.21161
5.21291
5.21326
5.21226
5.30738
5.30724
5.30922
5.31321
7.12079
7.11859
7.1201
7.12676
6.82489
6.84461
6.84455
6.82469
5.06108
5.06703
5.06728
5.06195
4.90173
4.90254
4.90165
4.8992
4.8826
4.88237
4.88255
4.88309
4.88884
4.88885
4.88852
4.88788
4.92038
4.92027
4.92026
4.9203
4.96225
4.96173
4.96188
4.96273
5.07047
5.07102
5.07079
5.06966
5.21553
5.21386
5.21477
5.21852
6.86995
6.86781
6.86871
6.87362
6.57315
6.58986
6.58983
6.57304
5.05073
5.05805
5.05824
5.05137
4.89507
4.89622
4.89568
4.89356
4.8721
4.87207
4.87218
4.87238
4.86994
4.87004
4.86987
4.86946
4.88604
4.88601
4.88603
4.88603
4.91238
4.91199
4.91208
4.91273
5.00271
5.00314
5.0028
5.00162
5.16583
5.16337
5.16385
5.16757
6.60944
6.60752
6.60803
6.61159
6.31049
6.32423
6.32422
6.31043
5.04193
5.05084
5.05097
5.04236
4.89172
4.89317
4.89287
4.89089
4.86799
4.86812
4.86817
4.86808
4.8621
4.86223
4.86214
4.86187
4.87067
4.87069
4.8707
4.87067
4.8895
4.88929
4.88937
4.88982
4.96869
4.96925
4.96894
4.9677
5.13743
5.13459
5.1349
5.13865
6.33892
6.33733
6.3376
6.3401
6.03702
6.04787
6.04786
6.03699
5.034
5.04474
5.04482
5.03425
4.88956
4.89126
4.89112
4.88917
4.86641
4.86668
4.86668
4.86639
4.85907
4.85918
4.85913
4.85894
4.86385
4.86388
4.86387
4.8638
4.87829
4.87825
4.87832
4.87856
4.94879
4.94959
4.94931
4.94791
5.11897
5.11605
5.11631
5.12
6.05842
6.0572
6.05733
6.05901
5.75324
5.76134
5.76134
5.75323
5.02585
5.03844
5.03848
5.02596
4.8872
4.88908
4.88903
4.88707
4.86542
4.86577
4.86575
4.86533
4.85807
4.85815
4.85811
4.85799
4.86085
4.86085
4.86081
4.86072
4.8714
4.87149
4.87154
4.87159
4.93274
4.93382
4.93351
4.93181
5.10302
5.10037
5.10061
5.10395
5.76838
5.76753
5.76759
5.76863
5.4601
5.46566
5.46566
5.46009
5.01356
5.02742
5.02743
5.01357
4.88346
4.88527
4.88526
4.88345
4.86391
4.86425
4.86423
4.86383
4.85803
4.85806
4.85804
4.85796
4.85965
4.85962
4.85955
4.85946
4.86574
4.86589
4.86593
4.86585
4.91488
4.91602
4.91563
4.91374
5.08041
5.07869
5.07893
5.08129
5.46967
5.4692
5.46922
5.46974
5.15757
5.16104
5.16104
5.15757
4.98095
4.99347
4.99347
4.98093
4.87717
4.87834
4.87835
4.8772
4.86187
4.86206
4.86205
4.86183
4.85869
4.85869
4.85867
4.85864
4.85956
4.85951
4.85945
4.85938
4.86138
4.86152
4.86156
4.86149
4.89292
4.89331
4.89287
4.89169
5.02738
5.02748
5.02776
5.02828
5.16228
5.16215
5.16215
5.16228
10.13
9.43175
9.10847
8.98305
8.92732
8.87957
8.82968
8.78482
8.75046
8.72745
197.962
104.238
62.1234
50.0391
44.0302
38.6943
34.2588
30.8939
28.8472
28.1109
266.434
124.75
88.7163
75.1416
68.284
62.9961
59.1472
56.4948
55.0037
54.7874
307.841
133.739
97.9605
81.1292
72.0702
65.2495
60.4711
57.2463
55.3744
55.2091
366.547
148.606
106.458
85.1015
72.7642
63.9929
57.9386
53.8843
51.3921
51.0823
439.63
176.89
117.645
89.5528
73.1914
62.1685
54.6372
49.6277
46.4562
45.7952
505.262
202.993
123.122
89.9439
70.7127
58.3499
49.9749
44.4762
40.9169
39.9997
532.839
207.863
112.885
79.116
59.5617
47.6664
39.8363
34.9071
31.8043
30.9172
397.771
129.306
56.5221
35.9711
24.8895
19.2234
16.0942
14.455
13.4758
13.2052
12.8223
10.5758
9.94962
9.67309
9.49945
9.38383
9.30627
9.25056
9.20341
9.16903
9.72163
9.26133
9.03721
8.914
8.83624
8.777
8.72755
8.68736
8.65822
8.63977
131.913
71.5232
48.5165
38.8171
33.1812
28.7229
25.1237
22.3961
20.6862
19.9351
183.015
96.6033
70.5924
58.9677
52.4433
47.6757
44.2259
41.8687
40.5654
40.3146
213.207
108.328
79.2746
64.6939
56.4035
50.4494
46.3197
43.5816
42.0276
41.7989
250.623
121.603
87.003
68.5952
57.8572
50.4447
45.3835
42.0568
40.0232
39.615
316.357
144.29
97.4257
73.37
59.404
50.1209
43.8302
39.6988
37.0641
36.305
391.479
166.068
103.585
74.961
58.5406
48.05
40.9982
36.4215
33.4078
32.3825
432.322
172.249
96.888
67.275
50.3659
40.1168
33.4248
29.255
26.5786
25.6029
324.651
108.767
49.6937
31.3877
21.7852
16.8989
14.2033
12.7994
11.9358
11.6297
11.6746
10.2596
9.74661
9.5042
9.35368
9.25176
9.18111
9.12864
9.08282
9.04552
9.13089
8.93089
8.82466
8.75121
8.69273
8.64431
8.60516
8.57515
8.55431
8.54157
55.679
41.9031
33.4035
27.5122
23.0847
19.6709
17.1193
15.2971
14.197
13.7103
85.2325
63.0843
51.1832
43.0121
37.5718
33.6951
30.9803
29.179
28.2287
28.0738
106.016
74.5136
58.6885
48.0665
41.3432
36.6593
33.4689
31.3989
30.2859
30.1544
128.653
85.2553
65.0707
51.5639
43.1945
37.5118
33.6727
31.1991
29.7543
29.4822
159.368
101.184
73.4362
56.0018
45.2901
38.1666
33.3585
30.242
28.3173
27.7572
194.315
116.022
78.8368
58.1496
45.514
37.3758
31.9207
28.4255
26.1804
25.3957
219.395
120.7
74.5828
53.0969
39.9103
31.8615
26.633
23.4198
21.4094
20.67
159.951
74.1289
37.7749
24.9421
17.7314
14.109
12.1036
11.0562
10.4177
10.2037
10.5255
9.8584
9.51702
9.3303
9.20865
9.12397
9.06219
9.0136
8.96903
8.93149
8.79821
8.68273
8.61642
8.56693
8.52706
8.49481
8.4695
8.45055
8.43775
8.43041
29.2355
24.821
20.8213
17.4859
14.8741
12.9083
11.4961
10.5207
9.95049
9.70418
47.5605
39.9507
33.7936
28.8487
25.2558
22.6624
20.8465
19.6503
19.0359
18.9498
60.452
48.9691
40.0198
33.3255
28.7387
25.5164
23.3164
21.8969
21.1616
21.0934
73.6877
57.5566
45.2576
36.5413
30.7818
26.84
24.1782
22.4855
21.5396
21.3841
92.3421
69.5066
52.0108
40.5647
33.0735
28.0313
24.6267
22.4443
21.1463
20.7841
112.704
80.3266
56.7463
42.9512
33.9525
28.0808
24.1516
21.6677
20.1266
19.5995
127.62
83.6536
54.4982
39.9551
30.3995
24.5231
20.7281
18.4319
17.0452
16.5549
90.2895
49.2922
27.2783
19.0425
14.1605
11.7115
10.3319
9.60407
9.16199
9.02599
9.84424
9.47698
9.26049
9.12545
9.03329
8.96529
8.91323
8.87051
8.82991
8.79525
8.53363
8.45457
8.41287
8.38383
8.36097
8.34242
8.32768
8.31657
8.30922
8.30536
15.7014
14.0443
12.3306
10.855
9.69414
8.82542
8.20476
7.77388
7.52533
7.42355
26.76
23.7352
20.7887
18.2929
16.3584
14.9145
13.8862
13.2065
12.8667
12.833
34.8905
30.1424
25.5153
21.9088
19.2464
17.3188
15.9832
15.1178
14.6814
14.6542
43.4392
36.3599
29.5695
24.6557
21.1697
18.7289
17.071
16.0265
15.465
15.39
55.427
44.8293
34.8023
28.0629
23.331
20.0781
17.8731
16.4726
15.6683
15.4576
68.1904
52.4972
38.7583
30.3518
24.4851
20.5855
17.9753
16.3463
15.3688
15.0458
77.2244
54.9498
37.9556
28.8284
22.4637
18.5051
15.9592
14.4404
13.5543
13.2587
52.0887
31.0598
19.1687
14.3524
11.3564
9.81604
8.91815
8.43631
8.14226
8.05966
9.33636
9.13732
9.01424
8.92226
8.85449
8.80042
8.75688
8.71984
8.6835
8.65217
8.31886
8.25783
8.22981
8.21233
8.19899
8.18808
8.17933
8.17279
8.1687
8.16696
9.18489
8.64865
8.04368
7.51171
7.08776
6.76487
6.52769
6.35621
6.25798
6.2236
15.2513
14.0726
12.7975
11.6713
10.759
10.0668
9.57266
9.24839
9.0958
9.09798
20.1129
18.1391
15.9861
14.226
12.849
11.8297
11.1176
10.6548
10.4297
10.4311
25.3531
22.1594
18.8255
16.2979
14.3992
13.0467
12.1282
11.5569
11.2633
11.2423
32.7525
27.6994
22.582
18.9164
16.1891
14.279
12.9828
12.1676
11.7153
11.6115
40.5664
32.7756
25.6059
20.8346
17.3227
14.9452
13.3553
12.3757
11.8049
11.6281
45.8492
34.5509
25.6087
20.2429
16.3502
13.894
12.3179
11.3881
10.8624
10.7031
29.5294
19.2878
13.6168
11.0111
9.30917
8.38579
7.82291
7.5138
7.32336
7.27528
8.9483
8.84866
8.78214
8.72055
8.67066
8.62774
8.5916
8.56002
8.52817
8.50053
8.12865
8.0773
8.05609
8.04417
8.03545
8.02845
8.02292
8.01895
8.01676
8.01622
6.5861
6.43356
6.24423
6.07249
5.93077
5.81749
5.72934
5.66182
5.62411
5.616
9.40827
8.95543
8.45555
8.00827
7.64301
7.36741
7.1729
7.04762
6.99664
7.01377
12.1166
11.2989
10.3763
9.59602
8.96863
8.50102
8.17398
7.96024
7.86206
7.87717
15.1181
13.6827
12.1755
10.9799
10.059
9.4011
8.9584
8.68828
8.55829
8.56631
19.4452
17.0827
14.6638
12.8054
11.3808
10.3733
9.69156
9.26674
9.03971
9.00128
24.005
20.2554
16.7746
14.2391
12.3203
11.0039
10.1253
9.58983
9.2857
9.20171
27.0008
21.5109
17.1181
14.168
11.9925
10.5971
9.70038
9.17475
8.88689
8.81306
17.1492
12.596
10.1308
8.79768
7.88013
7.34364
7.00048
6.80689
6.6862
6.65914
8.6398
8.59479
8.55849
8.51707
8.4801
8.44626
8.41668
8.39032
8.3631
8.33937
7.94585
7.90011
7.88242
7.8732
7.86678
7.86179
7.858
7.85547
7.85433
7.85445
5.64776
5.60382
5.54108
5.48191
5.43125
5.38886
5.35403
5.32619
5.31168
5.31238
6.70531
6.54883
6.38107
6.23184
6.11125
6.02176
5.96011
5.9223
5.91321
5.93131
8.05812
7.75364
7.40411
7.10268
6.85708
6.67287
6.54286
6.45613
6.42004
6.43692
9.63747
9.04052
8.42356
7.92194
7.53475
7.25921
7.07616
6.96734
6.92118
6.93892
12.0307
10.9979
9.93596
9.07929
8.41595
7.94372
7.62413
7.42593
7.32513
7.31937
14.572
12.8751
11.2853
10.0484
9.10238
8.44492
8.00484
7.73837
7.59055
7.5576
16.2514
13.7468
11.711
10.2202
9.11296
8.38623
7.91521
7.6399
7.49521
7.46901
10.8763
9.06035
8.04975
7.39083
6.9103
6.6043
6.39891
6.27942
6.20388
6.18875
8.37635
8.35816
8.33723
8.30906
8.28163
8.25529
8.23153
8.21008
8.18747
8.16768
7.76087
7.71931
7.70392
7.69625
7.69109
7.68722
7.6844
7.68266
7.68208
7.68254
5.29915
5.2823
5.25557
5.23014
5.20846
5.19022
5.17484
5.16242
5.15668
5.15951
5.59932
5.54742
5.49686
5.45316
5.41921
5.39545
5.38066
5.37361
5.37721
5.39114
6.20504
6.10883
5.99373
5.89211
5.80724
5.74216
5.69497
5.66214
5.65073
5.66397
6.95085
6.73166
6.51097
6.32915
6.18864
6.08866
6.02346
5.98664
5.97561
5.99253
8.17621
7.77323
7.35492
7.00508
6.73059
6.53198
6.39641
6.31251
6.27329
6.2798
9.50539
8.80855
8.14579
7.60555
7.1859
6.88711
6.68434
6.56203
6.49605
6.48689
10.4451
9.40003
8.53046
7.84713
7.33084
6.97983
6.749
6.61496
6.54933
6.5463
7.90092
7.23714
6.8316
6.51228
6.26414
6.09159
5.96996
5.89656
5.84922
5.84028
8.13367
8.12706