/*--------------------------------*- C++ -*----------------------------------*\
| =========                 |                                                 |
| \\      /  F ield         | foam-extend: Open Source CFD                    |
|  \\    /   O peration     | Version:     4.0                                |
|   \\  /    A nd           | Web:         http://www.foam-extend.org         |
|    \\/     M anipulation  |                                                 |
\*---------------------------------------------------------------------------*/
FoamFile
{
    version     2.0;
    format      ascii;
    class       volScalarField;
    location    "2000";
    object      MaU;
}
// * * * * * * * * * * * * * * * * * * * * * * * * * * * * * * * * * * * * * //

dimensions      [0 0 0 0 0 0 0];

internalField   nonuniform List<scalar> 
34480
(
0.634013
0.639162
0.64409
0.649026
0.654251
0.659652
0.663388
0.659703
0.638794
0.573077
0.64165
0.647783
0.653428
0.658674
0.664043
0.669989
0.675845
0.677703
0.667396
0.612964
0.645414
0.652381
0.65894
0.665192
0.671573
0.678809
0.686903
0.692959
0.690525
0.646237
0.64636
0.654832
0.662991
0.670947
0.678947
0.687697
0.697603
0.706781
0.710463
0.673958
0.646922
0.656719
0.666259
0.675717
0.685239
0.695445
0.70695
0.718768
0.727603
0.697084
0.646362
0.657199
0.667778
0.678368
0.689099
0.700514
0.713334
0.727354
0.740569
0.714963
0.646171
0.657679
0.668863
0.680111
0.691571
0.703771
0.71756
0.733544
0.750938
0.730169
0.645222
0.657038
0.668439
0.679885
0.69154
0.703934
0.718079
0.735492
0.756894
0.741366
0.645009
0.656898
0.668342
0.679885
0.691682
0.704185
0.718422
0.736764
0.761921
0.750939
0.640685
0.652634
0.664152
0.675706
0.68729
0.699241
0.712635
0.730646
0.759118
0.753643
0.608959
0.611811
0.613328
0.613231
0.611059
0.605988
0.596728
0.581548
0.555892
0.501345
0.622533
0.626826
0.629945
0.631466
0.631058
0.628027
0.620836
0.607241
0.583655
0.528574
0.630057
0.635437
0.639817
0.642927
0.644435
0.643825
0.639666
0.629218
0.60907
0.554986
0.63353
0.640435
0.646502
0.651548
0.655144
0.656797
0.655209
0.647562
0.630717
0.578569
0.635819
0.644064
0.651592
0.658283
0.663718
0.667367
0.668031
0.662996
0.64934
0.599643
0.636564
0.645904
0.654577
0.662544
0.669452
0.674745
0.677314
0.674624
0.663839
0.616264
0.637337
0.647428
0.656842
0.665646
0.673569
0.680091
0.684237
0.683798
0.676008
0.63105
0.63707
0.647581
0.657386
0.666636
0.675133
0.682423
0.687719
0.689279
0.684721
0.643384
0.637052
0.647686
0.657645
0.667176
0.676166
0.684194
0.690522
0.693825
0.692633
0.65506
0.63319
0.643883
0.653996
0.663666
0.672727
0.680809
0.687401
0.691627
0.693907
0.66113
0.590396
0.591922
0.59194
0.590236
0.586422
0.579965
0.570163
0.556206
0.536704
0.508791
0.606575
0.609478
0.610975
0.61069
0.608126
0.602507
0.592697
0.577132
0.553477
0.517814
0.616277
0.62036
0.623163
0.624347
0.623447
0.619626
0.611405
0.596533
0.57167
0.530008
0.621556
0.627111
0.631522
0.634502
0.635488
0.633607
0.627153
0.613303
0.587886
0.541323
0.625199
0.632067
0.637914
0.642498
0.64522
0.64518
0.640534
0.628026
0.602738
0.552586
0.627013
0.634998
0.642027
0.647916
0.652104
0.653665
0.650685
0.639629
0.614878
0.562238
0.628597
0.637383
0.645238
0.652059
0.657355
0.660219
0.658755
0.649335
0.62572
0.571857
0.628965
0.638249
0.646612
0.654029
0.66009
0.663939
0.663783
0.656078
0.634174
0.580246
0.62935
0.638796
0.647364
0.655116
0.661768
0.666533
0.667708
0.661849
0.642076
0.588099
0.626128
0.635616
0.644346
0.652247
0.659005
0.663901
0.665679
0.661283
0.644113
0.590262
0.577313
0.578036
0.577438
0.57539
0.571711
0.566207
0.558763
0.549512
0.538761
0.526207
0.593705
0.595529
0.595961
0.594736
0.591498
0.585788
0.577056
0.5648
0.548594
0.528691
0.604345
0.607284
0.608856
0.608744
0.606533
0.601589
0.593008
0.57969
0.560426
0.534495
0.610765
0.61505
0.618034
0.619387
0.618577
0.614808
0.606838
0.592957
0.571103
0.539255
0.615421
0.620946
0.625246
0.628017
0.628626
0.626173
0.619127
0.605202
0.581433
0.544368
0.618112
0.624732
0.630173
0.634169
0.63606
0.634864
0.628821
0.615146
0.589935
0.548317
0.6204
0.62784
0.634129
0.639061
0.642
0.641926
0.636937
0.623872
0.597909
0.552736
0.62134
0.629329
0.636189
0.641781
0.645528
0.646412
0.642484
0.630337
0.604343
0.556643
0.622055
0.630254
0.637364
0.643317
0.647644
0.649402
0.646677
0.635884
0.610628
0.56064
0.619274
0.627537
0.634846
0.640997
0.645529
0.647523
0.645358
0.635703
0.612057
0.560096
0.569286
0.569638
0.569015
0.567372
0.564664
0.560878
0.556115
0.550772
0.54571
0.541444
0.584156
0.585278
0.585226
0.583845
0.580952
0.57635
0.56988
0.561538
0.551615
0.541133
0.594514
0.596581
0.597383
0.596685
0.594202
0.58956
0.582342
0.57221
0.559116
0.544113
0.601315
0.604546
0.606485
0.606834
0.605188
0.60098
0.593478
0.581892
0.565655
0.545659
0.60651
0.610867
0.613936
0.615415
0.61477
0.611278
0.603897
0.591336
0.57233
0.547403
0.609766
0.615158
0.619264
0.621799
0.622142
0.619449
0.612393
0.599179
0.577723
0.548045
0.612552
0.618754
0.623677
0.627074
0.628294
0.626408
0.619862
0.606407
0.58306
0.549172
0.613937
0.620713
0.626225
0.630274
0.632231
0.631119
0.62523
0.611935
0.587339
0.549895
0.614968
0.621995
0.627785
0.632199
0.634674
0.634272
0.629241
0.616645
0.591627
0.550948
0.612554
0.619672
0.625688
0.630326
0.633044
0.632899
0.628286
0.616289
0.591786
0.548338
0.564973
0.565162
0.564698
0.563582
0.561827
0.559479
0.556683
0.553832
0.551835
0.551582
0.577532
0.578213
0.578001
0.576819
0.5746
0.571306
0.566956
0.561697
0.555885
0.550264
0.586813
0.588232
0.588588
0.587732
0.585502
0.581731
0.576298
0.569231
0.560852
0.552165
0.593391
0.595765
0.596968
0.596769
0.5949
0.591028
0.584812
0.576034
0.56483
0.552464
0.598701
0.602053
0.60417
0.604785
0.603506
0.599837
0.593186
0.582996
0.569036
0.55273
0.602224
0.606518
0.609524
0.61097
0.610357
0.607045
0.600178
0.588809
0.572182
0.551776
0.605307
0.610371
0.614116
0.616295
0.616331
0.613477
0.606629
0.594441
0.57549
0.551153
0.606993
0.612632
0.616945
0.619712
0.62034
0.618001
0.611393
0.598781
0.577983
0.550041
0.608279
0.614199
0.618805
0.62192
0.622971
0.621127
0.614982
0.602473
0.580557
0.54928
0.60614
0.612174
0.617019
0.620367
0.621664
0.62005
0.614151
0.60177
0.579584
0.545458
0.563157
0.563281
0.562994
0.562316
0.561274
0.559919
0.558371
0.556956
0.55653
0.558318
0.573276
0.573693
0.573485
0.572616
0.571079
0.568895
0.566141
0.56297
0.559637
0.556575
0.581071
0.582029
0.582158
0.581377
0.579612
0.576814
0.573002
0.568316
0.563089
0.557993
0.587
0.588706
0.589424
0.588997
0.587269
0.584077
0.579319
0.573037
0.565567
0.557892
0.592073
0.594593
0.596009
0.59611
0.59464
0.591301
0.58582
0.578058
0.568229
0.557622
0.595591
0.598936
0.601075
0.601777
0.600678
0.597349
0.591311
0.58218
0.569913
0.556076
0.598777
0.602827
0.605601
0.606874
0.606193
0.603012
0.596639
0.586397
0.571845
0.554736
0.600614
0.605215
0.608505
0.610268
0.610004
0.607079
0.600601
0.589577
0.57305
0.552787
0.602082
0.60698
0.61056
0.612636
0.612689
0.610049
0.603696
0.59235
0.574422
0.551212
0.600135
0.605159
0.608977
0.611273
0.611543
0.60907
0.602801
0.591262
0.572635
0.546958
0.562836
0.562932
0.562777
0.562395
0.561812
0.561065
0.560242
0.559605
0.559949
0.562779
0.570774
0.571036
0.570885
0.570308
0.569316
0.567947
0.566272
0.564407
0.562513
0.560819
0.576994
0.577634
0.577665
0.577049
0.57576
0.57381
0.571259
0.568251
0.565032
0.562001
0.582043
0.583245
0.583663
0.583196
0.581767
0.579322
0.575869
0.57154
0.566652
0.561845
0.586626
0.588481
0.589403
0.589243
0.587845
0.585063
0.58081
0.575144
0.568389
0.561471
0.589923
0.592471
0.593955
0.59419
0.592936
0.589938
0.584975
0.577977
0.56919
0.559843
0.593044
0.596213
0.598216
0.598862
0.597825
0.594745
0.589243
0.581066
0.570274
0.558365
0.594887
0.598563
0.601011
0.602034
0.60125
0.598208
0.592368
0.583257
0.57064
0.556182
0.596462
0.600434
0.603152
0.604439
0.603868
0.60094
0.594985
0.585316
0.571301
0.554463
0.594633
0.598734
0.601673
0.60315
0.602745
0.599904
0.593901
0.583857
0.568993
0.55019
0.563309
0.56339
0.563316
0.563113
0.5628
0.562402
0.561979
0.561744
0.562444
0.565803
0.569481
0.569649
0.569557
0.569201
0.568596
0.567773
0.566785
0.565708
0.564639
0.563692
0.574238
0.574662
0.574662
0.57422
0.573336
0.572037
0.570387
0.568497
0.566533
0.56472
0.578342
0.579175
0.579416
0.579006
0.577913
0.576135
0.573726
0.570821
0.567661
0.564639
0.582288
0.583626
0.584216
0.583957
0.582767
0.580587
0.57743
0.57342
0.568853
0.564338
0.585212
0.587112
0.58812
0.588095
0.586894
0.584385
0.580503
0.575323
0.569157
0.562864
0.588139
0.590566
0.59198
0.592227
0.59109
0.588358
0.583862
0.577582
0.569774
0.561548
0.589862
0.592735
0.594516
0.595031
0.594011
0.591167
0.586212
0.578994
0.569639
0.559452
0.591477
0.594631
0.596647
0.597368
0.596472
0.593616
0.588407
0.580551
0.569955
0.557954
0.589702
0.592976
0.595187
0.596058
0.595271
0.592427
0.587078
0.578774
0.567354
0.553868
0.564129
0.564198
0.564169
0.564066
0.563902
0.563694
0.563484
0.563447
0.564288
0.567897
0.568961
0.569071
0.569023
0.568815
0.568461
0.567981
0.567412
0.566799
0.5662
0.565668
0.572462
0.572742
0.572738
0.572443
0.571866
0.571033
0.569994
0.568827
0.567635
0.566546
0.575679
0.576249
0.57639
0.57607
0.575282
0.574043
0.572414
0.570503
0.568479
0.566576
0.578934
0.579882
0.580256
0.579992
0.579052
0.577426
0.575163
0.572393
0.569344
0.566401
0.581403
0.58279
0.583462
0.58332
0.582282
0.580297
0.577378
0.573649
0.569393
0.565174
0.584053
0.585872
0.586848
0.586868
0.585795
0.583523
0.580006
0.575331
0.569792
0.564154
0.585553
0.587749
0.589014
0.589209
0.588155
0.585685
0.581679
0.576157
0.569381
0.562285
0.587158
0.589608
0.591068
0.59141
0.590407
0.587844
0.583527
0.577389
0.569588
0.561157
0.585385
0.587937
0.58956
0.590011
0.589065
0.586458
0.581949
0.575367
0.566856
0.557345
0.565037
0.565097
0.56509
0.56504
0.564955
0.564848
0.564747
0.5648
0.565667
0.569368
0.568898
0.56897
0.56895
0.568834
0.568633
0.56836
0.568037
0.567692
0.567359
0.567059
0.571375
0.571559
0.571558
0.571373
0.57101
0.570492
0.569853
0.569143
0.568424
0.567771
0.573833
0.574217
0.574304
0.574074
0.573532
0.572699
0.571624
0.57039
0.569104
0.567906
0.576412
0.57707
0.577307
0.577083
0.576383
0.575219
0.573645
0.57177
0.569758
0.567846
0.578403
0.579395
0.579837
0.579661
0.578829
0.577329
0.575207
0.572588
0.569691
0.56688
0.580737
0.58207
0.582732
0.582642
0.581721
0.579926
0.577276
0.573889
0.570026
0.566195
0.581941
0.583581
0.584461
0.584473
0.583509
0.581484
0.578376
0.57428
0.569469
0.564582
0.583509
0.585368
0.5864
0.586509
0.585543
0.583384
0.579961
0.575325
0.569711
0.563864
0.581695
0.583634
0.584796
0.584977
0.584028
0.581791
0.578164
0.573131
0.566951
0.560342
0.565902
0.565954
0.565957
0.565933
0.565889
0.565834
0.565787
0.565872
0.566703
0.570397
0.569081
0.569129
0.569123
0.569061
0.568949
0.568796
0.568614
0.568422
0.568239
0.568069
0.570743
0.570863
0.570867
0.570755
0.570535
0.57022
0.569834
0.569408
0.568978
0.568588
0.572605
0.57286
0.572915
0.57276
0.572401
0.571857
0.571165
0.570379
0.569569
0.568818
0.574563
0.575013
0.575163
0.574991
0.574493
0.573688
0.572623
0.571379
0.570067
0.568831
0.5761
0.576795
0.577082
0.576918
0.576287
0.575198
0.573702
0.571902
0.569959
0.5681
0.578116
0.579072
0.579513
0.579385
0.578647
0.57729
0.575359
0.572966
0.570316
0.567736
0.578978
0.580174
0.580772
0.580695
0.579883
0.578302
0.575978
0.573023
0.569673
0.566346
0.580506
0.581884
0.582596
0.582577
0.581731
0.580004
0.577393
0.573996
0.570038
0.566034
0.578619
0.580052
0.580865
0.580888
0.580032
0.578213
0.575413
0.571687
0.567305
0.562778
0.566662
0.566708
0.566714
0.566703
0.56668
0.566651
0.566629
0.566719
0.567478
0.571094
0.56938
0.569412
0.569412
0.56938
0.569318
0.569233
0.569131
0.569025
0.568925
0.568828
0.570393
0.570471
0.570476
0.570412
0.570281
0.570094
0.569865
0.569613
0.569358
0.569126
0.571826
0.571993
0.572029
0.57193
0.571699
0.571352
0.570915
0.570422
0.569918
0.569449
0.57324
0.573541
0.573637
0.573514
0.573174
0.572634
0.57193
0.57112
0.570275
0.569484
0.574377
0.574853
0.575037
0.574904
0.574447
0.573683
0.572657
0.571447
0.570163
0.568946
0.576099
0.576769
0.577058
0.576933
0.576372
0.575386
0.574021
0.57237
0.570582
0.568863
0.576595
0.577445
0.577843
0.577736
0.577093
0.57591
0.574229
0.572154
0.569865
0.567631
0.578106
0.579103
0.579583
0.579506
0.578815
0.577494
0.575573
0.573152
0.570417
0.567711
0.576118
0.577148
0.577702
0.577646
0.576931
0.57552
0.573437
0.570761
0.567723
0.564668
0.567297
0.567338
0.567343
0.567339
0.567326
0.567311
0.5673
0.567379
0.568044
0.571521
0.569723
0.569744
0.569747
0.56973
0.569696
0.569648
0.569591
0.569531
0.569477
0.569421
0.570201
0.57025
0.570255
0.570219
0.570144
0.570035
0.569901
0.569753
0.569604
0.569468
0.571364
0.571472
0.571496
0.571434
0.57129
0.571074
0.570803
0.570499
0.570187
0.569897
0.572314
0.572511
0.572572
0.572489
0.572264
0.571912
0.571457
0.570939
0.570403
0.569902
0.57312
0.573439
0.573556
0.573456
0.573139
0.57262
0.571934
0.571138
0.570303
0.569518
0.574589
0.575047
0.575234
0.575129
0.574723
0.574031
0.573093
0.571981
0.570795
0.569665
0.574709
0.575297
0.575557
0.575452
0.574969
0.574117
0.572939
0.571519
0.569987
0.568509
0.576252
0.576956
0.577272
0.57718
0.576647
0.575677
0.57431
0.57263
0.570778
0.568974
0.574133
0.57485
0.575218
0.575134
0.574572
0.573523
0.572028
0.570161
0.568102
0.566073
0.567799
0.567835
0.56784
0.567839
0.567831
0.567822
0.567816
0.567878
0.568434
0.571708
0.570078
0.570092
0.570095
0.570086
0.570067
0.570039
0.570006
0.569973
0.569943
0.569909
0.570081
0.570111
0.570116
0.570096
0.570054
0.569991
0.569914
0.569829
0.569742
0.569664
0.57112
0.571189
0.571205
0.571168
0.57108
0.570949
0.570783
0.570598
0.570408
0.57023
0.57168
0.571807
0.571846
0.571791
0.571647
0.571423
0.571136
0.570811
0.570476
0.570164
0.572231
0.57244
0.572514
0.572444
0.572231
0.571889
0.571442
0.570929
0.570396
0.569897
0.573488
0.573794
0.573913
0.573833
0.573551
0.573081
0.572456
0.571724
0.570953
0.570221
0.573234
0.573629
0.573795
0.573706
0.573359
0.572767
0.571966
0.57102
0.570015
0.569057
0.574879
0.575363
0.575567
0.575482
0.575092
0.574407
0.573465
0.57233
0.571102
0.569916
0.572583
0.573066
0.573305
0.573221
0.572802
0.572053
0.571016
0.56975
0.568387
0.567064
0.568149
0.568182
0.568185
0.568185
0.568181
0.568176
0.568171
0.568215
0.568652
0.57165
0.57044
0.570449
0.570452
0.570447
0.570435
0.570419
0.5704
0.57038
0.570364
0.570341
0.569978
0.569996
0.57
0.569989
0.569965
0.569929
0.569886
0.569837
0.569787
0.569743
0.571021
0.571065
0.571076
0.571055
0.571003
0.570925
0.570827
0.570716
0.570602
0.570494
0.571265
0.571345
0.571369
0.571335
0.571244
0.571105
0.570927
0.570727
0.570521
0.570329
0.571635
0.571769
0.571815
0.571768
0.571629
0.57141
0.571126
0.570802
0.570468
0.570156
0.572711
0.57291
0.572985
0.572928
0.57274
0.572432
0.572027
0.571557
0.571068
0.5706
0.572091
0.572349
0.572452
0.572384
0.572144
0.571746
0.571217
0.570602
0.569958
0.569352
0.573927
0.574252
0.574381
0.574313
0.574039
0.573573
0.572944
0.572197
0.571402
0.570632
0.571364
0.571679
0.57183
0.571758
0.57146
0.570946
0.570249
0.569414
0.568535
0.56769
0.568269
0.568297
0.5683
0.568301
0.5683
0.568298
0.568294
0.568323
0.568638
0.571267
0.570831
0.570838
0.570839
0.570836
0.570829
0.57082
0.570809
0.570797
0.570788
0.570772
0.56987
0.56988
0.569881
0.569875
0.569861
0.56984
0.569814
0.569786
0.569757
0.569732
0.571019
0.571047
0.571055
0.571044
0.571015
0.570971
0.570914
0.57085
0.570783
0.570719
0.571022
0.57107
0.571085
0.571064
0.571008
0.570923
0.570815
0.570693
0.570568
0.570451
0.571279
0.571363
0.571391
0.57136
0.571273
0.571135
0.570959
0.570758
0.570551
0.570359
0.572191
0.572317
0.572364
0.572325
0.572204
0.572009
0.571754
0.571461
0.571159
0.570867
0.571242
0.571406
0.571468
0.571418
0.571258
0.570997
0.570655
0.570265
0.569857
0.569486
0.57336
0.573573
0.573653
0.573602
0.573419
0.573112
0.572705
0.572226
0.571724
0.571226
0.570318
0.570516
0.570608
0.570554
0.57035
0.570008
0.569555
0.569018
0.568466
0.567937
0.567956
0.56798
0.567983
0.567985
0.567985
0.567984
0.567982
0.567998
0.568191
0.570333
0.57132
0.571326
0.571326
0.571325
0.571323
0.571319
0.571315
0.57131
0.571306
0.571295
0.569786
0.56979
0.56979
0.569784
0.569774
0.569759
0.569741
0.569721
0.569702
0.569684
0.571075
0.571093
0.5711
0.571095
0.57108
0.571057
0.571026
0.570991
0.570955
0.57092
0.570921
0.57095
0.570958
0.570945
0.570911
0.570859
0.570793
0.570719
0.570643
0.570572
0.571124
0.571176
0.571193
0.571174
0.57112
0.571035
0.570926
0.570803
0.570675
0.570557
0.571883
0.571961
0.571989
0.571965
0.571889
0.571768
0.571612
0.571434
0.571253
0.571075
0.57073
0.570834
0.57087
0.570836
0.570731
0.570562
0.570342
0.570093
0.569832
0.569605
0.573204
0.573338
0.573387
0.573352
0.573232
0.573036
0.57278
0.57248
0.572172
0.571845
0.56919
0.569314
0.569369
0.56933
0.569195
0.568973
0.568682
0.568341
0.567999
0.56767
0.566941
0.56695
0.566949
0.566944
0.566937
0.566927
0.566915
0.566908
0.56698
0.568454
0.572052
0.572059
0.572062
0.572065
0.572068
0.572073
0.572079
0.572085
0.572091
0.572093
0.569831
0.56983
0.569828
0.569822
0.569811
0.569797
0.569779
0.569759
0.569737
0.569715
0.571145
0.571158
0.571163
0.571162
0.571156
0.571145
0.57113
0.571114
0.571098
0.571082
0.570928
0.570946
0.570951
0.570943
0.570922
0.570889
0.570848
0.570801
0.570752
0.570706
0.571121
0.571154
0.571165
0.571153
0.571119
0.571065
0.570996
0.570918
0.570837
0.57076
0.571744
0.571793
0.571811
0.571795
0.571747
0.571671
0.571574
0.571466
0.571358
0.571253
0.570689
0.570758
0.570781
0.570757
0.570687
0.570575
0.570428
0.570259
0.570077
0.56992
0.573563
0.573647
0.573677
0.573653
0.573575
0.573448
0.573286
0.573101
0.57292
0.572705
0.567668
0.567758
0.567793
0.567768
0.567677
0.56753
0.567337
0.567113
0.566888
0.566662
0.565328
0.565329
0.565318
0.5653
0.565273
0.565238
0.565195
0.565141
0.565082
0.56559
0.573085
0.573092
0.573099
0.573108
0.573121
0.573138
0.573161
0.573191
0.573226
0.573273
0.570067
0.570066
0.570062
0.570054
0.570043
0.570027
0.570008
0.569983
0.569954
0.569917
0.571176
0.571186
0.57119
0.571191
0.571188
0.571183
0.571176
0.571169
0.571165
0.571164
0.570982
0.570994
0.570998
0.570992
0.570977
0.570954
0.570925
0.570891
0.570856
0.570822
0.571179
0.571204
0.571212
0.571204
0.571179
0.571141
0.571092
0.571036
0.570977
0.570921
0.571697
0.571733
0.571746
0.571735
0.5717
0.571646
0.571577
0.571501
0.571429
0.571363
0.571102
0.571155
0.571174
0.571156
0.571104
0.571021
0.570911
0.57078
0.570632
0.570485
0.574414
0.574472
0.574494
0.574476
0.574418
0.574327
0.574213
0.574089
0.573983
0.573877
0.565834
0.565926
0.565959
0.565942
0.565875
0.565764
0.565619
0.565448
0.565267
0.565059
0.357214
0.262826
0.259839
0.3587
0.35062
0.254675
0.250185
0.355864
0.341311
0.244909
0.239466
0.33547
0.32954
0.232222
0.223643
0.300835
0.316209
0.21857
0.206571
0.269042
0.303396
0.208513
0.197203
0.260225
0.292239
0.202254
0.192956
0.256411
0.27965
0.194493
0.18644
0.247366
0.267028
0.186932
0.179473
0.236069
0.255
0.180055
0.170969
0.219484
0.393775
0.357236
0.351103
0.374956
0.397484
0.355588
0.347655
0.371475
0.396362
0.350158
0.337554
0.358351
0.39303
0.342329
0.323569
0.339274
0.388653
0.333891
0.309753
0.319993
0.379845
0.320966
0.29202
0.297344
0.370912
0.308979
0.276338
0.276621
0.361903
0.298243
0.263706
0.262094
0.353518
0.288664
0.252294
0.247977
0.345436
0.278432
0.23839
0.22874
0.471619
0.458316
0.454053
0.4604
0.475742
0.458179
0.452528
0.460057
0.47389
0.453727
0.446329
0.451826
0.468903
0.445898
0.436167
0.439123
0.462742
0.436988
0.424816
0.425641
0.454506
0.426406
0.412598
0.412508
0.44644
0.416303
0.401039
0.399678
0.437786
0.405965
0.389308
0.386002
0.429829
0.39704
0.378991
0.373072
0.423089
0.39046
0.370081
0.359127
0.505238
0.500678
0.498608
0.498994
0.51114
0.503117
0.500058
0.501759
0.510272
0.500614
0.496303
0.49696
0.506241
0.494655
0.488823
0.488356
0.501189
0.487689
0.480374
0.478898
0.493778
0.478406
0.469698
0.467134
0.486056
0.468904
0.458849
0.455097
0.477511
0.458767
0.447399
0.442162
0.468974
0.449222
0.436664
0.429501
0.459618
0.440219
0.426309
0.415399
0.526784
0.525817
0.524627
0.523172
0.533368
0.529442
0.527518
0.527565
0.533147
0.528233
0.525436
0.524718
0.530093
0.523917
0.520078
0.518493
0.526223
0.518747
0.513857
0.511396
0.520268
0.511463
0.5055
0.502083
0.514009
0.503896
0.49686
0.492425
0.506769
0.49541
0.487282
0.481673
0.499599
0.487373
0.478261
0.471122
0.49173
0.479715
0.469632
0.459368
0.539296
0.539957
0.539278
0.53723
0.546367
0.544288
0.543109
0.542824
0.546561
0.543866
0.542089
0.541244
0.544281
0.54076
0.538254
0.53676
0.541306
0.536904
0.533634
0.531457
0.536395
0.531052
0.526973
0.524057
0.531206
0.524917
0.520023
0.516338
0.525047
0.517846
0.512138
0.50761
0.519045
0.511216
0.504815
0.4992
0.511985
0.504302
0.49735
0.489536
0.547135
0.548597
0.548205
0.545949
0.554479
0.55333
0.552617
0.552335
0.554896
0.553342
0.552223
0.551555
0.553245
0.551148
0.549525
0.548391
0.551004
0.548312
0.546146
0.544507
0.547019
0.543684
0.540935
0.538746
0.542836
0.538849
0.535509
0.532755
0.537725
0.533111
0.529193
0.525845
0.532907
0.527872
0.523491
0.519405
0.52671
0.521705
0.516988
0.511474
0.552204
0.554095
0.55387
0.551521
0.559626
0.558971
0.558542
0.558334
0.560198
0.559272
0.558571
0.558105
0.559055
0.557762
0.556717
0.555929
0.557419
0.555722
0.554297
0.553149
0.554225
0.55209
0.550254
0.548711
0.550922
0.548343
0.546092
0.544149
0.54673
0.543731
0.541083
0.538733
0.543003
0.539731
0.536786
0.533963
0.537541
0.534245
0.531094
0.527403
0.555648
0.557787
0.557658
0.555254
0.56298
0.562599
0.562341
0.562203
0.563648
0.563089
0.562651
0.562342
0.56292
0.562111
0.561439
0.560911
0.561785
0.560698
0.559763
0.558982
0.559274
0.557886
0.556663
0.555605
0.556756
0.555065
0.553554
0.552215
0.553364
0.551395
0.549615
0.548001
0.550616
0.548466
0.546495
0.544591
0.545785
0.543597
0.5415
0.539084
0.558101
0.560392
0.560319
0.557872
0.565224
0.564999
0.564844
0.564757
0.5659
0.56556
0.565288
0.565087
0.565503
0.564992
0.564561
0.564213
0.564771
0.564069
0.563456
0.562934
0.562846
0.561935
0.561122
0.560406
0.561017
0.559899
0.558886
0.557975
0.558298
0.556994
0.555799
0.554703
0.556369
0.554943
0.553624
0.552354
0.552098
0.550635
0.549238
0.547672
0.55993
0.562318
0.562277
0.559795
0.56677
0.566635
0.566542
0.56649
0.567379
0.567171
0.567002
0.566874
0.567231
0.566908
0.566632
0.566405
0.566798
0.566344
0.565943
0.565597
0.56536
0.564761
0.564221
0.563741
0.564127
0.563384
0.562707
0.562093
0.561952
0.561084
0.560283
0.559543
0.560699
0.559747
0.558864
0.558022
0.55691
0.555929
0.554997
0.553984
0.561349
0.563799
0.563775
0.561271
0.567872
0.567789
0.567733
0.567703
0.56835
0.568224
0.56812
0.568038
0.568393
0.568188
0.568012
0.567867
0.568158
0.567864
0.567603
0.567376
0.567107
0.566714
0.566357
0.566038
0.566369
0.565876
0.565425
0.565015
0.564608
0.56403
0.563495
0.562999
0.563925
0.563288
0.562698
0.562143
0.560531
0.559874
0.559252
0.558598
0.562494
0.564973
0.564959
0.562448
0.568686
0.568634
0.568601
0.568584
0.568983
0.568906
0.568843
0.568792
0.569181
0.569052
0.568941
0.568849
0.569054
0.568865
0.568697
0.568549
0.568301
0.568045
0.567811
0.567601
0.567962
0.567637
0.567338
0.567067
0.566486
0.566105
0.565749
0.565418
0.566299
0.565873
0.565481
0.565118
0.563207
0.562768
0.562355
0.561934
0.563448
0.565921
0.565913
0.563422
0.569314
0.56928
0.56926
0.569252
0.569382
0.569337
0.569298
0.569267
0.569728
0.569648
0.569578
0.569521
0.56963
0.56951
0.569403
0.569309
0.569102
0.568936
0.568785
0.568649
0.569075
0.568862
0.568666
0.56849
0.567764
0.567514
0.56728
0.567062
0.568025
0.567741
0.567483
0.56725
0.565136
0.564844
0.564573
0.564304
0.564268
0.566691
0.566687
0.564253
0.569824
0.569802
0.569789
0.569786
0.569613
0.569587
0.569564
0.569545
0.570123
0.570073
0.57003
0.569995
0.569994
0.569919
0.569851
0.569792
0.569632
0.569526
0.56943
0.569343
0.569838
0.5697
0.569574
0.569461
0.56858
0.568418
0.568267
0.568125
0.569273
0.569083
0.568916
0.56877
0.566475
0.566283
0.566107
0.565938
0.564978
0.567292
0.567289
0.56497
0.570272
0.570257
0.570249
0.570248
0.569714
0.569699
0.569686
0.569674
0.570426
0.570395
0.570369
0.570348
0.570224
0.570178
0.570137
0.5701
0.569989
0.569923
0.569863
0.569808
0.570356
0.570268
0.570188
0.570117
0.569053
0.568951
0.568854
0.568763
0.570186
0.570059
0.569952
0.569866
0.56733
0.567206
0.567094
0.566989
0.565541
0.567661
0.56766
0.565537
0.570716
0.570705
0.5707
0.5707
0.569717
0.569708
0.5697
0.569694
0.570677
0.570658
0.570642
0.57063
0.570387
0.570359
0.570333
0.570312
0.570255
0.570214
0.570176
0.570143
0.570714
0.57066
0.57061
0.570566
0.569302
0.569239
0.569178
0.569121
0.570904
0.570817
0.57075
0.570703
0.567727
0.567648
0.567577
0.567514
0.565783
0.567591
0.567591
0.565781
0.571249
0.571242
0.571238
0.571239
0.569675
0.569669
0.569665
0.569662
0.570893
0.570883
0.570873
0.570865
0.570531
0.570513
0.570498
0.570486
0.570489
0.570463
0.57044
0.570421
0.570985
0.570951
0.570921
0.570894
0.569486
0.569445
0.569408
0.569373
0.571595
0.571531
0.57149
0.57147
0.567554
0.567505
0.567461
0.567422
0.56537
0.566694
0.566694
0.565369
0.572056
0.572053
0.572051
0.572049
0.569702
0.569695
0.569693
0.569695
0.571069
0.571063
0.571058
0.571052
0.570677
0.570664
0.570655
0.570649
0.570712
0.570695
0.570681
0.57067
0.571204
0.571184
0.571165
0.571146
0.569807
0.569774
0.569751
0.569736
0.572503
0.572453
0.572426
0.572423
0.56659
0.566558
0.56653
0.566506
0.564311
0.564885
0.564885
0.564311
0.573276
0.57329
0.573289
0.573271
0.569891
0.569878
0.569877
0.569886
0.571164
0.571163
0.571159
0.571152
0.570796
0.570787
0.57078
0.570777
0.570881
0.570868
0.570858
0.570851
0.571342
0.571331
0.571317
0.571301
0.57032
0.570282
0.570265
0.570268
0.573793
0.573761
0.573741
0.573734
0.564968
0.564938
0.564917
0.564907
0.524355
0.563543
0.578939
0.588218
0.596102
0.603698
0.610867
0.617295
0.623181
0.628687
0.518266
0.543926
0.563926
0.579467
0.592517
0.603155
0.612368
0.620567
0.628066
0.635044
0.501826
0.526925
0.55624
0.574475
0.589862
0.602212
0.612848
0.622232
0.630661
0.638235
0.477306
0.509097
0.543252
0.564569
0.5823
0.596503
0.608768
0.619605
0.629344
0.63799
0.453944
0.492795
0.531034
0.555725
0.575517
0.591452
0.605158
0.617246
0.62808
0.637567
0.42496
0.476138
0.518434
0.546513
0.568291
0.585882
0.600886
0.614093
0.625902
0.636154
0.395791
0.462623
0.508306
0.53968
0.563101
0.582109
0.59815
0.612225
0.624721
0.635425
0.366
0.45028
0.498562
0.533214
0.557991
0.578276
0.595167
0.609938
0.622966
0.634089
0.337302
0.441132
0.490857
0.528651
0.554561
0.576107
0.593724
0.609026
0.622301
0.633654
0.302274
0.430738
0.479789
0.520197
0.547281
0.570045
0.588529
0.604601
0.618408
0.630166
0.457972
0.50314
0.530984
0.551182
0.566245
0.577786
0.586919
0.594288
0.600264
0.605095
0.454243
0.501644
0.533622
0.556183
0.572694
0.585272
0.59539
0.60382
0.611002
0.617195
0.448947
0.499422
0.534905
0.558097
0.575265
0.588594
0.599568
0.608888
0.616944
0.623907
0.437743
0.491026
0.528704
0.552934
0.571422
0.586031
0.598283
0.608851
0.618125
0.626172
0.425462
0.480923
0.520869
0.546925
0.566963
0.582968
0.596477
0.608191
0.618529
0.62746
0.408407
0.468125
0.511061
0.539526
0.561282
0.578747
0.593466
0.606252
0.617569
0.627312
0.389659
0.456595
0.502587
0.533734
0.557045
0.57583
0.591557
0.605197
0.617227
0.627497
0.366706
0.445627
0.494048
0.528024
0.55264
0.572607
0.589152
0.603466
0.616045
0.626777
0.343271
0.437536
0.48705
0.523843
0.549485
0.570574
0.587797
0.602622
0.615465
0.626498
0.315651
0.428901
0.476822
0.51599
0.542639
0.56484
0.582849
0.598383
0.611728
0.623222
0.49129
0.511828
0.528265
0.542213
0.554007
0.56383
0.571919
0.578483
0.58368
0.587622
0.484488
0.510037
0.531131
0.548295
0.562261
0.573638
0.58299
0.590726
0.597121
0.602381
0.479111
0.507978
0.53232
0.551193
0.566369
0.578698
0.588944
0.597587
0.604919
0.611107
0.469215
0.50057
0.527471
0.547956
0.564518
0.578079
0.589524
0.599355
0.607879
0.615176
0.458701
0.49158
0.52109
0.543414
0.561489
0.576374
0.589025
0.599973
0.609567
0.617802
0.443917
0.480079
0.512516
0.537077
0.556824
0.573116
0.586966
0.598985
0.609581
0.618686
0.427676
0.469358
0.504797
0.531844
0.553172
0.570779
0.585664
0.59856
0.609918
0.61963
0.408682
0.459077
0.496941
0.526596
0.549268
0.568038
0.583753
0.597335
0.609269
0.61949
0.389199
0.451677
0.490613
0.522927
0.546629
0.566434
0.582788
0.59685
0.60905
0.61959
0.366971
0.444367
0.481704
0.516177
0.540684
0.561388
0.578362
0.592989
0.605581
0.616507
0.516796
0.52436
0.533023
0.541914
0.550167
0.557411
0.563555
0.568607
0.572573
0.575463
0.509573
0.522442
0.53554
0.547556
0.558104
0.567145
0.574794
0.581187
0.586417
0.590595
0.504949
0.520285
0.536111
0.550115
0.562192
0.572483
0.581252
0.588706
0.594988
0.6002
0.496218
0.513566
0.531766
0.547592
0.561224
0.572884
0.58293
0.591612
0.5991
0.60544
0.48653
0.505514
0.526054
0.543771
0.559001
0.572051
0.583347
0.593178
0.601761
0.60908
0.473751
0.495079
0.518163
0.538053
0.554997
0.569494
0.58203
0.592967
0.602586
0.610823
0.46006
0.485093
0.510845
0.533127
0.551731
0.567597
0.581228
0.593089
0.603522
0.612434
0.444135
0.475288
0.503332
0.528114
0.548154
0.565219
0.579727
0.59231
0.603361
0.612825
0.427731
0.468026
0.497233
0.524606
0.545759
0.563851
0.579012
0.592086
0.603437
0.61324
0.409572
0.460793
0.488965
0.518377
0.540295
0.559203
0.574918
0.588492
0.600203
0.610381
0.53645
0.537575
0.541276
0.546151
0.551158
0.555823
0.559939
0.563404
0.566138
0.568093
0.529993
0.535944
0.543197
0.550671
0.557791
0.564261
0.569951
0.574806
0.57879
0.58193
0.526466
0.533762
0.542993
0.552325
0.561085
0.568992
0.575967
0.582001
0.5871
0.591297
0.519287
0.527729
0.538827
0.549955
0.560349
0.569729
0.578058
0.585363
0.591675
0.59699
0.511068
0.52055
0.533525
0.546477
0.558503
0.569331
0.578962
0.587456
0.594885
0.601197
0.500176
0.511152
0.526172
0.541152
0.554888
0.567195
0.578111
0.587751
0.596244
0.603507
0.488601
0.502014
0.519225
0.536422
0.551842
0.565561
0.577631
0.588247
0.597604
0.605593
0.475371
0.49286
0.512049
0.531558
0.548464
0.563416
0.576415
0.587799
0.597817