/*--------------------------------*- C++ -*----------------------------------*\
| =========                 |                                                 |
| \\      /  F ield         | foam-extend: Open Source CFD                    |
|  \\    /   O peration     | Version:     4.0                                |
|   \\  /    A nd           | Web:         http://www.foam-extend.org         |
|    \\/     M anipulation  |                                                 |
\*---------------------------------------------------------------------------*/
FoamFile
{
    version     2.0;
    format      ascii;
    class       volScalarField;
    location    "2000";
    object      p;
}
// * * * * * * * * * * * * * * * * * * * * * * * * * * * * * * * * * * * * * //

dimensions      [1 -1 -2 0 0 0 0];

internalField   nonuniform List<scalar> 
34480
(
107867
107580
107362
107241
107250
107444
107922
108693
109400
112518
107128
106703
106330
106031
105840
105813
106063
106672
107080
109446
106727
106180
105672
105207
104808
104532
104504
104854
104878
106282
106510
105821
105165
104530
103926
103408
103104
103169
102787
103207
106388
105577
104803
104031
103262
102537
101987
101769
100988
100499
106397
105497
104635
103763
102870
101983
101232
100753
99594.8
98333.6
106298
105335
104422
103491
102526
101535
100636
99924.9
98402.4
96433
106369
105384
104452
103505
102522
101494
100515
99614.1
97725.8
95005.7
106163
105174
104242
103315
102375
101392
100402
99353.2
97086.3
93612.4
106281
105275
104322
103388
102479
101579
100683
99661
97134.4
92817.7
109724
109567
109514
109597
109854
110342
111152
112406
114304
117351
108627
108347
108157
108085
108185
108530
109249
110517
112592
116409
107969
107569
107249
107025
106939
107078
107597
108739
110799
115100
107558
107019
106554
106168
105895
105818
106107
107061
109017
113615
107302
106640
106052
105530
105095
104824
104891
105626
107416
112153
107208
106450
105766
105136
104574
104141
104009
104519
106103
110829
107039
106209
105459
104757
104107
103556
103263
103552
104893
109472
107061
106194
105406
104665
103968
103346
102934
103019
104073
108378
106853
105966
105154
104395
103690
103055
102587
102505
103234
107281
106924
106027
105192
104413
103700
103082
102633
102519
102988
106896
111094
111023
111061
111230
111555
112062
112785
113758
115024
116604
109874
109704
109639
109711
109958
110429
111200
112354
113994
116256
109060
108784
108609
108559
108681
109042
109750
110954
112839
115723
108508
108105
107802
107614
107589
107807
108399
109576
111614
115052
108141
107621
107201
106889
106727
106800
107256
108354
110471
114363
107954
107338
106822
106407
106127
106069
106390
107381
109520
113765
107719
107027
106439
105947
105579
105414
105612
106478
108582
113065
107694
106955
106318
105775
105345
105101
105193
105922
107923
112519
107491
106722
106048
105466
104998
104707
104728
105334
107162
111860
107536
106756
106057
105449
104953
104637
104629
105186
106827
111657
111955
111924
111979
112132
112391
112764
113256
113863
114566
115308
110811
110708
110701
110814
111067
111486
112097
112923
113967
115142
109970
109778
109687
109718
109907
110298
110951
111930
113286
114946
109357
109056
108858
108785
108879
109201
109839
110910
112536
114699
108929
108519
108221
108044
108035
108268
108856
109966
111810
114452
108682
108181
107791
107523
107418
107560
108082
109193
111208
114284
108402
107824
107364
107020
106837
106896
107347
108428
110559
114008
108341
107712
107197
106799
106554
106543
106920
107944
110123
113868
108127
107465
106913
106474
106183
106122
106440
107395
109540
113569
108145
107471
106894
106430
106112
106022
106300
107206
109260
113561
112445
112431
112477
112588
112765
113005
113305
113651
114024
114390
111475
111414
111430
111539
111748
112064
112490
113020
113631
114249
110692
110561
110520
110584
110776
111116
111627
112325
113198
114142
110076
109856
109734
109729
109872
110201
110762
111600
112739
114057
109625
109310
109104
109021
109099
109392
109968
110910
112297
114005
109345
108945
108659
108500
108510
108754
109325
110341
111953
114052
109037
108563
108211
107987
107934
108126
108675
109735
111540
114008
108951
108425
108019
107743
107636
107778
108292
109364
111306
114108
108730
108170
107728
107412
107264
107364
107844
108903
110909
114036
108730
108156
107690
107351
107177
107250
107699
108735
110727
114155
112677
112670
112701
112771
112879
113021
113191
113380
113574
113757
111912
111875
111895
111980
112131
112347
112624
112948
113297
113627
111238
111150
111134
111202
111364
111627
111994
112460
112998
113537
110664
110506
110433
110462
110609
110897
111341
111948
112704
113505
110225
109987
109848
109823
109938
110227
110724
111458
112436
113528
109935
109622
109418
109336
109409
109685
110216
111057
112257
113661
109617
109236
108973
108837
108867
109120
109668
110595
112001
113721
109517
109086
108774
108592
108582
108807
109355
110337
111915
113939
109292
108827
108481
108265
108221
108418
108957
109971
111665
113985
109281
108801
108432
108195
108129
108306
108828
109846
111577
114160
112752
112747
112765
112806
112867
112946
113040
113140
113241
113334
112177
112155
112171
112229
112329
112467
112638
112831
113031
113212
111632
111573
111570
111627
111750
111939
112190
112491
112820
113134
111128
111016
110973
111012
111142
111371
111701
112124
112616
113108
110725
110548
110457
110464
110584
110837
111235
111778
112449
113150
110447
110207
110064
110031
110132
110396
110848
111506
112366
113303
110133
109832
109640
109567
109643
109907
110401
111159
112205
113393
110032
109685
109450
109340
109390
109645
110163
111000
112215
113653
109806
109426
109162
109023
109049
109291
109821
110713
112060
113743
109791
109396
109111
108955
108962
109192
109718
110634
112043
113932
112738
112735
112745
112767
112800
112843
112892
112945
112997
113045
112321
112307
112317
112354
112416
112501
112603
112715
112828
112929
111905
111865
111866
111908
111995
112124
112289
112481
112682
112868
111480
111402
111377
111415
111518
111689
111924
112211
112529
112836
111129
111001
110942
110962
111070
111275
111577
111967
112421
112875
110878
110698
110599
110595
110699
110929
111292
111787
112391
113018
110580
110347
110210
110178
110272
110517
110933
111526
112286
113102
110488
110214
110042
109983
110063
110314
110768
111445
112352
113361
110265
109961
109764
109683
109748
109998
110475
111217
112247
113448
110252
109934
109718
109622
109676
109920
110404
111179
112276
113630
112684
112682
112686
112698
112715
112737
112763
112791
112818
112842
112385
112377
112383
112404
112441
112491
112550
112614
112679
112735
112084
112058
112059
112088
112146
112231
112336
112455
112578
112690
111738
111684
111670
111700
111777
111898
112060
112251
112456
112649
111447
111355
111318
111341
111429
111585
111806
112079
112384
112680
111232
111099
111032
111042
111136
111322
111601
111963
112383
112802
110957
110781
110686
110678
110772
110982
111314
111763
112305
112865
110882
110672
110548
110522
110612
110837
111212
111740
112402
113105
110666
110428
110285
110242
110325
110558
110962
111552
112317
113162
110659
110409
110250
110197
110273
110506
110924
111548
112374
113329
112616
112614
112617
112622
112631
112642
112656
112670
112684
112697
112402
112396
112399
112412
112433
112461
112495
112531
112567
112599
112197
112179
112180
112199
112236
112289
112354
112428
112502
112569
111920
111884
111876
111898
111952
112034
112142
112267
112398
112520
111690
111625
111602
111622
111690
111803
111959
112146
112348
112542
111513
111418
111374
111388
111466
111609
111815
112072
112360
112642
111268
111138
111072
111077
111161
111330
111585
111914
112296
112678
111216
111058
110971
110965
111051
111240
111537
111933
112407
112894
111008
110826
110723
110706
110792
110993
111319
111770
112326
112913
111013
110820
110705
110681
110762
110968
111311
111795
112400
113065
112549
112548
112549
112552
112556
112562
112569
112576
112584
112590
112391
112388
112389
112396
112408
112424
112443
112463
112484
112501
112263
112252
112252
112264
112286
112319
112359
112403
112448
112488
112044
112020
112015
112030
112066
112121
112191
112271
112353
112430
111870
111825
111810
111827
111875
111955
112062
112187
112320
112445
111732
111664
111636
111650
111710
111816
111964
112142
112337
112524
111516
111422
111378
111388
111457
111588
111776
112011
112275
112534
111492
111376
111316
111320
111395
111546
111771
112061
112394
112727
111292
111156
111085
111082
111160
111324
111577
111912
112306
112710
111312
111166
111086
111079
111156
111327
111596
111959
112392
112849
112491
112490
112490
112491
112494
112496
112500
112504
112508
112511
112368
112366
112367
112370
112377
112386
112396
112408
112419
112429
112301
112293
112293
112300
112313
112333
112357
112383
112410
112434
112124
112108
112105
112115
112138
112174
112218
112269
112320
112368
112000
111970
111960
111972
112006
112061
112132
112214
112300
112380
111897
111850
111832
111844
111889
111964
112066
112187
112317
112440
111710
111643
111614
111625
111679
111775
111910
112074
112253
112427
111715
111632
111592
111601
111661
111776
111941
112147
112377
112601
111522
111423
111374
111379
111444
111572
111761
112003
112277
112551
111559
111453
111397
111400
111467
111602
111805
112068
112371
112681
112444
112443
112443
112443
112444
112446
112448
112449
112452
112453
112340
112339
112339
112341
112344
112349
112355
112362
112368
112374
112321
112316
112316
112319
112327
112339
112353
112369
112384
112398
112173
112163
112161
112167
112182
112204
112232
112263
112295
112325
112092
112072
112066
112074
112097
112133
112179
112232
112287
112338
112018
111987
111975
111985
112016
112068
112137
112217
112302
112382
111857
111811
111792
111802
111841
111910
112004
112115
112235
112350
111892
111834
111808
111817
111864
111948
112065
112207
112362
112511
111703
111632
111599
111607
111659
111754
111891
112060
112247
112430
111761
111685
111647
111654
111708
111810
111958
112144
112351
112558
112408
112407
112407
112407
112408
112408
112409
112410
112412
112412
112310
112310
112310
112311
112313
112316
112319
112323
112326
112330
112332
112329
112328
112330
112335
112342
112350
112359
112368
112376
112201
112195
112193
112197
112206
112220
112237
112256
112276
112294
112156
112143
112139
112144
112159
112182
112212
112245
112280
112312
112105
112084
112077
112084
112105
112140
112185
112238
112292
112343
111966
111935
111923
111931
111959
112006
112069
112143
112221
112296
112030
111991
111974
111982
112017
112076
112156
112252
112355
112452
111840
111790
111769
111777
111816
111884
111979
112095
112220
112341
111922
111869
111845
111852
111893
111967
112071
112199
112337
112474
112384
112384
112384
112384
112384
112384
112385
112385
112386
112385
112281
112281
112281
112282
112283
112284
112286
112288
112291
112293
112339
112337
112337
112338
112341
112345
112350
112355
112360
112365
112215
112211
112210
112212
112217
112226
112236
112247
112259
112270
112198
112190
112188
112191
112201
112215
112233
112254
112276
112295
112164
112151
112146
112151
112165
112188
112217
112250
112285
112317
112045
112025
112017
112023
112042
112073
112114
112162
112213
112261
112137
112111
112100
112107
112131
112171
112225
112288
112355
112416
111939
111905
111892
111898
111926
111974
112038
112115
112197
112276
112050
112015
111999
112006
112036
112088
112158
112243
112334
112422
112376
112375
112375
112375
112375
112375
112375
112375
112376
112374
112251
112251
112252
112252
112253
112254
112255
112256
112257
112259
112347
112346
112345
112346
112347
112350
112353
112356
112359
112361
112219
112217
112216
112217
112220
112225
112231
112238
112245
112251
112225
112220
112218
112221
112226
112235
112247
112259
112272
112284
112202
112193
112190
112194
112203
112217
112235
112256
112278
112297
112101
112087
112083
112086
112099
112119
112145
112176
112207
112238
112217
112200
112194
112199
112215
112242
112277
112317
112360
112397
112005
111983
111975
111980
111998
112030
112072
112123
112175
112226
112157
112134
112124
112130
112150
112185
112232
112287
112344
112400
112393
112392
112392
112392
112392
112391
112391
112390
112391
112389
112218
112218
112219
112219
112219
112220
112220
112221
112222
112223
112354
112353
112353
112353
112354
112356
112358
112360
112361
112363
112218
112216
112216
112216
112218
112220
112224
112227
112231
112235
112238
112235
112234
112236
112239
112245
112252
112259
112267
112275
112221
112216
112214
112216
112221
112230
112242
112255
112268
112280
112137
112129
112126
112129
112136
112149
112165
112184
112203
112222
112272
112261
112257
112261
112272
112289
112312
112337
112364
112386
112040
112026
112021
112024
112037
112057
112084
112116
112148
112182
112259
112244
112238
112242
112256
112279
112309
112344
112379
112414
112459
112459
112458
112458
112458
112457
112457
112456
112457
112453
112173
112173
112174
112174
112174
112174
112174
112174
112174
112175
112354
112354
112354
112354
112355
112356
112358
112360
112361
112362
112214
112213
112212
112213
112213
112215
112216
112218
112220
112222
112240
112238
112238
112239
112241
112244
112249
112254
112259
112263
112225
112221
112220
112221
112225
112230
112237
112246
112254
112262
112158
112153
112151
112153
112158
112166
112175
112187
112198
112209
112291
112284
112282
112284
112292
112303
112318
112335
112353
112366
112038
112029
112026
112029
112037
112050
112067
112086
112106
112129
112382
112372
112369
112372
112381
112396
112415
112437
112460
112481
112598
112598
112598
112598
112599
112600
112602
112603
112605
112603
112101
112100
112100
112100
112099
112099
112098
112096
112096
112094
112335
112335
112335
112336
112337
112338
112340
112342
112344
112346
112212
112211
112211
112210
112211
112211
112212
112213
112213
112214
112235
112234
112234
112234
112236
112238
112241
112244
112247
112251
112219
112216
112216
112217
112219
112223
112227
112233
112238
112244
112167
112164
112163
112164
112167
112172
112179
112186
112193
112199
112262
112257
112255
112257
112262
112270
112280
112292
112306
112317
111987
111982
111980
111981
111987
111996
112007
112019
112031
112045
112552
112544
112542
112543
112550
112560
112574
112589
112605
112622
112760
112761
112762
112764
112767
112770
112775
112781
112789
112796
112011
112010
112009
112009
112007
112005
112003
111999
111995
111987
112299
112299
112300
112300
112301
112303
112304
112306
112309
112313
112215
112215
112214
112214
112214
112215
112215
112216
112216
112215
112230
112229
112229
112229
112230
112232
112234
112237
112240
112242
112213
112211
112211
112211
112213
112216
112220
112224
112229
112233
112172
112170
112169
112169
112172
112177
112182
112188
112194
112198
112203
112199
112198
112199
112203
112210
112218
112229
112241
112253
111908
111903
111901
111903
111907
111914
111923
111933
111941
111945
112726
112717
112715
112716
112721
112730
112741
112755
112770
112788
128802
132342
132376
130321
129744
133716
133688
131794
130452
134650
135027
133351
130748
135119
136234
134811
131065
135589
137368
136136
131825
136587
139082
138408
132602
137522
140530
140474
133382
138366
141722
142184
133065
137996
141577
142507
131681
136429
140176
141656
120884
122474
122851
121967
121430
123278
123816
123037
121853
123922
124620
124063
122257
124525
125433
125163
122782
125200
126352
126320
123418
125904
127181
127255
123945
126448
127799
127971
124571
127051
128436
128789
124631
127049
128491
129065
124369
126745
128341
129171
118006
118702
118885
118602
118342
119196
119476
119262
118663
119683
120085
119958
119007
120198
120757
120742
119465
120813
121526
121616
120120
121604
122441
122639
120733
122328
123270
123576
121461
123129
124143
124563
121786
123466
124528
125064
122015
123650
124725
125355
115871
116193
116308
116220
116007
116421
116606
116572
116216
116733
117003
117034
116479
117109
117477
117594
116844
117582
118045
118247
117373
118210
118757
119048
117862
118786
119410
119794
118507
119502
120194
120682
118836
119867
120614
121198
119094
120133
120919
121579
114651
114807
114873
114851
114659
114871
114986
115004
114768
115049
115220
115285
114960
115317
115554
115681
115250
115683
115986
116176
115703
116211
116579
116836
116127
116706
117134
117460
116724
117366
117851
118252
117066
117745
118273
118742
117381
118071
118626
119143
113885
113964
114002
113999
113833
113947
114017
114043
113869
114028
114137
114197
113996
114206
114362
114468
114221
114485
114689
114842
114596
114914
115165
115369
114940
115310
115607
115863
115466
115884
116224
116534
115778
116227
116601
116956
116091
116553
116947
117333
113399
113441
113462
113465
113323
113386
113429
113450
113321
113415
113484
113528
113393
113522
113624
113700
113563
113729
113865
113976
113868
114073
114244
114391
114139
114381
114586
114772
114594
114871
115108
115331
114856
115157
115417
115668
115141
115452
115727
115997
113079
113101
113114
113116
112991
113027
113052
113067
112979
113035
113078
113109
113009
113089
113154
113207
113131
113237
113327
113404
113373
113506
113621
113724
113574
113734
113874
114004
113959
114144
114307
114462
114160
114361
114541
114715
114408
114618
114808
114993
112861
112873
112880
112882
112769
112790
112805
112815
112757
112791
112819
112839
112757
112807
112850
112885
112844
112912
112972
113024
113032
113119
113197
113268
113172
113279
113374
113463
113495
113619
113730
113837
113629
113765
113888
114007
113841
113983
114113
114239
112707
112713
112717
112719
112618
112629
112638
112645
112610
112631
112648
112661
112587
112619
112647
112670
112648
112692
112732
112767
112792
112850
112902
112950
112881
112953
113018
113078
113152
113235
113311
113384
113224
113316
113400
113480
113405
113501
113590
113675
112595
112599
112601
112602
112511
112518
112523
112528
112513
112526
112537
112545
112472
112493
112511
112526
112514
112543
112569
112592
112622
112661
112696
112728
112669
112717
112761
112802
112898
112955
113006
113055
112918
112980
113037
113091
113075
113140
113200
113257
112514
112516
112517
112518
112434
112437
112440
112443
112450
112458
112464
112469
112395
112407
112419
112428
112425
112444
112461
112476
112504
112530
112553
112574
112516
112548
112578
112605
112715
112752
112787
112820
112690
112732
112771
112807
112832
112875
112916
112954
112455
112456
112457
112457
112375
112377
112379
112381
112409
112413
112417
112420
112341
112349
112356
112362
112367
112379
112390
112399
112424
112441
112456
112470
112409
112429
112449
112467
112586
112611
112634
112656
112524
112552
112577
112602
112657
112686
112713
112739
112413
112414
112414
112414
112329
112329
112331
112332
112383
112386
112388
112390
112303
112308
112313
112317
112330
112338
112344
112351
112370
112381
112390
112399
112334
112348
112361
112372
112501
112517
112532
112547
112404
112422
112439
112455
112538
112557
112575
112591
112386
112386
112387
112387
112290
112290
112291
112293
112369
112371
112373
112374
112276
112278
112281
112284
112307
112312
112316
112320
112334
112341
112347
112353
112285
112293
112301
112309
112447
112458
112468
112477
112317
112329
112340
112350
112463
112475
112486
112497
112375
112375
112375
112376
112255
112255
112255
112257
112365
112366
112367
112367
112254
112256
112257
112259
112292
112295
112297
112300
112308
112313
112316
112320
112252
112257
112262
112267
112418
112424
112430
112436
112253
112261
112268
112274
112425
112433
112440
112447
112390
112389
112389
112390
112218
112217
112218
112219
112366
112367
112367
112367
112236
112237
112238
112239
112279
112281
112283
112284
112287
112290
112292
112294
112229
112233
112236
112239
112400
112404
112408
112411
112200
112205
112209
112213
112428
112433
112438
112442
112455
112453
112453
112455
112169
112168
112168
112169
112366
112367
112367
112366
112222
112222
112222
112223
112266
112268
112269
112269
112266
112268
112270
112271
112212
112214
112216
112218
112377
112380
112382
112384
112141
112144
112146
112149
112489
112491
112494
112497
112608
112605
112606
112608
112087
112085
112086
112088
112350
112352
112352
112351
112213
112213
112213
112214
112253
112254
112255
112255
112247
112248
112249
112250
112200
112201
112202
112204
112330
112333
112335
112335
112050
112052
112054
112056
112627
112629
112631
112633
112818
112816
112816
112818
111974
111969
111969
111974
112317
112319
112319
112317
112214
112213
112214
112215
112244
112245
112246
112246
112236
112237
112238
112238
112198
112198
112199
112201
112271
112274
112276
112275
111931
111929
111931
111936
112796
112799
112800
112801
120059
116540
114358
112644
111416
110496
109762
109159
108656
108227
121300
117354
114657
112783
111412
110370
109523
108809
108192
107630
122386
118091
114939
113019
111554
110415
109467
108657
107947
107312
123651
119002
115592
113586
111983
110726
109662
108739
107916
107195
125000
119941
116349
114155
112415
111036
109864
108842
107921
107146
126566
121014
117222
114814
112942
111442
110173
109065
108063
107225
128070
121823
117893
115246
113262
111647
110294
109112
108043
107172
129702
122614
118664
115767
113703
111987
110567
109323
108208
107285
130757
122863
118991
115896
113791
111991
110516
109220
108081
107114
131858
123328
119574
116302
114126
112234
110690
109332
108155
107147
119507
117125
115413
114074
112997
112121
111404
110820
110353
109988
120194
117478
115431
113832
112571
111566
110748
110069
109507
109023
120893
117908
115517
113787
112418
111325
110424
109665
109020
108455
121694
118546
115938
114093
112614
111422
110419
109557
108805
108148
122478
119319
116489
114500
112902
111603
110500
109544
108693
107970
123559
120256
117217
115054
113332
111921
110724
109681
108745
107952
124695
121018
117808
115440
113601
112081
110797
109680
108673
107836
126128
121797
118523
115934
114009
112392
111040
109859
108802
107908
127204
122073
118848
116083
114110
112411
111001
109768
108680
107743
128413
122419
119340
116420
114385
112611
111148
109867
108754
107789
117760
116584
115490
114523
113690
112985
112399
111921
111547
111270
118300
116809
115396
114177
113157
112312
111612
111031
110559
110168
118880
117135
115436
114040
112887
111937
111144
110478
109921
109445
119567
117658
115753
114223
112954
111898
111001
110231
109568
108996
120320
118313
116214
114543
113151
111984
110985
110118
109356
108710
121333
119154
116871
115031
113509
112228
111130
110175
109325
108602
122362
119886
117429
115388
113738
112345
111156
110123
109197
108423
123679
120686
118125
115871
114121
112628
111366
110266
109287
108453
124685
121044
118488
116062
114249
112671
111346
110189
109172
108295
125749
121420
118952
116376
114502
112854
111482
110284
109243
108339
115924
115404
114838
114277
113752
113281
112873
112533
112265
112071
116263
115572
114784
114017
113314
112691
112153
111697
111326
111025
116722
115873
114870
113921
113065
112317
111672
111121
110661
110271
117323
116355
115182
114082
113093
112226
111469
110810
110244
109757
118026
116956
115623
114373
113253
112268
111402
110643
109976
109410
118960
117738
116247
114829
113574
112470
111502
110649
109892
109244
119903
118435
116785
115176
113786
112565
111501
110565
109728
109024
121093
119235
117467
115656
114154
112829
111685
110680
109785
109019
122005
119660
117850
115864
114280
112863
111651
110588
109653
108846
122942
120074
118277
116146
114499
113020
111767
110668
109710
108879
114736
114499
114212
113903
113594
113304
113043
112821
112645
112518
114911
114594
114171
113713
113259
112832
112449
112116
111845
111625
115224
114822
114258
113650
113057
112508
112016
111586
111225
110920
115699
115231
114544
113800
113076
112404
111797
111259
110794
110395
116292
115761
114954
114072
113218
112426
111708
111067
110502
110022
117088
116463
115534
114500
113513
112602
111778
111040
110385
109822
117885
117100
116040
114835
113714
112684
111760
110936
110198
109574
118909
117863
116694
115309
114071
112935
111927
111030
110231
109545
119692
118310
117077
115525
114192
112961
111883
110929
110087
109362
120478
118726
117470
115786
114391
113102
111985
110998
110134
109385
113953
113845
113702
113539
113367
113199
113044
112909
112800
112722
114024
113879
113657
113394
113114
112839
112582
112354
112167
112014
114213
114030
113724
113353
112963
112581
112224
111906
111634
111405
114557
114349
113962
113482
112977
112482
112017
111595
111228
110911
115023
114791
114322
113729
113106
112496
111923
111401
110937
110543
115672
115399
114841
114122
113378
112654
111977
111358
110806
110330
116312
115953
115295
114434
113564
112725
111948
111243
110608
110070
117164
116653
115904
114891
113908
112965
112103
111323
110627
110027
117796
117075
116261
115100
114017
112982
112050
111216
110475
109838
118422
117465
116617
115344
114203
113114
112145
111278
110515
109853
113445
113395
113325
113240
113148
113055
112967
112889
112825
112778
113452
113384
113267
113118
112952
112781
112618
112470
112347
112245
113557
113478
113313
113092
112843
112586
112339
112112
111917
111752
113786
113703
113490
113190
112849
112496
112153
111835
111556
111314
114134
114053
113787
113401
112961
112507
112066
111655
111287
110974
114645
114556
114231
113749
113206
112648
112110
111607
111156
110765
115136
115014
114619
114024
113371
112708
112074
111488
110957
110506
115827
115631
115168
114453
113696
112937
112220
111562
110970
110459
116310
115999
115475
114637
113787
112944
112161
111450
110813
110267
116797
116350
115794
114867
113963
113070
112251
111509
110850
110279
113108
113086
113051
113008
112959
112909
112861
112817
112781
112754
113074
113043
112981
112898
112802
112700
112600
112509
112431
112365
113134
113100
113011
112881
112725
112558
112392
112238
112103
111987
113274
113247
113130
112945
112720
112477
112232
112001
111796
111616
113524
113511
113362
113116
112813
112485
112155
111842
111560
111319
113915
113913
113729
113412
113025
112608
112193
111797
111440
111128
114275
114271
114042
113641
113163
112654
112152
111679
111247
110880
114829
114799
114522
114030
113464
112870
112292
111751
111262
110837
115177
115091
114765
114178
113532
112865
112226
111636
111103
110645
115553
115400
115047
114393
113699
112988
112315
111695
111139
110658
112879
112868
112851
112830
112804
112778
112752
112728
112708
112693
112822
112808
112776
112731
112676
112617
112558
112503
112456
112414
112857
112844
112795
112719
112623
112517
112410
112308
112218
112140
112933
112928
112864
112751
112605
112441
112272
112110
111965
111836
113109
113120
113038
112882
112677
112446
112207
111977
111767
111587
113403
113433
113331
113125
112855
112552
112240
111939
111664
111423
113656
113698
113569
113303
112961
112581
112194
111823
111483
111192
114097
114139
113979
113648
113234
112782
112329
111898
111504
111162
114328
114350
114154
113755
113277
112763
112256
111780
111345
110972
114622
114616
114401
113953
113435
112883
112345
111841
111386
110990
112717
112713
112704
112694
112681
112667
112653
112641
112630
112622
112651
112645
112629
112604
112574
112541
112507
112474
112447
112420
112674
112669
112643
112598
112541
112476
112408
112343
112284
112233
112703
112706
112671
112602
112510
112402
112289
112179
112079
111989
112825
112842
112797
112699
112563
112404
112237
112072
111920
111791
113044
113080
113024
112891
112707
112492
112265
112042
111837
111656
113212
113264
113193
113019
112779
112502
112213
111931
111670
111447
113564
113628
113538
113319
113025
112690
112345
112010
111703
111433
113700
113762
113650
113383
113039
112654
112263
111889
111544
111248
113935
113990
113864
113564
113188
112772
112354
111955
111591
111275
112602
112600
112596
112591
112584
112577
112570
112563
112557
112552
112533
112530
112522
112509
112493
112474
112455
112436
112420
112404
112553
112552
112538
112512
112478
112439
112397
112356
112319
112287
112548
112553
112534
112493
112435
112366
112292
112219
112152
112091
112631
112648
112623
112562
112473
112367
112252
112138
112032
111940
112792
112824
112793
112710
112586
112437
112277
112116
111968
111836
112894
112941
112902
112789
112625
112428
112218
112010
111815
111649
113179
113241
113193
113050
112845
112603
112348
112096
111863
111657
113240
113309
113246
113072
112830
112549
112255
111970
111704
111476
113434
113504
113434
113237
112971
112665
112349
112043
111760
111514
112517
112517
112515
112513
112509
112506
112502
112498
112495
112493
112448
112447
112443
112436
112428
112417
112407
112396
112387
112376
112474
112474
112466
112452
112432
112408
112383
112358
112335
112315
112443
112448
112438
112413
112378
112335
112287
112240
112197
112156
112501
112514
112501
112463
112407
112337
112260
112183
112110
112048
112617
112642
112626
112574
112492
112392
112281
112169
112064
111970
112667
112704
112684
112612
112501
112365
112216
112067
111926
111806
112904
112956
112931
112839
112700
112530
112346
112162
111990
111837
112906
112967
112933
112821
112654
112454
112240
112028
111829
111658
113073
113137
113101
112974
112790
112571
112339
112111
111898
111712
112457
112457
112456
112455
112453
112451
112449
112447
112445
112444
112385
112385
112383
112380
112375
112370
112364
112358
112353
112345
112422
112423
112419
112411
112400
112386
112370
112355
112341
112329
112372
112376
112370
112356
112335
112308
112279
112249
112221
112194
112416
112426
112418
112395
112360
112315
112265
112214
112165
112124
112498
112516
112508
112475
112423
112356
112282
112206
112134
112069
112508
112536
112526
112480
112407
112315
112212
112108
112008
111924
112713
112752
112740
112682
112589
112473
112344
112213
112090
111979
112667
112714
112697
112626
112513
112374
112222
112070
111924
111801
112818
112870
112853
112772
112648
112495
112330
112164
112008
111872
112414
112415
112414
112413
112412
112412
112411
112410
112408
112408
112337
112337
112336
112334
112332
112329
112326
112323
112320
112314
112391
112392
112390
112385
112378
112370
112361
112352
112343
112337
112323
112326
112323
112315
112302
112286
112268
112250
112233
112215
112361
112368
112364
112350
112328
112299
112267
112234
112203
112176
112418
112431
112426
112406
112373
112330
112281
112231
112183
112139
112400