/*--------------------------------*- C++ -*----------------------------------*\
| =========                 |                                                 |
| \\      /  F ield         | foam-extend: Open Source CFD                    |
|  \\    /   O peration     | Version:     4.0                                |
|   \\  /    A nd           | Web:         http://www.foam-extend.org         |
|    \\/     M anipulation  |                                                 |
\*---------------------------------------------------------------------------*/
FoamFile
{
    version     2.0;
    format      ascii;
    class       surfaceScalarField;
    location    "2000";
    object      phi;
}
// * * * * * * * * * * * * * * * * * * * * * * * * * * * * * * * * * * * * * //

dimensions      [1 0 -1 0 0 0 0];

internalField   nonuniform List<scalar> 
97302
(
-0.000109155
5.33049e-06
-0.000614662
0.000631466
-0.000133902
5.79663e-06
-0.000618254
0.000637205
-0.000162514
6.21988e-06
-0.000621068
0.00064346
-0.000196828
6.63411e-06
-0.000623103
0.000650782
-0.000239368
7.05807e-06
-0.000624212
0.000659694
-0.00029321
7.47543e-06
-0.000623658
0.000670025
-0.000361103
7.79358e-06
-0.000619391
0.00067949
-0.000442328
7.78763e-06
-0.000606754
0.000680192
-0.000532882
7.05813e-06
-0.000575063
0.000658559
4.58579e-06
-0.000491004
-0.000669206
0.000622742
-0.000137839
7.91433e-06
-0.00085967
0.000875153
-0.000158094
8.80856e-06
-0.000865448
0.000882691
-0.000181375
9.47729e-06
-0.000870204
0.000890228
-0.00020946
9.9855e-06
-0.000873773
0.000898507
-0.000245373
1.03773e-05
-0.000876444
0.000909037
-0.000293515
1.06539e-05
-0.000878066
0.000923029
-0.000359395
1.07267e-05
-0.000876807
0.000939754
-0.000446152
1.03261e-05
-0.00086739
0.000951609
-0.000549414
8.84783e-06
-0.000836458
0.00093793
4.59593e-06
-0.000726277
-0.000721786
0.000898639
-0.000168263
8.43561e-06
-0.00110348
0.0011181
-0.000185278
9.69206e-06
-0.00111147
0.0011276
-0.000204947
1.06151e-05
-0.00111843
0.00113696
-0.000228884
1.12793e-05
-0.00112423
0.00114688
-0.000260216
1.17289e-05
-0.00112916
0.00115914
-0.000304147
1.19806e-05
-0.00113371
0.00117631
-0.000367968
1.19574e-05
-0.00113678
0.00119937
-0.000457871
1.13561e-05
-0.00113279
0.00122166
-0.000569488
9.37363e-06
-0.00110622
0.00121731
3.59032e-06
-0.00097486
-0.000767582
0.00117396
-0.000199693
8.52346e-06
-0.00134378
0.00135771
-0.000215521
1.00021e-05
-0.00135528
0.0013708
-0.000233877
1.10843e-05
-0.00136578
0.00138367
-0.000256167
1.18398e-05
-0.00137512
0.00139685
-0.000285319
1.22901e-05
-0.00138325
0.00141184
-0.000326774
1.24439e-05
-0.00139093
0.00143192
-0.000389022
1.22295e-05
-0.0013978
0.00145978
-0.000480713
1.13258e-05
-0.00139901
0.00149073
-0.000597573
8.69986e-06
-0.00137783
0.00149536
1.10821e-06
-0.0012275
-0.000811526
0.00144393
-0.000233302
8.44156e-06
-0.00158414
0.0015976
-0.000248477
9.97601e-06
-0.00159959
0.00161479
-0.000266121
1.10739e-05
-0.00161408
0.00163174
-0.00028747
1.1804e-05
-0.00162739
0.00164878
-0.000315257
1.21734e-05
-0.00163923
0.00166713
-0.000354958
1.21711e-05
-0.00165028
0.00169025
-0.000415911
1.17228e-05
-0.00166083
0.00172229
-0.000508784
1.04985e-05
-0.00166715
0.00176085
-0.000629445
7.19027e-06
-0.00165179
0.00177396
-2.37143e-06
-0.00148257
-0.000852979
0.00170958
-0.000269432
8.23204e-06
-0.00182295
0.00183603
-0.000284095
9.6629e-06
-0.00184252
0.00185749
-0.000301178
1.06416e-05
-0.00186102
0.00187853
-0.000321807
1.12398e-05
-0.00187828
0.00189948
-0.000348554
1.14554e-05
-0.00189391
0.00192137
-0.000386859
1.1266e-05
-0.00190836
0.00194757
-0.000446693
1.06098e-05
-0.0019224
0.00198335
-0.00054058
9.19523e-06
-0.0019334
0.00202859
-0.000665157
5.4836e-06
-0.00192331
0.0020496
-5.67938e-06
-0.00173215
-0.000898881
0.00196918
-0.000307437
8.0047e-06
-0.0020609
0.0020736
-0.000321638
9.13664e-06
-0.00208424
0.00209896
-0.000338176
9.857e-06
-0.00210635
0.00212367
-0.000358079
1.02101e-05
-0.00212714
0.00214807
-0.00038375
1.0185e-05
-0.0021462
0.00217315
-0.000420498
9.76281e-06
-0.00216385
0.0022021
-0.000478726
8.94932e-06
-0.00218129
0.00224118
-0.000572656
7.5822e-06
-0.0021972
0.00229274
-0.000700052
4.02176e-06
-0.00219323
0.00232208
-7.87818e-06
-0.00198015
-0.000942649
0.00222494
-0.00034845
7.22694e-06
-0.00229904
0.00231167
-0.000362004
7.89408e-06
-0.00232573
0.00234053
-0.000377848
8.29816e-06
-0.00235083
0.00236823
-0.00039693
8.40972e-06
-0.00237455
0.00239543
-0.000421425
8.18693e-06
-0.00239647
0.00242297
-0.000456344
7.60156e-06
-0.00241677
0.00245385
-0.000512202
6.76347e-06
-0.00243707
0.00249512
-0.000604742
5.73749e-06
-0.00245779
0.00255217
-0.000733291
3.125e-06
-0.00246143
0.00259088
-8.1281e-06
-0.00222902
-0.000982706
0.00247868
-0.000390236
5.05602e-06
-0.00253403
0.00254677
-0.000402707
5.04651e-06
-0.00256323
0.00257855
-0.000417637
4.98757e-06
-0.00259069
0.00260894
-0.000436084
4.7736e-06
-0.0026173
0.00263939
-0.000459997
4.36971e-06
-0.00264286
0.00267059
-0.000493704
3.7301e-06
-0.0026671
0.00270468
-0.000547104
3.04612e-06
-0.00269106
0.00274818
-0.000636961
2.61218e-06
-0.00271653
0.00280951
-0.000764495
1.66771e-06
-0.00272854
0.00285753
-7.2453e-06
-0.00248137
-0.00101449
0.00273048
-0.000432608
-0.00275406
0.00276767
-0.000443483
-0.00278591
0.00280183
-0.000456913
-0.00281594
0.00283436
-0.000474078
-0.00284503
0.00286696
-0.000496887
-0.00287284
0.00290002
-0.000529234
-0.00289937
0.00293545
-0.000579865
-0.00292602
0.0029797
-0.000665256
-0.00295689
0.00304489
-0.000788323
-0.00298284
0.00310757
-0.00273955
-0.00103718
0.00298117
1.23349e-05
5.38386e-06
-0.000599527
-1.01059e-05
5.84857e-06
-0.000601662
-3.48934e-05
6.23697e-06
-0.000602518
-6.26511e-05
6.55623e-06
-0.000601901
-9.42925e-05
6.80163e-06
-0.000599372
-0.000130702
6.94065e-06
-0.00059419
-0.000171766
6.90038e-06
-0.000585227
-0.000214209
6.53546e-06
-0.000570847
-0.000247634
5.58628e-06
-0.000547224
3.53335e-06
-0.000505085
-0.000237086
2.25719e-05
7.97319e-06
-0.000844327
2.6241e-06
8.92642e-06
-0.000848579
-1.9632e-05
9.63506e-06
-0.000851346
-4.47692e-05
1.01293e-05
-0.000852209
-7.40981e-05
1.04151e-05
-0.000850729
-0.000109725
1.04666e-05
-0.000845964
-0.000153777
1.02141e-05
-0.000836069
-0.000206155
9.47557e-06
-0.000817953
-0.00025939
7.89508e-06
-0.000785532
4.63477e-06
-0.000720884
-0.000265884
3.21809e-05
8.48646e-06
-0.00108811
1.43897e-05
9.88372e-06
-0.00109463
-5.76456e-06
1.09301e-05
-0.00109957
-2.90089e-05
1.1671e-05
-0.00110253
-5.67588e-05
1.2103e-05
-0.0011031
-9.18111e-05
1.2201e-05
-0.00110039
-0.00013815
1.18954e-05
-0.00109212
-0.000198818
1.09662e-05
-0.00107361
-0.000270187
8.91683e-06
-0.00103587
4.49503e-06
-0.000947905
-0.000297003
4.14954e-05
8.42937e-06
-0.00132853
2.43065e-05
1.01571e-05
-0.00133837
4.60192e-06
1.14718e-05
-0.00134662
-1.83907e-05
1.24178e-05
-0.00135287
-4.60819e-05
1.29718e-05
-0.00135643
-8.14596e-05
1.3086e-05
-0.00135643
-0.000129732
1.26773e-05
-0.00135031
-0.000197075
1.15075e-05
-0.00133221
-0.000284523
8.93262e-06
-0.0012904
3.21515e-06
-0.00117853
-0.000332213
4.89398e-05
8.14155e-06
-0.00156894
3.19394e-05
1.00555e-05
-0.00158249
1.23243e-05
1.15157e-05
-0.00159451
-1.072e-05
1.25666e-05
-0.00160449
-3.86113e-05
1.31781e-05
-0.00161155
-7.43842e-05
1.3273e-05
-0.00161469
-0.000124102
1.27453e-05
-0.00161118
-0.000196814
1.13479e-05
-0.00159428
-0.00029833
8.26993e-06
-0.00154961
1.21371e-06
-0.0014135
-0.000365393
5.41467e-05
7.66676e-06
-0.00180773
3.72699e-05
9.62055e-06
-0.00182521
1.77263e-05
1.1106e-05
-0.00184106
-5.34011e-06
1.21723e-05
-0.00185482
-3.33584e-05
1.27867e-05
-0.0018655
-6.93921e-05
1.28551e-05
-0.00187191
-0.000120121
1.22568e-05
-0.00187118
-0.000197066
1.07615e-05
-0.00185587
-0.000310486
7.41851e-06
-0.00180904
-7.07248e-07
-0.00164772
-0.000392994
5.70984e-05
7.07292e-06
-0.00204569
4.03947e-05
8.87378e-06
-0.00206678
2.10515e-05
1.02537e-05
-0.00208615
-1.81275e-06
1.1243e-05
-0.00210334
-2.9629e-05
1.18046e-05
-0.00211741
-6.54564e-05
1.18358e-05
-0.002127
-0.000116441
1.12326e-05
-0.00212928
-0.000196338
9.84437e-06
-0.00211639
-0.000319837
6.67779e-06
-0.00206899
-2.08851e-06
-0.00188314
-0.000415462
5.75046e-05
5.89499e-06
-0.00228364
4.12864e-05
7.34284e-06
-0.00230799
2.24789e-05
8.5307e-06
-0.0023303
1.79178e-07
9.43056e-06
-0.00235044
-2.7004e-05
9.99122e-06
-0.00236748
-6.20552e-05
1.00867e-05
-0.00237996
-0.000112382
9.65753e-06
-0.00238517
-0.000193723
8.67407e-06
-0.00237528
-0.000325718
6.38954e-06
-0.00232915
-2.25437e-06
-0.00212072
-0.000433846
5.58678e-05
3.41154e-06
-0.0025183
4.07024e-05
4.24125e-06
-0.00254497
2.29546e-05
5.03745e-06
-0.00256945
1.54058e-06
5.68396e-06
-0.00259214
-2.50376e-05
6.1762e-06
-0.00261247
-5.95856e-05
6.37735e-06
-0.00262885
-0.000109146
6.28502e-06
-0.00263813
-0.000190785
5.98661e-06
-0.0026322
-0.000329952
5.37203e-06
-0.00258836
-1.41719e-06
-0.00235903
-0.000453123
5.31659e-05
-0.00273879
3.92846e-05
-0.00276779
2.29884e-05
-0.00279461
3.11626e-06
-0.00281947
-2.18877e-05
-0.00284166
-5.49933e-05
-0.00285989
-0.000102716
-0.00287201
-0.000182676
-0.00287094
-0.000327123
-0.00283302
-0.00259046
-0.000477629
6.84008e-06
5.29752e-06
-0.00058744
-1.19212e-05
5.70683e-06
-0.000588608
-3.19932e-05
6.00798e-06
-0.000588454
-5.32657e-05
6.20292e-06
-0.000586832
-7.54497e-05
6.2715e-06
-0.00058346
-9.78363e-05
6.16788e-06
-0.000577971
-0.000118908
5.82144e-06
-0.000569977
-0.000135732
5.13926e-06
-0.000559162
-0.000141916
4.00995e-06
-0.00054505
2.34427e-06
-0.000526454
-0.000122892
1.61605e-05
7.99597e-06
-0.000830586
-2.08051e-06
8.87413e-06
-0.000833505
-2.21431e-05
9.48906e-06
-0.000834765
-4.39971e-05
9.85704e-06
-0.000834009
-6.77002e-05
9.95963e-06
-0.000830714
-9.31507e-05
9.737e-06
-0.000824083
-0.00011949
9.0984e-06
-0.000813007
-0.000144137
7.91176e-06
-0.000796079
-0.000160322
6.01277e-06
-0.000771349
3.25429e-06
-0.000736742
-0.000145374
2.57307e-05
8.72435e-06
-0.00107346
8.44257e-06
1.00516e-05
-0.00107852
-1.09628e-05
1.10126e-05
-0.00108169
-3.27712e-05
1.16331e-05
-0.0010825
-5.74154e-05
1.18848e-05
-0.00108038
-8.55172e-05
1.16959e-05
-0.00107425
-0.00011725
1.09459e-05
-0.00106224
-0.000150862
9.43477e-06
-0.00104152
-0.000179641
6.86836e-06
-0.00100795
2.9187e-06
-0.000954884
-0.000172327
3.5197e-05
8.77623e-06
-0.00131351
1.80397e-05
1.04574e-05
-0.00132161
-1.57298e-06
1.17092e-05
-0.0013277
-2.41233e-05
1.25616e-05
-0.00133125
-5.02447e-05
1.2959e-05
-0.00133138
-8.1029e-05
1.28048e-05
-0.00132676
-0.000117611
1.19401e-05
-0.00131472
-0.000159599
1.00995e-05
-0.00129089
-0.000201472
6.83681e-06
-0.00124849
1.59605e-06
-0.00117415
-0.000204532
4.31204e-05
8.54169e-06
-0.00155371
2.58917e-05
1.04426e-05
-0.00156524
5.97075e-06
1.18752e-05
-0.00157476
-1.72422e-05
1.28715e-05
-0.00158159
-4.46009e-05
1.33634e-05
-0.00158459
-7.75414e-05
1.32243e-05
-0.00158217
-0.000118106
1.22535e-05
-0.00157093
-0.000167567
1.01215e-05
-0.00154484
-0.000222319
6.18972e-06
-0.00149421
-4.10474e-07
-0.00139674
-0.000237072
4.89735e-05
8.05825e-06
-0.00179231
3.17168e-05
1.0034e-05
-0.00180754
1.16268e-05
1.15308e-05
-0.00182063
-1.19975e-05
1.25863e-05
-0.00183091
-4.02092e-05
1.31287e-05
-0.00183705
-7.47404e-05
1.30124e-05
-0.00183717
-0.000118487
1.2008e-05
-0.00182719
-0.000174536
9.74363e-06
-0.00179944
-0.000241741
5.38426e-06
-0.00174103
-2.35746e-06
-0.00161884
-0.000268671
5.2633e-05
7.37094e-06
-0.00203014
3.54838e-05
9.22161e-06
-0.00204882
1.54744e-05
1.06475e-05
-0.00206526
-8.17613e-06
1.16736e-05
-0.00207878
-3.66842e-05
1.22304e-05
-0.002088
-7.20375e-05
1.21576e-05
-0.0020908
-0.000117936
1.12237e-05
-0.0020826
-0.000179411
9.06475e-06
-0.00205423
-0.000258301
4.70717e-06
-0.00198942
-3.86723e-06
-0.00184229
-0.00029764
5.36822e-05
6.05921e-06
-0.00226783
3.70121e-05
7.55787e-06
-0.00228965
1.75245e-05
8.78957e-06
-0.00230895
-5.64197e-06
9.73599e-06
-0.00232533
-3.38076e-05
1.03356e-05
-0.00233742
-6.91479e-05
1.04162e-05
-0.00234288
-0.000116049
9.78244e-06
-0.00233683
-0.000181492
8.12301e-06
-0.00230889
-0.000271034
4.5505e-06
-0.00223945
-4.24543e-06
-0.00206821
-0.00032317
5.23895e-05
3.55309e-06
-0.00250214
3.67426e-05
4.40552e-06
-0.00252617
1.83638e-05
5.21981e-06
-0.0025475
-3.79922e-06
5.88132e-06
-0.00256613
-3.1329e-05
6.40372e-06
-0.00258101
-6.65589e-05
6.63691e-06
-0.00258984
-0.000114075
6.48323e-06
-0.00258732
-0.000182217
5.72404e-06
-0.00256166
-0.000280791
3.91248e-06
-0.00248914
-3.26397e-06
-0.00229383
-0.000346978
5.0027e-05
-0.00272275
3.55498e-05
-0.00274891
1.85779e-05
-0.00277241
-2.02248e-06
-0.00279299
-2.78251e-05
-0.00280945
-6.14459e-05
-0.00281963
-0.000107789
-0.00281919
-0.00017629
-0.00279672
-0.000280718
-0.00272468
-0.00250924
-0.000365202
3.95773e-06
4.93682e-06
-0.000578989
-1.0291e-05
5.27542e-06
-0.000579635
-2.50523e-05
5.48322e-06
-0.000579176
-3.99073e-05
5.56331e-06
-0.00057754
-5.42446e-05
5.49713e-06
-0.000574619
-6.71558e-05
5.25072e-06
-0.000570311
-7.72928e-05
4.78206e-06
-0.000564622
-8.26639e-05
4.04734e-06
-0.000557838
-8.01199e-05
3.01563e-06
-0.00055061
1.7474e-06
-0.000543078
-6.52433e-05
1.13632e-05
7.67407e-06
-0.00081933
-4.05276e-06
8.44869e-06
-0.000821262
-2.06498e-05
8.94146e-06
-0.000821626
-3.80674e-05
9.16556e-06
-0.000820194
-5.57638e-05
9.09817e-06
-0.000816619
-7.28115e-05
8.6818e-06
-0.000810466
-8.76122e-05
7.84518e-06
-0.00080127
-9.74792e-05
6.52112e-06
-0.000788685
-9.78244e-05
4.68278e-06
-0.000772671
2.47526e-06
-0.000754181
-8.11139e-05
2.00391e-05
8.66758e-06
-0.00106036
4.22546e-06
9.88078e-06
-0.00106414
-1.3249e-05
1.07099e-05
-0.00106598
-3.22624e-05
1.11663e-05
-0.00106549
-5.25971e-05
1.12148e-05
-0.00106216
-7.37072e-05
1.07734e-05
-0.00105523
-9.41883e-05
9.7282e-06
-0.00104364
-0.00011094
7.94324e-06
-0.00102619
-0.000117645
5.30184e-06
-0.00100186
1.93309e-06
-0.000970953
-0.000101033
2.90629e-05
8.9006e-06
-0.00129941
1.27071e-05
1.04836e-05
-0.00130586
-5.7929e-06
1.16154e-05
-0.00131011
-2.65696e-05
1.23124e-05
-0.00131162
-4.96337e-05
1.2503e-05
-0.00130961
-7.48043e-05
1.20726e-05
-0.00130289
-0.000101041
1.08541e-05
-0.00128961
-0.000125259
8.62815e-06
-0.00126736
-0.000140078
5.1504e-06
-0.00123352
5.12604e-07
-0.00118675
-0.000126051
3.70409e-05
8.78113e-06
-0.00153898
2.01963e-05
1.06133e-05
-0.00154853
8.26949e-07
1.1955e-05
-0.00155573
-2.1377e-05
1.2827e-05
-0.0015599
-4.66773e-05
1.31315e-05
-0.00155992
-7.52862e-05
1.27193e-05
-0.00155421
-0.000106688
1.13625e-05
-0.00154004
-0.000138215
8.74749e-06
-0.00151343
-0.000162098
4.45047e-06
-0.00146963
-1.54495e-06
-0.00140429
-0.000152489
4.32466e-05
8.34008e-06
-0.00177711
2.61001e-05
1.02813e-05
-0.00179006
6.17464e-06
1.17241e-05
-0.00180047
-1.69971e-05
1.26959e-05
-0.00180761
-4.39571e-05
1.30881e-05
-0.00181005
-7.52916e-05
1.2725e-05
-0.00180584
-0.000111121
1.13287e-05
-0.00179133
-0.000149541
8.49916e-06
-0.00176077
-0.000183025
3.60342e-06
-0.0017067
-3.58029e-06
-0.00162046
-0.000179372
4.74339e-05
7.61209e-06
-0.00201459
3.02288e-05
9.4568e-06
-0.00203079
1.01365e-05
1.08605e-05
-0.00204431
-1.34468e-05
1.18433e-05
-0.00205434
-4.1334e-05
1.23018e-05
-0.00205933
-7.44843e-05
1.20388e-05
-0.00205696
-0.000113748
1.07488e-05
-0.00204275
-0.000158317
7.97556e-06
-0.00200914
-0.000201607
2.88531e-06
-0.00194541
-5.26278e-06
-0.00183703
-0.000205188
4.90601e-05
6.21187e-06
-0.0022519
3.22476e-05
7.71708e-06
-0.0022711
1.25515e-05
8.93124e-06
-0.00228733
-1.07678e-05
9.84258e-06
-0.00230001
-3.8747e-05
1.03697e-05
-0.00230751
-7.26907e-05
1.03143e-05
-0.00230722
-0.000114214
9.39958e-06
-0.00229396
-0.000163894
7.16001e-06
-0.0022584
-0.000216982
2.71786e-06
-0.00218619
-5.8067e-06
-0.0020553
-0.000229352
4.83311e-05
3.67846e-06
-0.00248579
3.24619e-05
4.53745e-06
-0.00250712
1.38225e-05
5.3405e-06
-0.00252527
-8.49932e-06
5.96965e-06
-0.00253993
-3.58938e-05
6.43285e-06
-0.00254968
-7.00637e-05
6.57363e-06
-0.00255193
-0.000113227
6.24819e-06
-0.002541
-0.000167164
5.08015e-06
-0.00250565
-0.00022943
2.44615e-06
-0.00242661
-4.60401e-06
-0.0022724
-0.000252059
4.64464e-05
-0.00270626
3.16506e-05
-0.00272958
1.43453e-05
-0.00274977
-6.47081e-06
-0.0027662
-3.21658e-05
-0.00277732
-6.47192e-05
-0.0027805
-0.000107145
-0.00277051
-0.000162916
-0.00273587
-0.000231876
-0.00265327
-0.00247754
-0.000268181
2.51292e-06
4.398e-06
-0.000573776
-7.61422e-06
4.66686e-06
-0.000574174
-1.78432e-05
4.79949e-06
-0.000573747
-2.77097e-05
4.80112e-06
-0.000572475
-3.66446e-05
4.66202e-06
-0.000570347
-4.39468e-05
4.36577e-06
-0.000567374
-4.87829e-05
3.89777e-06
-0.000563684
-5.01941e-05
3.24857e-06
-0.000559676
-4.69672e-05
2.42146e-06
-0.000556259
1.47854e-06
-0.000554085
-3.74379e-05
7.96346e-06
7.07952e-06
-0.000810832
-4.2673e-06
7.73847e-06
-0.000812103
-1.71492e-05
8.1107e-06
-0.000812056
-3.01838e-05
8.21088e-06
-0.000810569
-4.26851e-05
8.02344e-06
-0.000807479
-5.36741e-05
7.51113e-06
-0.000802623
-6.17897e-05
6.63834e-06
-0.000795895
-6.52539e-05
5.39359e-06
-0.000787366
-6.18762e-05
3.82619e-06
-0.000777454
2.13552e-06
-0.000767208
-4.95056e-05
1.53675e-05
8.31528e-06
-0.00104932
1.66072e-06
9.38631e-06
-0.00105208
-1.32163e-05
1.00658e-05
-0.00105306
-2.88686e-05
1.03577e-05
-0.00105198
-4.47242e-05
1.02307e-05
-0.00104851
-5.98293e-05
9.61576e-06
-0.00104223
-7.25782e-05
8.43718e-06
-0.00103269
-8.04027e-05
6.63823e-06
-0.00101961
-7.94478e-05
4.23195e-06
-0.00100322
1.48645e-06
-0.00098501
-6.47414e-05
2.35379e-05
8.75754e-06
-0.00128678
8.63376e-06
1.02038e-05
-0.00129177
-7.99708e-06
1.11846e-05
-0.0012946
-2.61599e-05
1.17031e-05
-0.0012948
-4.54255e-05
1.16877e-05
-0.0012918
-6.49536e-05
1.10298e-05
-0.00128477
-8.30268e-05
9.59708e-06
-0.0012727
-9.64219e-05
7.26045e-06
-0.00125458
-9.96547e-05
3.95323e-06
-0.00123001
1.89878e-08
-0.00120078
-8.41586e-05
3.11962e-05
8.79239e-06
-0.00152527
1.53264e-05
1.05106e-05
-0.00153297
-2.73109e-06
1.17197e-05
-0.00153821
-2.29861e-05
1.24266e-05
-0.00154037
-4.52038e-05
1.25217e-05
-0.00153854
-6.87807e-05
1.1854e-05
-0.00153146
-9.20915e-05
1.02207e-05
-0.00151735
-0.000111522
7.39551e-06
-0.00149414
-0.000120169
3.1725e-06
-0.0014602
-2.0801e-06
-0.00141716
-0.000105201
3.74594e-05
8.43593e-06
-0.00176258
2.095e-05
1.02954e-05
-0.00177334
1.89226e-06
1.16356e-05
-0.00178133
-1.99022e-05
1.24722e-05
-0.00178586
-4.4453e-05
1.26725e-05
-0.00178565
-7.14697e-05
1.20516e-05
-0.00177902
-9.96065e-05
1.0339e-05
-0.00176331
-0.000125169
7.20228e-06
-0.00173502
-0.000140209
2.25107e-06
-0.00169074
-4.19312e-06
-0.00163127
-0.000127282
4.19665e-05
7.71521e-06
-0.00199944
2.51611e-05
9.51045e-06
-0.0020132
5.61263e-06
1.08425e-05
-0.00202396
-1.70438e-05
1.17245e-05
-0.00203094
-4.31292e-05
1.20254e-05
-0.00203259
-7.27138e-05
1.15324e-05
-0.00202686
-0.000104917
9.92289e-06
-0.00201014
-0.00013632
6.76574e-06
-0.0019773
-0.000158446
1.4567e-06
-0.00192249
-5.99598e-06
-0.00184476
-0.000148917
4.40542e-05
6.26499e-06
-0.00223618
2.74841e-05
7.74727e-06
-0.00225277
8.11737e-06
8.9074e-06
-0.00226603
-1.45909e-05
9.73625e-06
-0.00227532
-4.12513e-05
1.01288e-05
-0.00227895
-7.23262e-05
9.87559e-06
-0.00227448
-0.000107554
8.6659e-06
-0.00225747
-0.00014418
6.00811e-06
-0.00222101
-0.000173964
1.19244e-06
-0.00215615
-6.67334e-06
-0.00205898
-0.000169602
4.39036e-05
3.73541e-06
-0.00246956
2.81409e-05
4.58869e-06
-0.0024882
9.68539e-06
5.36415e-06
-0.00250328
-1.21658e-05
5.93947e-06
-0.00251428
-3.84083e-05
6.30815e-06
-0.00251961
-7.00165e-05
6.3074e-06
-0.00251675
-0.00010747
5.76241e-06
-0.00250065
-0.000148844
4.25067e-06
-0.00246251
-0.000186537
1.20573e-06
-0.00238893
-5.30109e-06
-0.00227114
-0.000189175
4.24773e-05
-0.00268971
2.76773e-05
-0.00271019
1.04352e-05
-0.00272716
-1.0065e-05
-0.00273976
-3.48335e-05
-0.00274625
-6.51095e-05
-0.00274392
-0.000102156
-0.0027277
-0.000145719
-0.00268805
-0.000189453
-0.00260833
-0.00247059
-0.00020171
1.82089e-06
3.77632e-06
-0.000571025
-5.01921e-06
3.98547e-06
-0.00057132
-1.18076e-05
4.06719e-06
-0.000571025
-1.81582e-05
4.02829e-06
-0.000570153
-2.36485e-05
3.86738e-06
-0.000568724
-2.78232e-05
3.58126e-06
-0.000566781
-3.02252e-05
3.17247e-06
-0.000564454
-3.0444e-05
2.64757e-06
-0.000562104
-2.80756e-05
2.01536e-06
-0.000560642
1.30622e-06
-0.000561122
-2.23454e-05
5.62219e-06
6.30637e-06
-0.000804902
-3.58353e-06
6.8516e-06
-0.000805763
-1.30946e-05
7.12178e-06
-0.000805599
-2.24146e-05
7.13459e-06
-0.000804355
-3.09323e-05
6.88527e-06
-0.000801979
-3.78824e-05
6.35851e-06
-0.00079845
-4.23406e-05
5.54894e-06
-0.000793813
-4.32987e-05
4.4782e-06
-0.000788239
-3.98559e-05
3.22119e-06
-0.000782103
1.9516e-06
-0.000776082
-3.16273e-05
1.16863e-05
7.71639e-06
-0.00104056
3.7153e-07
8.63255e-06
-0.00104255
-1.1702e-05
9.16551e-06
-0.00104303
-2.40275e-05
9.31884e-06
-0.00104184
-3.59327e-05
9.07058e-06
-0.00103879
-4.64642e-05
8.37464e-06
-0.00103371
-5.43028e-05
7.19589e-06
-0.0010265
-5.77347e-05
5.53763e-06
-0.00101724
-5.47677e-05
3.48195e-06
-0.00100645
1.29833e-06
-0.000995326
-4.37989e-05
1.87741e-05
8.35921e-06
-0.001276
5.76584e-06
9.64315e-06
-0.00127978
-8.54355e-06
1.04608e-05
-0.00128158
-2.37451e-05
1.08078e-05
-0.00128109
-3.91851e-05
1.0623e-05
-0.00127791
-5.38179e-05
9.81977e-06
-0.00127158
-6.5977e-05
8.31435e-06
-0.00126166
-7.31652e-05
6.06312e-06
-0.00124792
-7.20262e-05
3.11952e-06
-0.00123079
-1.24835e-07
-0.0012122
-5.91808e-05
2.58249e-05
8.5645e-06
-0.001513
1.14238e-05
1.01327e-05
-0.00151906
-4.76276e-06
1.11835e-05
-0.00152274
-2.24858e-05
1.17115e-05
-0.00152355
-4.11936e-05
1.16116e-05
-0.00152082
-5.98817e-05
1.07496e-05
-0.0015137
-7.66815e-05
8.9741e-06
-0.00150121
-8.83871e-05
6.16135e-06
-0.00148253
-9.01379e-05
2.28004e-06
-0.00145761
-2.18261e-06
-0.00142913
-7.61108e-05
3.18764e-05
8.32316e-06
-0.00174914
1.64881e-05
1.006e-05
-0.00175788
-1.09892e-06
1.1262e-05
-0.00176382
-2.08108e-05
1.19327e-05
-0.00176637
-4.22653e-05
1.19336e-05
-0.00176451
-6.46258e-05
1.10902e-05
-0.001757
-8.59971e-05
9.17635e-06
-0.00174214
-0.000102648
5.96746e-06
-0.00171817
-0.000108272
1.29636e-06
-0.00168413
-4.29468e-06
-0.00164329
-9.41423e-05
3.64879e-05
7.65411e-06
-0.00198511
2.05342e-05
9.3611e-06
-0.00199655
2.11558e-06
1.05833e-05
-0.00200487
-1.88758e-05
1.13248e-05
-0.00200934
-4.23161e-05
1.14412e-05
-0.00200866
-6.76371e-05
1.07248e-05
-0.00200117
-9.31198e-05
8.8811e-06
-0.00198436
-0.000114772
5.56995e-06
-0.00195525
-0.000125053
4.34282e-07
-0.00191135
-6.12935e-06
-0.00185615
-0.000111825
3.88855e-05
6.19823e-06
-0.00222107
2.29597e-05
7.62971e-06
-0.00223511
4.45654e-06
8.70698e-06
-0.00224565
-1.69316e-05
9.4207e-06
-0.00225203
-4.13724e-05
9.64829e-06
-0.00225272
-6.8645e-05
9.18389e-06
-0.00224567
-9.74186e-05
7.72538e-06
-0.00222754
-0.000123791
4.83773e-06
-0.00219391
-0.00013949
4.76112e-08
-0.00214006
-6.89319e-06
-0.00206902
-0.000128685
3.92415e-05
3.71516e-06
-0.00245381
2.39373e-05
4.54758e-06
-0.00246981
6.12267e-06
5.2793e-06
-0.00248203
-1.4654e-05
5.7831e-06
-0.00248987
-3.89248e-05
6.03759e-06
-0.00249173
-6.69683e-05
5.87985e-06
-0.0024854
-9.81219e-05
5.12855e-06
-0.0024669
-0.000128938
3.3853e-06
-0.00243025
-0.000150683
2.46225e-07
-0.00236738
-5.43243e-06
-0.00227928
-0.000143999
3.82252e-05
-0.00267348
2.37532e-05
-0.00269117
6.98895e-06
-0.00270512
-1.26606e-05
-0.00271433
-3.57915e-05
-0.00271708
-6.29411e-05
-0.00271089
-9.40453e-05
-0.00269147
-0.000126867
-0.00265184
-0.000153208
-0.00258174
-0.00247682
-0.000152406
1.44416e-06
3.15099e-06
-0.000569921
-3.01545e-06
3.31293e-06
-0.000570173
-7.39967e-06
3.36487e-06
-0.000570006
-1.14261e-05
3.31417e-06
-0.000569441
-1.48107e-05
3.16489e-06
-0.000568504
-1.72772e-05
2.92106e-06
-0.000567236
-1.85873e-05
2.59303e-06
-0.000565737
-1.85787e-05
2.1916e-06
-0.000564305
-1.71388e-05
1.71987e-06
-0.000563802
1.17337e-06
-0.000565632
-1.38016e-05
3.99963e-06
5.45011e-06
-0.000801083
-2.64212e-06
5.8925e-06
-0.000801701
-9.40463e-06
6.08536e-06
-0.000801557
-1.58626e-05
6.04865e-06
-0.000800632
-2.15406e-05
5.78681e-06
-0.000798923
-2.59084e-05
5.30039e-06
-0.000796461
-2.8403e-05
4.6027e-06
-0.000793328
-2.85017e-05
3.72969e-06
-0.000789678
-2.58753e-05
2.75552e-06
-0.000785765
1.81136e-06
-0.000781963
-2.06322e-05
8.83296e-06
6.94541e-06
-0.00103398
-1.12952e-07
7.7076e-06
-0.00103542
-9.51998e-06
8.11101e-06
-0.00103565
-1.8887e-05
8.16246e-06
-0.00103459
-2.75952e-05
7.85143e-06
-0.00103215
-3.48611e-05
7.1547e-06
-0.0010283
-3.97383e-05
6.06782e-06
-0.00102308
-4.11887e-05
4.62766e-06
-0.00101669
-3.82675e-05
2.93875e-06
-0.00100955
1.22582e-06
-0.00100244
-3.05691e-05
1.47683e-05
7.74985e-06
-0.0012672
3.86203e-06
8.85957e-06
-0.00127002
-7.97454e-06
9.51772e-06
-0.00127115
-2.02414e-05
9.71903e-06
-0.00127038
-3.2237e-05
9.4187e-06
-0.00126748
-4.29716e-05
8.55813e-06
-0.00126225
-5.10951e-05
7.09859e-06
-0.00125457
-5.49056e-05
5.05639e-06
-0.00124454
-5.25566e-05
2.54638e-06
-0.00123274
-7.72992e-08
-0.00122059
-4.28671e-05
2.10268e-05
8.11739e-06
-0.00150243
8.42314e-06
9.51107e-06
-0.0015071
-5.56513e-06
1.03933e-05
-0.00150963
-2.05222e-05
1.07508e-05
-0.00150963
-3.57527e-05
1.04952e-05
-0.00150666
-5.01612e-05
9.52137e-06
-0.00150025
-6.20542e-05
7.73382e-06
-0.00148996
-6.90076e-05
5.09459e-06
-0.00147561
-6.79957e-05
1.68462e-06
-0.00145776
-2.02142e-06
-0.00143863
-5.6558e-05
2.665e-05
8.00517e-06
-0.00173712
1.27639e-05
9.58681e-06
-0.00174407
-2.92315e-06
1.06292e-05
-0.00174837
-2.01298e-05
1.11252e-05
-0.00174954
-3.82401e-05
1.09478e-05
-0.00174686
-5.61719e-05
9.94851e-06
-0.0017395
-7.20094e-05
7.96185e-06
-0.00172653
-8.26649e-05
4.86863e-06
-0.00170729
-8.38037e-05
6.7003e-07
-0.00168198
-4.05399e-06
-0.00165377
-7.12974e-05
3.11666e-05
7.42279e-06
-0.00197194
1.64556e-05
9.00793e-06
-0.00198126
-3.59267e-07
1.00932e-05
-0.00198752
-1.91575e-05
1.06738e-05
-0.00199009
-3.94981e-05
1.06085e-05
-0.00198798
-6.04441e-05
9.71224e-06
-0.00197999
-8.00288e-05
7.74709e-06
-0.00196456
-9.46475e-05
4.48348e-06
-0.00194025
-9.86246e-05
-2.25149e-07
-0.00190648
-5.83083e-06
-0.00186733
-8.56669e-05
3.37139e-05
6.00243e-06
-0.00220688
1.88041e-05
7.35637e-06
-0.00221855
1.62939e-06
8.32848e-06
-0.00222671
-1.78782e-05
8.90797e-06
-0.00223075
-3.95198e-05
8.96584e-06
-0.00222943
-6.26129e-05
8.3151e-06
-0.00222118
-8.53546e-05
6.69557e-06
-0.00220375
-0.000103885
3.76962e-06
-0.00217466
-0.000111436
-7.09198e-07
-0.00213203
-6.62804e-06
-0.00208048
-9.91779e-05
3.4473e-05
3.61221e-06
-0.00243887
1.99698e-05
4.40671e-06
-0.00245236
3.21727e-06
5.07974e-06
-0.00246203
-1.59782e-05
5.49953e-06
-0.00246727
-3.77229e-05
5.63456e-06
-0.00246666
-6.17344e-05
5.3304e-06
-0.00245841
-8.66921e-05
4.42333e-06
-0.00243967
-0.000108906
2.58354e-06
-0.00240685
-0.000120705
-4.11654e-07
-0.00235588
-5.17355e-06
-0.00229092
-0.000110517
3.38048e-05
-0.00265794
1.99884e-05
-0.00267294
4.09782e-06
-0.00268415
-1.4223e-05
-0.00269051
-3.5179e-05
-0.00269049
-5.87346e-05
-0.002682
-8.39753e-05
-0.00266181
-0.000107907
-0.00262533
-0.000122899
-0.00256716
-0.00248888
-0.000116016
1.18711e-06
2.57396e-06
-0.000569798
-1.65428e-06
2.69995e-06
-0.000570032
-4.44271e-06
2.73649e-06
-0.000569954
-6.98488e-06
2.69047e-06
-0.000569589
-9.09838e-06
2.56869e-06
-0.000568959
-1.06188e-05
2.37809e-06
-0.000568093
-1.14221e-05
2.13103e-06
-0.000567065
-1.14487e-05
1.83699e-06
-0.000566115
-1.0682e-05
1.49079e-06
-0.00056606
1.05768e-06
-0.00056858
-8.7921e-06
2.85417e-06
4.59055e-06
-0.000798842
-1.77468e-06
4.94464e-06
-0.000799317
-6.44445e-06
5.08318e-06
-0.000799234
-1.08227e-05
5.02659e-06
-0.00079859
-1.4564e-05
4.78537e-06
-0.000797399
-1.73178e-05
4.36897e-06
-0.000795699
-1.87523e-05
3.79886e-06
-0.000793561
-1.86074e-05
3.11292e-06
-0.000791099
-1.67887e-05
2.37459e-06
-0.000788467
1.67797e-06
-0.000785858
-1.35147e-05
6.63677e-06
6.08333e-06
-0.00102929
-1.84493e-07
6.70217e-06
-0.00103035
-7.2694e-06
6.99921e-06
-0.00103048
-1.41816e-05
6.98493e-06
-0.00102963
-2.04178e-05
6.65909e-06
-0.00102779
-2.53978e-05
6.01642e-06
-0.00102497
-2.84924e-05
5.07152e-06
-0.00102126
-2.9099e-05
3.87427e-06
-0.00101684
-2.67802e-05
2.52471e-06
-0.00101202
1.19518e-06
-0.00100724
-2.14957e-05
1.14617e-05
6.99132e-06
-0.00126033
2.64345e-06
7.92727e-06
-0.00126243
-6.8101e-06
8.44089e-06
-0.00126314
-1.6397e-05
8.53032e-06
-0.00126234
-2.54759e-05
8.16829e-06
-0.00125991
-3.32293e-05
7.32364e-06
-0.00125581
-3.8666e-05
5.99203e-06
-0.00125005
-4.07e-05
4.2234e-06
-0.00124285
-3.83617e-05
2.15011e-06
-0.00123471
6.20886e-08
-0.00122651
-3.13098e-05
1.68396e-05
7.49126e-06
-0.00149365
6.17585e-06
8.69845e-06
-0.00149721
-5.51161e-06
9.41534e-06
-0.00149892
-1.77324e-05
9.62622e-06
-0.0014985
-2.97782e-05
9.26502e-06
-0.00149571
-4.06484e-05
8.26012e-06
-0.00149032
-4.89834e-05
6.56598e-06
-0.00148219
-5.30949e-05
4.20342e-06
-0.00147148
-5.12109e-05
1.30745e-06
-0.0014588
-1.71386e-06
-0.00144571
-4.23547e-05
2.1884e-05
7.50376e-06
-0.0017267
9.74204e-06
8.90822e-06
-0.00173213
-3.80993e-06
9.78343e-06
-0.00173519
-1.83534e-05
1.01153e-05
-0.00173548
-3.31797e-05
9.79896e-06
-0.00173256
-4.71914e-05
8.72166e-06
-0.00172595
-5.87195e-05
6.77998e-06
-0.00171522
-6.54495e-05
3.93873e-06
-0.0017003
-6.46221e-05
3.01612e-07
-0.0016818
-3.60291e-06
-0.00166213
-5.43662e-05
2.61394e-05
7.02942e-06
-0.00196019
1.29623e-05
8.46633e-06
-0.00196764
-1.92783e-06
9.40031e-06
-0.00197224
-1.82335e-05
9.8186e-06
-0.00197349
-3.53397e-05
9.59672e-06
-0.00197067
-5.2172e-05
8.58482e-06
-0.00196302
-6.68729e-05
6.6136e-06
-0.00194969
-7.6554e-05
3.55678e-06
-0.00193018
-7.73112e-05
-5.84758e-07
-0.00190483
-5.25049e-06
-0.00187702
-6.59701e-05
2.86862e-05
5.67711e-06
-0.00219391
1.50983e-05
6.92969e-06
-0.00220342
-3.93985e-07
7.78224e-06
-0.0022096
-1.76496e-05
8.22283e-06
-0.0022119
-3.62161e-05
8.12774e-06
-0.0022094
-5.51675e-05
7.34036e-06
-0.00220098
-7.26412e-05
5.66267e-06
-0.00218533
-8.53417e-05
2.86488e-06
-0.00216127
-8.83099e-05
-1.1222e-06
-0.00212852
-6.02808e-06
-0.00209129
-7.67206e-05
2.97332e-05
3.42588e-06
-0.00242504
1.63352e-05
4.16558e-06
-0.0024362
9.97104e-07
4.76798e-06
-0.00244368
-1.62425e-05
5.09831e-06
-0.0024469
-3.51619e-05
5.12179e-06
-0.00244473
-5.51039e-05