/*--------------------------------*- C++ -*----------------------------------*\
| =========                 |                                                 |
| \\      /  F ield         | foam-extend: Open Source CFD                    |
|  \\    /   O peration     | Version:     4.0                                |
|   \\  /    A nd           | Web:         http://www.foam-extend.org         |
|    \\/     M anipulation  |                                                 |
\*---------------------------------------------------------------------------*/
FoamFile
{
    version     2.0;
    format      ascii;
    class       volScalarField;
    location    "2000";
    object      rho;
}
// * * * * * * * * * * * * * * * * * * * * * * * * * * * * * * * * * * * * * //

dimensions      [1 -3 0 0 0 0 0];

internalField   nonuniform List<scalar> 
34480
(
1.3479
1.34646
1.34589
1.34663
1.34924
1.35439
1.36272
1.37236
1.37581
1.39539
1.3421
1.33928
1.33705
1.3357
1.33594
1.33871
1.34532
1.35552
1.3598
1.37521
1.33775
1.3337
1.33007
1.327
1.325
1.3252
1.32933
1.33819
1.3411
1.34929
1.33467
1.32939
1.3245
1.31995
1.31601
1.31379
1.31532
1.32216
1.32294
1.32308
1.33265
1.32634
1.32053
1.31485
1.30946
1.30527
1.3045
1.30916
1.30757
1.29999
1.33193
1.32493
1.31848
1.31203
1.30562
1.29996
1.29734
1.29995
1.29601
1.28211
1.33005
1.32257
1.31578
1.30893
1.30199
1.29545
1.29152
1.2923
1.2861
1.26668
1.33018
1.32261
1.31575
1.3089
1.30194
1.29516
1.29052
1.28977
1.28122
1.25596
1.3271
1.31955
1.31279
1.30634
1.30016
1.29419
1.28971
1.2878
1.2768
1.24571
1.32449
1.31674
1.30976
1.30326
1.2975
1.29256
1.2892
1.28784
1.2759
1.23889
1.36387
1.36281
1.36262
1.3636
1.36612
1.37058
1.37772
1.38848
1.40394
1.42532
1.35596
1.35379
1.35238
1.35195
1.35304
1.35637
1.36305
1.37453
1.39281
1.42306
1.35016
1.34683
1.34418
1.34232
1.34169
1.34319
1.34833
1.35924
1.37831
1.41427
1.34615
1.34156
1.33762
1.33434
1.332
1.33151
1.33458
1.34403
1.36282
1.40274
1.34371
1.33799
1.33297
1.32849
1.32471
1.3224
1.32338
1.33094
1.34867
1.39081
1.3428
1.33623
1.33036
1.32494
1.32001
1.31618
1.31526
1.32073
1.33678
1.37918
1.34095
1.33372
1.32726
1.32119
1.31547
1.31054
1.30808
1.31149
1.32542
1.36659
1.34114
1.33358
1.32677
1.32037
1.31425
1.30867
1.30509
1.30657
1.31792
1.35666
1.33842
1.33066
1.32361
1.3171
1.31107
1.30561
1.30168
1.30166
1.31013
1.34729
1.3356
1.32774
1.32048
1.31377
1.3077
1.30252
1.29896
1.29888
1.3055
1.34379
1.37523
1.37483
1.3753
1.37687
1.37973
1.38404
1.39001
1.39782
1.4076
1.41885
1.36656
1.36533
1.36498
1.36578
1.36804
1.37215
1.3787
1.38824
1.4014
1.41883
1.35946
1.35728
1.35596
1.3557
1.35692
1.3602
1.36644
1.37679
1.39251
1.41564
1.35423
1.35092
1.3485
1.34707
1.34704
1.34915
1.35449
1.3648
1.38221
1.41053
1.3508
1.34643
1.34301
1.34052
1.33932
1.34019
1.3444
1.35414
1.37252
1.40519
1.34904
1.34383
1.33957
1.33621
1.334
1.33373
1.33675
1.34561
1.36439
1.4005
1.34661
1.3407
1.3358
1.33177
1.32879
1.32759
1.32956
1.33736
1.35605
1.39455
1.34641
1.34009
1.33473
1.33025
1.32676
1.32487
1.32593
1.33255
1.35047
1.39021
1.34395
1.3373
1.33155
1.32671
1.32292
1.32076
1.32137
1.32708
1.34355
1.38466
1.34111
1.33433
1.32834
1.32322
1.31914
1.31674
1.31721
1.32279
1.33787
1.38117
1.382
1.38184
1.38233
1.3836
1.3857
1.38867
1.39253
1.39727
1.40273
1.40809
1.37428
1.37354
1.37359
1.37461
1.37676
1.3802
1.38512
1.39166
1.39975
1.40844
1.36713
1.36564
1.36498
1.36533
1.36699
1.37032
1.37578
1.38385
1.39482
1.40766
1.36148
1.35905
1.35751
1.35701
1.35791
1.36073
1.36619
1.3752
1.38869
1.40592
1.35759
1.3542
1.3518
1.35045
1.3505
1.35263
1.35774
1.3672
1.38278
1.40428
1.35536
1.35116
1.34799
1.34586
1.34513
1.34651
1.3511
1.36065
1.37786
1.40327
1.35258
1.34768
1.34388
1.34113
1.33973
1.34042
1.34444
1.35381
1.37222
1.40106
1.35211
1.34675
1.34246
1.33923
1.33732
1.33743
1.34087
1.34979
1.36877
1.40042
1.34962
1.34392
1.33923
1.33561
1.33333
1.33311
1.33619
1.3447
1.3635
1.39798
1.34665
1.34082
1.3359
1.33204
1.32948
1.32899
1.33178
1.34006
1.35828
1.39578
1.38571
1.38565
1.38603
1.38691
1.38828
1.39013
1.39243
1.39512
1.39819
1.4013
1.37963
1.3792
1.37939
1.38032
1.38203
1.38455
1.38788
1.39194
1.39655
1.40111
1.37311
1.37211
1.37184
1.37242
1.37403
1.37683
1.38098
1.38655
1.39343
1.40066
1.36754
1.36579
1.36487
1.36491
1.36617
1.36896
1.37362
1.38047
1.38967
1.40003
1.36353
1.36095
1.35933
1.35874
1.3595
1.36205
1.36693
1.37476
1.38617
1.39986
1.36104
1.35773
1.35544
1.35424
1.35445
1.35664
1.36153
1.37007
1.38352
1.40056
1.35808
1.35409
1.35122
1.34947
1.34918
1.35097
1.35574
1.36475
1.37998
1.40029
1.35743
1.35298
1.34963
1.34743
1.3467
1.3481
1.35265
1.36183
1.37837
1.40169
1.35495
1.35015
1.34643
1.34386
1.34279
1.3439
1.3483
1.35755
1.37475
1.40112
1.35193
1.347
1.34306
1.34027
1.33895
1.33982
1.34398
1.35315
1.37037
1.39975
1.38736
1.38733
1.38758
1.38811
1.38892
1.38998
1.39126
1.39274
1.39451
1.39655
1.38305
1.3828
1.38299
1.38367
1.38487
1.38657
1.38869
1.39113
1.39372
1.39614
1.37755
1.37689
1.37681
1.37739
1.37871
1.38082
1.38373
1.38737
1.39153
1.39562
1.37244
1.3712
1.37066
1.37095
1.37221
1.37459
1.3782
1.38307
1.38906
1.39529
1.3686
1.36667
1.3656
1.36547
1.3665
1.36896
1.37308
1.37907
1.38698
1.39563
1.36608
1.36351
1.36189
1.36131
1.36202
1.36442
1.3689
1.37586
1.38568
1.39696
1.36307
1.35989
1.35777
1.35674
1.35712
1.35938
1.36407
1.37182
1.38348
1.39748
1.36235
1.35872
1.35617
1.35476
1.35482
1.35687
1.36163
1.36995
1.38316
1.3998
1.35989
1.35593
1.35304
1.35132
1.35109
1.35297
1.35777
1.36651
1.38082
1.40012
1.35691
1.3528
1.34971
1.34779
1.34737
1.34907
1.35375
1.36259
1.3773
1.39908
1.38781
1.38779
1.38793
1.38823
1.38868
1.38926
1.38995
1.39077
1.39186
1.3934
1.38506
1.38491
1.38505
1.38551
1.38628
1.38735
1.38864
1.39008
1.39156
1.3929
1.38071
1.38027
1.38026
1.38074
1.38173
1.38323
1.38519
1.38751
1.39002
1.39238
1.37626
1.37538
1.37508
1.37543
1.37651
1.37838
1.38103
1.38438
1.38822
1.39202
1.3728
1.37137
1.37068
1.37079
1.37183
1.37395
1.37721
1.38159
1.38694
1.39245
1.37042
1.36846
1.36733
1.36714
1.36805
1.3703
1.37408
1.37945
1.3864
1.39387
1.36749
1.36499
1.36346
1.36293
1.36367
1.36597
1.37014
1.37641
1.38498
1.39457
1.3668
1.36389
1.36199
1.36116
1.36169
1.36396
1.3684
1.3754
1.38545
1.39717
1.36439
1.36117
1.35898
1.3579
1.35823
1.36043
1.36505
1.37265
1.3839
1.39777
1.3615
1.35814
1.35576
1.35453
1.35471
1.35681
1.36141
1.36925
1.38108
1.39681
1.38762
1.38761
1.38768
1.38784
1.38808
1.38838
1.38875
1.38921
1.38993
1.39124
1.3861
1.38601
1.3861
1.38638
1.38685
1.38749
1.38825
1.38908
1.38993
1.39067
1.38287
1.38257
1.38258
1.38293
1.38362
1.38463
1.38591
1.38737
1.3889
1.3903
1.37913
1.37852
1.37835
1.37867
1.37951
1.38089
1.38276
1.38502
1.38749
1.38985
1.37617
1.37514
1.37469
1.37489
1.3758
1.37749
1.37995
1.38308
1.38667
1.39022
1.37405
1.37259
1.37182
1.37183
1.37274
1.37467
1.37768
1.38169
1.38653
1.39149
1.3713
1.36938
1.36829
1.36808
1.36893
1.37103
1.37451
1.37938
1.38554
1.39208
1.37071
1.36844
1.36705
1.36663
1.36738
1.36956
1.37341
1.37903
1.38645
1.39462
1.36838
1.36582
1.3642
1.36358
1.36422
1.36642
1.37053
1.37678
1.38531
1.39513
1.36564
1.36295
1.36117
1.36043
1.36097
1.36314
1.36731
1.37386
1.38297
1.39414
1.38716
1.38716
1.38719
1.38727
1.3874
1.38755
1.38775
1.38801
1.38853
1.38972
1.38652
1.38647
1.38651
1.38668
1.38695
1.38732
1.38776
1.38823
1.38871
1.38913
1.38427
1.38407
1.38408
1.38431
1.38476
1.38541
1.38623
1.38714
1.38807
1.38891
1.38121
1.3808
1.3807
1.38095
1.38156
1.38253
1.38381
1.38531
1.3869
1.38839
1.3788
1.37807
1.37778
1.37798
1.37872
1.37999
1.38177
1.38395
1.38636
1.38867
1.37701
1.37594
1.37542
1.37553
1.37633
1.37788
1.38016
1.38308
1.38643
1.38974
1.3745
1.37305
1.3723
1.37227
1.37309
1.37486
1.37762
1.38128
1.38565
1.39012
1.37409
1.37235
1.37136
1.37119
1.37199
1.37392
1.37706
1.38141
1.38679
1.39246
1.37184
1.36985
1.36868
1.36838
1.36913
1.37114
1.37458
1.3795
1.38579
1.39266
1.36931
1.3672
1.3659
1.36551
1.36621
1.36824
1.37179
1.37701
1.38381
1.39162
1.38664
1.38664
1.38666
1.3867
1.38676
1.38684
1.38694
1.3871
1.38751
1.38863
1.38658
1.38654
1.38657
1.38666
1.38681
1.38702
1.38727
1.38754
1.38781
1.38804
1.38513
1.385
1.385
1.38515
1.38543
1.38584
1.38634
1.38689
1.38746
1.38797
1.38267
1.3824
1.38233
1.38251
1.38294
1.38359
1.38444
1.38541
1.38642
1.38737
1.3808
1.38028
1.3801
1.38028
1.38083
1.38175
1.38299
1.38447
1.38607
1.38758
1.37935
1.37859
1.37824
1.37838
1.37903
1.38021
1.38188
1.38394
1.38623
1.38845
1.37711
1.37605
1.37553
1.3756
1.37631
1.37772
1.37981
1.38249
1.38555
1.38859
1.37692
1.37563
1.37493
1.37491
1.37566
1.37725
1.37972
1.38297
1.3868
1.3907
1.37478
1.37326
1.37244
1.37233
1.37308
1.37479
1.37753
1.38127
1.3858
1.39055
1.3725
1.37088
1.36995
1.36978
1.37051
1.37227
1.37515
1.37916
1.3841
1.3895
1.38617
1.38617
1.38618
1.3862
1.38623
1.38627
1.38632
1.38642
1.38676
1.38784
1.38644
1.38642
1.38643
1.38648
1.38657
1.38668
1.38682
1.38697
1.38712
1.38725
1.38563
1.38554
1.38554
1.38563
1.3858
1.38605
1.38635
1.38669
1.38703
1.38733
1.38365
1.38347
1.38343
1.38355
1.38383
1.38426
1.38481
1.38543
1.38606
1.38666
1.38227
1.38192
1.3818
1.38194
1.38233
1.38297
1.38381
1.3848
1.38585
1.38682
1.38116
1.38062
1.3804
1.38053
1.38102
1.38188
1.38307
1.38449
1.38603
1.3875
1.37919
1.37843
1.37808
1.37818
1.37876
1.37983
1.38136
1.38326
1.38537
1.38743
1.37925
1.37831
1.37783
1.37789
1.37853
1.37978
1.38163
1.38399
1.38667
1.38932
1.3772
1.37608
1.3755
1.37551
1.37618
1.37756
1.37966
1.38241
1.38561
1.38885
1.37521
1.374
1.37335
1.37332
1.37399
1.37543
1.37766
1.38064
1.38415
1.38784
1.38579
1.38579
1.3858
1.3858
1.38582
1.38584
1.38587
1.38593
1.38622
1.38727
1.38621
1.3862
1.38621
1.38623
1.38628
1.38634
1.38642
1.3865
1.38659
1.38667
1.3859
1.38584
1.38584
1.38589
1.386
1.38614
1.38632
1.38652
1.38672
1.3869
1.38428
1.38416
1.38413
1.38421
1.38439
1.38466
1.38501
1.3854
1.3858
1.38616
1.38332
1.38309
1.38301
1.38311
1.38338
1.38381
1.38437
1.38502
1.38569
1.38632
1.38251
1.38214
1.382
1.3821
1.38246
1.38307
1.38388
1.38485
1.38587
1.38683
1.3808
1.38026
1.38004
1.38013
1.38058
1.38136
1.38245
1.38376
1.38519
1.38656
1.38112
1.38045
1.38014
1.38022
1.38073
1.38167
1.38302
1.38468
1.38651
1.38829
1.37915
1.37833
1.37795
1.378
1.37855
1.37962
1.38117
1.38314
1.38535
1.38754
1.37748
1.3766
1.37616
1.3762
1.37676
1.37789
1.37956
1.3817
1.38413
1.38663
1.38552
1.38552
1.38553
1.38553
1.38554
1.38554
1.38556
1.3856
1.38585
1.38687
1.38595
1.38595
1.38595
1.38597
1.38599
1.38603
1.38607
1.38612
1.38617
1.38621
1.38604
1.38601
1.386
1.38603
1.38609
1.38618
1.38628
1.3864
1.38652
1.38662
1.38465
1.38458
1.38456
1.38461
1.38472
1.38489
1.3851
1.38534
1.38559
1.38582
1.38407
1.38391
1.38386
1.38393
1.38411
1.38439
1.38475
1.38517
1.3856
1.38599
1.3835
1.38325
1.38316
1.38324
1.38349
1.3839
1.38445
1.38508
1.38575
1.38637
1.38202
1.38165
1.3815
1.38158
1.38191
1.38246
1.38321
1.3841
1.38504
1.38595
1.3826
1.38214
1.38193
1.38201
1.3824
1.38308
1.38403
1.38516
1.3864
1.38757
1.38067
1.38009
1.37984
1.37991
1.38034
1.38112
1.38223
1.3836
1.3851
1.38656
1.37937
1.37874
1.37844
1.37851
1.37896
1.3798
1.381
1.3825
1.38415
1.38581
1.38536
1.38537
1.38537
1.38537
1.38537
1.38537
1.38538
1.38541
1.38562
1.38659
1.38569
1.38569
1.3857
1.38571
1.38572
1.38574
1.38577
1.38579
1.38582
1.38585
1.38612
1.3861
1.3861
1.38611
1.38615
1.3862
1.38626
1.38633
1.3864
1.38645
1.38486
1.38481
1.3848
1.38483
1.3849
1.385
1.38513
1.38528
1.38543
1.38557
1.38458
1.38448
1.38445
1.38449
1.38461
1.38479
1.38501
1.38528
1.38554
1.38579
1.38419
1.38403
1.38397
1.38403
1.3842
1.38447
1.38483
1.38524
1.38567
1.38606
1.38292
1.38267
1.38257
1.38264
1.38286
1.38324
1.38374
1.38433
1.38494
1.38553
1.38374
1.38343
1.3833
1.38337
1.38365
1.38413
1.38477
1.38553
1.38635
1.3871
1.38182
1.38141
1.38125
1.38132
1.38163
1.38219
1.38296
1.38389
1.38488
1.38584
1.38091
1.38048
1.38029
1.38036
1.38069
1.3813
1.38213
1.38315
1.38425
1.38533
1.38532
1.38533
1.38533
1.38533
1.38533
1.38532
1.38533
1.38535
1.38552
1.38644
1.38544
1.38544
1.38545
1.38545
1.38546
1.38547
1.38549
1.3855
1.38552
1.38554
1.38618
1.38617
1.38616
1.38617
1.38619
1.38622
1.38626
1.3863
1.38634
1.38637
1.38495
1.38492
1.38492
1.38493
1.38497
1.38503
1.38511
1.3852
1.38529
1.38537
1.38491
1.38485
1.38483
1.38486
1.38493
1.38505
1.38519
1.38535
1.38551
1.38566
1.38466
1.38456
1.38452
1.38456
1.38467
1.38485
1.38507
1.38533
1.3856
1.38585
1.38356
1.3834
1.38334
1.38339
1.38354
1.38378
1.38411
1.38449
1.38488
1.38525
1.38462
1.38441
1.38433
1.38439
1.38458
1.3849
1.38533
1.38583
1.38635
1.38682
1.38264
1.38237
1.38226
1.38232
1.38254
1.38292
1.38344
1.38405
1.3847
1.38532
1.3822
1.38191
1.38179
1.38185
1.38209
1.3825
1.38307
1.38374
1.38445
1.38515
1.38543
1.38543
1.38543
1.38543
1.38543
1.38542
1.38542
1.38543
1.38557
1.38641
1.38518
1.38519
1.38519
1.3852
1.3852
1.38521
1.38522
1.38523
1.38524
1.38525
1.38624
1.38623
1.38623
1.38624
1.38625
1.38626
1.38629
1.38631
1.38633
1.38635
1.38498
1.38496
1.38495
1.38496
1.38499
1.38502
1.38506
1.38512
1.38517
1.38522
1.38512
1.38508
1.38507
1.38509
1.38513
1.3852
1.38529
1.38539
1.38549
1.38558
1.38495
1.38488
1.38486
1.38488
1.38495
1.38507
1.38521
1.38537
1.38554
1.38569
1.38402
1.38391
1.38388
1.38391
1.384
1.38416
1.38437
1.3846
1.38484
1.38508
1.38527
1.38514
1.38509
1.38513
1.38526
1.38547
1.38575
1.38607
1.3864
1.38668
1.38318
1.383
1.38293
1.38298
1.38313
1.38338
1.38371
1.38411
1.38452
1.38492
1.38333
1.38314
1.38306
1.38311
1.38327
1.38355
1.38392
1.38435
1.3848
1.38523
1.38579
1.38579
1.38579
1.38579
1.38578
1.38578
1.38577
1.38577
1.38587
1.3866
1.3849
1.3849
1.38491
1.38491
1.38491
1.38492
1.38492
1.38493
1.38493
1.38494
1.38629
1.38629
1.38629
1.38629
1.3863
1.38631
1.38633
1.38634
1.38636
1.38637
1.38496
1.38495
1.38494
1.38495
1.38496
1.38498
1.385
1.38503
1.38506
1.38509
1.38521
1.38519
1.38518
1.38519
1.38522
1.38526
1.38532
1.38538
1.38544
1.38549
1.38508
1.38503
1.38502
1.38504
1.38508
1.38515
1.38524
1.38534
1.38544
1.38553
1.38431
1.38425
1.38423
1.38425
1.38431
1.38441
1.38453
1.38467
1.38482
1.38496
1.38569
1.38561
1.38558
1.38561
1.38569
1.38583
1.38601
1.38621
1.38642
1.38658
1.38345
1.38333
1.38329
1.38332
1.38342
1.38358
1.38379
1.38404
1.3843
1.38456
1.38445
1.38433
1.38429
1.38432
1.38443
1.38461
1.38484
1.38512
1.38539
1.38566
1.38663
1.38663
1.38663
1.38663
1.38663
1.38662
1.38661
1.38661
1.38667
1.38724
1.3845
1.38449
1.3845
1.3845
1.3845
1.3845
1.3845
1.3845
1.3845
1.3845
1.38627
1.38627
1.38627
1.38628
1.38628
1.3863
1.38631
1.38632
1.38634
1.38635
1.38493
1.38492
1.38492
1.38492
1.38492
1.38493
1.38494
1.38496
1.38497
1.38498
1.38521
1.3852
1.38519
1.3852
1.38522
1.38524
1.38528
1.38531
1.38535
1.38539
1.38508
1.38505
1.38504
1.38505
1.38508
1.38512
1.38518
1.38524
1.3853
1.38536
1.38448
1.38444
1.38443
1.38444
1.38448
1.38454
1.38461
1.3847
1.38478
1.38487
1.38578
1.38573
1.38571
1.38573
1.38578
1.38587
1.38599
1.38613
1.38627
1.38637
1.38338
1.38331
1.38329
1.38331
1.38337
1.38347
1.38361
1.38376
1.38391
1.38409
1.38582
1.38574
1.38572
1.38574
1.38581
1.38593
1.38608
1.38626
1.38643
1.3866
1.38819
1.38817
1.38817
1.38818
1.38819
1.3882
1.38821
1.38823
1.38827
1.38867
1.38382
1.38382
1.38382
1.38381
1.38381
1.3838
1.38379
1.38378
1.38377
1.38375
1.38605
1.38605
1.38605
1.38606
1.38607
1.38608
1.3861
1.38612
1.38614
1.38616
1.38493
1.38492
1.38491
1.38491
1.38491
1.38492
1.38492
1.38493
1.38493
1.38493
1.38515
1.38514
1.38514
1.38514
1.38515
1.38517
1.38519
1.38522
1.38525
1.38527
1.385
1.38498
1.38498
1.38498
1.385
1.38503
1.38507
1.38511
1.38516
1.3852
1.38455
1.38452
1.38451
1.38452
1.38455
1.38459
1.38464
1.3847
1.38475
1.3848
1.3854
1.38536
1.38535
1.38536
1.3854
1.38547
1.38555
1.38566
1.38577
1.38586
1.38287
1.38282
1.3828
1.38282
1.38286
1.38293
1.38302
1.38312
1.38321
1.38333
1.38767
1.3876
1.38758
1.3876
1.38765
1.38773
1.38784
1.38797
1.3881
1.38823
1.38983
1.38984
1.38985
1.38987
1.3899
1.38993
1.38998
1.39004
1.39011
1.39034
1.38302
1.38301
1.383
1.383
1.38298
1.38296
1.38294
1.38291
1.38286
1.38277
1.38568
1.38568
1.38569
1.38569
1.3857
1.38571
1.38573
1.38575
1.38577
1.38581
1.38498
1.38497
1.38497
1.38497
1.38497
1.38497
1.38498
1.38498
1.38498
1.38497
1.3851
1.38509
1.38509
1.38509
1.3851
1.38512
1.38514
1.38516
1.38518
1.38521
1.38495
1.38493
1.38493
1.38493
1.38495
1.38498
1.38501
1.38505
1.38509
1.38512
1.3846
1.38458
1.38457
1.38458
1.3846
1.38464
1.38468
1.38473
1.38478
1.38482
1.38481
1.38477
1.38476
1.38477
1.3848
1.38486
1.38493
1.38502
1.38513
1.38524
1.38214
1.3821
1.38208
1.38209
1.38213
1.3822
1.38227
1.38235
1.38242
1.38244
1.38949
1.38941
1.38939
1.3894
1.38944
1.38952
1.38962
1.38973
1.38986
1.39002
1.53314
1.55012
1.54496
1.53348
1.54817
1.56807
1.56084
1.54967
1.55654
1.57739
1.5734
1.56091
1.56015
1.58181
1.58449
1.57003
1.56374
1.58634
1.595
1.57928
1.57296
1.59827
1.61452
1.60503
1.58277
1.61021
1.63206
1.6293
1.59241
1.62103
1.6465
1.64855
1.59018
1.61875
1.6463
1.65201
1.57463
1.60162
1.63033
1.64009
1.44108
1.45233
1.45559
1.45007
1.44999
1.46322
1.46808
1.46383
1.4541
1.46915
1.47506
1.47288
1.45764
1.47422
1.48156
1.48174
1.46233
1.48
1.48937
1.49135
1.46719
1.48514
1.49548
1.49791
1.47077
1.48871
1.49967
1.50252
1.47583
1.49352
1.5049
1.50971
1.47561
1.49261
1.50448
1.51137
1.47187
1.48791
1.50068
1.50923
1.42568
1.43062
1.43177
1.43007
1.43274
1.43855
1.44052
1.43988
1.43596
1.4431
1.44614
1.44606
1.4386
1.44714
1.45153
1.45218
1.44229
1.4521
1.4578
1.45922
1.44776
1.45868
1.46555
1.46812
1.45274
1.46459
1.47245
1.47607
1.45905
1.47145
1.47996
1.48455
1.46128
1.47371
1.48251
1.48789
1.46148
1.47348
1.48183
1.48704
1.40884
1.41144
1.41228
1.41144
1.41409
1.41694
1.41837
1.41843
1.41636
1.42002
1.42214
1.42271
1.41837
1.42289
1.42583
1.42715
1.42132
1.42667
1.43037
1.43248
1.42561
1.43169
1.43608
1.43899
1.42933
1.43604
1.44104
1.44481
1.43475
1.44196
1.44751
1.45216
1.43658
1.44403
1.44996
1.45532
1.43565
1.44334
1.44939
1.4547
1.4
1.40155
1.40202
1.40145
1.40391
1.4054
1.40626
1.4065
1.4052
1.40725
1.40856
1.40914
1.40664
1.40926
1.4111
1.41221
1.40904
1.41224
1.41459
1.41623
1.41284
1.4166
1.41944
1.42166
1.41619
1.42046
1.42377
1.42657
1.4214
1.42613
1.42985
1.43325
1.42362
1.42858
1.43258
1.43641
1.42345
1.42862
1.43268
1.43627
1.39424
1.3953
1.39558
1.39506
1.39754
1.39834
1.39886
1.3991
1.39807
1.39924
1.40007
1.40057
1.39895
1.40052
1.40172
1.40259
1.40084
1.40281
1.40438
1.40564
1.40399
1.40636
1.40829
1.40997
1.40668
1.40943
1.4117
1.41381
1.41134
1.41442
1.417
1.41954
1.41345
1.41675
1.41954
1.42234
1.41336
1.41688
1.41977
1.42232
1.39061
1.39145
1.3916
1.39108
1.39364
1.39408
1.3944
1.39458
1.39379
1.39448
1.395
1.39536
1.39418
1.39516
1.39593
1.39655
1.3956
1.39686
1.39791
1.3988
1.39818
1.39973
1.40104
1.40222
1.40028
1.4021
1.40366
1.40515
1.40437
1.40645
1.40823
1.41002
1.40616
1.40841
1.41036
1.41229
1.40596
1.40837
1.41039
1.41213
1.38823
1.38896
1.38905
1.3885
1.39106
1.39132
1.3915
1.39163
1.39113
1.39155
1.39188
1.39212
1.39117
1.39177
1.39228
1.39269
1.39219
1.393
1.39369
1.3943
1.39422
1.39523
1.39612
1.39694
1.39572
1.39693
1.39801
1.39904
1.39922
1.40062
1.40186
1.4031
1.40055
1.40209
1.40345
1.40477
1.40017
1.4018
1.40322
1.40442
1.38664
1.38732
1.38737
1.38679
1.38933
1.38947
1.38958
1.38966
1.38942
1.38968
1.38989
1.39004
1.38921
1.38959
1.38992
1.3902
1.38994
1.39047
1.39093
1.39134
1.39151
1.39219
1.39279
1.39334
1.3925
1.39332
1.39405
1.39476
1.39547
1.39642
1.39727
1.39812
1.39626
1.39731
1.39826
1.39916
1.39568
1.3968
1.39778
1.39861
1.38556
1.38623
1.38626
1.38564
1.38813
1.3882
1.38827
1.38833
1.38828
1.38844
1.38857
1.38867
1.38788
1.38813
1.38834
1.38852
1.38841
1.38875
1.38906
1.38933
1.38962
1.39007
1.39047
1.39085
1.39018
1.39073
1.39123
1.39171
1.3927
1.39335
1.39394
1.39451
1.39297
1.39369
1.39434
1.39495
1.39227
1.39303
1.39371
1.39427
1.38483
1.3855
1.38551
1.38488
1.38728
1.38731
1.38735
1.3874
1.38753
1.38762
1.3877
1.38777
1.38698
1.38713
1.38727
1.38739
1.38736
1.38759
1.38779
1.38797
1.38827
1.38857
1.38884
1.3891
1.38849
1.38886
1.3892
1.38952
1.39066
1.3911
1.3915
1.39189
1.39048
1.39097
1.39141
1.39184
1.38973
1.39025
1.39071
1.3911
1.38436
1.38503
1.38504
1.38438
1.38665
1.38667
1.38669
1.38672
1.38703
1.38709
1.38714
1.38717
1.38636
1.38646
1.38655
1.38662
1.38667
1.38681
1.38694
1.38706
1.38734
1.38753
1.38771
1.38788
1.38726
1.38751
1.38774
1.38796
1.38919
1.38948
1.38975
1.39001
1.38864
1.38896
1.38927
1.38955
1.38792
1.38827
1.38858
1.38885
1.38408
1.38477
1.38477
1.3841
1.38617
1.38618
1.38619
1.38622
1.38671
1.38674
1.38677
1.3868
1.38594
1.386
1.38605
1.3861
1.38622
1.38631
1.38639
1.38647
1.3867
1.38683
1.38694
1.38705
1.38641
1.38657
1.38672
1.38686
1.38816
1.38835
1.38854
1.38871
1.38729
1.38751
1.38771
1.3879
1.38669
1.38693
1.38714
1.38732
1.38398
1.38466
1.38466
1.38399
1.3858
1.38579
1.3858
1.38582
1.38651
1.38654
1.38655
1.38657
1.38563
1.38567
1.3857
1.38574
1.38593
1.38599
1.38604
1.38609
1.38627
1.38635
1.38643
1.3865
1.38582
1.38593
1.38602
1.38612
1.38748
1.38761
1.38773
1.38784
1.38633
1.38647
1.38661
1.38673
1.38593
1.38608
1.38622
1.38634
1.38402
1.3847
1.3847
1.38403
1.38548
1.38547
1.38547
1.38549
1.38641
1.38643
1.38644
1.38644
1.38541
1.38543
1.38545
1.38547
1.38576
1.38579
1.38583
1.38585
1.38598
1.38603
1.38608
1.38613
1.38543
1.3855
1.38556
1.38562
1.38707
1.38715
1.38723
1.3873
1.38564
1.38573
1.38582
1.3859
1.38555
1.38565
1.38574
1.38581
1.38424
1.38489
1.38489
1.38425
1.38518
1.38517
1.38517
1.38519
1.38639
1.3864
1.3864
1.3864
1.38523
1.38524
1.38525
1.38527
1.38564
1.38566
1.38568
1.3857
1.38577
1.3858
1.38583
1.38586
1.38518
1.38522
1.38526
1.3853
1.38684
1.38689
1.38694
1.38699
1.38513
1.38518
1.38524
1.38529
1.3855
1.38556
1.38562
1.38567
1.38474
1.38533
1.38533
1.38474
1.38486
1.38485
1.38485
1.38487
1.3864
1.38641
1.38641
1.38641
1.38508
1.38509
1.3851
1.38511
1.38553
1.38555
1.38556
1.38557
1.38559
1.38561
1.38563
1.38564
1.38501
1.38504
1.38506
1.38509
1.38669
1.38673
1.38676
1.38678
1.38469
1.38472
1.38476
1.38479
1.38583
1.38586
1.3859
1.38593
1.38578
1.38628
1.38628
1.38578
1.38441
1.3844
1.3844
1.38442
1.38639
1.3864
1.3864
1.38639
1.38497
1.38497
1.38497
1.38498
1.38541
1.38542
1.38543
1.38544
1.3854
1.38542
1.38543
1.38544
1.38488
1.38489
1.38491
1.38493
1.38647
1.38649
1.38651
1.38652
1.38417
1.38419
1.38421
1.38423
1.3867
1.38672
1.38674
1.38676
1.38773
1.38807
1.38808
1.38773
1.38365
1.38363
1.38363
1.38365
1.38621
1.38622
1.38622
1.38621
1.38491
1.38491
1.38491
1.38492
1.38529
1.3853
1.38531
1.38531
1.38523
1.38524
1.38525
1.38525
1.38479
1.3848
1.38481
1.38483
1.38599
1.38601
1.38603
1.38603
1.38333
1.38334
1.38335
1.38337
1.3883
1.38832
1.38833
1.38835
1.39019
1.39033
1.39033
1.39019
1.38262
1.38256
1.38256
1.38262
1.38585
1.38587
1.38587
1.38585
1.38495
1.38495
1.38495
1.38496
1.38522
1.38523
1.38523
1.38524
1.38515
1.38515
1.38516
1.38517
1.38481
1.38481
1.38482
1.38484
1.38541
1.38544
1.38545
1.38544
1.38224
1.38221
1.38222
1.38228
1.39011
1.39013
1.39015
1.39015
1.45337
1.42591
1.40617
1.38917
1.37725
1.36881
1.36244
1.35739
1.35342
1.35025
1.46698
1.43151
1.40655
1.38928
1.37707
1.36801
1.36085
1.355
1.35012
1.34578
1.47385
1.43519
1.40704
1.39003
1.37734
1.36762
1.35967
1.35301
1.34731
1.34227
1.48154
1.44073
1.41042
1.39319
1.37946
1.36884
1.35997
1.35238
1.34572
1.33999
1.49097
1.44678
1.41516
1.39653
1.38173
1.37014
1.3604
1.35203
1.34455
1.33848
1.50126
1.45419
1.42111
1.40078
1.38496
1.37242
1.36194
1.35292
1.34481
1.33826
1.51092
1.45903
1.4252
1.40286
1.38623
1.37277
1.36164
1.35205
1.34342
1.33668
1.52262
1.46388
1.43068
1.40617
1.38909
1.37485
1.36328
1.35323
1.34431
1.33712
1.52877
1.46293
1.43134
1.40514
1.38807
1.37328
1.36139
1.351
1.34196
1.3344
1.53402
1.46193
1.43216
1.40429
1.38685
1.37134
1.35896
1.3481
1.33885
1.33104
1.4403
1.4237
1.41075
1.40023
1.39144
1.38409
1.37798
1.373
1.36903
1.36596
1.44942
1.42928
1.41333
1.40028
1.38965
1.38103
1.37397
1.36813
1.36336
1.35924
1.45639
1.43389
1.41476
1.40033
1.38859
1.37912
1.3713
1.36474
1.3592
1.35432
1.46317
1.43935
1.41816
1.40261
1.3899
1.37959
1.3709
1.36344
1.35693
1.35123
1.46951
1.44602
1.4227
1.4059
1.39218
1.38096
1.3714
1.36311
1.3557
1.34946
1.47829
1.45396
1.42887
1.4106
1.39584
1.38366
1.37329
1.36426
1.35609
1.34922
1.48742
1.46018
1.43375
1.41369
1.39795
1.3848
1.37365
1.36395
1.3551
1.34785
1.49939
1.46679
1.44013
1.41814
1.40168
1.38767
1.37592
1.36562
1.35633
1.34852
1.50742
1.46806
1.44208
1.41862
1.40181
1.38712
1.37486
1.36408
1.35449
1.34624
1.51461
1.46785
1.4429
1.41804
1.4007
1.38536
1.37266
1.36148
1.35174
1.34328
1.42827
1.41975
1.41106
1.40323
1.39643
1.39065
1.38582
1.38188
1.37882
1.37658
1.43468
1.42355
1.41223
1.40224
1.39379
1.38676
1.38092
1.37607
1.37217
1.36892
1.44022
1.42691
1.41305
1.4014
1.39169
1.38366
1.37695
1.37133
1.36667
1.36266
1.44585
1.4312
1.41551
1.4027
1.39197
1.383
1.37536
1.36881
1.3632
1.35833
1.45214
1.43667
1.41934
1.40531
1.3935
1.38356
1.37502
1.36761
1.36108
1.35559
1.46048
1.44374
1.42493
1.40946
1.39654
1.3856
1.37621
1.36802
1.36072
1.35454
1.4687
1.44972
1.42957
1.41233
1.3983
1.38636
1.37615
1.36726
1.35924
1.35261
1.47984
1.45668
1.4359
1.41676
1.40187
1.38904
1.37818
1.36867
1.36016
1.35295
1.48743
1.45914
1.43858
1.418
1.40262
1.38903
1.37757
1.3675
1.3586
1.35094
1.49343
1.45969
1.43954
1.41761
1.40162
1.3874
1.37551
1.36508
1.356
1.34813
1.41304
1.40896
1.40452
1.4002
1.39615
1.39247
1.38924
1.38654
1.38442
1.38287
1.41683
1.41198
1.40606
1.40011
1.39454
1.38954
1.38518
1.38146
1.37845
1.37598
1.42112
1.41503
1.40727
1.39968
1.3927
1.38654
1.3812
1.37664
1.37284
1.3696
1.426
1.41902
1.40983
1.40091
1.39275
1.38553
1.37918
1.37366
1.36892
1.36482
1.43188
1.42409
1.41359
1.40337
1.39405
1.38579
1.37849
1.37206
1.3664
1.36162
1.43974
1.4307
1.41896
1.4073
1.39682
1.38752
1.37932
1.37207
1.36562
1.36011
1.44752
1.43644
1.42347
1.41014
1.39848
1.38814
1.37907
1.37107
1.36388
1.35786
1.45775
1.44351
1.42971
1.41458
1.40196
1.39069
1.38091
1.37226
1.36454
1.35793
1.46469
1.44675
1.43267
1.41609
1.40276
1.39065
1.38022
1.37102
1.36287
1.35586
1.46961
1.44773
1.43338
1.4155
1.40156
1.38888
1.37807
1.36856
1.36024
1.35304
1.40415
1.40171
1.39928
1.39689
1.39455
1.39234
1.39033
1.38862
1.38725
1.38626
1.40607
1.40388
1.40078
1.39731
1.3938
1.39046
1.38741
1.38475
1.38259
1.38082
1.4089
1.40606
1.4018
1.39704
1.39232
1.38789
1.38389
1.3804
1.37746
1.37496
1.41266
1.40933
1.40409
1.39818
1.39232
1.38682
1.38181
1.37735
1.37351
1.37018
1.41758
1.41376
1.40759
1.4005
1.39352
1.38697
1.38098
1.3756
1.37086
1.36683
1.42425
1.41969
1.41257
1.40421
1.39609
1.3885
1.38159
1.37537
1.36982
1.36505
1.43075
1.4249
1.41679
1.40695
1.39766
1.38902
1.38122
1.37422
1.36792
1.36262
1.43961
1.43168
1.42277
1.41136
1.40107
1.39148
1.38292
1.37525
1.36839
1.3625
1.4456
1.43522
1.42581
1.41302
1.40187
1.39141
1.38217
1.37396
1.36667
1.3604
1.4493
1.43618
1.42628
1.41232
1.40059
1.38961
1.38003
1.37152
1.36406
1.3576
1.39819
1.39649
1.39511
1.39384
1.39256
1.39131
1.39015
1.38913
1.3883
1.38769
1.3991
1.39812
1.39653
1.39458
1.39246
1.39034
1.38833
1.38655
1.38508
1.38386
1.40077
1.39951
1.39724
1.39441
1.39137
1.38834
1.3855
1.38294
1.38076
1.3789
1.40341
1.40196
1.39908
1.39535
1.39134
1.38734
1.38355
1.3801
1.37709
1.37447
1.40725
1.40564
1.40213
1.39745
1.39243
1.38745
1.38272
1.37838
1.37452
1.37124
1.41266
1.41075
1.40657
1.40085
1.3948
1.38884
1.38321
1.37803
1.37339
1.36938
1.41782
1.41525
1.41031
1.40338
1.39625
1.38928
1.38277
1.37682
1.37143
1.36689
1.42524
1.42147
1.41586
1.40764
1.39954
1.39165
1.38437
1.37775
1.37181
1.36668
1.43004
1.42484
1.4187
1.40924
1.40024
1.39151
1.38357
1.37643
1.37005
1.36457
1.43245
1.42551
1.41891
1.40849
1.39896
1.38974
1.38148
1.37405
1.36749
1.36182
1.39435
1.39297
1.39212
1.39143
1.39075
1.39007
1.38942
1.38884
1.38837
1.388
1.39468
1.39422
1.39339
1.39229
1.39105
1.38975
1.38849
1.38735
1.38641
1.3856
1.39561
1.39507
1.39388
1.39222
1.3903
1.3883
1.38635
1.38455
1.383
1.38167
1.39726
1.39672
1.39516
1.39287
1.39019
1.38738
1.38462
1.38204
1.37977
1.37778
1.40012
1.3996
1.39765
1.39465
1.39115
1.38748
1.38387
1.38048
1.37744
1.37485
1.40436
1.40381
1.40142
1.39764
1.39327
1.38873
1.38428
1.3801
1.37634
1.37307
1.40826
1.40748
1.40455
1.39983
1.39454
1.38908
1.3838
1.37888
1.37441
1.37062
1.41432
1.41298
1.40955
1.40383
1.39765
1.39134
1.38533
1.37976
1.37475
1.3704
1.41794
1.41587
1.41195
1.40519
1.39818
1.3911
1.38448
1.37843
1.37298
1.36831
1.41925
1.4162
1.41192
1.40442
1.39692
1.38942
1.38248
1.37615
1.37052
1.36566
1.39179
1.39056
1.38998
1.3896
1.38924
1.38888
1.38853
1.38822
1.38795
1.38773
1.39175
1.39153
1.39109
1.39049
1.38978
1.38901
1.38826
1.38756
1.38698
1.38646
1.39233
1.39211
1.39147
1.3905
1.38931
1.38802
1.38672
1.3855
1.38444
1.38352
1.39324
1.39309
1.39225
1.39085
1.3891
1.38717
1.38521
1.38335
1.38171
1.38024
1.39528
1.39525
1.39418
1.39228
1.38989
1.38725
1.38457
1.38201
1.3797
1.37772
1.39851
1.39859
1.39726
1.39481
1.39172
1.38835
1.38494
1.38167
1.37871
1.37612
1.4013
1.4014
1.39973
1.39659
1.39274
1.38858
1.38442
1.38048
1.37686
1.3738
1.4062
1.40612
1.4041
1.40021
1.39562
1.39071
1.38589
1.38135
1.37724
1.37365
1.40874
1.40835
1.40592
1.40123
1.39593
1.39037
1.385
1.38001
1.37548
1.37159
1.40922
1.40836
1.40567
1.40043
1.39472
1.38878
1.38311
1.37787
1.37315
1.36909
1.39004
1.38889
1.38845
1.38823
1.38804
1.38786
1.38767
1.3875
1.38735
1.38723
1.38977
1.38968
1.38945
1.38912
1.38872
1.38829
1.38785
1.38743
1.38709
1.38675
1.39019
1.39011
1.38976
1.38919
1.38846
1.38765
1.38681
1.38602
1.38532
1.38471
1.39059
1.39058
1.39012
1.38926
1.38813
1.38684
1.38551
1.38421
1.38305
1.38201
1.39202
1.39215
1.39156
1.39037
1.38876
1.38691
1.38498
1.38311
1.3814
1.37994
1.39444
1.39474
1.39401
1.39243
1.39029
1.38784
1.38531
1.38283
1.38057
1.37859
1.39634
1.39676
1.39583
1.39376
1.39102
1.38793
1.38475
1.38168
1.37885
1.37644
1.40028
1.40073
1.39958
1.39698
1.39364
1.38993
1.38618
1.38258
1.3793
1.37642
1.40187
1.40223
1.40077
1.3976
1.39371
1.38946
1.38523
1.38123
1.37756
1.37442
1.40179
1.40197
1.40034
1.39679
1.39255
1.38798
1.38349
1.37925
1.37541