/*--------------------------------*- C++ -*----------------------------------*\
| =========                 |                                                 |
| \\      /  F ield         | foam-extend: Open Source CFD                    |
|  \\    /   O peration     | Version:     4.0                                |
|   \\  /    A nd           | Web:         http://www.foam-extend.org         |
|    \\/     M anipulation  |                                                 |
\*---------------------------------------------------------------------------*/
FoamFile
{
    version     2.0;
    format      ascii;
    class       volScalarField;
    location    "2000";
    object      T;
}
// * * * * * * * * * * * * * * * * * * * * * * * * * * * * * * * * * * * * * //

dimensions      [0 0 0 1 0 0 0];

internalField   nonuniform List<scalar> 
34480
(
278.159
277.714
277.269
276.803
276.293
275.741
275.275
275.293
276.389
280.275
277.447
276.927
276.422
275.921
275.374
274.733
274.029
273.531
273.712
276.625
277.307
276.725
276.151
275.571
274.94
274.177
273.251
272.351
271.821
273.788
277.38
276.681
275.981
275.262
274.491
273.584
272.462
271.224
270.06
271.134
277.484
276.678
275.859
275.01
274.101
273.049
271.746
270.198
268.45
268.709
277.657
276.762
275.847
274.891
273.863
272.683
271.222
269.397
267.109
266.586
277.792
276.831
275.849
274.82
273.707
272.431
270.842
268.764
265.946
264.618
277.95
276.951
275.932
274.864
273.708
272.384
270.725
268.453
265.123
262.928
278.055
277.04
275.999
274.897
273.692
272.312
270.591
268.16
264.299
261.203
278.912
277.899
276.851
275.739
274.529
273.157
271.453
268.982
264.616
260.411
279.633
279.452
279.356
279.364
279.505
279.832
280.427
281.393
282.991
286.177
278.453
278.18
277.981
277.887
277.919
278.12
278.589
279.469
280.98
284.331
277.955
277.61
277.33
277.133
277.042
277.091
277.372
278.069
279.417
282.882
277.722
277.276
276.885
276.56
276.332
276.234
276.351
276.874
278.044
281.527
277.565
277.03
276.541
276.106
275.755
275.525
275.495
275.851
276.837
280.287
277.509
276.902
276.336
275.815
275.364
275.023
274.866
275.069
275.887
279.314
277.454
276.796
276.179
275.6
275.08
274.655
274.391
274.444
275.077
278.437
277.471
276.785
276.14
275.528
274.967
274.487
274.144
274.06
274.481
277.671
277.496
276.798
276.138
275.501
274.897
274.358
273.935
273.723
273.886
276.772
278.266
277.565
276.894
276.246
275.633
275.082
274.631
274.344
274.202
276.498
280.785
280.69
280.689
280.795
281.032
281.43
282.029
282.872
284.034
285.652
279.466
279.284
279.19
279.21
279.375
279.732
280.348
281.31
282.736
284.803
278.843
278.584
278.406
278.333
278.395
278.645
279.174
280.116
281.658
284.137
278.504
278.148
277.866
277.676
277.617
277.746
278.17
279.066
280.678
283.514
278.267
277.825
277.448
277.153
276.98
276.99
277.303
278.127
279.764
282.886
278.148
277.632
277.176
276.794
276.524
276.43
276.637
277.376
279.006
282.35
278.043
277.474
276.962
276.517
276.173
275.992
276.1
276.739
278.32
281.81
278.018
277.415
276.868
276.382
275.985
275.737
275.759
276.287
277.772
281.325
278.003
277.388
276.825
276.313
275.872
275.557
275.485
275.889
277.235
280.798
278.71
278.093
277.519
276.995
276.543
276.215
276.096
276.394
277.54
280.996
281.577
281.533
281.569
281.694
281.917
282.249
282.695
283.245
283.884
284.638
280.267
280.154
280.127
280.205
280.407
280.761
281.297
282.04
283.002
284.156
279.593
279.409
279.31
279.319
279.461
279.775
280.314
281.138
282.305
283.831
279.188
278.916
278.728
278.643
278.698
278.943
279.452
280.327
281.673
283.57
278.891
278.539
278.265
278.089
278.053
278.217
278.675
279.566
281.052
283.289
278.719
278.295
277.946
277.69
277.571
277.655
278.054
278.94
280.537
283.078
278.571
278.093
277.687
277.369
277.182
277.193
277.528
278.384
280.048
282.838
278.509
277.995
277.551
277.188
276.946
276.895
277.162
277.965
279.646
282.621
278.473
277.943
277.481
277.092
276.809
276.696
276.882
277.599
279.241
282.37
279.135
278.602
278.126
277.723
277.424
277.292
277.435
278.071
279.597
282.796
282.052
282.03
282.067
282.166
282.329
282.555
282.838
283.156
283.461
283.74
280.852
280.784
280.787
280.872
281.05
281.331
281.724
282.224
282.813
283.426
280.203
280.074
280.025
280.069
280.225
280.515
280.961
281.58
282.367
283.252
279.778
279.576
279.455
279.434
279.54
279.806
280.277
280.995
281.982
283.169
279.452
279.177
278.983
278.891
278.934
279.159
279.629
280.417
281.586
283.076
279.246
278.904
278.643
278.483
278.464
278.64
279.095
279.933
281.264
283.05
279.069
278.674
278.359
278.143
278.067
278.193
278.62
279.482
280.943
282.995
278.98
278.548
278.194
277.934
277.81
277.887
278.274
279.132
280.682
282.961
278.925
278.475
278.102
277.816
277.657
277.686
278.016
278.833
280.417
282.898
279.546
279.091
278.703
278.402
278.225
278.235
278.535
279.308
280.852
283.469
282.298
282.286
282.314
282.381
282.486
282.626
282.792
282.962
283.086
283.128
281.254
281.213
281.226
281.298
281.433
281.632
281.894
282.209
282.555
282.886
280.676
280.588
280.567
280.62
280.758
280.99
281.323
281.751
282.254
282.769
280.269
280.122
280.047
280.06
280.178
280.419
280.804
281.342
282.02
282.756
279.939
279.729
279.597
279.559
279.641
279.873
280.289
280.92
281.771
282.745
279.718
279.448
279.259
279.169
279.209
279.421
279.856
280.566
281.585
282.808
279.524
279.205
278.968
278.83
278.83
279.014
279.452
280.22
281.389
282.851
279.418
279.061
278.787
278.611
278.573
278.726
279.15
279.95
281.239
282.921
279.348
278.972
278.678
278.479
278.412
278.532
278.928
279.723
281.087
282.972
279.934
279.551
279.242
279.027
278.943
279.047
279.425
280.209
281.584
283.617
282.394
282.386
282.403
282.443
282.505
282.586
282.678
282.763
282.794
282.713
281.51
281.485
281.498
281.551
281.643
281.775
281.94
282.13
282.329
282.51
281.026
280.968
280.96
281.008
281.116
281.287
281.519
281.802
282.115
282.419
280.662
280.557
280.513
280.54
280.647
280.844
281.136
281.518
281.969
282.427
280.349
280.193
280.105
280.099
280.191
280.399
280.739
281.215
281.811
282.446
280.131
279.922
279.789
279.745
279.815
280.024
280.401
280.966
281.713
282.541
279.932
279.678
279.504
279.425
279.469
279.671
280.072
280.709
281.599
282.624
279.818
279.529
279.321
279.21
279.228
279.415
279.825
280.514
281.528
282.743
279.737
279.428
279.202
279.07
279.068
279.236
279.639
280.35
281.453
282.845
280.292
279.976
279.734
279.588
279.571
279.728
280.124
280.846
281.987
283.511
282.399
282.393
282.402
282.425
282.459
282.504
282.553
282.592
282.576
282.43
281.66
281.644
281.653
281.688
281.748
281.83
281.931
282.042
282.155
282.256
281.274
281.235
281.233
281.271
281.349
281.468
281.622
281.803
281.997
282.178
280.965
280.892
280.866
280.895
280.983
281.132
281.343
281.606
281.9
282.188
280.684
280.57
280.513
280.523
280.61
280.782
281.043
281.388
281.797
282.212
280.481
280.323
280.231
280.217
280.295
280.482
280.788
281.218
281.751
282.311
280.288
280.091
279.966
279.926
279.991
280.184
280.526
281.03
281.687
282.401
280.174
279.945
279.792
279.728
279.778
279.969
280.334
280.897
281.667
282.533
280.087
279.839
279.668
279.588
279.624
279.808
280.181
280.78
281.637
282.645
280.614
280.358
280.174
280.081
280.106
280.285
280.66
281.281
282.186
283.301
282.356
282.351
282.355
282.367
282.386
282.41
282.435
282.45
282.412
282.232
281.736
281.726
281.732
281.753
281.79
281.839
281.898
281.963
282.027
282.083
281.441
281.415
281.415
281.442
281.495
281.574
281.674
281.788
281.906
282.014
281.191
281.14
281.125
281.15
281.217
281.325
281.472
281.647
281.838
282.019
280.95
280.868
280.832
280.848
280.921
281.054
281.247
281.491
281.767
282.038
280.771
280.654
280.592
280.593
280.668
280.822
281.06
281.376
281.749
282.127
280.591
280.441
280.353
280.338
280.409
280.578
280.855
281.24
281.713
282.207
280.485
280.307
280.196
280.165
280.228
280.405
280.712
281.155
281.723
282.333
280.396
280.2
280.074
280.03
280.086
280.264
280.587
281.07
281.715
282.434
280.898
280.695
280.557
280.502
280.551
280.729
281.06
281.57
282.262
283.062
282.291
282.287
282.288
282.295
282.304
282.317
282.33
282.333
282.286
282.088
281.767
281.76
281.763
281.775
281.797
281.825
281.86
281.896
281.932
281.964
281.548
281.531
281.531
281.549
281.584
281.634
281.697
281.767
281.839
281.904
281.353
281.318
281.309
281.329
281.377
281.452
281.551
281.666
281.788
281.902
281.154
281.097
281.074
281.09
281.147
281.247
281.384
281.552
281.736
281.913
281.004
280.919
280.878
280.886
280.95
281.072
281.25
281.476
281.734
281.987
280.841
280.73
280.67
280.669
280.735
280.874
281.09
281.375
281.71
282.049
280.75
280.615
280.537
280.525
280.59
280.742
280.989
281.326
281.736
282.162
280.662
280.51
280.42
280.399
280.461
280.62
280.885
281.261
281.734
282.241
281.14
280.982
280.882
280.854
280.913
281.074
281.351
281.753
282.267
282.833
282.221
282.216
282.217
282.22
282.225
282.232
282.238
282.235
282.186
281.981
281.769
281.765
281.766
281.773
281.785
281.802
281.821
281.842
281.862
281.88
281.613
281.602
281.602
281.613
281.635
281.667
281.705
281.748
281.791
281.831
281.464
281.441
281.436
281.45
281.483
281.533
281.598
281.673
281.75
281.822
281.308
281.268
281.253
281.267
281.31
281.38
281.476
281.589
281.711
281.826
281.187
281.126
281.099
281.11
281.161
281.252
281.381
281.54
281.715
281.884
281.044
280.963
280.922
280.928
280.984
281.094
281.256
281.461
281.695
281.926
280.971
280.871
280.817
280.816
280.875
280.999
281.189
281.439
281.73
282.023
280.885
280.771
280.707
280.7
280.76
280.893
281.102
281.385
281.725
282.077
281.341
281.222
281.15
281.139
281.197
281.335
281.557
281.863
282.236
282.63
282.151
282.148
282.148
282.149
282.152
282.155
282.158
282.153
282.106
281.899
281.757
281.754
281.755
281.758
281.765
281.774
281.785
281.797
281.808
281.818
281.651
281.644
281.644
281.651
281.664
281.683
281.706
281.732
281.758
281.781
281.539
281.523
281.52
281.529
281.551
281.584
281.626
281.673
281.722
281.767
281.42
281.393
281.384
281.394
281.424
281.473
281.537
281.613
281.692
281.766
281.327
281.284
281.267
281.277
281.315
281.382
281.472
281.581
281.699
281.811
281.204
281.146
281.119
281.127
281.172
281.254
281.372
281.517
281.677
281.833
281.152
281.079
281.043
281.047
281.097
281.193
281.335
281.514
281.717
281.917
281.067
280.983
280.94
280.941
280.993
281.098
281.258
281.464
281.704
281.945
281.501
281.414
281.364
281.362
281.415
281.526
281.697
281.923
282.187
282.457
282.087
282.084
282.084
282.084
282.086
282.088
282.089
282.084
282.041
281.836
281.738
281.736
281.736
281.738
281.742
281.747
281.753
281.76
281.766
281.771
281.672
281.668
281.667
281.671
281.679
281.69
281.704
281.719
281.735
281.749
281.586
281.575
281.573
281.579
281.593
281.614
281.641
281.67
281.701
281.729
281.5
281.482
281.476
281.483
281.504
281.537
281.579
281.628
281.679
281.727
281.431
281.402
281.391
281.399
281.427
281.473
281.535
281.609
281.686
281.759
281.327
281.286
281.268
281.276
281.31
281.37
281.453
281.553
281.661
281.765
281.297
281.245
281.221
281.228
281.267
281.339
281.441
281.566
281.705
281.839
281.213
281.152
281.123
281.127
281.17
281.25
281.367
281.514
281.679
281.843
281.624
281.562
281.528
281.531
281.575
281.661
281.787
281.95
282.133
282.315
282.03
282.027
282.026
282.027
282.028
282.029
282.029
282.025
281.987
281.788
281.717
281.715
281.715
281.716
281.718
281.721
281.725
281.728
281.732
281.735
281.684
281.681
281.681
281.683
281.687
281.694
281.702
281.711
281.72
281.728
281.614
281.607
281.606
281.609
281.618
281.631
281.647
281.666
281.685
281.702
281.556
281.544
281.54
281.545
281.559
281.58
281.608
281.639
281.672
281.702
281.507
281.488
281.481
281.487
281.506
281.538
281.579
281.627
281.678
281.725
281.418
281.391
281.379
281.386
281.41
281.452
281.509
281.576
281.648
281.716
281.411
281.376
281.36
281.366
281.396
281.447
281.519
281.605
281.697
281.786
281.324
281.282
281.262
281.268
281.3
281.359
281.442
281.544
281.656
281.765
281.714
281.671
281.648
281.653
281.687
281.751
281.842
281.955
282.079
282.2
281.979
281.976
281.976
281.976
281.977
281.977
281.978
281.974
281.942
281.754
281.695
281.694
281.694
281.694
281.695
281.697
281.699
281.701
281.703
281.705
281.691
281.689
281.689
281.69
281.693
281.696
281.701
281.706
281.711
281.716
281.628
281.624
281.623
281.625
281.631
281.639
281.649
281.66
281.671
281.682
281.594
281.587
281.584
281.588
281.596
281.61
281.627
281.647
281.667
281.686
281.561
281.548
281.544
281.548
281.561
281.582
281.609
281.64
281.672
281.702
281.485
281.466
281.459
281.464
281.481
281.51
281.547
281.592
281.638
281.683
281.501
281.477
281.467
281.472
281.493
281.529
281.578
281.635
281.695
281.753
281.407
281.377
281.365
281.37
281.394
281.435
281.492
281.561
281.635
281.707
281.775
281.746
281.731
281.736
281.762
281.807
281.87
281.947
282.029
282.108
281.936
281.934
281.933
281.933
281.934
281.934
281.935
281.932
281.907
281.733
281.672
281.671
281.671
281.672
281.672
281.673
281.674
281.676
281.677
281.678
281.697
281.696
281.696
281.697
281.698
281.7
281.703
281.706
281.709
281.711
281.634
281.632
281.631
281.632
281.635
281.64
281.646
281.653
281.659
281.666
281.619
281.615
281.613
281.615
281.621
281.629
281.64
281.652
281.664
281.676
281.597
281.589
281.586
281.589
281.597
281.611
281.628
281.647
281.668
281.686
281.532
281.52
281.515
281.519
281.53
281.549
281.573
281.602
281.631
281.66
281.57
281.554
281.548
281.552
281.567
281.591
281.623
281.66
281.699
281.735
281.463
281.443
281.436
281.44
281.456
281.485
281.523
281.568
281.616
281.663
281.814
281.795
281.786
281.79
281.808
281.839
281.882
281.932
281.985
282.036
281.905
281.903
281.903
281.903
281.903
281.904
281.904
281.902
281.884
281.731
281.648
281.647
281.647
281.647
281.648
281.648
281.649
281.65
281.65
281.651
281.704
281.703
281.703
281.703
281.704
281.706
281.707
281.709
281.711
281.712
281.634
281.633
281.632
281.633
281.635
281.637
281.641
281.645
281.649
281.652
281.634
281.631
281.63
281.632
281.635
281.64
281.647
281.654
281.662
281.669
281.619
281.614
281.612
281.614
281.619
281.627
281.638
281.65
281.663
281.674
281.563
281.556
281.553
281.555
281.563
281.575
281.59
281.608
281.626
281.643
281.621
281.611
281.607
281.61
281.62
281.636
281.656
281.68
281.705
281.727
281.496
281.483
281.479
281.482
281.493
281.511
281.536
281.565
281.595
281.625
281.841
281.829
281.823
281.826
281.839
281.859
281.887
281.919
281.953
281.984
281.901
281.898
281.898
281.898
281.898
281.898
281.898
281.897
281.886
281.761
281.617
281.617
281.617
281.617
281.617
281.617
281.618
281.618
281.618
281.619
281.709
281.709
281.709
281.709
281.709
281.71
281.711
281.713
281.714
281.715
281.631
281.63
281.629
281.63
281.631
281.632
281.634
281.636
281.638
281.64
281.64
281.638
281.638
281.639
281.641
281.644
281.648
281.652
281.657
281.661
281.628
281.625
281.624
281.625
281.628
281.633
281.64
281.647
281.655
281.662
281.582
281.577
281.576
281.577
281.582
281.589
281.598
281.609
281.62
281.631
281.652
281.646
281.643
281.646
281.652
281.662
281.675
281.69
281.706
281.72
281.505
281.497
281.494
281.496
281.503
281.515
281.53
281.549
281.567
281.587
281.87
281.862
281.859
281.861
281.87
281.883
281.901
281.921
281.942
281.962
281.93
281.934
281.934
281.934
281.935
281.935
281.936
281.937
281.932
281.846
281.573
281.572
281.572
281.572
281.572
281.571
281.571
281.571
281.57
281.57
281.706
281.706
281.706
281.707
281.707
281.708
281.709
281.71
281.712
281.713
281.627
281.626
281.626
281.626
281.626
281.627
281.628
281.629
281.63
281.63
281.64
281.639
281.638
281.639
281.64
281.642
281.645
281.647
281.65
281.653
281.628
281.626
281.625
281.626
281.628
281.632
281.636
281.64
281.645
281.65
281.591
281.588
281.586
281.587
281.59
281.595
281.601
281.607
281.614
281.62
281.654
281.65
281.649
281.65
281.654
281.661
281.67
281.68
281.691
281.701
281.482
281.477
281.475
281.476
281.481
281.489
281.499
281.51
281.521
281.534
281.921
281.915
281.913
281.915
281.92
281.929
281.941
281.954
281.968
281.981
282.004
282.003
282.004
282.005
282.007
282.009
282.011
282.015
282.018
281.989
281.51
281.509
281.509
281.508
281.508
281.506
281.505
281.503
281.501
281.498
281.692
281.692
281.692
281.693
281.693
281.694
281.695
281.697
281.699
281.701
281.625
281.624
281.624
281.624
281.624
281.624
281.625
281.625
281.625
281.626
281.637
281.636
281.636
281.636
281.637
281.638
281.64
281.642
281.644
281.646
281.625
281.623
281.623
281.623
281.625
281.627
281.63
281.633
281.637
281.64
281.593
281.591
281.59
281.591
281.593
281.596
281.601
281.605
281.61
281.613
281.629
281.626
281.625
281.626
281.629
281.634
281.641
281.649
281.658
281.667
281.429
281.426
281.425
281.426
281.429
281.435
281.442
281.449
281.456
281.462
281.988
281.982
281.98
281.981
281.985
281.992
282
282.011
282.022
282.034
292.014
296.752
297.819
295.391
291.292
296.4
297.71
295.61
291.309
296.707
298.293
296.948
291.292
296.909
298.851
298.454
291.33
297.09
299.354
299.623
291.301
297.043
299.425
299.736
291.203
296.859
299.292
299.679
291.141
296.688
299.182
299.785
290.857
296.312
298.913
299.836
290.674
296.079
298.854
300.213
291.568
293.118
293.361
292.357
291.086
292.844
293.149
292.15
291.275
293.186
293.655
292.778
291.532
293.598
294.275
293.606
291.845
294.039
294.875
294.412
292.385
294.667
295.598
295.29
292.917
295.232
296.205
296.042
293.388
295.684
296.647
296.516
293.573
295.861
296.858
296.824
293.699
296.084
297.261
297.49
287.703
288.399
288.613
288.268
287.099
288.004
288.285
287.897
287.235
288.268
288.629
288.34
287.537
288.701
289.166
289
287.905
289.188
289.757
289.688
288.39
289.766
290.392
290.356
288.868
290.317
290.989
290.997
289.353
290.853
291.563
291.644
289.685
291.203
291.964
292.161
290.191
291.684
292.56
293.008
285.874
286.14
286.252
286.208
285.147
285.588
285.754
285.659
285.203
285.733
285.966
285.927
285.443
286.074
286.384
286.404
285.742
286.47
286.853
286.922
286.173
286.989
287.436
287.557
286.619
287.515
288.02
288.195
287.097
288.061
288.619
288.861
287.526
288.526
289.135
289.468
288.337
289.306
289.982
290.5
284.65
284.724
284.791
284.851
283.877
284.101
284.21
284.207
283.887
284.168
284.326
284.366
284.07
284.421
284.637
284.724
284.301
284.723
284.995
285.129
284.652
285.144
285.471
285.655
285.018
285.577
285.958
286.193
285.433
286.053
286.486
286.779
285.825
286.484
286.965
287.334
286.629
287.269
287.799
288.333
283.916
283.897
283.936
284.033
283.117
283.238
283.306
283.323
283.098
283.256
283.359
283.407
283.236
283.44
283.585
283.67
283.414
283.669
283.856
283.98
283.706
284.012
284.244
284.408
284.012
284.37
284.645
284.85
284.37
284.776
285.093
285.342
284.714
285.151
285.504
285.81
285.5
285.924
286.307
286.736
283.443
283.376
283.399
283.511
282.637
282.705
282.747
282.763
282.603
282.694
282.76
282.8
282.702
282.826
282.921
282.987
282.837
282.995
283.122
283.217
283.075
283.269
283.429
283.555
283.323
283.555
283.747
283.904
283.624
283.889
284.113
284.303
283.91
284.198
284.446
284.677
284.653
284.935
285.203
285.518
283.128
283.034
283.047
283.167
282.33
282.369
282.394
282.406
282.286
282.341
282.382
282.41
282.354
282.431
282.493
282.539
282.453
282.553
282.637
282.705
282.644
282.77
282.878
282.968
282.841
282.993
283.124
283.237
283.09
283.265
283.418
283.554
283.318
283.508
283.678
283.841
284.013
284.201
284.384
284.601
282.905
282.795
282.803
282.928
282.129
282.151
282.167
282.175
282.079
282.112
282.138
282.157
282.122
282.17
282.21
282.242
282.191
282.255
282.311
282.357
282.341
282.424
282.496
282.559
282.492
282.592
282.681
282.76
282.694
282.81
282.915
283.009
282.868
282.994
283.109
283.221
283.513
283.639
283.763
283.909
282.739
282.619
282.623
282.752
281.993
282.007
282.016
282.021
281.943
281.964
281.98
281.992
281.967
281.997
282.023
282.044
282.011
282.053
282.09
282.121
282.127
282.181
282.229
282.272
282.236
282.303
282.363
282.417
282.399
282.477
282.547
282.612
282.525
282.609
282.687
282.762
283.12
283.205
283.288
283.385
282.609
282.481
282.484
282.617
281.899
281.907
281.913
281.916
281.854
281.867
281.877
281.885
281.863
281.882
281.899
281.912
281.889
281.916
281.94
281.961
281.975
282.011
282.044
282.072
282.05
282.094
282.134
282.171
282.18
282.232
282.28
282.324
282.265
282.322
282.375
282.425
282.812
282.869
282.924
282.988
282.501
282.368
282.37
282.506
281.832
281.837
281.84
281.842
281.796
281.803
281.81
281.814
281.793
281.805
281.816
281.824
281.807
281.825
281.84
281.854
281.87
281.894
281.915
281.934
281.915
281.944
281.971
281.996
282.021
282.056
282.088
282.117
282.071
282.109
282.144
282.178
282.571
282.609
282.646
282.688
282.408
282.272
282.273
282.411
281.782
281.785
281.787
281.788
281.757
281.762
281.766
281.769
281.745
281.753
281.76
281.765
281.753
281.764
281.774
281.783
281.798
281.814
281.828
281.84
281.819
281.838
281.856
281.873
281.908
281.931
281.952
281.972
281.927
281.953
281.976
281.998
282.384
282.409
282.434
282.462
282.325
282.187
282.188
282.326
281.743
281.745
281.747
281.747
281.733
281.736
281.738
281.74
281.712
281.717
281.721
281.725
281.718
281.725
281.732
281.737
281.75
281.76
281.769
281.777
281.752
281.765
281.776
281.787
281.831
281.846
281.86
281.873
281.822
281.839
281.855
281.869
282.24
282.256
282.272
282.29
282.248
282.111
282.112
282.249
281.711
281.713
281.714
281.714
281.719
281.721
281.722
281.723
281.688
281.691
281.694
281.696
281.696
281.701
281.705
281.708
281.718
281.724
281.73
281.735
281.706
281.714
281.722
281.728
281.782
281.791
281.801
281.809
281.745
281.757
281.767
281.776
282.129
282.139
282.15
282.161
282.176
282.044
282.044
282.176
281.683
281.684
281.685
281.685
281.713
281.714
281.715
281.716
281.67
281.672
281.674
281.675
281.682
281.685
281.688
281.69
281.696
281.7
281.704
281.707
281.674
281.68
281.684
281.689
281.753
281.759
281.765
281.771
281.689
281.697
281.703
281.708
282.045
282.051
282.058
282.065
282.11
281.988
281.988
282.111
281.656
281.656
281.657
281.657
281.713
281.714
281.714
281.714
281.655
281.656
281.657
281.658
281.672
281.674
281.676
281.677
281.68
281.683
281.685
281.687
281.653
281.656
281.659
281.662
281.738
281.742
281.746
281.749
281.645
281.65
281.654
281.657
281.986
281.991
281.995
281.999
282.062
281.957
281.957
282.062
281.623
281.623
281.623
281.623
281.715
281.716
281.716
281.716
281.642
281.643
281.643
281.644
281.664
281.665
281.666
281.666
281.666
281.668
281.669
281.67
281.636
281.638
281.64
281.642
281.727
281.729
281.732
281.734
281.602
281.606
281.608
281.609
281.961
281.963
281.966
281.969
282.051
281.973
281.973
282.051
281.573
281.573
281.573
281.573
281.714
281.714
281.714
281.714
281.631
281.632
281.632
281.632
281.655
281.656
281.656
281.657
281.653
281.654
281.655
281.655
281.623
281.624
281.626
281.627
281.708
281.709
281.711
281.712
281.546
281.549
281.551
281.551
281.98
281.982
281.984
281.985
282.075
282.042
282.042
282.075
281.498
281.497
281.498
281.499
281.702
281.703
281.703
281.703
281.626
281.626
281.626
281.626
281.648
281.648
281.649
281.649
281.643
281.643
281.644
281.644
281.615
281.615
281.616
281.617
281.677
281.679
281.68
281.68
281.467
281.469
281.47
281.471
282.037
282.039
282.04
282.041
287.132
284.081
282.678
281.848
281.187
280.585
280.026
279.521
279.051
278.603
287.408
284.945
283.34
282.173
281.216
280.429
279.741
279.118
278.537
277.983
288.628
286.002
283.936
282.612
281.517
280.622
279.84
279.136
278.488
277.888
290.098
287.1
284.868
283.384
282.166
281.163
280.279
279.477
278.736
278.056
291.409
288.156
285.77
284.12
282.79
281.683
280.706
279.817
278.992
278.245
293.038
289.253
286.711
284.895
283.451
282.242
281.176
280.206
279.304
278.494
294.623
290.218
287.524
285.544
283.995
282.692
281.547
280.506
279.54
278.688
296.087
291.136
288.295
286.16
284.514
283.121
281.905
280.803
279.784
278.887
297.292
291.916
288.954
286.687
284.943
283.456
282.164
281.002
279.943
279.012
298.769
293.221
290.207
287.868
286.034
284.471
283.115
281.893
280.785
279.802
288.405
285.952
284.358
283.17
282.269
281.568
281.008
280.551
280.178
279.876
288.236
285.694
283.884
282.56
281.567
280.797
280.169
279.64
279.187
278.794
288.526
285.818
283.808
282.439
281.399
280.578
279.892
279.305
278.794
278.349
289.092
286.274
284.159
282.737
281.623
280.725
279.963
279.298
278.709
278.194
289.699
286.812
284.598
283.082
281.882
280.904
280.066
279.331
278.675
278.103
290.521
287.484
285.141
283.505
282.213
281.154
280.246
279.446
278.73
278.106
291.39
288.075
285.603
283.831
282.458
281.324
280.358
279.508
278.747
278.09
292.387
288.622
286.063
284.154
282.716
281.52
280.508
279.618
278.824
278.137
293.31
289.025
286.461
284.424
282.94
281.681
280.627
279.703
278.89
278.182
294.694
289.888
287.483
285.364
283.848
282.54
281.45
280.489
279.648
278.912
286.583
285.424
284.484
283.677
282.985
282.4
281.913
281.515
281.197
280.956
286.608
285.211
284.018
283.021
282.192
281.505
280.934
280.456
280.058
279.729
286.908
285.332
283.953
282.851
281.944
281.193
280.562
280.023
279.562
279.171
287.442
285.748
284.235
283.043
282.055
281.231
280.525
279.911
279.374
278.911
288
286.243
284.6
283.309
282.235
281.333
280.554
279.87
279.265
278.741
288.766
286.868
285.085
283.678
282.512
281.529
280.679
279.93
279.262
278.682
289.584
287.439
285.515
283.979
282.727
281.669
280.757
279.955
279.239
278.62
290.498
287.973
285.943
284.276
282.955
281.833
280.873
280.03
279.279
278.627
291.365
288.342
286.287
284.494
283.122
281.943
280.946
280.073
279.305
278.632
292.671
289.127
287.216
285.343
283.949
282.733
281.711
280.812
280.023
279.328
285.154
284.698
284.196
283.681
283.198
282.771
282.405
282.102
281.863
281.689
285.224
284.502
283.753
283.054
282.431
281.89
281.427
281.037
280.716
280.459
285.485
284.626
283.72
282.902
282.184
281.563
281.028
280.568
280.178
279.853
285.972
285.009
283.975
283.053
282.244
281.54
280.926
280.389
279.922
279.524
286.504
285.462
284.304
283.279
282.378
281.591
280.901
280.292
279.755
279.294
287.194
286.041
284.755
283.613
282.617
281.747
280.982
280.305
279.703
279.183
287.918
286.586
285.167
283.899
282.81
281.861
281.03
280.297
279.643
279.079
288.732
287.109
285.581
284.185
283.019
282.002
281.121
280.344
279.652
279.053
289.53
287.486
285.919
284.392
283.169
282.094
281.174
280.367
279.657
279.036
290.776
288.286
286.814
285.204
283.956
282.847
281.904
281.074
280.344
279.702
284.019
283.927
283.707
283.422
283.128
282.853
282.609
282.403
282.239
282.123
284.064
283.722
283.302
282.864
282.443
282.057
281.715
281.422
281.18
280.988
284.265
283.846
283.31
282.762
282.242
281.767
281.344
280.975
280.661
280.402
284.677
284.196
283.555
282.904
282.287
281.724
281.218
280.77
280.379
280.049
285.143
284.607
283.864
283.11
282.399
281.749
281.163
280.641
280.181
279.786
285.752
285.139
284.288
283.423
282.615
281.879
281.216
280.624
280.096
279.641
286.389
285.649
284.684
283.699
282.796
281.977
281.245
280.593
280.011
279.509
287.098
286.15
285.086
283.978
282.994
282.105
281.319
280.62
279.997
279.458
287.793
286.525
285.411
284.179
283.132
282.186
281.359
280.629
279.985
279.423
288.941
287.34
286.274
284.959
283.884
282.904
282.055
281.303
280.641
280.057
283.282
283.359
283.283
283.135
282.966
282.801
282.65
282.519
282.415
282.342
283.275
283.114
282.884
282.623
282.355
282.098
281.862
281.655
281.483
281.347
283.405
283.209
282.905
282.556
282.199
281.857
281.541
281.261
281.022
280.824
283.725
283.502
283.124
282.688
282.241
281.813
281.415
281.058
280.745
280.48
284.103
283.854
283.402
282.875
282.339
281.826
281.349
280.918
280.535
280.209
284.611
284.324
283.79
283.166
282.538
281.939
281.385
280.883
280.433
280.046
285.143
284.782
284.158
283.427
282.708
282.027
281.402
280.838
280.333
279.898
285.737
285.245
284.539
283.698
282.898
282.146
281.465
280.852
280.304
279.829
286.313
285.602
284.843
283.89
283.027
282.218
281.495
280.85
280.278
279.78
287.353
286.417
285.672
284.644
283.748
282.906
282.16
281.493
280.903
280.384
282.798
282.953
282.95
282.879
282.787
282.692
282.603
282.526
282.463
282.421
282.747
282.671
282.549
282.399
282.236
282.073
281.918
281.78
281.664
281.572
282.821
282.731
282.562
282.348
282.114
281.879
281.656
281.453
281.278
281.133
283.055
282.96
282.744
282.462
282.153
281.841
281.542
281.268
281.026
280.822
283.343
283.245
282.98
282.626
282.238
281.848
281.475
281.131
280.824
280.561
283.751
283.642
283.321
282.888
282.418
281.948
281.501
281.088
280.717
280.397
284.177
284.035
283.649
283.128
282.574
282.027
281.51
281.036
280.609
280.242
284.659
284.446
283.997
283.383
282.754
282.139
281.566
281.042
280.571
280.164
285.114
284.767
284.269
283.563
282.874
282.204
281.589
281.032
280.536
280.105
286.045
285.564
285.06
284.289
283.566
282.863
282.224
281.647
281.132
280.679
282.477
282.668
282.7
282.669
282.621
282.569
282.519
282.474
282.439
282.415
282.4
282.364
282.3
282.216
282.12
282.02
281.923
281.835
281.76
281.7
282.432
282.391
282.299
282.17
282.022
281.867
281.715
281.574
281.451
281.348
282.596
282.559
282.438
282.261
282.053
281.834
281.618
281.416
281.236
281.083
282.806
282.778
282.626
282.395
282.123
281.837
281.555
281.29
281.051
280.847
283.124
283.101
282.914
282.622
282.282
281.926
281.576
281.247
280.949
280.692
283.453
283.424
283.193
282.832
282.42
281.993
281.579
281.191
280.841
280.538
283.835
283.775
283.499
283.066
282.587
282.098
281.63
281.194
280.801
280.46
284.18
284.048
283.733
283.228
282.694
282.156
281.647
281.178
280.759
280.394
285.012
284.809
284.48
283.923
283.356
282.786
282.254
281.765
281.326
280.94
282.258
282.465
282.512
282.502
282.478
282.45
282.422
282.398
282.378
282.366
282.17
282.154
282.121
282.074
282.019
281.96
281.901
281.846
281.8
281.762
282.174
282.156
282.106
282.031
281.939
281.839
281.739
281.645
281.561
281.491
282.283
282.272
282.205
282.096
281.96
281.811
281.66
281.516
281.386
281.275
282.431
282.432
282.347
282.199
282.014
281.81
281.603
281.405
281.225
281.071
282.673
282.687
282.58
282.389
282.148
281.886
281.621
281.366
281.134
280.933
282.92
282.94
282.806
282.563
282.264
281.941
281.618
281.311
281.03
280.788
283.218
283.23
283.067
282.769
282.415
282.038
281.666
281.314
280.993
280.715
283.47
283.452
283.259
282.909
282.508
282.086
281.676
281.293
280.946
280.646
284.216
284.165