/*--------------------------------*- C++ -*----------------------------------*\
| =========                 |                                                 |
| \\      /  F ield         | foam-extend: Open Source CFD                    |
|  \\    /   O peration     | Version:     4.0                                |
|   \\  /    A nd           | Web:         http://www.foam-extend.org         |
|    \\/     M anipulation  |                                                 |
\*---------------------------------------------------------------------------*/
FoamFile
{
    version     2.0;
    format      ascii;
    class       volScalarField;
    location    "2550";
    object      epsilon;
}
// * * * * * * * * * * * * * * * * * * * * * * * * * * * * * * * * * * * * * //

dimensions      [0 2 -3 0 0 0 0];

internalField   nonuniform List<scalar> 
34480
(
4930.66
4928.64
4928.53
4930.03
4933.24
4938.4
4951.02
5004.67
5194.52
5725.82
655.444
602.145
601.227
653.2
838.744
1576.06
5099.5
22849.8
103709
382386
618.833
523.173
509.523
569.161
809.96
1829.12
7041.66
35119.1
172535
699243
524.856
439.445
427.406
485.108
733.826
1883.42
8219.37
44412.5
232219
1.01098e+06
456.698
384.816
377.378
433.144
684.84
1927.56
9177.98
52591.4
289185
1.33362e+06
392.524
332.841
326.606
378.476
628.379
1956.27
10121.4
61045.5
350634
1.6987e+06
353.286
302.79
298.392
346.414
591.49
1962.78
10725.7
67199.6
400352
2.02276e+06
321.377
282.116
277.713
317.506
534.201
1820.5
10350.4
66983.6
412651
2.16764e+06
460.058
435.974
433.365
458.773
597.096
1410.13
6840.9
43695.9
275987
1.49852e+06
5709.13
5709.36
5714.81
5726.77
5743.59
5763.66
5787.87
5823.82
5890.22
5958.89
4856.09
4853.57
4853.08
4854.57
4858.57
4865.59
4876.72
4902.84
4965.48
5186.01
512.07
479.201
473.565
487.686
532.091
648.533
1002.86
2354.52
11801.2
103647
447.064
383.991
370.291
389.697
458.491
645.766
1229.68
3567.11
21358.1
197643
399.66
338.718
325.259
344.967
416.435
620.182
1294.47
4289.54
30234.6
294758
365.885
311.151
300.612
319.822
390.774
598.916
1321.83
4812.2
38717
396504
326.358
278.975
269.167
286.452
352.234
554.139
1294.11
5180.41
47348.7
508566
302.553
260.856
252.677
267.94
328.933
521.457
1256.17
5361.06
54216.3
607813
283.118
249.969
242.292
253.911
301.565
456.644
1074.64
4827.96
54992
652020
432.853
410.963
405.86
413.324
443.445
531.682
848.131
2980.65
36399.6
467544
5591.65
5587.34
5587.85
5594.49
5606.17
5620.75
5640.11
5673.13
5740.79
5913.69
4770.95
4768.55
4767.8
4768.62
4771.24
4775.38
4780.2
4791
4815.06
4870.12
399.89
386.446
383.782
388.541
403.674
439.04
527.089
758.596
1516.82
5758.41
308.148
276.917
270.081
279.259
309.671
379.288
550.405
1030.15
2859.5
14988.3
290.281
256.457
248.783
259.36
294.518
378.438
597.225
1279.8
4409.2
28919.6
280.876
247.915
241.466
252.422
289.532
380.32
629.031
1481.33
6140.44
47809.7
261.348
231.093
224.602
235
270.698
361.665
625.23
1625.61
8150.79
73152.8
250.555
222.533
216.941
226.431
260.522
349.184
617.188
1724.53
10165.3
101598
243.077
220.108
214.695
222.321
249.658
322.185
549.943
1594.44
11043.2
122896
402.724
386.381
382.631
388.278
408.712
461.62
607.128
1235.55
7680.89
92096.2
5481.98
5474.88
5472.59
5476.17
5484.97
5496.95
5513.46
5544.24
5616.72
5802.13
4674.93
4673.43
4673
4673.63
4675.43
4677.72
4678.72
4681.53
4688.94
4705.05
328.461
324.34
323.52
324.615
328.696
339.049
365.059
421.602
541.209
940.356
219.315
206.061
203.21
207.253
220.645
248.936
309.073
445.235
772.133
2085.82
214.443
197.722
193.789
199.311
217.268
256.759
345.544
565.534
1169.54
4141.64
217.577
199.538
195.951
202.15
222.754
269.3
379.533
675.974
1611.21
7155.35
210.716
192.769
188.731
195.122
216.35
266.429
392.098
761.671
2117.7
11599.9
208.512
190.73
187.084
193.236
214.632
266.162
401.076
827.407
2633.56
17124
209.984
194.707
190.985
196.278
214.348
258.899
379.796
795.211
2860.89
21851
375.69
363.705
360.871
365.063
380.026
416.999
508.755
782.705
2181.15
16545.4
5359.99
5352.91
5350.35
5353.41
5361.68
5374.06
5391.2
5422.06
5488.87
5632.08
4569.53
4568.84
4568.7
4569.1
4570.07
4570.78
4569.47
4568.34
4568.27
4570.04
285.509
284.769
284.67
284.438
284.433
286.168
293.405
307.378
329.715
375.954
167.904
162.886
161.845
163.264
168.297
178.518
198.3
237.434
308.116
484.227
166.47
158.745
156.785
159.283
167.538
184.773
219.571
294.213
443.138
889.759
173.916
164.608
162.675
165.765
176.214
198.553
246.035
356.47
601.426
1498
173.616
163.424
160.932
164.477
176.212
202.441
261.461
410.919
783.888
2434.98
176.093
165.192
162.821
166.446
179.079
207.883
275.36
457.576
966.535
3640.77
183.353
173.474
170.905
174.285
185.611
212.179
276.682
463.597
1058.69
4746.65
351.359
342.758
340.575
343.464
354.006
379.258
438.183
581.55
1009.51
3814.36
5230.32
5223.39
5220.67
5223.25
5230.87
5242.95
5259.61
5288
5343.68
5446.04
4455.71
4455.65
4455.73
4455.95
4456.32
4455.99
4453.97
4451.88
4450.1
4449.03
259.797
259.88
259.963
259.443
258.449
258.048
259.945
263.299
268.031
275.304
139.443
137.797
137.528
137.913
139.528
142.771
148.673
159.186
175.182
203.046
137.537
134.156
133.232
134.279
137.83
144.898
157.837
182.367
222.508
303.003
145.046
140.513
139.563
140.991
145.96
156.014
175.324
215.179
286.342
458.041
147.361
141.841
140.388
142.252
148.41
161.44
187.867
247.285
364.055
701.813
151.781
145.381
143.934
145.96
153.086
168.45
200.81
278.311
444.175
1014.09
162.27
156.169
154.493
156.572
163.4
178.661
212.136
297.466
500.454
1320.59
329.481
323.585
321.978
323.93
331.27
348.55
387.056
467.616
639.999
1290.6
5092.36
5085.83
5083.13
5085.33
5092.25
5103.53
5119.02
5143.94
5187.01
5254.27
4334.2
4334.56
4334.78
4334.88
4334.86
4333.9
4332.04
4330.03
4328.21
4326.88
243.796
243.751
243.776
243.301
242.372
241.926
242.288
243.018
244.121
245.925
123.984
123.571
123.578
123.617
124.003
124.851
126.394
128.975
132.496
137.195
120.666
119.231
118.808
119.222
120.695
123.517
128.269
136.263
147.554
163.747
126.666
124.563
124.14
124.753
127.006
131.345
138.963
152.942
174.38
210.558
129.507
126.629
125.818
126.751
129.858
136.116
147.661
170.703
209.285
285.812
134.272
130.644
129.806
130.878
134.751
142.687
157.839
190.044
247.844
381.558
146.169
142.568
141.525
142.751
146.713
155.222
172.352
210.934
286.967
489.915
310.149
306.299
305.141
306.434
311.514
323.504
349.142
396.332
480
667.552
4945.89
4939.96
4937.42
4939.29
4945.41
4955.45
4969.2
4990.2
5022.65
5066.5
4205.5
4206.11
4206.43
4206.46
4206.21
4205.13
4203.64
4202.05
4200.62
4199.54
232.908
232.484
232.379
232.028
231.435
231.25
231.268
231.416
231.803
232.794
115.601
115.579
115.657
115.607
115.614
115.727
115.999
116.502
117.191
117.984
111.053
110.449
110.255
110.415
111.021
112.153
113.943
116.656
120.073
123.797
115.292
114.364
114.201
114.445
115.431
117.257
120.25
125.186
131.928
140.366
117.754
116.307
115.872
116.323
117.847
120.797
125.852
134.851
148.24
167.559
122.085
120.091
119.632
120.172
122.222
126.25
133.355
146.775
167.939
202.423
134.229
132.21
131.594
132.293
134.516
139.159
147.945
165.501
195.873
252.188
293.168
290.807
289.977
290.833
294.385
302.957
320.354
349.001
394.125
462.634
4790.74
4785.57
4783.29
4784.86
4790.1
4798.62
4810.31
4827.3
4851.17
4880.1
4069.95
4070.7
4071.07
4071.06
4070.69
4069.8
4068.7
4067.55
4066.52
4065.73
224.503
223.703
223.468
223.231
222.984
222.931
222.911
222.974
223.259
224.15
111.006
111.069
111.144
111.088
111.013
110.94
110.888
110.889
110.952
111.059
105.704
105.442
105.35
105.411
105.667
106.137
106.846
107.834
108.975
109.978
108.445
108.057
108.01
108.098
108.518
109.274
110.455
112.241
114.482
116.707
110.262
109.561
109.337
109.548
110.279
111.652
113.89
117.508
122.46
128.095
113.879
112.81
112.573
112.833
113.899
115.929
119.31
125.064
133.3
143.385
125.601
124.541
124.197
124.585
125.796
128.287
132.824
140.975
153.817
171.851
278.195
276.872
276.265
276.848
279.403
285.765
297.755
315.703
341.525
371.321
4626.91
4622.58
4620.63
4621.92
4626.25
4633.15
4642.68
4655.89
4672.98
4691.96
3927.95
3928.61
3929.01
3928.97
3928.61
3927.99
3927.23
3926.43
3925.73
3925.16
216.926
216.031
215.685
215.536
215.482
215.46
215.461
215.538
215.833
216.725
108.393
108.455
108.507
108.465
108.394
108.299
108.2
108.116
108.072
108.077
102.81
102.686
102.638
102.663
102.779
102.988
103.292
103.688
104.115
104.434
104.449
104.294
104.289
104.318
104.495
104.807
105.281
105.948
106.728
107.39
105.648
105.322
105.21
105.308
105.652
106.284
107.281
108.777
110.711
112.634
108.536
107.972
107.856
107.978
108.53
109.556
111.197
113.759
117.161
120.569
119.493
118.986
118.807
119.02
119.662
120.986
123.326
127.18
132.824
139.521
264.784
264.158
263.689
264.111
266.037
270.904
279.255
290.781
306.139
320.302
4454.51
4451.06
4449.48
4450.5
4453.93
4459.28
4466.73
4476.62
4488.52
4500.77
3779.62
3780.14
3780.47
3780.44
3780.21
3779.79
3779.28
3778.75
3778.29
3777.87
209.481
208.599
208.258
208.151
208.116
208.112
208.133
208.227
208.538
209.427
106.793
106.836
106.869
106.84
106.787
106.714
106.636
106.566
106.529
106.536
101.295
101.227
101.2
101.212
101.269
101.371
101.516
101.695
101.88
101.999
102.197
102.134
102.139
102.147
102.225
102.362
102.563
102.829
103.116
103.338
102.916
102.77
102.717
102.761
102.921
103.209
103.654
104.284
105.065
105.813
105.178
104.879
104.824
104.883
105.174
105.703
106.521
107.712
109.189
110.496
115.215
115.009
114.926
115.043
115.377
116.078
117.268
119.1
121.602
124.389
252.452
252.276
251.886
252.218
253.758
257.51
263.348
270.863
280.268
287.088
4273.85
4271.23
4270.02
4270.79
4273.38
4277.37
4282.97
4290.1
4298.14
4305.89
3625.1
3625.52
3625.77
3625.76
3625.62
3625.35
3625.02
3624.67
3624.37
3624.05
201.821
200.966
200.655
200.561
200.535
200.539
200.57
200.67
200.985
201.856
105.699
105.721
105.739
105.721
105.686
105.639
105.589
105.546
105.532
105.552
100.53
100.488
100.472
100.478
100.509
100.563
100.638
100.728
100.821
100.874
100.978
100.947
100.951
100.953
100.993
101.062
101.161
101.283
101.404
101.494
101.368
101.306
101.28
101.301
101.375
101.506
101.704
101.973
102.295
102.62
103.14
102.975
102.95
102.981
103.142
103.429
103.854
104.44
105.118
105.681
112.203
112.15
112.12
112.186
112.359
112.725
113.312
114.17
115.245
116.503
240.735
240.836
240.48
240.767
242.079
244.888
248.948
253.873
259.756
262.811
4085.33
4083.46
4082.59
4083.15
4084.99
4087.87
4091.92
4096.86
4102.13
4106.94
3464.59
3464.93
3465.13
3465.13
3465.05
3464.88
3464.66
3464.44
3464.25
3463.98
193.767
192.947
192.664
192.581
192.559
192.565
192.597
192.695
193.002
193.846
104.848
104.856
104.864
104.852
104.831
104.804
104.776
104.755
104.76
104.79
100.159
100.133
100.124
100.127
100.143
100.172
100.211
100.259
100.311
100.338
100.35
100.328
100.326
100.328
100.353
100.397
100.457
100.527
100.591
100.641
100.535
100.509
100.497
100.507
100.541
100.601
100.69
100.806
100.941
101.098
101.943
101.844
101.832
101.852
101.949
102.115
102.352
102.664
103
103.28
110.018
110.035
110.032
110.072
110.165
110.346
110.619
111.002
111.418
112.027
229.21
229.476
229.124
229.39
230.527
232.496
235.279
238.491
242.216
243.257
3889.53
3888.28
3887.7
3888.09
3889.31
3891.36
3894.16
3897.45
3900.79
3903.71
3298.38
3298.67
3298.82
3298.83
3298.78
3298.68
3298.54
3298.4
3298.28
3298.04
185.211
184.43
184.175
184.103
184.082
184.087
184.115
184.204
184.498
185.309
104.114
104.113
104.114
104.107
104.096
104.082
104.07
104.063
104.079
104.114
99.9895
99.9743
99.9703
99.9718
99.9792
99.9922
100.011
100.034
100.064
100.08
100.045
100.025
100.02
100.021
100.04
100.073
100.117
100.167
100.21
100.245
100.114
100.102
100.096
100.101
100.118
100.146
100.187
100.238
100.296
100.382
101.253
101.188
101.181
101.197
101.26
101.366
101.509
101.691
101.876
102.044
108.329
108.384
108.393
108.42
108.468
108.549
108.66
108.813
108.924
109.246
217.324
217.839
217.514
217.774
218.586
219.932
221.793
223.858
226.22
226.179
3687.21
3686.36
3686.01
3686.25
3687.09
3688.47
3690.32
3692.42
3694.44
3696.19
3126.88
3127.13
3127.24
3127.25
3127.23
3127.16
3127.08
3126.99
3126.91
3126.69
176.069
175.332
175.105
175.044
175.023
175.025
175.047
175.125
175.4
176.174
103.439
103.433
103.429
103.425
103.42
103.415
103.412
103.414
103.437
103.475
99.9214
99.9142
99.9136
99.9141
99.9159
99.9192
99.9248
99.934
99.9504
99.9613
99.9113
99.893
99.8851
99.8866
99.9015
99.9278
99.9624
100
100.034
100.062
99.9195
99.9129
99.9091
99.9115
99.9203
99.9351
99.9549
99.9791
100.004
100.056
100.853
100.807
100.801
100.815
100.86
100.931
101.025
101.14
101.253
101.373
106.922
106.989
107.009
107.025
107.046
107.076
107.108
107.153
107.128
107.32
204.843
205.496
205.299
205.481
206.024
206.909
208.106
209.402
210.877
210.286
3479.12
3478.58
3478.36
3478.52
3479.06
3479.95
3481.11
3482.38
3483.54
3484.56
2950.62
2950.83
2950.91
2950.92
2950.91
2950.87
2950.82
2950.76
2950.7
2950.5
166.262
165.572
165.376
165.327
165.304
165.304
165.319
165.383
165.637
166.37
102.797
102.789
102.782
102.78
102.779
102.779
102.782
102.79
102.815
102.856
99.9046
99.9026
99.904
99.9038
99.9024
99.9001
99.8984
99.8993
99.9073
99.9166
99.8648
99.8484
99.84
99.841
99.8525
99.8728
99.8994
99.9285
99.9547
99.9785
99.845
99.8398
99.8367
99.8378
99.8429
99.8514
99.8622
99.8747
99.8866
99.9198
100.607
100.572
100.567
100.578
100.61
100.66
100.724
100.8
100.875
100.969
105.657
105.722
105.745
105.756
105.764
105.77
105.767
105.765
105.687
105.818
191.595
192.298
192.203
192.326
192.669
193.216
193.937
194.721
195.603
194.784
3266.15
3265.82
3265.69
3265.8
3266.13
3266.66
3267.35
3268.07
3268.68
3269.26
2770.32
2770.49
2770.55
2770.56
2770.56
2770.54
2770.5
2770.46
2770.42
2770.24
155.694
155.055
154.886
154.85
154.832
154.831
154.84
154.888
155.115
155.807
102.185
102.174
102.167
102.165
102.166
102.17
102.176
102.186
102.211
102.254
99.9137
99.914
99.916
99.9154
99.9125
99.908
99.9032
99.9003
99.9033
99.913
99.861
99.8474
99.84
99.8403
99.8484
99.8629
99.882
99.903
99.9229
99.9423
99.8324
99.8276
99.825
99.8252
99.8282
99.8334
99.8395
99.8463
99.8524
99.8736
100.43
100.403
100.398
100.407
100.429
100.463
100.506
100.556
100.606
100.683
104.458
104.51
104.532
104.54
104.542
104.539
104.524
104.506
104.416
104.516
177.436
178.119
178.103
178.182
178.378
178.68
179.06
179.501
179.975
179.133
3049.37
3049.19
3049.11
3049.18
3049.36
3049.66
3050.03
3050.4
3050.68
3051
2586.97
2587.12
2587.16
2587.18
2587.17
2587.16
2587.14
2587.1
2587.06
2586.91
144.231
143.653
143.513
143.489
143.484
143.481
143.484
143.516
143.706
144.352
101.609
101.596
101.588
101.586
101.588
101.593
101.601
101.611
101.633
101.677
99.9327
99.9326
99.934
99.9331
99.9303
99.926
99.9212
99.9177
99.9184
99.929
99.8783
99.868
99.8623
99.8622
99.8672
99.8764
99.8887
99.9026
99.9166
99.9315
99.8521
99.8482
99.8461
99.8459
99.8474
99.85
99.8531
99.8563
99.8591
99.8716
100.273
100.253
100.249
100.254
100.268
100.289
100.315
100.345
100.377
100.436
103.291
103.328
103.345
103.35
103.35
103.343
103.325
103.304
103.225
103.304
162.208
162.816
162.864
162.91
162.998
163.119
163.249
163.454
163.628
162.904
2830.08
2829.99
2829.95
2829.98
2830.07
2830.22
2830.4
2830.56
2830.67
2830.83
2401.73
2401.84
2401.87
2401.88
2401.88
2401.87
2401.85
2401.83
2401.8
2401.68
131.646
131.153
131.061
131.051
131.05
131.046
131.042
131.056
131.187
131.768
101.087
101.072
101.065
101.062
101.064
101.069
101.076
101.085
101.102
101.142
99.9496
99.9477
99.9478
99.9469
99.9449
99.9421
99.9391
99.937
99.9374
99.9479
99.9083
99.9014
99.8978
99.8975
99.9002
99.9053
99.9121
99.9202
99.929
99.9392
99.89
99.8876
99.8863
99.8859
99.8862
99.887
99.8878
99.8885
99.8893
99.8949
100.119
100.106
100.103
100.105
100.112
100.123
100.136
100.151
100.168
100.208
102.169
102.188
102.199
102.2
102.196
102.187
102.17
102.151
102.097
102.156
145.451
145.927
145.962
145.998
146.058
146.138
146.22
146.279
146.211
145.692
2609.7
2609.66
2609.65
2609.66
2609.69
2609.74
2609.79
2609.83
2609.87
2609.94
2215.02
2215.09
2215.1
2215.1
2215.1
2215.1
2215.09
2215.09
2215.09
2215.03
117.388
117.051
117.02
117.025
117.027
117.022
117.012
117.005
117.05
117.478
100.625
100.609
100.602
100.598
100.599
100.602
100.608
100.617
100.63
100.662
99.9659
99.9636
99.963
99.9623
99.9614
99.9603
99.9592
99.9586
99.9593
99.9663
99.9506
99.9469
99.9451
99.9449
99.9461
99.9485
99.9517
99.9556
99.9602
99.9658
99.9405
99.9395
99.9389
99.9386
99.9385
99.9383
99.938
99.9376
99.9373
99.9386
100.009
100.004
100.002
100.003
100.006
100.01
100.014
100.019
100.026
100.045
101.125
101.127
101.129
101.128
101.122
101.113
101.1
101.087
101.069
101.111
125.762
126.044
126.062
126.082
126.115
126.157
126.2
126.223
126.174
125.833
2388.98
2388.96
2388.97
2388.97
2388.97
2388.97
2388.97
2388.97
2388.95
2388.99
7183.97
7294.28
7250.53
7044.08
658917
683865
689429
697311
1.49739e+06
1.5841e+06
1.59162e+06
1.57172e+06
2.52526e+06
2.70356e+06
2.70103e+06
2.61951e+06
3.76095e+06
4.05608e+06
4.02975e+06
3.86819e+06
5.30803e+06
5.75137e+06
5.69983e+06
5.48697e+06
6.86853e+06
7.46751e+06
7.40371e+06
7.207e+06
7.88294e+06
8.61088e+06
8.5562e+06
8.42818e+06
5.61976e+06
6.17922e+06
6.11516e+06
6.08135e+06
7903.65
8151.4
7989.03
7569.8
5749.33
5802.12
5804.65
5765.51
308552
324674
345348
377327
689324
780869
824932
861815
1.17797e+06
1.40289e+06
1.4661e+06
1.49203e+06
1.76356e+06
2.1776e+06
2.25151e+06
2.26498e+06
2.45885e+06
3.11247e+06
3.21171e+06
3.24761e+06
3.13177e+06
4.04032e+06
4.2011e+06
4.31993e+06
3.57333e+06
4.70409e+06
4.94536e+06
5.18026e+06
2.8068e+06
3.81862e+06
4.0072e+06
4.32036e+06
7126.36
7357.96
7287
7066.65
4937.91
4948.86
4948.01
4938.29
21661
25960.4
24597.2
19966.5
61570.1
73410.2
68679.2
55731.5
128749
152840
140888
114033
228361
270537
246271
199441
372380
441934
401383
326407
545330
648543
591610
485409
702806
839403
769576
636850
584458
696873
629357
524658
6344.36
6431.66
6409.35
6314.02
4716.01
4718.14
4718.69
4717.89
1594.3
1711.29
1679.87
1544.99
4698.16
5172.46
5012.64
4434.63
11230.6
12505.1
11926.5
10213.7
22554.8
25253.9
23699.7
19746.2
41691.6
46923.3
43528.3
35537.4
68295.5
76986
70797.2
57130
97160.7
109914
100445
80430.5
83358.3
93766.2
84200
67266.9
5904.03
5945.73
5942.84
5904.92
4568.02
4568.92
4569.13
4568.6
423.281
436.212
438.466
431.553
710.11
757.052
761.567
731.38
1595.03
1736.83
1729.32
1610.3
3203.62
3529.32
3458.54
3118.67
6140.12
6823.39
6583.14
5758.28
10498.3
11693.8
11109.3
9472.77
15692.2
17555.7
16463.9
13724.8
13860.3
15397.3
14114
11586.5
5578.73
5600.76
5602.24
5586.63
4444.97
4445.72
4445.79
4445.17
275.585
278.457
279.169
277.911
226.357
231.457
233.285
232.246
385.582
403.074
407.312
400.545
674.049
717.859
722.112
696.121
1215.16
1316.48
1312.64
1233.52
2023.65
2211.45
2175.76
1991.41
3046.97
3360.5
3261.97
2904.57
2928.99
3183.33
3023.46
2664.18
5318.18
5328.96
5331.1
5325.53
4322.63
4323.35
4323.4
4322.77
241.774
243.68
244.08
243.022
140.134
140.888
141.241
141.227
175.865
178.564
179.693
179.438
243.199
250.227
252.463
250.763
368.97
386.595
390.324
383.183
549.224
582.687
585.329
565.811
795.524
854.988
852.145
807.136
984.691
1029.73
1010.27
962.504
5095.79
5100.67
5102.52
5101.27
4195.51
4196.21
4196.26
4195.66
228.094
229.812
230.151
229.141
118.189
118.327
118.381
118.358
125.852
126.302
126.527
126.554
146.029
147.259
147.803
147.781
183.405
186.916
188.184
187.622
233.787
240.342
242.097
240.31
314.613
327.187
329.126
323.569
543.033
548.697
546.182
542.491
4893.67
4895.68
4896.96
4897.15
4061.96
4062.62
4062.68
4062.11
219.49
221.144
221.473
220.498
110.888
110.945
110.954
110.915
110.346
110.419
110.457
110.466
117.765
117.975
118.086
118.118
131.711
132.522
132.875
132.842
149.878
151.235
151.776
151.735
187.359
190.3
191.146
190.486
400.186
397.21
396.464
399.123
4698.46
4699.15
4699.92
4700.41
3921.66
3922.27
3922.33
3921.81
212.195
213.794
214.115
213.177
107.868
107.917
107.921
107.881
104.484
104.491
104.494
104.494
107.574
107.596
107.61
107.622
113.656
113.877
113.977
113.969
121.96
122.212
122.351
122.428
144.579
145.283
145.546
145.484
335.33
330.249
329.469
332.885
4503.81
4503.91
4504.34
4504.79
3774.64
3775.2
3775.24
3774.78
205.055
206.595
206.907
206.006
106.338
106.386
106.391
106.353
101.988
101.986
101.984
101.983
103.358
103.35
103.347
103.349
106.198
106.277
106.31
106.296
110.765
110.778
110.805
110.857
126.728
126.859
126.912
126.907
297.591
292.081
291.176
294.491
4307.1
4306.97
4307.2
4307.54
3621.09
3621.59
3621.63
3621.2
197.657
199.135
199.437
198.575
105.37
105.417
105.423
105.388
100.853
100.851
100.849
100.848
101.489
101.481
101.476
101.476
102.817
102.856
102.869
102.856
105.715
105.685
105.683
105.713
117.998
117.975
117.957
117.945
271.427
265.974
265.02
268.135
4107.12
4106.94
4107.05
4107.27
3461.31
3461.74
3461.77
3461.39
189.833
191.247
191.537
190.716
104.624
104.668
104.674
104.641
100.318
100.317
100.316
100.316
100.637
100.632
100.629
100.628
101.224
101.249
101.256
101.244
103.288
103.261
103.254
103.27
113.192
113.133
113.092
113.071
250.819
245.572
244.626
247.548
3903.26
3903.13
3903.18
3903.29
3295.66
3296.03
3296.04
3295.72
181.495
182.841
183.12
182.341
103.966
104.007
104.013
103.983
100.064
100.064
100.064
100.064
100.245
100.243
100.241
100.239
100.469
100.488
100.492
100.482
102.072
102.055
102.049
102.055
110.241
110.18
110.134
110.103
232.985
227.996
227.086
229.831
3695.34
3695.31
3695.33
3695.34
3124.61
3124.91
3124.92
3124.64
172.573
173.852
174.119
173.384
103.349
103.387
103.392
103.365
99.9513
99.9524
99.9525
99.9516
100.065
100.064
100.063
100.061
100.119
100.132
100.135
100.127
101.425
101.419
101.416
101.415
108.201
108.151
108.107
108.067
216.461
211.76
210.903
213.474
3483.46
3483.54
3483.55
3483.46
2948.76
2948.99
2948.97
2948.75
163
164.211
164.468
163.779
102.757
102.793
102.798
102.772
99.9134
99.9155
99.9157
99.9142
99.9828
99.9829
99.9821
99.9809
99.9645
99.9737
99.975
99.9684
101.04
101.043
101.042
101.035
106.605
106.573
106.534
106.484
200.394
196.012
195.223
197.614
3268
3268.19
3268.2
3268.04
2768.85
2769.01
2768.98
2768.8
152.691
153.837
154.086
153.445
102.191
102.224
102.229
102.205
99.9167
99.9199
99.9203
99.918
99.9476
99.9483
99.948
99.9471
99.9035
99.9095
99.9099
99.9049
100.761
100.771
100.771
100.761
105.208
105.199
105.166
105.106
184.224
180.217
179.514
181.7
3049.65
3049.93
3049.94
3049.73
2585.93
2586
2585.96
2585.83
141.542
142.634
142.878
142.281
101.648
101.68
101.685
101.662
99.9387
99.9428
99.9432
99.9401
99.9375
99.9385
99.9386
99.9381
99.889
99.8924
99.8923
99.8891
100.511
100.524
100.525
100.514
103.876
103.891
103.866
103.8
167.523
164.009
163.416
165.335
2829.46
2829.79
2829.81
2829.58
2401.16
2401.14
2401.08
2401.02
129.373
130.425
130.665
130.103
101.141
101.169
101.172
101.151
99.9598
99.9642
99.9645
99.9613
99.9448
99.946
99.9464
99.9462
99.9026
99.9039
99.9038
99.9023
100.268
100.28
100.281
100.272
102.554
102.58
102.565
102.506
149.615
146.669
146.228
147.864
2608.74
2609.11
2609.12
2608.88
2215.02
2214.86
2214.8
2214.85
115.752
116.733
116.939
116.406
100.666
100.683
100.684
100.67
99.9738
99.9765
99.9767
99.9747
99.9697
99.9706
99.9711
99.9712
99.9404
99.9405
99.9404
99.9402
100.077
100.084
100.085
100.08
101.287
101.296
101.288
101.264
128.33
126.309
126.073
127.23
2388.2
2388.59
2388.6
2388.34
6105.83
5442.9
5173.15
5077.02
5022.21
4983.69
4958.09
4943.71
4935.73
4930.98
798395
193285
33403.8
11732.5
5300.81
2836.38
1749.37
1212.55
928.323
765.132
1.42407e+06
247051
44254.5
15129.5
6776.55
3637.5
2200.59
1460.5
1048.31
803.053
1.99549e+06
239539
46768.8
15018.3
6483.34
3391.25
2000.61
1297.55
912.962
688.616
2.45867e+06
252615
48935.6
14561.3
6098.44
3102.33
1792.12
1144.49
795.534
596.736
2.93041e+06
276403
51144
13975
5638.77
2768.7
1561.61
981.246
677.423
508.307
3.31264e+06
294979
52003.3
13162.8
5158.9
2467.98
1375.85
861.585
595.66
450.426
3.39662e+06
287395
47702.9
11002.6
4164.41
1946.82
1093.09
700.347
502.964
394.816
2.34169e+06
182158
27372.8
5711.5
2275.31
1237.95
858.045
671.632
568.2
506.59
6016.18
5992.96
5847.19
5822.78
5779.38
5755.08
5735.8
5725.56
5718.64
5712.69
5443.29
5175.2
5045.28
4972.7
4927.15
4897.14
4877.69
4866.14
4859.92
4855.99
180238
44894.9
13613.5
5322.76
2635.48
1567.21
1065.12
802.488
656.256
572.299
375678
86409.6
23467.3
8290.91
3889.11
2187.81
1383.89
956.223
710.806
565.763
595038
126246
30701.8
9651.69
4228.11
2261.6
1372.62
915.874
661.613
515.511
830508
165015
36428
10417.7
4317.66
2220
1310.4
857.655
610.421
472.023
1.1098e+06
207214
41754.1
10864.2
4247.26
2091.51
1198.79
768.922
542.104
418.494
1.38892e+06
244457
45356.8
10851
4055.94
1939.33
1095.74
699.619
493.251
382.963
1.5643e+06
258688
43999.7
9553.57
3395.93
1585.38
900.767
587.817
429.953
345.827
1.18226e+06
178733
26854
5250
1966.89
1091.44
771.68
615.22
526.612
476.298
6252.84
5952.9
5792.78
5733.95
5683.08
5652.31
5630.01
5616.41
5606.83
5598.53
4904.01
4869.18
4841.71
4818.91
4801.09
4788.17
4779.56
4774.4
4771.54
4769.49
9199.5
4175.79
2298.84
1432.77
985.406
735.867
591.222
504.967
452.253
420.442
23997.9
9564.65
4650.21
2546.86
1542.07
1010.25
712.689
538.355
431.123
364.763
45438
15962
6938.09
3411.16
1898.34
1159.04
771.544
555.702
428.542
352.748
73594.2
22902.7
9011.84
4056.12
2119.74
1232.37
791.817
556.671
421.552
343.29
112049
31041.9
11040.8
4548.45
2235.32
1237.05
767.207
526.302
393.527
318.997
156047
38869.7
12577.6
4795.17
2251.82
1206.04
734.794
500.605
373.483
303.546
191505
42871.9
12521.5
4385.7
1974.97
1036.76
636.287
443.073
341.777
286.189
141666
27756.2
7304.55
2547.43
1307.88
842.968
642.728
536.584
473.009
436.302
6018.33
5835.85
5711.23
5637.38
5584.28
5551.15
5528.14
5512.46
5500.88
5490.91
4712.99
4704.63
4695.45
4687.21
4680.96
4676.71
4674.06
4672.7
4672.37
4671.98
1208.04
906.487
708.87
570.477
479.263
420.776
383.195
358.482
341.798
331.524
3028.76
1919.51
1270.4
860.769
612.396
460.957
367.185
307.618
268.173
242.306
6221
3481.23
2057.54
1252.18
812.895
564.712
420.257
333.145
278.341
243.987
10747.1
5351.28
2878.33
1610.57
978.856
644.293
460.273
354.611
289.923
250.461
17346.6
7666.85
3761.55
1939.12
1105.24
689.18
472.662
353.786
284.446
243.625
25222.4
9947.91
4496.95
2165.94
1178.9
709.713
476.416
352.877
281.943
240.951
32104.1
11242.5
4659.4
2095.21
1100.7
652.788
441.617
333.008
272.802
238.106
23544.5
7367.33
2961.85
1443.43
906.153
663.598
542.632
472.678
427.918
401.457
5789.06
5660.53
5561.79
5497.89
5453.8
5424.92
5404.2
5389.35
5378.14
5368.66
4567.58
4566.35
4565.11
4564.14
4563.57
4563.32
4563.34
4563.72
4564.63
4565.47
412.728
382.967
356.671
334.887
318.459
306.414
297.565
290.935
285.856
282.609
637.769
512.553
411.732
334.52
279.763
241.962
216.078
198.176
185.238
176.181
1287.3
926.096
666.281
486.305
369.854
294.973
246.641
214.942
193.469
179.268
2276.16
1481.76
973.412
652.897
462.868
348.844
279.642
236.708
208.351
189.98
3814.35
2241.02
1346.92
830.656
548.861
390.263
299.441
245.7
212.123
191.242
5703.74
3044.39
1696.34
978.337
614.796
420.827
314.961
254.783
217.684
194.945
7460.62
3599.88
1861.22
1012.36
616.773
417.075
313.395
255.928
221.79
201.022
5662.37
2637.06
1436.19
904.151
665.894
539.388
466.865
421.215
389.975
371.106
5535.68
5459.63
5394.36
5347.96
5314.04
5289.78
5271.52
5257.82
5247.24
5238.43
4444.79
4444.91
4445.2
4445.68
4446.28
4446.91
4447.57
4448.37
4449.58
4451.02
277.887
274.889
271.418
267.992
264.974
262.414
260.26
258.413
256.79
255.485
225.927
210.879
194.965
180.654
169.147
160.378
153.853
148.965
145.036
142.076
373.141
321.835
273.241
233.345
203.638
182.283
167.102
156.244
148.28
142.753
613.202
488.042
382.076
302.912
248.819
212.62
188.487
172.25
160.536
152.456
1013.14
737.755
529.288
386.599
296.646
240.222
204.683
181.852
166.427
156.307
1522.14
1022.7
681.308
465.941
339.923
265.2
220.36
192.772
174.284
162.24
2045.51
1267
790.206
514.3
364.936
280.922
232.64
203.527
184.883
172.96
1814.39
1182.37
824.911
628.734
519.81
452.694
409.127
379.52
357.938
344.659
5303.34
5261.69
5221.85
5189.96
5164.53
5144.79
5129.22
5117.07
5107.46
5099.58
4322.52
4322.79
4323.24
4323.84
4324.53
4325.22
4325.87
4326.63
4327.77
4329.22
244.175
244.014
243.667
243.198
242.683
242.149
241.601
241.016
240.374
239.617
140.671
138.604
136.042
133.465
131.202
129.349
127.884
126.7
125.585
124.654
176.557
168.272
158.71
149.715
142.178
136.161
131.444
127.754
124.826
122.727
241.579
220.117
197.594
178.253
163.323
152.233
144.105
138.162
133.436
129.973
355.627
303.667
254.575
215.796
187.999
168.571
155.052
145.573
138.636
133.883
503.852
404.347
318.116
255.35
213.452
185.773
167.408
155.119
146.113
139.901
681.126
513.399
382.533
294.841
240.144
205.645
183.59
169.092
159.112
152.472
826.663
675.199
559.132
481.198
428.73
391.95
365.446
346.194
331.331
322.027
5091.78
5069.9
5046.1
5024.51
5005.81
4990.28
4977.47
4967.12
4958.74
4951.97
4195.42
4195.63
4195.97
4196.42
4196.94
4197.44
4197.91
4198.47
4199.4
4200.66
230.441
230.67
230.774
230.786
230.728
230.604
230.41
230.124
229.721
229.084
118.339
118.071
117.707
117.305
116.937
116.634
116.405
116.208
115.926
115.638
126.158
124.612
122.561
120.39
118.365
116.582
115.05
113.751
112.651
111.858
146.602
142.549
137.535
132.672
128.477
125.038
122.287
120.123
118.22
116.742
183.562
172.777
160.744
149.913
141.152
134.337
129.115
125.144
122.024
119.833
231.572
210.503
188.327
169.881
155.9
145.594
138.049
132.589
128.225
125.06
302.859
263.977
227.246
198.86
178.535
164.159
153.998
146.779
141.495
137.891
515.488
472.594
430.214
396.14
369.328
348.453
332.069
319.469
309.234
302.745
4892.53
4880.77
4866.39
4851.93
4838.51
4826.71
4816.58
4808.12
4801.09
4795.51
4061.88
4062.02
4062.23
4062.53
4062.87
4063.19
4063.46
4063.81
4064.51
4065.56
221.791
222.057
222.206
222.275
222.282
222.224
222.094
221.865
221.499
220.867
110.951
110.94
110.928
110.913
110.91
110.929
110.97
111.005
110.952
110.856
110.388
110.046
109.543
108.952
108.349
107.772
107.239
106.755
106.327
106.022
117.934
117.077
115.87
114.565
113.325
112.221
111.277
110.492
109.72
109.08
132.022
129.423
126.186
122.906
119.952
117.43
115.336
113.634
112.222
111.225
150.422
145.529
139.433
133.686
128.788
124.801
121.627
119.179
117.057
115.445
186.105
175.874
164.769
154.954
147.007