/*--------------------------------*- C++ -*----------------------------------*\
| =========                 |                                                 |
| \\      /  F ield         | foam-extend: Open Source CFD                    |
|  \\    /   O peration     | Version:     4.0                                |
|   \\  /    A nd           | Web:         http://www.foam-extend.org         |
|    \\/     M anipulation  |                                                 |
\*---------------------------------------------------------------------------*/
FoamFile
{
    version     2.0;
    format      ascii;
    class       volScalarField;
    location    "2550";
    object      k;
}
// * * * * * * * * * * * * * * * * * * * * * * * * * * * * * * * * * * * * * //

dimensions      [0 2 -2 0 0 0 0];

internalField   nonuniform List<scalar> 
34480
(
8.76721
8.7648
8.76468
8.76645
8.77026
8.77638
8.79133
8.85472
9.07726
9.68612
9.2798
8.66809
8.5754
8.85504
9.45414
10.341
11.9396
15.8518
28.7375
67.0235
15.0398
13.5704
13.1244
13.2726
13.8431
14.876
17.2095
22.9052
41.6355
101.406
14.4914
12.9639
12.5138
12.708
13.4185
14.833
18.0051
25.4062
49.2499
127.782
13.4284
12.0126
11.6616
11.9286
12.7801
14.4902
18.2596
26.9558
55.27
151.575
12.2196
10.9461
10.6337
10.9155
11.8071
13.7006
17.9421
27.9023
61.0604
176.657
11.3267
10.2065
9.95187
10.2269
11.122
13.0876
17.5895
28.4198
65.5179
198.015
9.83978
9.00349
8.79865
9.01439
9.72695
11.3972
15.4914
26.1246
64.5438
205.594
6.88242
6.61387
6.56521
6.67524
7.00468
7.72928
9.72986
16.2734
43.4112
149.667
9.23848
9.23873
9.24461
9.2575
9.27562
9.29722
9.32324
9.36181
9.43283
9.506
8.67858
8.67558
8.675
8.67677
8.68154
8.6899
8.70315
8.7342
8.80843
9.06734
7.92988
7.51001
7.41667
7.57439
8.0214
8.86379
10.3053
12.1077
15.4273
41.1728
12.2352
11.1726
10.8803
11.0836
11.7622
13.0233
15.2211
18.1221
23.7875
66.4125
12.1393
10.971
10.6522
10.8955
11.7005
13.2511
16.0318
20.0141
28.3901
86.1792
11.5987
10.4648
10.198
10.4741
11.3668
13.1082
16.2969
21.0751
31.8418
104.294
10.8052
9.75484
9.49945
9.77328
10.6716
12.4984
15.968
21.4558
34.8375
123.7
10.2148
9.26265
9.04547
9.29905
10.1725
12.0008
15.6079
21.552
37.1091
140.952
9.05417
8.33227
8.14814
8.3397
9.01744
10.5151
13.6622
19.2849
35.7041
147.363
6.64487
6.39752
6.34333
6.4175
6.68221
7.26722
8.61407
11.5617
22.4914
102.417
9.11132
9.10663
9.10719
9.1144
9.12708
9.1429
9.16388
9.19961
9.27261
9.45787
8.57685
8.57397
8.57307
8.57405
8.5772
8.58216
8.58793
8.60086
8.62964
8.69529
6.7826
6.57099
6.51694
6.59285
6.82427
7.27128
8.06581
9.35976
11.1352
16.4366
9.69132
9.07122
8.91788
9.08549
9.60517
10.5601
12.1752
14.5697
17.5471
29.1787
9.88896
9.15098
8.96562
9.17952
9.83892
11.0947
13.2871
16.6418
21.1137
40.7608
9.75959
9.0044
8.84159
9.07833
9.81684
11.2605
13.8636
17.9405
23.7779
52.2521
9.331
8.60358
8.43607
8.67399
9.42835
10.9742
13.8888
18.6187
26.0238
64.9006
9.01601
8.33161
8.18539
8.40801
9.14952
10.7176
13.8024
18.9563
27.7476
76.9245
8.19528
7.66695
7.53769
7.70808
8.28311
9.56558
12.2712
17.1624
26.6519
82.8777
6.3736
6.18137
6.14154
6.20249
6.41342
6.87616
7.92506
10.3685
16.6986
57.1058
8.99179
8.98402
8.98151
8.98543
8.99505
9.00815
9.02618
9.05974
9.13853
9.33854
8.46138
8.45956
8.45905
8.45982
8.46198
8.46475
8.46596
8.46934
8.47827
8.49768
6.00861
5.9178
5.8907
5.92154
6.02177
6.21438
6.55109
7.13251
7.99599
9.88091
7.80866
7.49601
7.42313
7.51857
7.82006
8.38291
9.33398
10.8209
12.6576
17.0736
8.12473
7.70728
7.60354
7.74102
8.16716
8.98947
10.4231
12.7266
15.5982
23.5538
8.24742
7.7888
7.69194
7.84977
8.34801
9.33559
11.1224
14.0846
17.8845
30.1248
8.08389
7.61546
7.50585
7.67281
8.20239
9.30153
11.3875
14.9952
19.8641
37.6353
7.97589
7.51158
7.41211
7.57363
8.11059
9.25623
11.5227
15.577
21.3676
44.9593
7.44531
7.07502
6.98297
7.11142
7.53533
8.48136
10.4798
14.3819
20.6523
48.768
6.13163
5.98466
5.95476
6.00074
6.15814
6.49613
7.2248
8.98538
12.9805
33.0374
8.85789
8.85009
8.84727
8.85064
8.85975
8.87339
8.89224
8.92614
8.99931
9.15518
8.33372
8.33288
8.33271
8.33319
8.33437
8.33523
8.33364
8.33227
8.33219
8.33433
5.53762
5.50317
5.49008
5.49996
5.53614
5.6049
5.72017
5.91162
6.17865
6.62112
6.566
6.42832
6.39752
6.4378
6.57417
6.83248
7.2715
7.98204
8.87904
10.3566
6.87202
6.65536
6.59874
6.66949
6.89673
7.33937
8.11408
9.40816
11.0453
14.0195
7.10205
6.84231
6.78596
6.87327
7.15877
7.72691
8.7592
10.5599
12.8858
17.7758
7.0973
6.8107
6.73898
6.83948
7.16328
7.83574
9.11549
11.4644
14.6136
22.2337
7.12084
6.81805
6.74995
6.8519
7.19679
7.92876
9.37332
12.1313
15.9826
26.6475
6.81345
6.56183
6.49574
6.58181
6.86391
7.48519
8.77847
11.4746
15.6917
29.0131
5.91844
5.80756
5.78481
5.81663
5.92764
6.15995
6.63029
7.74137
10.1054
19.2392
8.71445
8.70674
8.70372
8.70659
8.71506
8.72847
8.74696
8.7784
8.83992
8.95244
8.19475
8.19468
8.19477
8.19505
8.1955
8.19509
8.19261
8.19005
8.18787
8.18656
5.27034
5.25894
5.2526
5.25486
5.26616
5.288
5.32347
5.37806
5.44749
5.53731
5.8094
5.75796
5.74825
5.76167
5.81268
5.90954
6.0721
6.3347
6.6742
7.1389
6.04298
5.93929
5.91051
5.94299
6.05122
6.25971
6.61643
7.21167
7.98783
9.10665
6.2823
6.14564
6.11579
6.15943
6.30769
6.59745
7.11202
8.0211
9.23791
11.2029
6.35108
6.1855
6.1413
6.1975
6.38053
6.75302
7.44436
8.74046
10.5397
13.8038
6.44214
6.25418
6.2104
6.27054
6.47787
6.90715
7.72901
9.34056
11.6533
16.3938
6.29321
6.13032
6.08551
6.14047
6.31825
6.69919
7.46009
9.07702
11.6574
17.7686
5.73294
5.65179
5.63556
5.6569
5.73315
5.88843
6.184
6.83621
8.10061
11.8449
8.56053
8.5532
8.55018
8.55265
8.5604
8.57304
8.59038
8.61823
8.66627
8.74103
8.04508
8.04552
8.0458
8.04593
8.0459
8.04471
8.0424
8.03992
8.03767
8.03601
5.12661
5.1232
5.11974
5.11967
5.12256
5.12896
5.13906
5.15343
5.16958
5.18565
5.37592
5.36098
5.36011
5.36298
5.378
5.4072
5.45621
5.53388
5.63282
5.75052
5.52653
5.47962
5.46567
5.47945
5.52756
5.61832
5.76705
6.00379
6.30876
6.68035
5.72718
5.65975
5.64547
5.66545
5.73715
5.87327
6.10448
6.49906
7.03139
7.75014
5.81505
5.72399
5.69811
5.7277
5.82543
6.01856
6.36059
6.9839
7.86725
9.18694
5.92898
5.81721
5.79061
5.82393
5.94243
6.17999
6.61213
7.43966
8.65433
10.6616
5.88358
5.78311
5.75428
5.78768
5.89431
6.11618
6.53635
7.40179
8.80325
11.4704
5.57813
5.52017
5.50919
5.52294
5.57398
5.67522
5.8587
6.23085
6.89039
8.32519
8.39558
8.38886
8.38598
8.3881
8.39503
8.40639
8.42193
8.44564
8.48223
8.53152
7.88502
7.88578
7.88618
7.88621
7.88591
7.88456
7.88269
7.8807
7.87891
7.87758
5.05199
5.05076
5.04851
5.048
5.04862
5.05066
5.05362
5.05744
5.061
5.0634
5.13786
5.13621
5.13825
5.13784
5.1401
5.14556
5.15601
5.17354
5.19603
5.22002
5.2196
5.19896
5.19234
5.19795
5.21873
5.25715
5.3172
5.40614
5.51476
5.62679
5.36808
5.33676
5.33077
5.33922
5.37217
5.43286
5.53107
5.68806
5.89271
6.12696
5.44708
5.39922
5.38478
5.39966
5.44975
5.54584
5.70753
5.98375
6.36786
6.8561
5.55773
5.49379
5.47855
5.49601
5.56125
5.68791
5.90592
6.2979
6.86482
7.6481
5.57428
5.51557
5.49807
5.51748
5.57854
5.70232
5.92564
6.35728
7.04568
8.13535
5.45382
5.41323
5.40625
5.41484
5.44842
5.51343
5.62683
5.83777
6.18541
6.75855
8.21908
8.21315
8.21054
8.21234
8.21834
8.22808
8.24144
8.26083
8.28804
8.32095
7.71467
7.71562
7.71608
7.71606
7.7156
7.71448
7.71309
7.71163
7.71033
7.70934
5.01364
5.01275
5.01107
5.01064
5.01093
5.01192
5.01317
5.01455
5.0155
5.01565
5.01144
5.01361
5.01608
5.01507
5.01375
5.01243
5.01194
5.01303
5.01553
5.01856
5.04475
5.03553
5.03231
5.03459
5.04368
5.06023
5.085
5.11906
5.15789
5.19174
5.1454
5.13163
5.12958
5.13287
5.14749
5.17373
5.21451
5.27516
5.34997
5.42253
5.20532
5.18121
5.17349
5.18071
5.20561
5.25217
5.32728
5.44635
5.60503
5.77832
5.30063
5.26519
5.25694
5.26565
5.30064
5.36668
5.4751
5.65552
5.9051
6.19341
5.35056
5.31836
5.30843
5.31926
5.35258
5.41879
5.5342
5.74203
6.06226
6.49184
5.35788
5.3298
5.32565
5.33096
5.35294
5.39451
5.4646
5.58461
5.76938
6.0209
8.0306
8.0256
8.02334
8.02483
8.02985
8.03783
8.04884
8.06411
8.08383
8.1057
7.53417
7.53501
7.53551
7.53547
7.53501
7.53422
7.53324
7.53222
7.53133
7.5306
4.99322
4.99239
4.99108
4.99081
4.99115
4.99192
4.99283
4.99375
4.99433
4.99423
4.94616
4.94879
4.95088
4.95005
4.94828
4.94586
4.94332
4.94112
4.93966
4.93897
4.94928
4.94482
4.94313
4.94412
4.94834
4.95592
4.96686
4.98092
4.99593
5.00713
5.01295
5.00711
5.00664
5.00783
5.01425
5.02557
5.04258
5.06623
5.09365
5.11683
5.05337
5.04169
5.03771
5.04115
5.05325
5.07543
5.1101
5.16146
5.22692
5.29111
5.13023
5.11096
5.10672
5.11094
5.12947
5.16363
5.21764
5.30111
5.41038
5.51827
5.19569
5.17943
5.17428
5.18011
5.19735
5.23111
5.28881
5.38656
5.53154
5.7058
5.28668
5.26729
5.26504
5.26837
5.28292
5.30978
5.35334
5.4223
5.52053
5.64045
7.82987
7.82582
7.82397
7.82516
7.82919
7.83545
7.84418
7.85576
7.86967
7.88398
7.34328
7.34395
7.34438
7.34434
7.34404
7.3435
7.34284
7.34215
7.34156
7.34101
4.98135
4.98063
4.97967
4.97952
4.97986
4.98054
4.98135
4.98215
4.98272
4.98262
4.91316
4.91532
4.91688
4.91636
4.91498
4.91301
4.91082
4.90874
4.9072
4.90635
4.89944
4.897
4.89603
4.89651
4.89866
4.90246
4.90779
4.91428
4.92088
4.92515
4.93748
4.93492
4.93492
4.93534
4.93828
4.94342
4.95091
4.96067
4.97118
4.97929
4.96218
4.95671
4.95471
4.95634
4.96216
4.97264
4.98862
5.01099
5.03837
5.06425
5.02226
5.01175
5.00965
5.01172
5.02164
5.03952
5.06687
5.10649
5.15534
5.19849
5.09317
5.08592
5.08362
5.08668
5.09501
5.11121
5.13865
5.18313
5.2465
5.3217
5.23574
5.22221
5.22116
5.22339
5.23332
5.25107
5.27851
5.31881
5.37091
5.4318
7.6167
7.61359
7.61215
7.61307
7.61615
7.62088
7.62753
7.63599
7.64553
7.65472
7.14175
7.14229
7.14263
7.14262
7.14243
7.14207
7.14164
7.14118
7.14079
7.14036
4.97347
4.97291
4.97226
4.97218
4.97249
4.97306
4.97376
4.97446
4.975
4.97486
4.89667
4.89828
4.89937
4.89911
4.8982
4.8969
4.89545
4.89407
4.89313
4.89263
4.87472
4.87323
4.87265
4.87291
4.87409
4.87614
4.87896
4.8823
4.88565
4.88753
4.89636
4.89504
4.89504
4.89522
4.89676
4.89943
4.90319
4.9078
4.91235
4.91573
4.91008
4.90757
4.90657
4.90737
4.91017
4.91514
4.92253
4.93242
4.94409
4.95558
4.95689
4.95095
4.94991
4.95103
4.95656
4.9663
4.98068
5.00039
5.02319
5.04215
5.02817
5.02567
5.02497
5.02655
5.03021
5.03731
5.04926
5.06827
5.09394
5.12882
5.20037
5.19075
5.1904
5.19207
5.19916
5.21129
5.22896
5.25308
5.28068
5.31354
7.39104
7.38879
7.38774
7.38841
7.39063
7.39411
7.39898
7.40494
7.41129
7.41708
6.92934
6.9298
6.93007
6.93007
6.92995
6.92973
6.92944
6.92915
6.9289
6.92853
4.96746
4.9671
4.9667
4.96667
4.96692
4.96737
4.96792
4.96848
4.96899
4.96874
4.88842
4.88959
4.89035
4.89025
4.88972
4.88897
4.88813
4.88736
4.88696
4.88674
4.86323
4.86231
4.86197
4.86212
4.86276
4.86388
4.8654
4.8672
4.86908
4.87002
4.87503
4.87413
4.87401
4.87413
4.8751
4.87678
4.87907
4.88172
4.88415
4.88599
4.88185
4.88068
4.88018
4.88058
4.88196
4.88436
4.88783
4.8923
4.89739
4.90306
4.91901
4.9154
4.91485
4.91558
4.9189
4.92458
4.93263
4.94317
4.95461
4.96418
4.98843
4.98821
4.98835
4.98918
4.99053
4.99313
4.99747
5.00457
5.01309
5.03088
5.17622
5.16922
5.16926
5.17066
5.17599
5.18457
5.19633
5.21123
5.22579
5.24494
7.15296
7.15142
7.15072
7.15119
7.15269
7.1552
7.15863
7.16267
7.16675
7.17034
6.70592
6.70631
6.70652
6.70653
6.70646
6.70632
6.70614
6.70595
6.70578
6.70546
4.96235
4.96221
4.96202
4.96203
4.96222
4.96253
4.96293
4.96335
4.96382
4.96345
4.88422
4.88509
4.8856
4.88559
4.88533
4.88495
4.88456
4.88421
4.88418
4.88417
4.85845
4.85792
4.85776
4.85783
4.85815
4.8587
4.85945
4.86039
4.86146
4.86199
4.86459
4.86384
4.86362
4.86371
4.86442
4.86565
4.86728
4.8691
4.87071
4.87198
4.86743
4.86685
4.86658
4.86679
4.8675
4.86871
4.87039
4.87248
4.87478
4.8779
4.89783
4.89543
4.89509
4.89565
4.89783
4.90142
4.90631
4.91247
4.91881
4.92461
4.96448
4.96519
4.96573
4.96618
4.96649
4.96704
4.96787
4.96965
4.97065
4.98099
5.15952
5.15439
5.15465
5.15593
5.16005
5.16639
5.17451
5.18408
5.19162
5.20391
6.90271
6.90165
6.90122
6.90152
6.90255
6.90428
6.90659
6.90921
6.91173
6.91391
6.47141
6.47175
6.4719
6.47192
6.47188
6.4718
6.47168
6.47156
6.47144
6.47115
4.95775
4.95783
4.95779
4.95784
4.95797
4.95817
4.95842
4.95871
4.95917
4.95871
4.88198
4.88264
4.88296
4.88301
4.88291
4.88279
4.88268
4.88261
4.88284
4.88298
4.85696
4.8567
4.85667
4.8567
4.8568
4.85699
4.85727
4.85768
4.85828
4.85862
4.85988
4.85922
4.85894
4.85901
4.85955
4.86051
4.86175
4.86311
4.86431
4.86531
4.86061
4.86026
4.86009
4.8602
4.86059
4.86125
4.86211
4.86315
4.86424
4.86613
4.88611
4.88438
4.88413
4.8846
4.88613
4.88857
4.89176
4.89567
4.89956
4.90373
4.94944
4.95038
4.95107
4.95134
4.95126
4.951
4.95044
4.95008
4.94803
4.95504
5.14739
5.14359
5.14401
5.1452
5.14849
5.15336
5.15921
5.16562
5.16927
5.17802
6.6405
6.63981
6.63953
6.63973
6.64042
6.64155
6.64303
6.64465
6.64612
6.64742
6.22587
6.22616
6.22627
6.22629
6.22628
6.22622
6.22615
6.22607
6.22598
6.22571
4.95346
4.95377
4.95384
4.95393
4.95401
4.95411
4.95424
4.95442
4.95492
4.95441
4.88063
4.88113
4.8813
4.88135
4.88136
4.8814
4.88147
4.88159
4.88198
4.88229
4.85702
4.85695
4.85699
4.85699
4.85696
4.85694
4.85694
4.85704
4.85734
4.85764
4.85804
4.85747
4.85719
4.85723
4.85764
4.85836
4.85929
4.86032
4.86124
4.86205
4.85775
4.85749
4.85736
4.85741
4.85764
4.85803
4.85851
4.85906
4.85962
4.86082
4.87923
4.87793
4.87772
4.8781
4.8792
4.88091
4.88308
4.88569
4.88825
4.89155
4.93854
4.93936
4.94005
4.94025
4.94009
4.93964
4.93871
4.93771
4.93472
4.94011
5.13759
5.13481
5.13529
5.13643
5.13912
5.14298
5.14735
5.15181
5.15323
5.15999
6.36666
6.36623
6.36607
6.3662
6.36663
6.36732
6.36822
6.36915
6.36994
6.3707
5.96959
5.96984
5.96992
5.96994
5.96993
5.9699
5.96985
5.96979
5.96973
5.96947
4.94938
4.94989
4.95004
4.95017
4.95022
4.95024
4.95027
4.95035
4.95091
4.95047
4.87956
4.8799
4.87995
4.87999
4.88005
4.88017
4.88036
4.88059
4.88107
4.88157
4.85775
4.85776
4.85782
4.8578
4.85772
4.8576
4.85747
4.85742
4.85755
4.85786
4.85756
4.85709
4.85684
4.85686
4.85714
4.85765
4.85831
4.85904
4.85972
4.86037
4.85686
4.85666
4.85655
4.85657
4.85671
4.85693
4.85721
4.85751
4.8578
4.85858
4.87434
4.87335
4.87317
4.87345
4.87421
4.87538
4.87684
4.87855
4.88027
4.88293
4.92852
4.92907
4.92969
4.92986
4.92974
4.92935
4.9285
4.9275
4.92454
4.92896
5.12815
5.12619
5.12668
5.12775
5.12998
5.13308
5.13644
5.13959
5.13968
5.1451
6.08174
6.08149
6.0814
6.08148
6.08173
6.08212
6.08262
6.0831
6.08349
6.08391
5.70321
5.70342
5.70349
5.7035
5.7035
5.70348
5.70344
5.7034
5.70334
5.70311
4.94521
4.94585
4.94607
4.94625
4.94629
4.94626
4.94619
4.94618
4.94677
4.94657
4.87839
4.87852
4.87848
4.87848
4.87856
4.87872
4.87895
4.87924
4.87971
4.88042
4.85858
4.85858
4.85862
4.85859
4.85851
4.85838
4.85824
4.85814
4.85819
4.85854
4.85769
4.85734
4.85715
4.85714
4.85732
4.85763
4.85805
4.85853
4.85901
4.8595
4.85697
4.85681
4.85673
4.85673
4.8568
4.85691
4.85705
4.8572
4.85734
4.85779
4.8697
4.86898
4.86883
4.869
4.86947
4.87019
4.87108
4.87211
4.8732
4.87524
4.91724
4.91752
4.918
4.91814
4.91805
4.91774
4.91707
4.91626
4.91381
4.91738
5.11633
5.11505
5.11551
5.11648
5.11828
5.12072
5.12327
5.12541
5.12469
5.12892
5.78656
5.78643
5.78638
5.78642
5.78655
5.78674
5.787
5.78721
5.78737
5.78758
5.42759
5.42776
5.4278
5.42781
5.42781
5.4278
5.42778
5.42774
5.4277
5.42751
4.93954
4.94018
4.94055
4.94079
4.94084
4.94075
4.94058
4.94042
4.94078
4.94109
4.87678
4.87666
4.87656
4.87651
4.87657
4.87672
4.87695
4.87723
4.87765
4.87849
4.8591
4.85904
4.85904
4.85901
4.85895
4.85886
4.85877
4.85871
4.85874
4.85908
4.85814
4.85791
4.85779
4.85778
4.85787
4.85804
4.85827
4.85855
4.85884
4.85918
4.8576
4.85751
4.85746
4.85745
4.85746
4.8575
4.85754
4.85758
4.85762
4.85783
4.86472
4.86428
4.86417
4.86424
4.86448
4.86484
4.86527
4.86577
4.86637
4.86774
4.90353
4.90357
4.90386
4.90391
4.90378
4.90347
4.90293
4.9023
4.90068
4.90331
5.09505
5.09435
5.09473
5.09553
5.09687
5.09864
5.10043
5.10169
5.10053
5.10333
5.48212
5.48206
5.48205
5.48206
5.4821
5.48216
5.48224
5.4823
5.48235
5.48245
5.14253
5.14263
5.14264
5.14264
5.14264
5.14264
5.14264
5.14263
5.14263
5.14254
4.92471
4.92527
4.92589
4.92622
4.9263
4.92618
4.92589
4.92549
4.92508
4.92571
4.87368
4.87333
4.87313
4.87303
4.87304
4.87316
4.87336
4.87364
4.87404
4.87487
4.85937
4.8593
4.85928
4.85925
4.85922
4.85919
4.85915
4.85914
4.85916
4.85939
4.85895
4.85883
4.85877
4.85876
4.8588
4.85888
4.85899
4.85912
4.85927
4.85945
4.85863
4.85859
4.85857
4.85856
4.85856
4.85855
4.85854
4.85853
4.85853
4.85857
4.86083
4.86064
4.86058
4.86061
4.8607
4.86083
4.86098
4.86115
4.86138
4.86202
4.88685
4.88669
4.88675
4.88669
4.88651
4.8862
4.88578
4.88536
4.88479
4.88649
5.04091
5.04062
5.04087
5.04137
5.04216
5.0432
5.04422
5.04477
5.04377
5.04481
5.16848
5.16845
5.16846
5.16846
5.16846
5.16847
5.16846
5.16846
5.16843
5.16849
11.269
11.3841
11.3385
11.1222
82.8104
84.8877
85.3475
85.9967
143.138
148.612
149.081
147.836
202.8
212.237
212.105
207.816
264.482
278.143
276.938
269.486
332.777
351.058
348.957
340.215
395.161
417.813
415.429
408.038
433.168
459.441
457.494
452.918
345.682
368.259
365.709
364.36
11.4769
11.7155
11.5594
11.1514
9.71376
9.77314
9.77597
9.73198
76.0776
79.3216
80.0811
80.2023
133.885
144.805
145.906
143.741
192.905
214.535
215.07
209.174
256.14
290.983
290.036
280.086
329.511
380.274
378.5
365.624
399.601
466.623
465.655
452.625
446.087
527.576
528.617
517.426
350.521
422.882
420.972
416.137
10.7115
10.9424
10.8719
10.6516
8.77684
8.78981
8.7888
8.77729
26.538
28.9548
28.2176
25.7085
49.3568
53.763
52.099
47.4254
74.5825
81.342
78.2227
70.7074
103.456
112.996
107.818
96.736
139.442
152.805
145.178
129.285
177.31
194.675
184.516
163.493
207.529
228.706
216.446
190.91
164.728
181.622
170.139
149.303
9.91283
10.0036
9.98041
9.8812
8.51189
8.51445
8.51511
8.51415
11.4729
11.7226
11.693
11.4959
21.2127
21.94
21.8766
21.3345
31.9971
33.4839
33.2321
31.9165
44.5104
46.944
46.2799
43.7579
60.6339
64.4025
63.0829
58.7668
78.0555
83.1685
80.9019
74.4581
92.5754
99.1261
95.8396
87.1476
71.9349
77.0754
73.5637
65.9625
9.44869
9.49313
9.49006
9.44964
8.33287
8.33397
8.33423
8.33358
7.04185
7.13342
7.15863
7.12878
11.6779
11.9742
12.0572
11.9712
16.8711
17.4856
17.5861
17.3194
22.8365
23.8565
23.8924
23.2885
30.7129
32.338
32.2254
31.0367
39.2231
41.4579
41.0404
39.0612
46.2614
49.1976
48.3808
45.4008
34.4009
36.6197
35.4295
32.5495
9.09835
9.12229
9.1239
9.10694
8.18255
8.18347
8.18356
8.18279
5.60669
5.62097
5.6262
5.62447
7.45585
7.5258
7.55853
7.5599
9.93738
10.1211
10.1884
10.1633
12.8336
13.1794
13.2658
13.1653
16.7961
17.4126
17.5025
17.2348
21.0456
21.9425
21.9659
21.4368
24.4782
25.7303
25.6288
24.6926
17.4808
18.375
18.0206
17.0169
8.81281
8.82472
8.82708
8.82094
8.03171
8.0326
8.03267
8.03189
5.19692
5.20011
5.20099
5.2
5.8231
5.83892
5.84757
5.84977
6.91425
6.96715
6.99233
6.99343
8.25891
8.37118
8.41552
8.40582
10.2336
10.4612
10.5312
10.4824
12.3586
12.7064
12.7767
12.6576
14.053
14.5727
14.6195
14.3552
10.2218
10.5581
10.4796
10.1884
8.56538
8.57085
8.57293
8.57152
7.87347
7.87434
7.87441
7.87366
5.06321
5.06438
5.06439
5.06345
5.23312
5.2355
5.23694
5.23759
5.68404
5.69641
5.70295
5.70433
6.26557
6.29593
6.31049
6.31201
7.19408
7.26969
7.30036
7.29466
8.2156
8.33659
8.37646
8.3578
9.06869
9.26921
9.3138
9.24841
7.33894
7.45168
7.44562
7.37953
8.33737
8.33965
8.34111
8.34133
7.70549
7.70632
7.70639
7.70568
5.01329
5.01422
5.01416
5.01323
5.02032
5.02044
5.0205
5.02054
5.20441
5.20675
5.20804
5.20841
5.45535
5.46197
5.46556
5.46668
5.88057
5.90356
5.91412
5.91398
6.359
6.39484
6.41016
6.41045
6.80639
6.87769
6.90021
6.88554
6.19853
6.23246
6.2368
6.22628
8.11415
8.11494
8.11583
8.11639
7.52702
7.5278
7.52787
7.52721
4.99133
4.99219
4.99214
4.99126
4.93893
4.93883
4.93873
4.93864
5.00959
5.00982
5.00995
5.01
5.12348
5.12438
5.12496
5.12534
5.32339
5.3304
5.33373
5.33365
5.55977
5.56823
5.57286
5.57492
5.81407
5.83894
5.84802
5.84378
5.69866
5.70622
5.70889
5.70966
7.88847
7.88859
7.88909
7.88962
7.3377
7.33842
7.33848
7.33787
4.97959
4.98037
4.98032
4.97949
4.90613
4.9061
4.90602
4.9059
4.92538
4.92527
4.92522
4.92522
4.9803
4.98015
4.9801
4.98018
5.07668
5.07925
5.08036
5.08005
5.20666
5.20776
5.20884
5.2102
5.36631
5.37603
5.37936
5.37666
5.45415
5.45322
5.4538
5.45609
7.65708
7.65692
7.65718
7.65759
7.13733
7.13798
7.13803
7.13748
4.97183
4.97253
4.97246
4.97167
4.89242
4.89243
4.89237
4.89225
4.8873
4.88718
4.88713
4.88714
4.91575
4.91554
4.91541
4.9154
4.96187
4.96314
4.9636
4.96324
5.04267
5.0422
5.04229
5.04304
5.15355
5.1584
5.15955
5.15697
5.32495
5.32164
5.32114
5.32308
7.41818
7.41797
7.4181
7.41837
6.92579
6.92637
6.92641
6.92591
4.9658
4.9664
4.9663
4.96555
4.88654
4.88656
4.88651
4.88639
4.86973
4.86964
4.86961
4.86963
4.88596
4.88583
4.88574
4.8857
4.90699
4.9078
4.90804
4.90773
4.96376
4.96322
4.96311
4.96348
5.04878
5.05199
5.05234
5.04977
5.25295
5.24941
5.2485
5.2498
7.17064
7.17048
7.17054
7.17067
6.70303
6.70352
6.70355
6.70311
4.96066
4.96114
4.96102
4.96031
4.88397
4.884
4.88395
4.88382
4.86175
4.8617
4.86169
4.86171
4.87203
4.87197
4.87191
4.87186
4.88063
4.8812
4.88136
4.88109
4.92485
4.92456
4.92446
4.92458
4.99617
4.99879
4.99883
4.99626
5.21089
5.20785
5.20686
5.20751
6.91368
6.91364
6.91366
6.91367
6.46905
6.46946
6.46947
6.46908
4.9561
4.95647
4.95631
4.95565
4.88285
4.88289
4.88285
4.88271
4.85849
4.85848
4.85847
4.85848
4.86542
4.8654
4.86536
4.86532
4.86809
4.8685
4.8686
4.86838
4.90484
4.90483
4.90478
4.90471
4.96893
4.97136
4.97127
4.96867
5.18475
5.18249
5.18158
5.18159
6.64681
6.64691
6.64693
6.64682
6.22399
6.22431
6.22429
6.22397
4.95205
4.95231
4.95212
4.95151
4.88233
4.88241
4.88237
4.88221
4.85766
4.85768
4.85768
4.85767
4.86219
4.86219
4.86217
4.86214
4.86222
4.86251
4.86256
4.86238
4.89336
4.89358
4.89358
4.89337
4.95328
4.9557
4.95557
4.95289
5.16679
5.16544
5.16467
5.16406
6.36982
6.37007
6.37008
6.36987
5.96819
5.96841
5.96837
5.96811
4.94846
4.94864
4.94844
4.94788
4.88193
4.88208
4.88205
4.88185
4.85805
4.85811
4.85812
4.85808
4.86054
4.86056
4.86055
4.86053
4.85952
4.85971
4.85973
4.85959
4.88512
4.8855
4.88554
4.88523
4.94148
4.94401
4.94389
4.9411
5.15201
5.15169
5.15113
5.14987
6.08284
6.0832
6.08322
6.08294
5.70235
5.70246
5.70239
5.7022
4.94521
4.94538
4.9452
4.94467
4.88123
4.88148
4.88147
4.8812
4.85887
4.85898
4.85899
4.85892
4.85969
4.85972
4.85972
4.85971
4.85835
4.85846
4.85846
4.85837
4.87745
4.87789
4.87795
4.87762
4.92867
4.93133
4.93126
4.92843
5.13571
5.1366
5.13632
5.13437
5.7864
5.78685
5.78687
5.78656
5.42738
5.42735
5.42726
5.42716
4.941
4.94139
4.94128
4.94066
4.8796
4.87994
4.87994
4.8796
4.85947
4.85959
4.8596
4.85952
4.85936
4.8594
4.85941
4.85941
4.85808
4.85813
4.85812
4.85808
4.86956
4.86995
4.87001
4.86974
4.91187
4.91428
4.91426
4.91179
5.10925
5.11164
5.11171
5.1089
5.48141
5.48193
5.48196
5.48162
5.14313
5.14289
5.1428
5.14287
4.92732
4.92821
4.92819
4.92723
4.87564
4.87587
4.87584
4.87558
4.85963
4.8597
4.85971
4.85965
4.85958
4.85961
4.85962
4.85963
4.85863
4.85863
4.85863
4.85863
4.86301
4.86323
4.86327
4.86313
4.89064
4.8918
4.89177
4.89056
5.04764
5.05117
5.05148
5.04805
5.16797
5.16853
5.16854
5.16817
10.1126
9.36666
9.05458
8.94205
8.87758
8.83213
8.80185
8.78483
8.77537
8.76975
103.674
49.1183
35.7479
29.9538
24.5568
19.9492
16.3632
13.6893
11.7814
10.4193
160.953
70.8607
51.0937
43.7432
37.1919
31.4259
26.5932
22.7124
19.6687
17.2941
206.427
82.594
55.9827
46.7288
39.3627
32.7671
27.2291
22.8355
19.4439
16.8561
242.066
88.9527
58.8267
47.9661
40.078
32.7369
26.6773
21.9548
18.3681
15.7227
278.039
94.692
60.9749
48.303
39.8461
31.7877
25.3529
20.4652
16.8823
14.331
307.097
98.1601
61.6913
47.7817
39.0465
30.5202
23.9438
19.0744
15.5948
13.2106
315.21
93.7535
56.6287
42.2284
33.918
25.7873
19.9245
15.7971
13.0461
11.2292
224.475
56.1348
30.5436
21.1163
16.2835
12.2242
9.95521
8.6131
7.80413
7.27995
9.56919
9.54455
9.38914
9.363
9.31641
9.29028
9.26952
9.25848
9.25102
9.2446
9.36711
9.05697
8.90474
8.81914
8.7652
8.72958
8.70645
8.6927
8.68529
8.6806
53.1032
28.6709
22.5567
19.4496
16.6688
14.198
12.1632
10.6006
9.46088
8.66873
89.9996
46.2749
35.8009
31.0213
27.1816
23.5093
20.2908
17.6318
15.5037
13.8847
122.267
58.6126
42.8654
35.6348
30.5509
25.7671
21.6965
18.4233
15.8732
13.9866
152.566
68.7686
47.8571
38.5209
32.3852
26.6789
21.9779
18.2985
15.4859
13.4757
186.44
78.8767
52.1458
40.4763
33.2587
26.6702
21.4546
17.4963
14.5917
12.5915
217.208
86.4761
54.7142
41.2507
33.3541
26.1782
20.6985
16.6613
13.7711
11.8536
233.199
86.7513
51.9187
37.4848
29.5788
22.5779
17.5746
14.0836
11.7636
10.2832
167.409
54.7564
29.0627
19.3797
14.6949
11.2266
9.27463
8.12956
7.43363
7.00277
9.81852
9.50197
9.33081
9.26753
9.21263
9.17935
9.15519
9.14044
9.13004
9.12103
8.73773
8.69631
8.66358
8.63635
8.61505
8.59959
8.58928
8.58309
8.57966
8.5772
19.9483
16.5765
14.5028
12.6846
11.1149
9.81189
8.79759
8.04868
7.50993
7.13732
35.9209
28.7125
24.9256
21.6897
18.9141
16.5059
14.5107
12.9063
11.631
10.6691
51.0381
37.9367
31.5412
26.3508
22.2597
18.8402
16.0969
13.9476
12.2882
11.0744
66.1293
45.693
36.6305
29.5942
24.3796
20.1258
16.8138
14.2907
12.3792
11.026
83.2271
53.3447
41.1448
32.0849
25.7358
20.6619
16.8424
14.0204
11.9743
10.5808
99.1256
59.1916
44.1511
33.4588
26.3368
20.7057
16.598
13.6545
11.5707
10.1994
108.42
59.759
42.6002
31.001
23.7648
18.2182
14.4247
11.857
10.1704
9.09758
75.9446
36.6497
23.8686
16.273
12.2257
9.68246
8.28974
7.47149
6.96269
6.64329
9.57147
9.377
9.24303
9.16317
9.10554
9.0695
9.04441
9.02731
9.01466
9.00376
8.50934
8.49927
8.48822
8.47828
8.47074
8.46561
8.46241
8.46077
8.46037
8.4599
10.9415
10.1335
9.28435
8.43994
7.73277
7.19006
6.79125
6.50322
6.29466
6.14959
19.868
18.0288
16.1769
14.304
12.6882
11.36
10.2985
9.46275
8.8035
8.30894
28.4782
24.6335
21.1906
17.9888
15.4007
13.3286
11.705
10.4521
9.49358
8.79838
37.2437
30.6672
25.4316
20.8638
17.3677
14.6402
12.5634
11.0095
9.8418
9.01749
47.4707
36.9716
29.5249
23.3602
18.865
15.44
12.9155
11.0864
9.77445
8.88359
57.0697
42.0774
32.5536
25.0137
19.76
15.8316
13.027
11.0614
9.68096
8.76938
62.7994
43.2655
32.0893
23.7127
18.2356
14.3065
11.6799
9.94107
8.80281
8.06975
42.7462
26.2043
17.9727
12.7916
10.0236
8.39137
7.47313
6.91841
6.55962
6.32898
9.32682
9.18825
9.08108
9.01139
8.96315
8.93148
8.90873
8.89239
8.88006
8.86962
8.3334
8.3319
8.33039
8.32921
8.32851
8.32822
8.32824
8.3287
8.32981
8.33083
6.99881
6.75861
6.50565
6.26725
6.06893
5.91252
5.79216
5.70051
5.63116
5.58319
11.6112
10.9253
10.1514
9.37382
8.68703
8.11474
7.65552
7.29393
7.00545
6.78751
16.4402
14.9575
13.3757
11.8596
10.5721
9.52172
8.69353
8.05532
7.56704
7.21424
21.5366
18.9349
16.3583
14.0119
12.1132
10.6148
9.47266
8.62376
7.9836
7.52911
27.7681
23.4444
19.5088
16.0872
13.4439
11.422
9.93339
8.86349
8.09575
7.57179
33.736
27.3833
22.066
17.6423
14.3795
11.9551
10.2306
9.03392
8.18814
7.62145
37.3946
28.7912
22.2627
17.1545
13.6363
11.1587
9.50877
8.42155
7.70019
7.22515
24.5289
17.3349
12.8095
9.95722
8.36368
7.40494
6.83003
6.46704
6.22052
6.05874
9.05264
8.96954
8.8979
8.84681
8.80936
8.78253
8.76231
8.74712
8.73538
8.72559
8.18337
8.18351
8.18388
8.18446
8.18519
8.18598
8.18678
8.18776
8.18925
8.19101
5.60802
5.56479
5.51343
5.46126
5.41406
5.37359
5.34009
5.31313
5.29256
5.27959
7.50459
7.31353
7.06512
6.80574
6.57051
6.37232
6.21224
6.08441
5.97779
5.89482
9.97776
9.47196
8.8507
8.22744
7.67864
7.2243
6.86232
6.57996
6.36003
6.2003
12.7362
11.7743
10.6616
9.59965
8.707
7.99564
7.45053
7.04305
6.72809
6.50017
16.3274
14.6099
12.7535
11.0609
9.69837
8.64822
7.8707
7.30842
6.8976
6.61331
19.8649
17.2467
14.5836
12.2679
10.4873
9.16069
8.21197
7.55016
7.06993
6.74
22.1186
18.4205
14.9979
12.2242
10.2382
8.8421
7.90161
7.27197
6.84164
6.55062
14.3943
11.5385
9.42799
8.052
7.21592
6.68
6.33282
6.10284
5.93848
5.82918
8.79753
8.75141
8.70718
8.67169
8.64334
8.62131
8.6039
8.5903
8.57955
8.57072
8.03259
8.03293
8.03348
8.03424
8.03509
8.03594
8.03675
8.03769
8.0391
8.0409
5.19671
5.18854
5.17888
5.16821
5.15758
5.14755
5.13863
5.13123
5.12617
5.12428
5.83876
5.79281
5.73042
5.66329
5.60091
5.54738
5.50338
5.46695
5.43311
5.40493
6.95007
6.79205
6.58425
6.3681
6.17123
6.00316
5.86451
5.75206
5.661
5.59415
8.29792
7.96326
7.5444
7.13201
6.77522
6.48487
6.25685
6.08149
5.93867
5.83181
10.2207
9.5538
8.76947
8.03161
7.4193
6.93865
6.57422
6.30297
6.09724
5.95214
12.1905
11.1262
9.92516
8.84934
7.99553
7.3497
6.87716
6.53873
6.28123
6.09835
13.5197
11.9507
10.3399
8.9992
8.00462
7.29199
6.79592
6.45175
6.20676
6.03686
9.42633
8.38638
7.50734
6.88477
6.46191
6.16835
5.96313
5.82084
5.71383
5.64229
8.56198
8.53743
8.51069
8.4864
8.46533
8.44781
8.43335
8.42166
8.41218
8.40452
7.87436
7.87462
7.87504
7.87561
7.87625
7.87689
7.87747
7.87817
7.87933
7.88091
5.06296
5.06119
5.05922
5.05687
5.05424
5.05148
5.04889
5.04683
5.04609
5.047
5.23564
5.22718
5.21544
5.20229
5.18989
5.17938
5.17106
5.16392
5.15497
5.14622
5.69442
5.65146
5.59144
5.5254
5.46178
5.40432
5.35413
5.31109
5.27461
5.24773
6.28733
6.18741
6.05372
5.91585
5.79085
5.6844
5.59688
5.52647
5.4647
5.41642
7.22114
6.98851
6.69976
6.41671
6.17132
5.97025
5.81044
5.68574
5.58659
5.51564
8.22907
7.83674
7.36137
6.91976
6.55426
6.2668
6.04673
5.88214
5.74897
5.65087
8.9851
8.36907
7.69624
7.11398
6.66031
6.32043
6.07146
5.89051
5.75608
5.66117
7.18614
6.82359
6.4692
6.18826
5.97536
5.81563
5.69602
5.60962
5.54126
5.49572
8.33713
8.32377
8.30741
8.29095
8.27565
8.26219
8.25063
8.24097
8.23293
8.22655
7.70636
7.70654
7.70681
7.70719
7.70761
7.70801
7.70836
7.7088
7.70968
7.71102
5.01329
5.01254
5.0118
5.01096
5.00997
5.00886
5.00781
5.00712
5.00735
5.0086
5.02003
5.01895
5.01783
5.01664
5.01585
5.01578
5.01646
5.01712
5.0156
5.01306
5.20582
5.19451
5.17767
5.15772
5.13712
5.11729
5.09886
5.08211
5.06735
5.05656
5.46129
5.43457
5.39595
5.35328
5.31199
5.27472
5.24247
5.21527
5.18907
5.16741
5.89252
5.81797
5.72102
5.6196
5.52585
5.44423
5.37552
5.31907
5.27213
5.23843
6.38042
6.25267
6.08405
5.91749
5.77046
5.6477
5.54822
5.47018
5.40261
5.35087
6.80413
6.58123
6.32449
6.08762
5.89036
5.73346
5.61194
5.51943
5.44804
5.39726
6.17813
6.04684
5.90092
5.77167
5.66398
5.57726
5.5082
5.45649
5.41339
5.38504
8.11413