/*--------------------------------*- C++ -*----------------------------------*\
| =========                 |                                                 |
| \\      /  F ield         | foam-extend: Open Source CFD                    |
|  \\    /   O peration     | Version:     4.0                                |
|   \\  /    A nd           | Web:         http://www.foam-extend.org         |
|    \\/     M anipulation  |                                                 |
\*---------------------------------------------------------------------------*/
FoamFile
{
    version     2.0;
    format      ascii;
    class       surfaceScalarField;
    location    "2550";
    object      phi;
}
// * * * * * * * * * * * * * * * * * * * * * * * * * * * * * * * * * * * * * //

dimensions      [1 0 -1 0 0 0 0];

internalField   nonuniform List<scalar> 
97302
(
-0.000109786
9.51757e-07
-0.000869495
0.000878771
-0.0001196
1.14109e-06
-0.000870498
0.000879171
-0.000129523
1.20021e-06
-0.000871023
0.000879746
-0.000140125
1.13824e-06
-0.000871062
0.000880526
-0.000152232
9.46139e-07
-0.00087061
0.000881771
-0.000167325
6.13773e-07
-0.000869443
0.000883922
-0.000188496
1.14665e-07
-0.000866956
0.000888011
-0.000222747
-5.95491e-07
-0.000861329
0.000896176
-0.000271325
-1.63907e-06
-0.000851541
0.000901758
-4.39599e-06
-0.000824041
-0.000352996
0.000910108
-0.000150901
1.60335e-06
-0.00116596
0.00117606
-0.000161173
1.96562e-06
-0.00116691
0.00117636
-0.000171518
2.08416e-06
-0.0011675
0.00117696
-0.000182473
1.99219e-06
-0.00116753
0.00117763
-0.000194834
1.67473e-06
-0.00116673
0.00117836
-0.000210314
1.12052e-06
-0.00116472
0.0011797
-0.000232766
2.71956e-07
-0.00116113
0.00118342
-0.000271568
-9.66111e-07
-0.00115433
0.00119351
-0.00032835
-2.89665e-06
-0.00114203
0.00120007
-7.45955e-06
-0.00110414
-0.000432769
0.00121162
-0.000191208
1.89693e-06
-0.00146133
0.00147218
-0.000201778
2.39312e-06
-0.00146234
0.00147248
-0.000212297
2.57464e-06
-0.00146296
0.00147299
-0.000223274
2.4982e-06
-0.00146276
0.00147323
-0.000235634
2.14571e-06
-0.00146141
0.0014733
-0.000251511
1.50657e-06
-0.00145874
0.00147423
-0.000275388
5.01565e-07
-0.00145486
0.00147851
-0.000318359
-9.67744e-07
-0.00144829
0.00149126
-0.000381693
-3.35313e-06
-0.00143513
0.00149892
-9.13477e-06
-0.00138641
-0.000500693
0.00150709
-0.000231437
2.08652e-06
-0.00175271
0.00176398
-0.000242301
2.72243e-06
-0.00175394
0.00176448
-0.000253115
2.98269e-06
-0.00175482
0.00176522
-0.000264406
2.94711e-06
-0.00175482
0.00176566
-0.000277164
2.58694e-06
-0.00175364
0.00176595
-0.000293713
1.89343e-06
-0.00175121
0.00176737
-0.000318864
7.64251e-07
-0.00174764
0.00177253
-0.00036497
-8.9217e-07
-0.00174142
0.00178745
-0.000432991
-3.67949e-06
-0.00172781
0.00179616
-1.06288e-05
-0.00166796
-0.000560755
0.00179722
-0.000271569
2.31926e-06
-0.00204524
0.00205669
-0.000282602
3.02447e-06
-0.00204685
0.00205758
-0.000293586
3.3225e-06
-0.00204823
0.00205887
-0.000305071
3.30318e-06
-0.0020487
0.00205983
-0.000318118
2.93552e-06
-0.00204805
0.00206075
-0.000335169
2.21041e-06
-0.00204624
0.00206298
-0.000361326
1.01128e-06
-0.00204332
0.00206923
-0.000409968
-7.45767e-07
-0.00203779
0.00208628
-0.000481932
-3.8144e-06
-0.00202453
0.00209663
-1.18632e-05
-0.00195287
-0.000615169
0.00208735
-0.000312271
2.40493e-06
-0.00233637
0.00234812
-0.000323408
3.13572e-06
-0.00233843
0.00234945
-0.000334459
3.42159e-06
-0.0023402
0.00235116
-0.000346003
3.37459e-06
-0.00234109
0.00235256
-0.00035915
2.97267e-06
-0.00234096
0.00235407
-0.000376428
2.21558e-06
-0.00233991
0.00235718
-0.000403212
9.85431e-07
-0.00233791
0.00236472
-0.000453747
-7.83982e-07
-0.00233348
0.00238405
-0.000529016
-3.91207e-06
-0.00232173
0.0023971
-1.28329e-05
-0.00223797
-0.000665773
0.0023757
-0.000352796
2.38417e-06
-0.00262733
0.0026392
-0.000363876
3.0227e-06
-0.00262998
0.00264118
-0.000374851
3.23772e-06
-0.00263232
0.00264348
-0.000386304
3.10479e-06
-0.00263367
0.00264539
-0.000399399
2.62878e-06
-0.00263412
0.00264756
-0.000416697
1.80228e-06
-0.00263388
0.00265159
-0.000443818
5.61459e-07
-0.00263302
0.00266057
-0.000495694
-1.10926e-06
-0.00263019
0.00268239
-0.000573748
-3.86092e-06
-0.0026211
0.0026991
-1.29893e-05
-0.002525
-0.00071251
0.00266392
-0.000394592
2.02508e-06
-0.00291886
0.00293116
-0.000405724
2.47439e-06
-0.00292211
0.00293379
-0.000416698
2.50302e-06
-0.00292456
0.00293627
-0.000428101
2.16423e-06
-0.00292585
0.0029382
-0.000441062
1.49416e-06
-0.0029262
0.00294029
-0.000458083
4.90881e-07
-0.00292612
0.00294445
-0.000484931
-8.17373e-07
-0.00292596
0.00295419
-0.000536998
-2.3598e-06
-0.00292457
0.00297789
-0.000616519
-4.1493e-06
-0.00291883
0.00299864
-1.21411e-05
-0.00281223
-0.00075568
0.00295055
-0.000435789
1.06849e-06
-0.00320674
0.00321918
-0.000446494
1.13594e-06
-0.00321085
0.00322289
-0.000457073
8.4501e-07
-0.00321391
0.00322615
-0.000468174
1.11424e-07
-0.00321582
0.00322898
-0.000480963
-9.48029e-07
-0.00321695
0.00323219
-0.000497828
-2.30809e-06
-0.00321788
0.00323755
-0.00052453
-3.78313e-06
-0.00321913
0.0032488
-0.000576323
-5.09805e-06
-0.00322004
0.00327457
-0.000655776
-5.50561e-06
-0.00321668
0.00329749
-1.01951e-05
-0.00309932
-0.000792426
0.00323402
-0.0004772
-0.00347532
0.00348833
-0.000488545
-0.00347892
0.0034914
-0.000499734
-0.00347963
0.00349166
-0.000511446
-0.00347707
0.00348889
-0.000524721
-0.00347191
0.00348424
-0.000541688
-0.00346522
0.00347987
-0.00056758
-0.00345815
0.00348026
-0.000616584
-0.00345221
0.00349612
-0.000689675
-0.0034486
0.00351618
-0.00333961
-0.000818674
0.00345842
1.43957e-05
8.89099e-07
-0.000861039
5.3125e-06
1.11374e-06
-0.000862528
-3.79153e-06
1.19446e-06
-0.000863114
-1.31e-05
1.13679e-06
-0.00086289
-2.28122e-05
9.3079e-07
-0.000861828
-3.31464e-05
5.58118e-07
-0.000859667
-4.42495e-05
-1.53727e-08
-0.000855837
-5.55406e-05
-8.68474e-07
-0.00084917
-6.62354e-05
-2.19708e-06
-0.000838649
-3.9681e-06
-0.000822396
-6.39128e-05
1.5409e-05
1.51409e-06
-0.00115611
5.39059e-06
1.93033e-06
-0.00115771
-4.61735e-06
2.08403e-06
-0.00115838
-1.49322e-05
2.0048e-06
-0.00115808
-2.58192e-05
1.67076e-06
-0.00115658
-3.76408e-05
1.05964e-06
-0.0011534
-5.12337e-05
1.09672e-07
-0.00114766
-6.76412e-05
-1.29532e-06
-0.0011375
-8.82616e-05
-3.5424e-06
-0.00112007
-6.6085e-06
-0.00109112
-9.86424e-05
1.6738e-05
1.82513e-06
-0.00145028
6.00712e-06
2.38914e-06
-0.00145207
-4.63102e-06
2.61264e-06
-0.00145285
-1.55084e-05
2.55037e-06
-0.00145242
-2.69629e-05
2.16921e-06
-0.00145045
-3.97281e-05
1.44552e-06
-0.00144636
-5.55498e-05
2.87357e-07
-0.00143922
-7.71567e-05
-1.42725e-06
-0.00142655
-0.000108636
-4.28312e-06
-0.00140291
-8.39549e-06
-0.00135938
-0.000133882
1.79544e-05
2.03348e-06
-0.00174097
6.73997e-06
2.75479e-06
-0.00174309
-4.38347e-06
3.06577e-06
-0.00174415
-1.58115e-05
3.04964e-06
-0.00174389
-2.79996e-05
2.65902e-06
-0.00174194
-4.19397e-05
1.87235e-06
-0.00173769
-5.99423e-05
5.56954e-07
-0.00172991
-8.613e-05
-1.40076e-06
-0.00171526
-0.000128053
-4.79401e-06
-0.00168538
-9.90533e-06
-0.0016255
-0.000168998
1.90693e-05
2.2798e-06
-0.0020331
7.56845e-06
3.07979e-06
-0.00203567
-3.83547e-06
3.43461e-06
-0.00203719
-1.5599e-05
3.44075e-06
-0.00203732
-2.83156e-05
3.04677e-06
-0.00203572
-4.3163e-05
2.23053e-06
-0.00203175
-6.29173e-05
8.20335e-07
-0.00202383
-9.29968e-05
-1.28775e-06
-0.00200782
-0.000144892
-5.07565e-06
-0.00197236
-1.10635e-05
-0.00189522
-0.000201392
1.97734e-05
2.39815e-06
-0.00232381
8.09539e-06
3.23279e-06
-0.0023269
-3.43921e-06
3.58315e-06
-0.00232882
-1.53454e-05
3.57195e-06
-0.00232931
-2.83368e-05
3.15478e-06
-0.00232808
-4.37546e-05
2.31943e-06
-0.00232458
-6.48031e-05
8.743e-07
-0.00231692
-9.80693e-05
-1.27451e-06
-0.00230023
-0.000159356
-5.20822e-06
-0.00226031
-1.18825e-05
-0.00216571
-0.000230799
2.01857e-05
2.36915e-06
-0.0026145
8.5305e-06
3.10997e-06
-0.00261821
-2.95384e-06
3.39479e-06
-0.00262065
-1.4799e-05
3.31041e-06
-0.00262157
-2.78485e-05
2.85188e-06
-0.00262077
-4.35539e-05
1.98984e-06
-0.00261784
-6.54983e-05
5.48827e-07
-0.00261075
-0.000101308
-1.5649e-06
-0.00259409
-0.000171275
-5.24559e-06
-0.00255109
-1.22481e-05
-0.00243911
-0.000256801
1.99274e-05
2.03415e-06
-0.00290561
8.2705e-06
2.58947e-06
-0.00290993
-3.10731e-06
2.71824e-06
-0.0029125
-1.47855e-05
2.48074e-06
-0.00291335
-2.76628e-05
1.90784e-06
-0.00291238
-4.32646e-05
9.66541e-07
-0.0029095
-6.54739e-05
-4.35468e-07
-0.00290277
-0.00010275
-2.40721e-06
-0.00288645
-0.000180119
-5.22044e-06
-0.00284148
-1.18988e-05
-0.00271328
-0.000279418
1.93971e-05
1.07403e-06
-0.00319322
8.21014e-06
1.21892e-06
-0.00319829
-2.66308e-06
1.05889e-06
-0.00320138
-1.38331e-05
4.74308e-07
-0.00320265
-2.63531e-05
-4.03858e-07
-0.00320212
-4.1859e-05
-1.58495e-06
-0.00319983
-6.44381e-05
-3.01054e-06
-0.00319398
-0.00010304
-4.67512e-06
-0.00317917
-0.000186368
-6.14889e-06
-0.00313242
-1.00752e-05
-0.00298565
-0.00030186
1.82418e-05
-0.00346152
6.80329e-06
-0.00346626
-4.11911e-06
-0.00346765
-1.52138e-05
-0.0034655
-2.74209e-05
-0.00346011
-4.2345e-05
-0.00345188
-6.39063e-05
-0.0034396
-0.000101289
-0.00341951
-0.000186015
-0.00337002
-0.0032157
-0.000320006
1.20259e-05
7.77747e-07
-0.000854368
4.42321e-06
1.01779e-06
-0.000855943
-3.2947e-06
1.1058e-06
-0.000856502
-1.10378e-05
1.04134e-06
-0.000856189
-1.86827e-05
8.17849e-07
-0.000855001
-2.59846e-05
4.19522e-07
-0.000852785
-3.23915e-05
-1.75652e-07
-0.000849255
-3.65993e-05
-1.00559e-06
-0.000843956
-3.67275e-05
-2.15404e-06
-0.000836367
-3.43225e-06
-0.000826721
-2.89703e-05
1.3878e-05
1.36231e-06
-0.0011476
4.85247e-06
1.80246e-06
-0.00114947
-4.23412e-06
1.96552e-06
-0.00115016
-1.34726e-05
1.87485e-06
-0.00114967
-2.28692e-05
1.50896e-06
-0.00114788
-3.22729e-05
8.43292e-07
-0.00114442
-4.1283e-05
-1.75602e-07
-0.00113865
-4.87474e-05
-1.62022e-06
-0.00112942
-5.22014e-05
-3.70564e-06
-0.00111506
-6.12777e-06
-0.00109587
-4.47547e-05
1.59825e-05
1.70866e-06
-0.00144012
5.78025e-06
2.30375e-06
-0.00144237
-4.41643e-06
2.53731e-06
-0.00144323
-1.48029e-05
2.45706e-06
-0.00144262
-2.54747e-05
2.02504e-06
-0.0014403
-3.64947e-05
1.20601e-06
-0.0014357
-4.79769e-05
-9.48889e-08
-0.00142782
-5.94528e-05
-1.97545e-06
-0.00141472
-6.8512e-05
-4.84558e-06
-0.00139271
-8.36549e-06
-0.00136071
-6.49449e-05
1.76321e-05
1.96762e-06
-0.00172977
6.64081e-06
2.7311e-06
-0.00173253
-4.34193e-06
3.05422e-06
-0.00173368
-1.56269e-05
3.01553e-06
-0.00173316
-2.746e-05
2.56093e-06
-0.00173064
-4.01708e-05
1.65276e-06
-0.00172543
-5.43202e-05
1.43011e-07
-0.001716
-7.01001e-05
-2.08896e-06
-0.00169937
-8.5801e-05
-5.70562e-06
-0.00166881
-1.03343e-05
-0.0016211
-8.82321e-05
1.90372e-05
2.25916e-06
-0.00202122
7.537e-06
3.10811e-06
-0.00202455
-3.93402e-06
3.47909e-06
-0.00202614
-1.57946e-05
3.46387e-06
-0.00202591
-2.847e-05
3.00352e-06
-0.00202349
-4.25423e-05
2.05614e-06
-0.00201808
-5.90245e-05
4.18578e-07
-0.00200763
-7.89059e-05
-2.058e-06
-0.00198797
-0.000101936
-6.30136e-06
-0.00194873
-1.19697e-05
-0.0018834
-0.000112116
1.9975e-05
2.42651e-06
-0.00231132
8.1381e-06
3.3145e-06
-0.00231527
-3.61594e-06
3.68563e-06
-0.00231727
-1.57999e-05
3.6605e-06
-0.00231733
-2.89966e-05
3.18269e-06
-0.00231506
-4.40383e-05
2.21885e-06
-0.0023097
-6.24244e-05
5.35686e-07
-0.00229865
-8.60489e-05
-2.03901e-06
-0.00227662
-0.000116871
-6.63784e-06
-0.00222916
-1.31797e-05
-0.00214515
-0.000136227
2.0527e-05
2.42089e-06
-0.00260159
8.60954e-06
3.21497e-06
-0.00260619
-3.18688e-06
3.52648e-06
-0.00260869
-1.54208e-05
3.44154e-06
-0.00260911
-2.88415e-05
2.94693e-06
-0.00260711
-4.44909e-05
1.99648e-06
-0.00260197
-6.43531e-05
3.54625e-07
-0.00259071
-9.12583e-05
-2.20136e-06
-0.00256702
-0.000129976
-6.7658e-06
-0.00251225
-1.39488e-05
-0.00240905
-0.000159273
2.03508e-05
2.09714e-06
-0.00289221
8.40298e-06
2.70194e-06
-0.00289747
-3.30986e-06
2.87414e-06
-0.00290014
-1.54092e-05
2.67702e-06
-0.00290048
-2.87391e-05
2.12645e-06
-0.00289823
-4.4531e-05
1.17574e-06
-0.00289288
-6.52372e-05
-3.2704e-07
-0.00288138
-9.45836e-05
-2.64729e-06
-0.00285666
-0.000140685
-6.402e-06
-0.00279575
-1.37378e-05
-0.0026736
-0.000180578
1.97377e-05
1.15085e-06
-0.0031795
8.24264e-06
1.32819e-06
-0.00318542
-2.96999e-06
1.24803e-06
-0.00318854
-1.45265e-05
7.72752e-07
-0.00318918
-2.74287e-05
2.59387e-08
-0.00318712
-4.31507e-05
-1.0134e-06
-0.00318191
-6.46505e-05
-2.33675e-06
-0.00317047
-9.64405e-05
-4.09046e-06
-0.00314594
-0.000148897
-6.37108e-06
-0.00308
-1.15128e-05
-0.00293619
-0.000200578
1.85756e-05
-0.00344765
6.99852e-06
-0.00345336
-4.10592e-06
-0.00345529
-1.54476e-05
-0.00345339
-2.79187e-05
-0.00344761
-4.30035e-05
-0.00343781
-6.37007e-05
-0.00342124
-9.54114e-05
-0.00339189
-0.00015068
-0.00332112
-0.00316254
-0.000215349
9.33369e-06
6.08844e-07
-0.000849537
3.46348e-06
8.52374e-07
-0.000850926
-2.58786e-06
9.44491e-07
-0.000851395
-8.54699e-06
8.78418e-07
-0.000851108
-1.41072e-05
6.52758e-07
-0.000850094
-1.88456e-05
2.58626e-07
-0.000848305
-2.21201e-05
-3.10919e-07
-0.000845669
-2.28922e-05
-1.05806e-06
-0.000842126
-1.95793e-05
-1.97927e-06
-0.0008377
-2.86294e-06
-0.000832855
-1.05823e-05
1.17249e-05
1.11623e-06
-0.00114077
4.10696e-06
1.56661e-06
-0.00114257
-3.63959e-06
1.73487e-06
-0.0011432
-1.13772e-05
1.63675e-06
-0.0011427
-1.88896e-05
1.25507e-06
-0.00114097
-2.57878e-05
5.71819e-07
-0.00113784
-3.13125e-05
-4.44497e-07
-0.00113299
-3.39459e-05
-1.81604e-06
-0.00112603
-3.08494e-05
-3.60284e-06
-0.00111653
-5.41789e-06
-0.00110601
-1.81519e-05
1.44341e-05
1.48752e-06
-0.00143135
5.2574e-06
2.09904e-06
-0.00143372
-3.9859e-06
2.33546e-06
-0.00143458
-1.32964e-05
2.23467e-06
-0.00143391
-2.25676e-05
1.76037e-06
-0.00143153
-3.15048e-05
8.77892e-07
-0.00142707
-3.94302e-05
-4.90218e-07
-0.00141984
-4.47343e-05
-2.39673e-06
-0.00140883
-4.3491e-05
-5.03574e-06
-0.00139252
-7.89293e-06
-0.00137302
-2.87079e-05
1.65211e-05
1.79904e-06
-0.00171967
6.22572e-06
2.59158e-06
-0.00172273
-4.13284e-06
2.91849e-06
-0.00172391
-1.4692e-05
2.8493e-06
-0.00172322
-2.54967e-05
2.33038e-06
-0.00172041
-3.64584e-05
1.31976e-06
-0.00171491
-4.71093e-05
-3.18592e-07
-0.00170552
-5.58655e-05
-2.67708e-06
-0.00169033
-5.78752e-05
-6.17787e-06
-0.00166566
-1.01731e-05
-0.00163382
-4.28843e-05
1.82717e-05
2.1416e-06
-0.00201014
7.19068e-06
3.02893e-06
-0.0020139
-3.92256e-06
3.40754e-06
-0.00201552
-1.53443e-05
3.35898e-06
-0.002015
-2.73116e-05
2.82274e-06
-0.00201201
-3.99857e-05
1.74757e-06
-0.00200584
-5.3204e-05
-6.72499e-08
-0.00199466
-6.55997e-05
-2.76759e-06
-0.00197548
-7.19266e-05
-7.05442e-06
-0.00194153
-1.2192e-05
-0.00189468
-5.86281e-05
1.95042e-05
2.36915e-06
-0.0022994
7.87303e-06
3.30161e-06
-0.00230391
-3.73285e-06
3.68518e-06
-0.00230594
-1.57157e-05
3.63274e-06
-0.00230562
-2.84892e-05
3.08141e-06
-0.00230255
-4.24904e-05
1.98351e-06
-0.00229593
-5.79589e-05
9.47419e-08
-0.00228334
-7.39574e-05
-2.78296e-06
-0.00226061
-8.55258e-05
-7.60676e-06
-0.00221703
-1.37663e-05
-0.0021533
-7.58002e-05
2.02607e-05
2.40758e-06
-0.00258903
8.39396e-06
3.24767e-06
-0.00259427
-3.40153e-06
3.57699e-06
-0.00259679
-1.56064e-05
3.47589e-06
-0.00259675
-2.88218e-05
2.92194e-06
-0.00259374
-4.37448e-05
1.85734e-06
-0.00258692
-6.10759e-05
2.23345e-08
-0.0025733
-8.04484e-05
-2.86648e-06
-0.00254757
-9.78694e-05
-7.85493e-06
-0.00249458
-1.48963e-05
-0.00241266
-9.31304e-05
2.02408e-05
2.11214e-06
-0.00287906
8.27127e-06
2.75963e-06
-0.00288501
-3.51537e-06
2.96198e-06
-0.00288774
-1.56848e-05
2.78404e-06
-0.00288762
-2.89512e-05
2.22378e-06
-0.00288426
-4.42603e-05
1.22651e-06
-0.00287694
-6.28399e-05
-4.01198e-07
-0.00286237
-8.50381e-05
-3.02048e-06
-0.00283431
-0.000108507
-7.33045e-06
-0.0027728
-1.48304e-05
-0.00267209
-0.00011009
1.96931e-05
1.19979e-06
-0.00316593
8.11829e-06
1.40494e-06
-0.00317249
-3.22952e-06
1.38969e-06
-0.00317562
-1.49166e-05
9.99397e-07
-0.00317571
-2.77958e-05
3.45965e-07
-0.00317236
-4.30466e-05
-6.07508e-07
-0.00316483
-6.25183e-05
-1.89506e-06
-0.00314951
-8.76698e-05
-3.75192e-06
-0.00312006
-0.000117051
-6.49569e-06
-0.00305145
-1.22157e-05
-0.00292921
-0.000126645
1.86058e-05
-0.00343398
7.07043e-06
-0.00344042
-4.05829e-06
-0.00344278
-1.54505e-05
-0.00344099
-2.78757e-05
-0.00343484
-4.25531e-05
-0.00342374
-6.14332e-05
-0.00340425
-8.70673e-05
-0.00337
-0.000119681
-0.003295
-0.00315504
-0.000139403
6.84918e-06
4.23829e-07
-0.000846191
2.57471e-06
6.54414e-07
-0.000847306
-1.89885e-06
7.45103e-07
-0.000847666
-6.24114e-06
6.82768e-07
-0.000847448
-1.01075e-05
4.70939e-07
-0.000846698
-1.30929e-05
1.08716e-07
-0.000845428
-1.47038e-05
-3.95483e-07
-0.000843663
-1.43362e-05
-1.02036e-06
-0.000841473
-1.13196e-05
-1.72021e-06
-0.000838997
-2.32858e-06
-0.000836482
-5.36405e-06
9.38714e-06
8.21874e-07
-0.00113556
3.29722e-06
1.26153e-06
-0.00113708
-2.96876e-06
1.42821e-06
-0.00113762
-9.13083e-06
1.32908e-06
-0.00113718
-1.48465e-05
9.52739e-07
-0.00113573
-1.96462e-05
2.92497e-07
-0.00113322
-2.28143e-05
-6.56712e-07
-0.00112956
-2.32474e-05
-1.87303e-06
-0.00112474
-1.92824e-05
-3.31335e-06
-0.00111891
-4.6322e-06
-0.00111323
-9.76448e-06
1.24559e-05
1.18781e-06
-0.00142417
4.59114e-06
1.79593e-06
-0.00142639
-3.40656e-06
2.02888e-06
-0.00142719
-1.13543e-05
1.91254e-06
-0.00142654
-1.89771e-05
1.4159e-06
-0.00142437
-2.58026e-05
5.14433e-07
-0.00142047
-3.09546e-05
-8.38184e-07
-0.00141451
-3.28544e-05
-2.64422e-06
-0.00140616
-2.86145e-05
-4.92376e-06
-0.00139515
-7.14014e-06
-0.00138374
-1.5386e-05
1.48904e-05
1.53367e-06
-0.00171098
5.63888e-06
2.33916e-06
-0.00171402
-3.75175e-06
2.66439e-06
-0.00171515
-1.32152e-05
2.56684e-06
-0.00171441
-2.25872e-05
1.99786e-06
-0.00171162
-3.15024e-05
9.21958e-07
-0.0017064
-3.90681e-05
-7.6347e-07
-0.00169803
-4.33522e-05
-3.10057e-06
-0.00168559
-4.00334e-05
-6.26933e-06
-0.00166764
-9.53672e-06
-0.00164761
-2.38428e-05
1.69726e-05
1.91924e-06
-0.00200021
6.66636e-06
2.83284e-06
-0.00200409
-3.74497e-06
3.21425e-06
-0.00200566
-1.43387e-05
3.13107e-06
-0.00200497
-2.5121e-05
2.52549e-06
-0.00200176
-3.59144e-05
1.3468e-06
-0.00199547
-4.5941e-05
-5.7583e-07
-0.00198482
-5.3069e-05
-3.34528e-06
-0.00196811
-5.16607e-05
-7.37574e-06
-0.00194183
-1.17699e-05
-0.00191047
-3.36385e-05
1.85157e-05
2.20728e-06
-0.00228843
7.42987e-06
3.1762e-06
-0.00229317
-3.70347e-06
3.56812e-06
-0.00229516
-1.51055e-05
3.48452e-06
-0.00229457
-2.69533e-05
2.86011e-06
-0.00229103
-3.93133e-05
1.64087e-06
-0.00228387
-5.16589e-05
-3.98682e-07
-0.00227118
-6.18718e-05
-3.43129e-06
-0.00225031
-6.33679e-05
-8.12134e-06
-0.00221479
-1.35874e-05
-0.00216984
-4.50066e-05
1.95092e-05
2.3029e-06
-0.0025772
8.00627e-06
3.18522e-06
-0.00258277
-3.4933e-06
3.52956e-06
-0.00258525
-1.53158e-05
3.4079e-06
-0.00258485
-2.78318e-05
2.79007e-06
-0.00258115
-4.13655e-05
1.60952e-06
-0.00257336
-5.57437e-05
-3.88722e-07
-0.00255894
-6.90372e-05
-3.47911e-06
-0.00253423
-7.42163e-05
-8.48621e-06
-0.00248903
-1.49509e-05
-0.00242865
-5.68547e-05
1.9692e-05
2.04678e-06
-0.00286651
7.98108e-06
2.73776e-06
-0.00287285
-3.6189e-06
2.96599e-06
-0.00287557
-1.55465e-05
2.79887e-06
-0.00287508
-2.8298e-05
2.21765e-06
-0.00287094
-4.24519e-05
1.15909e-06
-0.00286234
-5.83084e-05
-5.88787e-07
-0.00284632
-7.43918e-05
-3.40815e-06
-0.0028183
-8.3871e-05
-7.91044e-06
-0.0027639
-1.50073e-05
-0.00268686
-6.90448e-05
1.92694e-05
1.19981e-06
-0.00315284
7.86625e-06
1.43353e-06
-0.00315978
-3.38713e-06
1.47515e-06
-0.00316288
-1.49379e-05
1.15391e-06
-0.00316252
-2.74303e-05
5.70727e-07
-0.00315822
-4.16493e-05
-3.27141e-07
-0.00314912
-5.83929e-05
-1.60656e-06
-0.00313174
-7.72891e-05
-3.53817e-06
-0.00310103
-9.15601e-05
-6.47526e-06
-0.00303862
-1.20779e-05
-0.00294222
-8.1482e-05
1.82912e-05
-0.00342081
7.00133e-06
-0.00342769
-3.96661e-06
-0.00343033
-1.51895e-05
-0.00342862
-2.72613e-05
-0.0034222
-4.10523e-05
-0.00341027
-5.75075e-05
-0.0033894
-7.70924e-05
-0.00335396
-9.41521e-05
-0.00328442
-0.00317041
-9.08523e-05
4.81644e-06
2.50858e-07
-0.000843932
1.84257e-06
4.55536e-07
-0.000844787
-1.31466e-06
5.39888e-07
-0.000845049
-4.34628e-06
4.85352e-07
-0.000844902
-6.94562e-06
2.99336e-07
-0.000844398
-8.79004e-06
-1.31608e-08
-0.000843571
-9.55036e-06
-4.33846e-07
-0.000842469
-8.91207e-06
-9.30744e-07
-0.000841181
-6.64593e-06
-1.44745e-06
-0.000839815
-1.86595e-06
-0.000838416
-2.84599e-06
7.16924e-06
5.20691e-07
-0.00113173
2.51917e-06
9.28919e-07
-0.00113291
-2.32271e-06
1.08692e-06
-0.00113332
-7.02497e-06
9.93671e-07
-0.00113299
-1.1215e-05
6.43332e-07
-0.00113189
-1.44512e-05
4.04087e-08
-0.00113004
-1.61746e-05
-7.98559e-07
-0.00112747
-1.57043e-05
-1.82523e-06
-0.00112432
-1.22593e-05
-2.95121e-06
-0.00112085
-3.90746e-06
-0.00111779
-5.65215e-06
1.03343e-05
8.48524e-07
-0.00141854
3.86883e-06
1.42965e-06
-0.00142043
-2.7748e-06
1.65181e-06
-0.00142111
-9.29143e-06
1.52828e-06
-0.00142056
-1.53073e-05
1.03496e-06
-0.00141875
-2.03021e-05
1.61729e-07
-0.0014156
-2.34788e-05
-1.10352e-06
-0.00141103
-2.36622e-05
-2.72123e-06
-0.00140508
-1.91471e-05
-4.61212e-06
-0.001398
-6.31264e-06
-0.00139139
-9.09065e-06
1.29531e-05
1.20002e-06
-0.00170381
4.94832e-06
1.9962e-06
-0.00170658
-3.26107e-06
2.31307e-06
-0.0017076
-1.14352e-05
2.19467e-06
-0.0017069
-1.92468e-05
1.60054e-06
-0.00170437
-2.61813e-05
5.09085e-07
-0.00169982
-3.12793e-05
-1.13814e-06
-0.0016929
-3.28876e-05
-3.33019e-06
-0.00168337
-2.80244e-05
-6.07336e-06
-0.00167104
-8.68491e-06
-0.00165872
-1.45453e-05
1.52827e-05
1.60991e-06
-0.00199166
6.0154e-06
2.5305e-06
-0.00199536
-3.42938e-06
2.90857e-06
-0.00199681
-1.2932e-05
2.7957e-06
-0.00199607
-2.22881e-05
2.1409e-06
-0.00199294
-3.10798e-05
9.03049e-07
-0.00198707
-3.82933e-05
-1.04106e-06
-0.0019777
-4.18768e-05
-3.7345e-06
-0.00196412
-3.7398e-05
-7.34476e-06
-0.00194504
-1.09847e-05
-0.0019247
-2.08733e-05
1.71e-05
1.9484e-06
-0.00227867
6.84766e-06
2.93896e-06
-0.00228333
-3.53064e-06
3.33393e-06
-0.00228521
-1.40554e-05
3.22092e-06
-0.00228447
-2.46644e-05
2.53703e-06
-0.00228082
-3.51116e-05
1.23139e-06
-0.00227375
-4.44661e-05
-8.79141e-07
-0.00226198
-5.04415e-05
-3.91191e-06
-0.00224416
-4.7213e-05
-8.23766e-06
-0.00221713
-1.29076e-05
-0.00218661
-2.85172e-05
1.83245e-05
2.10635e-06
-0.00256643
7.47588e-06
3.02158e-06
-0.00257201
-3.44811e-06
3.37726e-06
-0.00257437
-1.45843e-05
3.23533e-06
-0.00257373
-2.60514e-05
2.56186e-06
-0.00256971
-3.78169e-05
1.28925e-06
-0.00256165
-4.91488e-05
-8.07965e-07
-0.00254767
-5.76868e-05
-3.95109e-06
-0.00252565
-5.64447e-05
-8.68888e-06
-0.00248982
-1.43504e-05
-0.00244717
-3.64852e-05
1.87295e-05
1.89555e-06
-0.00285486
7.55161e-06
2.62684e-06
-0.00286128
-3.59988e-06
2.87639e-06
-0.00286392
-1.49954e-05
2.71487e-06
-0.00286317
-2.68834e-05
2.11045e-06
-0.0028586
-3.94579e-05
9.9827e-07
-0.00284947
-5.23274e-05
-8.26677e-07
-0.00283343
-6.334e-05
-3.70988e-06
-0.00280752
-6.48617e-05
-8.09786e-06
-0.00276297
-1.4435e-05
-0.00270666
-4.49758e-05
1.84645e-05
1.1441e-06
-0.00314055
7.489e-06
1.40482e-06
-0.00314759
-3.42729e-06
1.4948e-06
-0.00315058
-1.45709e-05
1.22804e-06
-0.00314989
-2.63523e-05
6.96278e-07
-0.00314503
-3.91569e-05
-1.64381e-07
-0.00313516
-5.2937e-05
-1.43824e-06
-0.00311735
-6.63026e-05
-3.37871e-06
-0.00308799
-7.12606e-05
-6.28888e-06
-0.00303547
-1.12877e-05
-0.00296302
-5.36121e-05
1.76237e-05
-0.00340842
6.79095e-06
-0.00341546
-3.81551e-06
-0.00341823
-1.46391e-05
-0.00341657
-2.60689e-05
-0.00341007
-3.86065e-05
-0.0033979
-5.23917e-05
-0.00337706
-6.65666e-05
-0.00334316
-7.36966e-05
-0.00328358
-0.00319582
-5.95778e-05
3.291e-06
1.06961e-07
-0.000842408
1.28805e-06
2.78713e-07
-0.000843063
-8.66478e-07
3.5356e-07
-0.000843248
-2.92018e-06
3.08876e-07
-0.000843157
-4.63258e-06
1.54694e-07
-0.000842841
-5.77055e-06
-1.00955e-07
-0.000842332
-6.12985e-06
-4.35479e-07
-0.000841674
-5.55921e-06
-8.15589e-07
-0.000840936
-4.01133e-06
-1.18926e-06
-0.000840174
-1.47557e-06
-0.000839306
-1.64568e-06
5.24901e-06
2.44585e-07
-0.00112897
1.83115e-06
6.05788e-07
-0.00112982
-1.76731e-06
7.49284e-07
-0.00113012
-5.22961e-06
6.67257e-07
-0.00112988
-8.21496e-06
3.58348e-07
-0.00112911
-1.03601e-05
-1.64636e-07
-0.00112783
-1.12714e-05
-8.71617e-07
-0.00112613
-1.05667e-05
-1.70293e-06
-0.00112414
-7.94658e-06
-2.56185e-06
-0.00112209
-3.25256e-06
-0.00112043
-3.5371e-06
8.28501e-06
5.07261e-07
-0.00141424
3.15583e-06
1.03882e-06
-0.00141573
-2.1683e-06
1.2428e-06
-0.00141628
-7.33237e-06
1.12086e-06
-0.00141585
-1.19358e-05
6.55541e-07
-0.00141444
-1.5492e-05
-1.49248e-07
-0.00141205
-1.73729e-05
-1.27758e-06
-0.00140874
-1.68205e-05
-2.66144e-06
-0.00140468
-1.29825e-05
-4.17763e-06
-0.00140023
-5.46938e-06
-0.00139638
-5.77699e-06
1.09e-05
8.33292e-07
-0.00169809
4.20942e-06
1.59477e-06
-0.00170045
-2.72867e-06
1.89545e-06
-0.00170132
-9.5616e-06
1.76602e-06
-0.00170071
-1.58696e-05
1.17569e-06
-0.00169858
-2.10947e-05
1.1967e-07
-0.00169486
-2.4388e-05
-1.41716e-06
-0.00168946
-2.45459e-05
-3.37888e-06
-0.0016825
-1.98144e-05
-5.66755e-06
-0.00167428
-7.72288e-06
-0.00166674
-9.54037e-06
1.33484e-05
1.24232e-06
-0.00198454
5.27987e-06
2.14463e-06
-0.00198784
-3.02425e-06
2.51138e-06
-0.00198912
-1.12884e-05
2.37751e-06
-0.00198842
-1.91567e-05
1.70168e-06
-0.0019856
-2.60806e-05
4.58704e-07
-0.00198049
-3.10469e-05
-1.42117e-06
-0.00197273
-3.24056e-05
-3.92063e-06
-0.00196222
-2.72131e-05
-7.02959e-06
-0.00194887
-9.98156e-06
-0.00193583
-1.382e-05
1.53597e-05
1.61275e-06
-0.00227027
6.15662e-06
2.60286e-06
-0.00227458
-3.24378e-06
2.99345e-06
-0.00227629
-1.26809e-05
2.85682e-06
-0.00227551
-2.18963e-05
2.13675e-06
-0.00227204
-3.04298e-05
7.94172e-07
-0.00226555
-3.72137e-05
-1.2983e-06
-0.00225532
-4.02435e-05
-4.19072e-06
-0.00224086
-3.52498e-05
-8.01234e-06
-0.00222114
-1.18942e-05
-0.0022008
-1.91549e-05
1.67722e-05
1.82967e-06
-0.00255692
6.82283e-06
2.76117e-06
-0.00256222
-3.28025e-06
3.1222e-06
-0.00256439
-1.34849e-05
2.96343e-06
-0.00256363
-2.36836e-05
2.25168e-06
-0.00255963
-3.35637e-05
9.27158e-07
-0.0025519
-4.21057e-05
-1.18809e-06
-0.00253924
-4.70693e-05
-4.23707e-06
-0.00252064
-4.28697e-05
-8.50837e-06
-0.00249353
-1.32797e-05
-0.00246409
-2.4566e-05
1.73926e-05
1.66362e-06
-0.00284435
6.99482e-06
2.4257e-06
-0.00285055
-3.46371e-06
2.69032e-06
-0.00285303
-1.40728e-05
2.53172e-06
-0.00285213
-2.48456e-05
1.90935e-06
-0.00284748
-3.5649e-05
7.64462e-07
-0.00283851
-4.56547e-05
-1.07995e-06
-0.00282353
-5.26159e-05
-3.88952e-06
-0.00280091
-4.99887e-05
-7.91737e-06
-0.00276619
-1.32842e-05
-0.00272615
-3.04916e-05
1.72973e-05
1.03265e-06
-0.00312932
6.99044e-06
1.31507e-06
-0.00313617
-3.35214e-06
1.44422e-06
-0.00313899
-1.38373e-05
1.2195e-06
-0.00313809
-2.46464e-05
7.26216e-07
-0.00313304
-3.58164e-05
-1.04136e-07
-0.00312312
-4.67384e-05
-1.359e-06
-0.00310615
-5.55502e-05
-3.23923e-06
-0.00307983
-5.5116e-05
-5.95523e-06
-0.00303786
-1.01071e-05
-0.00298517
-3.61373e-05
1.66147e-05
-0.00339708
6.44318e-06
-0.00340397
-3.60047e-06
-0.00340674
-1.38042e-05
-0.00340514
-2.4348e-05
-0.0033988
-3.53958e-05
-0.00338695
-4.65286e-05
-0.00336728
-5.61805e-05
-0.00333675
-5.73757e-05
-0.00328834
-0.00322362
-3.96872e-05
2.21188e-06
-1.535e-09
-0.000841365
8.93561e-07
1.36295e-07
-0.000841881
-5.42971e-07
2.00526e-07
-0.000842012
-1.90622e-06
1.65924e-07
-0.00084196
-3.02092e-06
4.41219e-08
-0.00084177
-3.72702e-06
-1.56197e-07
-0.000841469
-3.90064e-06
-4.12365e-07
-0.000841088
-3.47112e-06
-6.94855e-07
-0.000840671
-2.44937e-06
-9.61193e-07
-0.000840234
-1.15647e-06
-0.00083963
-9.69415e-07
3.69413e-06
1.28601e-08
-0.00112699
1.26088e-06
3.19e-07
-0.00112757
-1.32607e-06
4.44487e-07
-0.00112778
-3.79932e-06
3.76681e-07
-0.00112762
-5.87774e-06
1.1731e-07
-0.0011271
-7.28496e-06
-3.16389e-07
-0.00112626
-7.75928e-06
-8.88717e-07
-0.00112517
-7.09731e-06
-1.53953e-06
-0.00112395
-5.21296e-06
-2.1812e-06
-0.00112276
-2.67449e-06
-0.00112183
-2.29044e-06
6.44961e-06
1.93624e-07
-0.00141101
2.50226e-06
6.58366e-07
-0.00141212
-1.63129e-06
8.38135e-07
-0.00141254
-5.60408e-06
7.24926e-07
-0.00141223
-9.04154e-06
3.06596e-07
-0.00141119
-1.15314e-05
-4.02703e-07
-0.00140948
-1.26146e-05
-1.36852e-06
-0.00140718
-1.18349e-05
-2.50992e-06
-0.00140448
-8.82525e-06
-3.69427e-06
-0.00140172
-4.65991e-06
-0.00139947
-3.74678e-06
8.89265e-06
4.67573e-07
-0.00169366
3.4748e-06
1.17033e-06
-0.00169554
-2.2063e-06
1.44703e-06
-0.00169624
-7.74966e-06
1.31636e-06
-0.00169576
-1.27102e-05
7.56972e-07
-0.00169407
-1.65608e-05
-2.20345e-07
-0.00169119
-1.86211e-05
-1.59669e-06
-0.00168718
-1.80876e-05
-3.28584e-06
-0.00168226
-1.40466e-05
-5.13965e-06
-0.00167687
-6.72567e-06
-0.00167227
-6.45168e-06
1.13191e-05
8.48994e-07
-0.00197877
4.50696e-06
1.70556e-06
-0.00198156
-2.57558e-06
2.05207e-06
-0.00198264
-9.55504e-06
1.90747e-06
-0.00198203
-1.59937e-05
1.24121e-06
-0.00197964
-2.13084e-05
4.62166e-08
-0.00197544
-2.46097e-05
-1.69854e-06
-0.00196933
-2.46918e-05
-3.92638e-06
-0.0019615
-1.98183e-05
-6.51717e-06
-0.00195236
-8.85815e-06
-0.00194406
-9.45588e-06
1.34188e-05
1.22792e-06
-0.00226326
5.39566e-06
2.1906e-06
-0.00226705
-2.87796e-06
2.56772e-06
-0.00226853
-1.11043e-05
2.4159e-06
-0.00226779
-1.88931e-05
1.68844e-06
-0.0022647
-2.56755e-05
3.63356e-07
-0.00225909
-3.04245e-05
-1.62898e-06
-0.00225064
-3.15582e-05
-4.27464e-06
-0.00223938
-2.63095e-05
-7.52958e-06
-0.00222538
-1.06709e-05
-0.00221196
-1.33375e-05
1.49472e-05
1.49273e-06
-0.00254878
6.07675e-06
2.41772e-06
-0.00255357
-3.01365e-06
2.77599e-06
-0.00255551
-1.21107e-05
2.60632e-06
-0.00255472
-2.0934e-05
1.87998e-06
-0.00255099
-2.89926e-05
5.52106e-07
-0.00254403
-3.51949e-05
-1.50005e-06
-0.00253317
-3.76502e-05
-4.33554e-06
-0.00251812
-3.24407e-05
-8.03329e-06
-0.00249823
-1.19116e-05
-0.00247821
-1.70761e-05
1.5752e-05
1.36388e-06
-0.00283514
6.33304e-06
2.14109e-06
-0.00284085
-3.22561e-06
2.41296e-06
-0.00284311
-1.28463e-05
2.25721e-06
-0.00284216
-2.2347e-05
1.62887e-06
-0.00283773
-3.13615e-05
4.82123e-07
-0.00282942
-3.88667e-05
-1.31961e-06
-0.00281621
-4.28113e-05
-3.94697e-06
-0.00279735
-3.83387e-05
-7.47114e-06
-0.00277122
-1.17997e-05
-0.00274329
-2.13093e-05
1.58173e-05
8.71061e-07