/*--------------------------------*- C++ -*----------------------------------*\
| =========                 |                                                 |
| \\      /  F ield         | foam-extend: Open Source CFD                    |
|  \\    /   O peration     | Version:     4.0                                |
|   \\  /    A nd           | Web:         http://www.foam-extend.org         |
|    \\/     M anipulation  |                                                 |
\*---------------------------------------------------------------------------*/
FoamFile
{
    version     2.0;
    format      ascii;
    class       volVectorField;
    location    "2550";
    object      Urel;
}
// * * * * * * * * * * * * * * * * * * * * * * * * * * * * * * * * * * * * * //

dimensions      [0 1 -1 0 0 0 0];

internalField   nonuniform List<vector> 
34480
(
(209.005 -9.79384 -19.0913)
(209.326 -9.29353 -21.5539)
(209.483 -8.56819 -23.9805)
(209.489 -7.6437 -26.414)
(209.34 -6.55886 -28.9928)
(208.998 -5.31647 -31.8923)
(208.382 -3.89682 -35.513)
(207.216 -2.18371 -40.1991)
(204.545 0.0515069 -48.1214)
(197.607 4.25583 -75.2919)
(209.938 -12.8025 -26.8101)
(210.198 -11.6752 -29.5941)
(210.325 -10.3936 -32.2539)
(210.298 -8.97154 -34.8571)
(210.063 -7.4458 -37.5207)
(209.559 -5.83615 -40.4523)
(208.752 -4.16154 -44.1115)
(207.46 -2.36799 -49.2403)
(204.324 -0.294047 -58.0613)
(196.164 3.65917 -88.6315)
(210.628 -17.0999 -33.7471)
(210.862 -15.5486 -36.8324)
(210.956 -13.8203 -39.7795)
(210.885 -11.9087 -42.6023)
(210.59 -9.86995 -45.4281)
(210.062 -7.738 -48.5136)
(209.31 -5.54039 -52.3873)
(208.167 -3.20744 -58.078)
(204.866 -0.572233 -67.7765)
(195.655 4.13235 -101.291)
(210.635 -20.4951 -41.1594)
(210.87 -18.413 -44.5391)
(210.979 -16.1554 -47.7258)
(210.942 -13.7038 -50.7507)
(210.708 -11.115 -53.7484)
(210.293 -8.42622 -57.005)
(209.676 -5.66994 -61.0515)
(208.697 -2.76731 -67.1365)
(205.371 0.454624 -77.4583)
(195.357 5.84608 -112.879)
(210.794 -24.9719 -48.0213)
(211.058 -22.4803 -51.6784)
(211.206 -19.7752 -55.1516)
(211.23 -16.8382 -58.4263)
(211.088 -13.7451 -61.6621)
(210.808 -10.5332 -65.1568)
(210.34 -7.22943 -69.4384)
(209.544 -3.74416 -75.9424)
(206.317 0.10261 -86.932)
(195.66 6.19715 -123.872)
(210.679 -28.2266 -55.6176)
(210.955 -25.2349 -59.5115)
(211.122 -22.0155 -63.1532)
(211.181 -18.5472 -66.5716)
(211.105 -14.8974 -69.9185)
(210.943 -11.1091 -73.5164)
(210.628 -7.21084 -77.8771)
(210.046 -3.11574 -84.6084)
(207.066 1.37645 -96.0828)
(196.01 8.10836 -134.171)
(210.761 -33.0087 -62.4758)
(211.077 -29.6279 -66.6099)
(211.272 -25.984 -70.5013)
(211.37 -22.0658 -74.1262)
(211.353 -17.9486 -77.666)
(211.288 -13.6689 -81.4439)
(211.114 -9.23115 -85.9758)
(210.749 -4.53226 -92.9912)
(208.099 0.699054 -105.044)
(196.748 8.26183 -144.124)
(210.589 -36.1792 -70.3228)
(210.909 -32.3264 -74.6641)
(211.084 -28.1646 -78.6835)
(211.14 -23.7084 -82.4175)
(211.083 -19.0115 -86.0105)
(211 -14.1313 -89.7905)
(210.87 -9.06501 -94.257)
(210.662 -3.70519 -101.229)
(208.421 2.37084 -113.47)
(197.104 10.8378 -153.055)
(210.534 -41.4427 -77.1521)
(210.897 -37.2229 -81.6794)
(211.104 -32.6856 -85.8818)
(211.198 -27.8697 -89.767)
(211.192 -22.8304 -93.5202)
(211.153 -17.5977 -97.4459)
(211.092 -12.1153 -102.078)
(211.024 -6.23068 -109.204)
(209.112 0.774911 -121.818)
(197.68 10.7323 -161.342)
(209.569 -44.644 -85.1139)
(209.843 -40.0419 -89.9224)
(209.79 -35.0029 -94.3273)
(209.431 -29.6475 -98.3967)
(208.813 -23.9894 -102.257)
(208.027 -18.0692 -106.189)
(207.158 -11.8217 -110.662)
(206.371 -5.05622 -117.278)
(204.433 2.95959 -129.041)
(194.247 14.3052 -166.631)
(205.891 1.91224 3.00055)
(206.369 1.10971 1.5439)
(206.556 0.426614 -0.00997533)
(206.472 -0.117339 -1.61007)
(206.094 -0.546453 -3.31982)
(205.333 -0.861259 -5.15158)
(203.985 -1.06586 -7.15909)
(201.619 -1.17173 -9.31731)
(198.154 -1.25682 -11.2449)
(193.578 -1.15899 -14.3934)
(207.189 2.86866 2.79789)
(207.621 2.16434 1.16177)
(207.793 1.51949 -0.492279)
(207.704 0.943979 -2.18913)
(207.292 0.416607 -3.99634)
(206.437 -0.0686788 -5.97183)
(204.943 -0.526997 -8.20873)
(202.358 -0.993273 -10.9582)
(198.189 -1.58371 -14.0068)
(192.505 -1.824 -20.5815)
(208.138 2.57771 3.30708)
(208.548 1.77166 1.54469)
(208.705 1.04499 -0.256808)
(208.606 0.422842 -2.09026)
(208.169 -0.13336 -4.02985)
(207.295 -0.636143 -6.15936)
(205.81 -1.11482 -8.66771)
(203.233 -1.58607 -12.0868)
(198.688 -2.15694 -16.3332)
(192.07 -2.07101 -26.7166)
(208.382 3.17812 3.30349)
(208.797 2.4036 1.4561)
(208.976 1.69458 -0.403457)
(208.918 1.08841 -2.29706)
(208.544 0.546582 -4.31009)
(207.772 0.0574031 -6.56894)
(206.4 -0.412251 -9.29944)
(203.916 -0.855234 -13.2587)
(199.142 -1.36338 -18.4765)
(191.71 -0.933397 -32.454)
(208.735 2.66855 3.83832)
(209.178 1.80915 1.93572)
(209.395 1.04229 -0.0204195)
(209.402 0.408729 -2.00871)
(209.121 -0.146776 -4.1462)
(208.485 -0.635515 -6.58672)
(207.263 -1.09237 -9.57245)
(204.941 -1.48849 -14.0629)
(200.089 -1.90213 -20.2308)
(191.949 -1.07284 -37.6931)
(208.771 3.39319 3.63423)
(209.228 2.54132 1.71987)
(209.471 1.78371 -0.206848)
(209.521 1.16383 -2.17565)
(209.313 0.635015 -4.29775)
(208.805 0.182822 -6.7731)
(207.749 -0.223996 -9.84348)
(205.648 -0.547885 -14.6623)
(200.883 -0.829995 -21.5475)
(192.218 0.364772 -42.2099)
(208.976 2.56692 4.16)
(209.469 1.61614 2.23751)
(209.743 0.786487 0.259064)
(209.839 0.114294 -1.7496)
(209.699 -0.450617 -3.93587)
(209.306 -0.919839 -6.51577)
(208.412 -1.30989 -9.74446)
(206.556 -1.56814 -14.9178)
(201.998 -1.65612 -22.5676)
(192.908 0.00117194 -46.245)
(208.891 3.37385 3.69569)
(209.392 2.4096 1.80347)
(209.656 1.59817 -0.0882431)
(209.725 0.950833 -2.02438)
(209.569 0.44124 -4.1204)
(209.197 0.0373018 -6.62282)
(208.398 -0.263908 -9.7813)
(206.762 -0.418341 -15.0053)
(202.533 -0.20806 -23.0526)
(193.316 1.83448 -49.2173)
(208.903 2.05542 4.24509)
(209.436 0.977356 2.40195)
(209.728 0.0661398 0.525965)
(209.834 -0.688926 -1.37772)
(209.735 -1.3184 -3.48069)
(209.437 -1.83473 -6.03046)
(208.759 -2.19003 -9.33539)
(207.35 -2.3216 -14.7936)
(203.46 -1.74185 -23.4885)
(193.992 1.00293 -51.4979)
(207.981 2.86376 3.63691)
(208.458 1.69307 1.78955)
(208.575 0.796296 -0.0347062)
(208.362 0.067785 -1.90547)
(207.834 -0.474197 -3.92988)
(207.026 -0.855627 -6.35385)
(205.826 -1.01329 -9.46974)
(204.024 -0.832108 -14.564)
(200.282 0.222244 -23.0379)
(191.635 4.03739 -51.3446)
(203.516 1.42795 2.33436)
(204.02 0.833604 1.21628)
(204.201 0.302575 -0.013277)
(204.097 -0.131705 -1.26342)
(203.696 -0.482309 -2.55462)
(202.949 -0.746662 -3.83245)
(201.764 -0.934539 -5.04906)
(199.988 -1.07146 -6.05479)
(197.434 -1.24283 -6.4985)
(194.217 -1.4322 -6.5169)
(204.912 2.41436 2.31322)
(205.407 1.87203 0.946107)
(205.587 1.34575 -0.448821)
(205.464 0.855106 -1.8658)
(205 0.390019 -3.33137)
(204.111 -0.0548595 -4.84815)
(202.638 -0.492842 -6.37974)
(200.31 -0.955562 -7.86298)
(196.687 -1.5544 -8.80244)
(191.847 -2.13648 -9.81071)
(205.947 2.21215 2.94804)
(206.446 1.52896 1.39539)
(206.627 0.890761 -0.208797)
(206.502 0.327307 -1.8381)
(206.014 -0.193445 -3.53885)
(205.061 -0.681416 -5.32776)
(203.445 -1.16136 -7.21465)
(200.8 -1.66345 -9.29202)
(196.299 -2.33203 -11.0027)
(189.857 -2.91106 -13.5839)
(206.343 2.89707 2.99415)
(206.866 2.22044 1.31805)
(207.071 1.57968 -0.380916)
(206.981 1.01459 -2.1124)
(206.531 0.491672 -3.94036)
(205.615 0.00117592 -5.92308)
(203.983 -0.48879 -8.10651)
(201.17 -0.995658 -10.7405)
(195.931 -1.68078 -13.2005)
(187.995 -2.16611 -17.5586)
(206.846 2.42653 3.56876)
(207.4 1.65009 1.80541)
(207.642 0.940862 -0.0196144)
(207.609 0.340662 -1.87747)
(207.228 -0.200971 -3.86955)
(206.401 -0.692538 -6.08635)
(204.828 -1.16952 -8.60263)
(201.97 -1.63794 -11.8317)
(196.183 -2.28598 -15.1301)
(186.926 -2.57757 -21.5717)
(207.012 3.20028 3.38969)
(207.585 2.41748 1.59381)
(207.855 1.70792 -0.222537)
(207.863 1.11502 -2.08447)
(207.544 0.594223 -4.09231)
(206.815 0.133195 -6.38756)
(205.341 -0.303509 -9.06305)
(202.542 -0.715447 -12.7146)
(196.409 -1.27649 -16.715)
(186.061 -1.3399 -25.3329)
(207.33 2.39055 3.93875)
(207.935 1.50295 2.11661)
(208.234 0.72026 0.231246)
(208.288 0.0786465 -1.6895)
(208.032 -0.470304 -3.78538)
(207.402 -0.934897 -6.22109)
(206.047 -1.33757 -9.1217)
(203.367 -1.66915 -13.2321)
(197.06 -2.06857 -18.0274)
(185.782 -1.79914 -28.9561)
(207.337 3.23557 3.47881)
(207.95 2.33248 1.68349)
(208.243 1.56584 -0.117649)
(208.28 0.948671 -1.97014)
(208.017 0.454395 -3.98473)
(207.414 0.0567267 -6.36734)
(206.145 -0.257164 -9.26057)
(203.617 -0.48781 -13.5543)
(197.326 -0.620504 -18.8722)
(185.387 -0.0696164 -31.8725)
(207.429 1.90358 4.03274)
(208.061 0.887445 2.27498)
(208.376 0.0349206 0.472668)
(208.441 -0.660664 -1.36161)
(208.22 -1.23121 -3.38785)
(207.68 -1.68695 -5.8152)
(206.521 -1.9926 -8.87651)
(204.188 -2.12667 -13.5149)
(198.029 -1.8607 -19.6421)
(185.306 -0.79927 -34.2637)
(206.573 2.76956 3.39223)
(207.153 1.67666 1.66371)
(207.338 0.850634 -0.052675)
(207.166 0.187346 -1.82459)
(206.629 -0.293657 -3.74854)
(205.717 -0.615371 -6.03823)
(204.201 -0.726506 -8.9224)
(201.63 -0.547153 -13.3057)
(195.609 0.217597 -19.5469)
(182.828 2.30023 -34.6944)
(201.781 0.949145 1.70178)
(202.218 0.547745 0.9114)
(202.368 0.16568 0.00789424)
(202.27 -0.157826 -0.89642)
(201.921 -0.428546 -1.80008)
(201.306 -0.641122 -2.62149)
(200.395 -0.807777 -3.29566)
(199.161 -0.952022 -3.68718)
(197.601 -1.12925 -3.58049)
(195.871 -1.36484 -2.75287)
(203.102 1.90756 1.79137)
(203.57 1.53209 0.718101)
(203.733 1.13493 -0.387741)
(203.602 0.741903 -1.49713)
(203.154 0.354223 -2.60171)
(202.344 -0.0308996 -3.67095)
(201.095 -0.424122 -4.62883)
(199.302 -0.847913 -5.34701)
(196.838 -1.37047 -5.40303)
(194.04 -1.93781 -4.6197)
(204.091 1.75999 2.5035)
(204.602 1.22012 1.20602)
(204.778 0.690305 -0.150866)
(204.636 0.204746 -1.51803)
(204.136 -0.260026 -2.91218)
(203.207 -0.712337 -4.31343)
(201.717 -1.17161 -5.65531)
(199.468 -1.66411 -6.84635)
(196.113 -2.29555 -7.29997)
(192.034 -2.9914 -6.92401)
(204.551 2.52668 2.58706)
(205.108 1.97229 1.13173)
(205.313 1.42092 -0.354618)
(205.19 0.916232 -1.86123)
(204.689 0.433003 -3.42375)
(203.723 -0.0380643 -5.0564)
(202.095 -0.526047 -6.71337)
(199.508 -1.05339 -8.37935)
(195.291 -1.75921 -9.29349)
(189.826 -2.52555 -9.54027)
(205.137 2.1011 3.2027)
(205.738 1.43209 1.62529)
(205.978 0.800344 -0.0200203)
(205.897 0.250045 -1.68746)
(205.431 -0.261322 -3.4517)
(204.489 -0.741697 -5.35629)
(202.811 -1.22404 -7.38187)
(200.008 -1.72761 -9.61124)
(195.039 -2.44192 -11.1401)
(188.235 -3.1811 -12.3679)
(205.394 2.92945 3.05263)
(206.023 2.23938 1.41833)
(206.29 1.59633 -0.243877)
(206.243 1.04576 -1.94386)
(205.817 0.548866 -3.75868)
(204.923 0.0931814 -5.7801)
(203.253 -0.358988 -8.01116)
(200.343 -0.826246 -10.6685)
(194.77 -1.5067 -12.7413)
(186.758 -2.16641 -15.1349)
(205.796 2.14612 3.63082)
(206.458 1.34325 1.94752)
(206.753 0.623429 0.194373)
(206.746 0.0243063 -1.58902)
(206.368 -0.498121 -3.52108)
(205.538 -0.951645 -5.71768)
(203.915 -1.3628 -8.2217)
(200.976 -1.7446 -11.3675)
(194.944 -2.30037 -14.1235)
(185.842 -2.77394 -17.9493)
(205.883 3.04185 3.1818)
(206.553 2.21938 1.51791)
(206.846 1.51093 -0.159377)
(206.828 0.933893 -1.88667)
(206.444 0.463348 -3.75591)
(205.63 0.0770504 -5.92616)
(204.048 -0.246951 -8.46759)
(201.147 -0.535928 -11.8565)
(194.857 -0.88067 -15.11)
(184.869 -1.19386 -20.3181)
(206.044 1.7084 3.76447)
(206.724 0.770879 2.12352)
(207.033 -0.0164364 0.423845)
(207.039 -0.652857 -1.30801)
(206.689 -1.16971 -3.21031)
(205.919 -1.57415 -5.4381)
(204.393 -1.84573 -8.14335)
(201.582 -1.99539 -11.8891)
(195.221 -1.94752 -15.9862)
(184.257 -1.89921 -22.3804)
(205.256 2.648 3.10255)
(205.889 1.64519 1.51466)
(206.107 0.893046 -0.0759457)
(205.943 0.293627 -1.72676)
(205.373 -0.131739 -3.51646)
(204.349 -0.403132 -5.61279)
(202.583 -0.481749 -8.16707)
(199.582 -0.316631 -11.7256)
(193.24 0.228211 -16.0577)
(181.785 1.20165 -22.863)
(200.571 0.551153 1.19393)
(200.913 0.294951 0.666096)
(201.028 0.0340916 0.0357508)
(200.952 -0.195244 -0.583096)
(200.694 -0.396618 -1.18743)
(200.255 -0.562358 -1.69752)
(199.643 -0.702025 -2.06661)
(198.88 -0.830759 -2.20479)
(198.015 -0.975036 -2.02032)
(197.164 -1.14155 -1.42912)
(201.727 1.43459 1.31133)
(202.121 1.2001 0.51022)
(202.257 0.920819 -0.321265)
(202.144 0.622253 -1.14564)
(201.771 0.313605 -1.93593)
(201.122 -0.003872 -2.64898)
(200.178 -0.334691 -3.21066)
(198.933 -0.68866 -3.5126)
(197.411 -1.09404 -3.32757)
(195.914 -1.5112 -2.51764)
(202.577 1.29279 2.05038)
(203.047 0.890704 1.0156)
(203.209 0.470902 -0.0833318)
(203.075 0.069091 -1.18041)
(202.623 -0.329502 -2.2676)
(201.814 -0.729516 -3.30343)
(200.583 -1.14417 -4.20336)
(198.865 -1.59095 -4.83741)
(196.582 -2.12516 -4.81326)
(194.193 -2.69411 -3.92695)
(203.016 2.11743 2.14831)
(203.559 1.69119 0.93543)
(203.755 1.23765 -0.315524)
(203.625 0.803359 -1.57423)
(203.135 0.37301 -2.84711)
(202.225 -0.0599142 -4.11448)
(200.774 -0.519549 -5.29414)
(198.642 -1.0251 -6.2706)
(195.552 -1.6645 -6.4664)
(192.083 -2.36894 -5.60751)
(203.616 1.72884 2.79418)
(204.221 1.17904 1.43088)
(204.453 0.635876 -0.00661519)
(204.349 0.146037 -1.45391)
(203.858 -0.322768 -2.95359)
(202.908 -0.776501 -4.50654)
(201.316 -1.24368 -6.04464)
(198.86 -1.74662 -7.49224)
(194.996 -2.4262 -8.0861)
(190.379 -3.19371 -7.53432)
(203.913 2.60721 2.66952)
(204.56 2.02462 1.22681)
(204.822 1.46022 -0.251908)
(204.742 0.96234 -1.75777)
(204.264 0.500885 -3.33671)
(203.308 0.064695 -5.02976)
(201.637 -0.383616 -6.78408)
(198.952 -0.870333 -8.6057)
(194.393 -1.55914 -9.55975)
(188.652 -2.35296 -9.45942)
(204.362 1.85344 3.27555)
(205.049 1.15115 1.76104)
(205.338 0.505873 0.169024)
(205.29 -0.0418709 -1.44488)
(204.839 -0.528964 -3.16835)
(203.906 -0.962363 -5.06306)
(202.205 -1.37087 -7.11182)
(199.37 -1.77949 -9.39673)
(194.214 -2.3796 -10.8781)
(187.39 -3.09947 -11.5021)
(204.504 2.80598 2.83923)
(205.204 2.0798 1.33385)
(205.495 1.44071 -0.193586)
(205.439 0.912219 -1.76648)
(204.98 0.473575 -3.44904)
(204.044 0.106181 -5.34441)
(202.327 -0.218546 -7.45839)
(199.42 -0.543098 -9.99067)
(193.839 -0.991163 -11.8663)
(186.055 -1.65648 -13.2454)
(204.717 1.47465 3.45724)
(205.425 0.630503 1.95857)
(205.729 -0.0843071 0.386373)
(205.692 -0.659578 -1.21513)
(205.257 -1.12415 -2.95752)
(204.348 -1.48262 -4.93717)
(202.645 -1.72714 -7.22513)
(199.715 -1.89026 -10.0745)
(193.889 -1.9818 -12.6837)
(185.057 -2.39469 -14.8184)
(203.991 2.50145 2.77468)
(204.656 1.59932 1.34464)
(204.897 0.925127 -0.103787)
(204.741 0.38986 -1.61328)
(204.153 0.0174544 -3.2403)
(203.069 -0.209332 -5.10203)
(201.2 -0.264024 -7.27268)
(198.102 -0.11899 -10.0004)
(192.174 0.260011 -12.811)
(182.633 0.640328 -15.1308)
(199.739 0.251718 0.824865)
(199.993 0.0931647 0.488395)
(200.074 -0.0795138 0.0635911)
(200.023 -0.236453 -0.342719)
(199.848 -0.382039 -0.7354)
(199.56 -0.507285 -1.0465)
(199.175 -0.618435 -1.25087)
(198.723 -0.722966 -1.29412)
(198.247 -0.831605 -1.14383)
(197.791 -0.943158 -0.777496)
(200.717 1.04051 0.910833)
(201.019 0.911148 0.336701)
(201.126 0.728296 -0.260176)
(201.038 0.512552 -0.845188)
(200.754 0.277326 -1.3865)
(200.276 0.0268454 -1.84332)
(199.612 -0.237643 -2.15829)
(198.793 -0.516706 -2.25868)
(197.885 -0.815271 -2.03778)
(197.078 -1.10358 -1.43094)
(201.39 0.86165 1.63599)
(201.788 0.575123 0.842197)
(201.926 0.254903 -0.0153067)
(201.812 -0.0659622 -0.863803)
(201.436 -0.395653 -1.6809)
(200.783 -0.734659 -2.41796)
(199.839 -1.08956 -2.99864)
(198.61 -1.46904 -3.31459)
(197.135 -1.89515 -3.14387)
(195.749 -2.32517 -2.34646)
(201.757 1.71214 1.72034)
(202.246 1.40397 0.746179)
(202.423 1.04635 -0.269288)
(202.301 0.685576 -1.2832)
(201.86 0.315282 -2.28036)
(201.068 -0.0668902 -3.22109)
(199.87 -0.477608 -4.01849)
(198.23 -0.929358 -4.54529)
(196.096 -1.46839 -4.43723)
(193.954 -2.04061 -3.43904)
(202.315 1.34322 2.37744)
(202.884 0.910991 1.23659)
(203.097 0.459554 0.0179386)
(202.986 0.0361047 -1.20022)
(202.514 -0.381411 -2.43269)
(201.634 -0.795618 -3.64946)
(200.238 -1.22826 -4.76371)
(198.234 -1.69884 -5.64696)
(195.416 -2.29704 -5.77439)
(192.408 -2.96194 -4.76563)
(202.61 2.25834 2.26778)
(203.236 1.78736 1.03181)
(203.482 1.30772 -0.246616)
(203.383 0.869539 -1.54195)
(202.897 0.452169 -2.87084)
(201.964 0.0474096 -4.23246)
(200.423 -0.377543 -5.54365)
(198.122 -0.849131 -6.71199)
(194.641 -1.48302 -7.04638)
(190.723 -2.22628 -6.09531)
(203.07 1.53077 2.89449)
(203.746 0.936815 1.56769)
(204.02 0.373432 0.156766)
(203.945 -0.116253 -1.26719)
(203.464 -0.560733 -2.7606)
(202.51 -0.965049 -4.33686)
(200.874 -1.35688 -5.93765)
(198.341 -1.76588 -7.50451)
(194.246 -2.34309 -8.22475)
(189.396 -3.07461 -7.55852)
(203.239 2.54062 2.46823)
(203.937 1.92026 1.14015)
(204.218 1.35847 -0.217958)
(204.135 0.885218 -1.61533)
(203.639 0.485243 -3.08706)
(202.659 0.144048 -4.6843)
(200.957 -0.168844 -6.36135)
(198.267 -0.501186 -8.14043)
(193.685 -0.973279 -9.13442)
(187.954 -1.71689 -8.79331)
(203.488 1.21049 3.12308)
(204.196 0.469764 1.78551)
(204.487 -0.167008 0.360771)
(204.418 -0.679428 -1.08807)
(203.935 -1.09252 -2.64479)
(202.963 -1.40833 -4.35251)
(201.236 -1.62839 -6.21896)
(198.442 -1.79475 -8.2789)
(193.523 -1.95809 -9.83218)
(186.815 -2.51401 -9.91438)
(202.813 2.33616 2.41844)
(203.482 1.54218 1.15873)
(203.733 0.949059 -0.134044)
(203.582 0.478217 -1.48549)
(202.994 0.156476 -2.92838)
(201.898 -0.0308317 -4.53213)
(200.048 -0.06807 -6.30675)
(197.093 0.0556037 -8.29694)
(191.995 0.313715 -9.98366)
(184.568 0.412596 -10.0823)
(199.165 0.0421601 0.576343)
(199.35 -0.0565409 0.369745)
(199.406 -0.170381 0.0876196)
(199.374 -0.275769 -0.172454)
(199.263 -0.379225 -0.425542)
(199.085 -0.47136 -0.616468)
(198.855 -0.556024 -0.73641)
(198.596 -0.635488 -0.752734)
(198.335 -0.712759 -0.658274)
(198.074 -0.783989 -0.451623)
(199.987 0.740765 0.598994)
(200.204 0.682448 0.200202)
(200.282 0.57214 -0.211239)
(200.22 0.423652 -0.609841)
(200.019 0.251792 -0.966831)
(199.689 0.0622497 -1.2503)
(199.247 -0.139636 -1.42134)
(198.729 -0.349503 -1.43692)
(198.196 -0.562221 -1.25227)
(197.758 -0.75421 -0.850812)
(200.485 0.495588 1.28419)
(200.798 0.296498 0.694294)
(200.909 0.0591542 0.0457159)
(200.82 -0.189256 -0.591099)
(200.528 -0.452984 -1.18893)
(200.034 -0.729301 -1.70221)
(199.348 -1.01947 -2.07148)
(198.506 -1.32469 -2.2226)
(197.579 -1.64846 -2.04286)
(196.775 -1.95753 -1.47322)
(200.757 1.34215 1.33061)
(201.169 1.13263 0.573908)
(201.319 0.861634 -0.22277)
(201.215 0.571942 -1.01236)
(200.845 0.26379 -1.76786)
(200.199 -0.0612292 -2.44287)
(199.265 -0.411698 -2.96163)
(198.062 -0.792579 -3.22038)
(196.637 -1.22207 -3.01372)
(195.324 -1.6579 -2.19299)
(201.238 0.97276 1.97813)
(201.74 0.646519 1.05173)
(201.928 0.283142 0.0480511)
(201.823 -0.0724698 -0.948075)
(201.401 -0.433622 -1.93194)
(200.638 -0.799227 -2.85721)
(199.485 -1.18338 -3.63816)
(197.931 -1.59938 -4.14864)
(195.952 -2.0968 -4.06602)
(194.019 -2.62773 -3.11846)
(201.497 1.90633 1.86989)
(202.07 1.54182 0.841944)
(202.292 1.14722 -0.23176)
(202.189 0.772249 -1.31394)
(201.731 0.404938 -2.39863)
(200.88 0.0407865 -3.45751)
(199.546 -0.345414 -4.39854)
(197.675 -0.77499 -5.09975)
(195.126 -1.31984 -5.10523)
(192.504 -1.94562 -4.031)
(201.938 1.19701 2.50636)
(202.573 0.711149 1.37476)
(202.824 0.23229 0.155095)
(202.735 -0.19528 -1.06967)
(202.262 -0.591668 -2.32912)
(201.356 -0.959237 -3.60164)
(199.882 -1.32159 -4.80836)
(197.74 -1.70673 -5.82716)
(194.631 -2.22166 -6.09919)
(191.266 -2.86451 -5.07337)
(202.11 2.25999 2.0845)
(202.774 1.7482 0.943348)
(203.037 1.2678 -0.233676)
(202.94 0.854172 -1.44324)
(202.442 0.497909 -2.69432)
(201.488 0.188649 -3.9975)
(199.91 -0.101972 -5.27598)
(197.561 -0.41759 -6.45329)
(193.978 -0.857788 -6.88312)
(189.88 -1.53908 -5.92327)
(202.378 0.926464 2.77512)
(203.058 0.293503 1.60954)
(203.331 -0.262288 0.345859)
(203.243 -0.711154 -0.935494)
(202.747 -1.07364 -2.29249)
(201.781 -1.34939 -3.72571)
(200.147 -1.54594 -5.201)
(197.646 -1.70587 -6.62898)
(193.704 -1.88951 -7.46372)
(188.79 -2.41857 -6.70004)
(201.741 2.16026 2.04523)
(202.387 1.47793 0.962266)
(202.636 0.967422 -0.165723)
(202.492 0.560755 -1.34766)
(201.924 0.287423 -2.59386)
(200.867 0.134975 -3.93393)
(199.132 0.1103 -5.33124)
(196.475 0.21311 -6.71449)
(192.319 0.384842 -7.61549)
(186.787 0.372409 -6.78106)
(198.759 -0.0984748 0.417762)
(198.896 -0.162698 0.295544)
(198.933 -0.239658 0.107019)
(198.915 -0.310291 -0.0578526)
(198.848 -0.383446 -0.222991)
(198.743 -0.449968 -0.34335)
(198.609 -0.512416 -0.420363)
(198.463 -0.570374 -0.432978)
(198.317 -0.62365 -0.383266)
(198.15 -0.66821 -0.273325)
(199.463 0.53075 0.367225)
(199.61 0.516993 0.0966838)
(199.665 0.457917 -0.176605)
(199.623 0.360864 -0.438007)
(199.489 0.240445 -0.664922)
(199.271 0.102658 -0.835122)
(198.988 -0.0452966 -0.924329)
(198.67 -0.197093 -0.90871)
(198.359 -0.344732 -0.771813)
(198.116 -0.470576 -0.513372)
(199.805 0.204952 1.00201)
(200.038 0.0667798 0.574521)
(200.122 -0.105961 0.0960684)
(200.057 -0.293384 -0.370801)
(199.843 -0.498041 -0.80018)
(199.488 -0.715572 -1.15463)
(199.011 -0.94386 -1.39157)
(198.452 -1.17938 -1.46531)
(197.875 -1.41703 -1.32177)
(197.406 -1.63206 -0.946298)
(199.982 1.0265 0.994522)
(200.311 0.892983 0.424399)
(200.432 0.695181 -0.180707)
(200.348 0.470077 -0.776312)
(200.056 0.221896 -1.33177)
(199.557 -0.0449734 -1.80321)
(198.861 -0.332362 -2.13148)
(198.009 -0.639376 -2.24267)
(197.074 -0.96771 -2.02957)
(196.27 -1.28557 -1.42348)
(200.369 0.639225 1.61497)
(200.791 0.401592 0.883228)
(200.949 0.117618 0.0789504)
(200.858 -0.17272 -0.71389)
(200.502 -0.476151 -1.47951)
(199.876 -0.788419 -2.16743)
(198.969 -1.11693 -2.70374)
(197.809 -1.46794 -2.98658)
(196.452 -1.86391 -2.83142)
(195.218 -2.26671 -2.08451)
(200.572 1.57173 1.4951)
(201.072 1.30165 0.664665)
(201.265 0.987301 -0.211084)
(201.168 0.67554 -1.08918)
(200.762 0.361343 -1.94902)
(200.029 0.0437457 -2.74881)
(198.93 -0.293976 -3.40237)
(197.471 -0.665963 -3.79554)
(195.657 -1.10994 -3.64695)
(193.921 -1.6033 -2.71218)
(200.977 0.870706 2.12899)
(201.546 0.485772 1.18911)
(201.769 0.0895101 0.160984)
(201.677 -0.274799 -0.865998)
(201.24 -0.619825 -1.90118)
(200.428 -0.945059 -2.90244)
(199.168 -1.26865 -3.78745)
(197.434 -1.61279 -4.42102)
(195.149 -2.04652 -4.44743)
(192.849 -2.56751 -3.45685)
(201.127 1.97917 1.70432)
(201.734 1.5722 0.750206)
(201.971 1.1732 -0.242426)
(201.87 0.821008 -1.26114)
(201.4 0.511563 -2.29432)
(200.524 0.238332 -3.32552)
(199.138 -0.0224947 -4.26586)
(197.18 -0.305787 -5.00176)
(194.477 -0.683569 -5.0897)
(191.604 -1.24161 -4.0293)
(201.403 0.634434 2.42784)
(202.032 0.107781 1.43663)
(202.28 -0.367096 0.340257)
(202.184 -0.75313 -0.767098)
(201.705 -1.06633 -1.92179)
(200.799 -1.30415 -3.09463)
(199.335 -1.47732 -4.22894)
(197.207 -1.62392 -5.18395)
(194.167 -1.79829 -5.56505)
(190.666 -2.23197 -4.57252)
(200.79 1.98328 1.66778)
(201.391 1.41181 0.76134)
(201.627 0.983324 -0.198157)
(201.493 0.639598 -1.20547)
(200.962 0.412119 -2.2518)
(199.986 0.290287 -3.33738)
(198.433 0.274585 -4.39691)
(196.157 0.358309 -5.31037)
(192.901 0.468962 -5.69499)
(188.926 0.424346 -4.59115)
(198.46 -0.191735 0.321264)
(198.567 -0.23696 0.252203)
(198.592 -0.291938 0.12248)
(198.582 -0.340103 0.0170172)
(198.543 -0.392342 -0.0945671)
(198.482 -0.440046 -0.174417)
(198.406 -0.48526 -0.229689)
(198.325 -0.526505 -0.245344)
(198.241 -0.562552 -0.226318)
(198.122 -0.589979 -0.173599)
(199.082 0.396345 0.199398)
(199.178 0.40902 0.0190172)
(199.215 0.384438 -0.155822)
(199.188 0.324922 -0.320408)
(199.102 0.244206 -0.458606)
(198.964 0.147959 -0.556197)
(198.789 0.043444 -0.598981)
(198.597 -0.0628179 -0.574078)
(198.416 -0.163095 -0.477322)
(198.279 -0.24443 -0.311619)
(199.297 -0.0128964 0.7854)
(199.462 -0.111468 0.48134)
(199.523 -0.236411 0.134724)
(199.478 -0.375066 -0.202097)
(199.328 -0.529687 -0.507364)
(199.083 -0.695793 -0.752849)
(198.763 -0.869527 -0.909796)
(198.402 -1.04531 -0.952064)
(198.047 -1.21536 -0.854304)
(197.771 -1.36174 -0.62179)
(199.394 0.772776 0.717043)
(199.644 0.693879 0.299551)
(199.738 0.554599 -0.145946)
(199.675 0.385163 -0.581639)
(199.454 0.191614 -0.978627)
(199.085 -0.0201195 -1.3002)
(198.587 -0.247517 -1.50354)
(198.001 -0.486163 -1.54013)
(197.395 -0.729873 -1.35771)
(196.902 -0.955014 -0.931528)
(199.685 0.356161 1.29883)
(200.023 0.188019 0.735162)
(200.15 -0.0280776 0.106928)
(200.076 -0.258803 -0.508575)
(199.791 -0.506499 -1.09113)
(199.301 -0.764834 -1.59404)
(198.615 -1.03635 -1.95892)
(197.777 -1.3214 -2.11243)
(196.862 -1.62667 -1.95418)
(196.077 -1.92099 -1.41123)
(199.825 1.26984 1.15764)
(200.241 1.07828 0.505646)
(200.402 0.835679 -0.187882)
(200.318 0.583949 -0.879852)
(199.976 0.322978 -1.54233)
(199.375 0.0545524 -2.13058)
(198.507 -0.23022 -2.57195)
(197.408 -0.539097 -2.77555)
(196.142 -0.886642 -2.57467)
(195.003 -1.25718 -1.84126)
(200.182 0.567778 1.77721)
(200.672 0.271752 1.01651)
(200.862 -0.0476628 0.171292)
(200.777 -0.350418 -0.668509)
(200.394 -0.643223 -1.49886)
(199.702 -0.923017 -2.2693)
(198.67 -1.20261 -2.90499)
(197.318 -1.49694 -3.28525)
(195.676 -1.84696 -3.19658)
(194.125 -2.24535 -2.37601)
(200.294 1.71222 1.34257)
(200.826 1.401 0.567019)
(201.034 1.07967 -0.246135)
(200.937 0.788064 -1.07973)
(200.516 0.526468 -1.908)
(199.749 0.291574 -2.69978)
(198.585 0.0652784 -3.36782)
(197.018 -0.178045 -3.80027)
(195.032 -0.485307 -3.70295)
(193.052 -0.910329 -2.75642)
(200.569 0.34612 2.09528)
(201.13 -0.080858 1.27273)
(201.348 -0.477946 0.342396)
(201.253 -0.803537 -0.592766)
(200.815 -1.0695 -1.55273)
(200.007 -1.27149 -2.49086)
(198.754 -1.42125 -3.34288)
(197.018 -1.55007 -3.96243)
(194.741 -1.70147 -4.08201)
(192.304 -2.03015 -3.14714)
(199.969 1.81517 1.2987)
(200.506 1.34963 0.562035)
(200.721 1.00025 -0.231142)
(200.6 0.71697 -1.0654)
(200.123 0.532288 -1.91751)
(199.258 0.437132 -2.76897)
(197.924 0.427796 -3.54128)
(196.053 0.494881 -4.10948)
(193.583 0.56295 -4.17922)
(190.809 0.519251 -3.11542)
(198.232 -0.255783 0.265831)
(198.319 -0.290722 0.229531)
(198.337 -0.333175 0.135461)
(198.332 -0.367307 0.0657935)
(198.31 -0.405631 -0.0140115)
(198.275 -0.440117 -0.0711418)
(198.233 -0.472729 -0.115481)
(198.187 -0.501761 -0.135259)
(198.137 -0.525852 -0.13599)
(198.043 -0.542295 -0.116913)
(198.8 0.32096 0.0781947)
(198.861 0.348801 -0.0403218)
(198.885 0.346709 -0.147122)
(198.869 0.31366 -0.245262)
(198.816 0.26242 -0.324167)
(198.731 0.197969 -0.375337)
(198.625 0.126676 -0.390988)
(198.511 0.054383 -0.363989)
(198.405 -0.01256 -0.295268)
(198.326 -0.0646137 -0.185932)
(198.915 -0.167947 0.624895)
(199.028 -0.242195 0.411047)
(199.07 -0.333211 0.162468)
(199.04 -0.434528 -0.0787607)
(198.939 -0.548786 -0.295619)
(198.776 -0.672355 -0.46803)
(198.568 -0.800786 -0.577345)
(198.34 -0.928308 -0.609498)
(198.123 -1.04741 -0.552192)
(197.96 -1.14549 -0.417659)
(198.954 0.579882 0.49578)
(199.137 0.537872 0.198381)
(199.207 0.443234 -0.11967)
(199.161 0.319635 -0.428817)
(199.002 0.173414 -0.704654)
(198.739 0.0110432 -0.918883)
(198.393 -0.162973 -1.04216)
(198 -0.342693 -1.04427)
(197.611 -0.519446 -0.902045)
(197.308 -0.676195 -0.609691)
(199.156 0.129477 1.03349)
(199.416 0.0129057 0.60887)
(199.515 -0.147752 0.129461)
(199.457 -0.326494 -0.337755)
(199.239 -0.523077 -0.772504)
(198.87 -0.730415 -1.13575)
(198.37 -0.947806 -1.38415)
(197.78 -1.17184 -1.4691)
(197.172 -1.40159 -1.33822)
(196.674 -1.61134 -0.96365)
(199.235 1.00979 0.8661)
(199.568 0.879736 0.368439)
(199.697 0.698238 -0.164678)
(199.627 0.500893 -0.694181)
(199.353 0.290591 -1.19044)
(198.88 0.0709308 -1.61235)
(198.219 -0.160869 -1.90292)
(197.417 -0.407961 -1.99706)
(196.547 -0.671531 -1.79856)
(195.805 -0.940652 -1.25423)
(199.543 0.300198 1.4616)
(199.948 0.0785198 0.861062)
(200.105 -0.172511 0.183087)
(200.031 -0.41788 -0.487099)
(199.711 -0.659962 -1.13802)
(199.147 -0.893795 -1.71956)
(198.335 -1.12794 -2.16946)
(197.314 -1.37033 -2.39229)
(196.156 -1.6441 -2.26739)
(195.12 -1.93649 -1.63857)
(199.605 1.47064 1.0113)
(200.053 1.2425 0.399021)
(200.228 0.992066 -0.246702)
(200.141 0.75778 -0.908256)
(199.781 0.543013 -1.55199)
(199.139 0.346893 -2.14158)
(198.2 0.157275 -2.59941)
(196.989 -0.0437927 -2.83414)
(195.562 -0.284642 -2.6542)
(194.219 -0.594767 -1.88851)
(199.876 0.0717258 1.78966)
(200.359 -0.266182 1.1232)
(200.545 -0.591321 0.350718)
(200.458 -0.86054 -0.421506)
(200.075 -1.08223 -1.20235)
(199.386 -1.25076 -1.93801)
(198.356 -1.37754 -2.56668)
(196.99 -1.4863 -2.95998)
(195.327 -1.60994 -2.94807)
(193.664 -1.84762 -2.17771)
(199.279 1.66538 0.949154)
(199.741 1.29739 0.369845)
(199.929 1.02194 -0.264859)
(199.823 0.79529 -0.933948)
(199.41 0.64979 -1.60485)
(198.672 0.577645 -2.24967)
(197.57 0.572813 -2.78835)
(196.088 0.625867 -3.11459)
(194.265 0.66454 -3.01088)
(192.377 0.633195 -2.10691)
(198.051 -0.304361 0.237541)
(198.126 -0.333737 0.220986)
(198.139 -0.369433 0.147719)
(198.137 -0.395132 0.0987436)
(198.124 -0.424524 0.0372676)
(198.105 -0.450093 -0.0076997)
(198.081 -0.473895 -0.0468961)
(198.055 -0.49434 -0.0705261)
(198.024 -0.510269 -0.0839958)
(197.945 -0.519606 -0.0851068)
(198.587 0.289447 -0.0112902)
(198.626 0.326137 -0.0878523)
(198.641 0.33842 -0.14837)
(198.632 0.323658 -0.20148)
(198.6 0.293684 -0.240962)
(198.549 0.252626 -0.262004)
(198.485 0.205714 -0.260766)
(198.418 0.157795 -0.232979)
(198.355 0.113681 -0.181736)
(198.308 0.0805724 -0.105145)
(198.624 -0.273087 0.509428)
(198.698 -0.333034 0.359322)
(198.726 -0.400691 0.181127)
(198.707 -0.474489 0.0077861)
(198.641 -0.557668 -0.147811)
(198.536 -0.647581 -0.272111)
(198.404 -0.74014 -0.353213)
(198.262 -0.830308 -0.384048)
(198.131 -0.91194 -0.357691)
(198.035 -0.976447 -0.288257)
(198.63 0.441177 0.323975)
(198.758 0.422604 0.118164)
(198.808 0.360691 -0.101782)
(198.777 0.273372 -0.314218)
(198.666 0.166444 -0.500184)
(198.485 0.0460612 -0.638979)
(198.252 -0.0828722 -0.71138)
(197.993 -0.214286 -0.699081)
(197.745 -0.339772 -0.593715)
(197.559 -0.447567 -0.395081)
(198.754 -0.0410151 0.817281)