/*--------------------------------*- C++ -*----------------------------------*\
| =========                 |                                                 |
| \\      /  F ield         | foam-extend: Open Source CFD                    |
|  \\    /   O peration     | Version:     4.0                                |
|   \\  /    A nd           | Web:         http://www.foam-extend.org         |
|    \\/     M anipulation  |                                                 |
\*---------------------------------------------------------------------------*/
FoamFile
{
    version     2.0;
    format      ascii;
    class       volScalarField;
    location    "1950";
    object      alphat;
}
// * * * * * * * * * * * * * * * * * * * * * * * * * * * * * * * * * * * * * //

dimensions      [1 -1 -1 0 0 0 0];

internalField   nonuniform List<scalar> 
34480
(
0.00188851
0.00188725
0.00188709
0.00188792
0.00189003
0.00189393
0.00190147
0.00191973
0.00195899
0.00203024
0.0159282
0.0151204
0.0148209
0.0145507
0.0129279
0.00824435
0.003407
0.00134838
0.000984915
0.001455
0.0442709
0.042613
0.0409257
0.0374811
0.0286722
0.0146828
0.00511885
0.00182865
0.00124095
0.00181188
0.04842
0.0462626
0.0443217
0.0402829
0.0297107
0.0141625
0.00479384
0.00177565
0.0012874
0.00197766
0.0477426
0.0453231
0.0435585
0.0397178
0.028852
0.013191
0.00440909
0.00168465
0.00129891
0.00209658
0.0459931
0.0435092
0.0418489
0.0380628
0.0268382
0.0116173
0.00385848
0.00155341
0.00130533
0.00222412
0.0438632
0.0415405
0.0400808
0.0364675
0.0252727
0.0105537
0.00349456
0.00146122
0.00131284
0.00233369
0.0364099
0.034718
0.0336887
0.0309415
0.021427
0.00863978
0.00281239
0.0012398
0.00123607
0.00234067
0.0124289
0.0121092
0.0120061
0.0117294
0.00993112
0.00512557
0.00167731
0.000736744
0.000834313
0.00178639
0.00180092
0.00180083
0.0018025
0.00180577
0.00181055
0.00181667
0.0018247
0.00183595
0.00185251
0.00181381
0.00188853
0.00188667
0.00188607
0.00188659
0.00188844
0.00189189
0.00189739
0.00190685
0.00192455
0.00196538
0.0149601
0.0143254
0.0141334
0.0143166
0.0147272
0.0147754
0.0129476
0.00764447
0.0024949
0.00204522
0.0407456
0.0395175
0.0388511
0.0383131
0.0366994
0.0319879
0.0230059
0.0112951
0.00328133
0.00280238
0.0448219
0.0431529
0.0423493
0.0417761
0.0399331
0.0344343
0.0242078
0.0114392
0.0033006
0.00316949
0.044656
0.042699
0.0419533
0.0415947
0.0401113
0.0348403
0.0244553
0.0112842
0.00323796
0.00345054
0.0434411
0.0413739
0.0406463
0.0404219
0.0392074
0.0342123
0.0239595
0.0108496
0.00316551
0.00378145
0.0418363
0.0398519
0.0392147
0.0390746
0.0380981
0.0334678
0.0235396
0.0105539
0.00312906
0.00409781
0.0351444
0.0336719
0.0332031
0.0331855
0.0326768
0.0293616
0.0210957
0.00938477
0.00285441
0.00417043
0.0123671
0.01206
0.0119989
0.0120568
0.0121869
0.0120295
0.0106114
0.00545475
0.00170678
0.0028009
0.00179635
0.00179389
0.00179339
0.00179459
0.00179738
0.00180149
0.00180766
0.0018175
0.00184177
0.00188908
0.00188402
0.00188242
0.00188188
0.00188235
0.00188394
0.00188671
0.00189069
0.00189668
0.00190562
0.00191915
0.0140634
0.0136473
0.0135132
0.0136636
0.0141021
0.0147419
0.0151437
0.0142158
0.0101116
0.00583684
0.0372134
0.0362458
0.0359073
0.0360532
0.0363697
0.0359495
0.0330156
0.0253638
0.0133439
0.00709957
0.0410835
0.0397794
0.0393492
0.0395748
0.0400714
0.0397187
0.0361982
0.0266182
0.0125401
0.00720414
0.0413121
0.0397964
0.0393805
0.03972
0.0405241
0.0406543
0.0373625
0.0266932
0.0114196
0.00717604
0.0405703
0.0389624
0.0385266
0.0389303
0.0399591
0.0405778
0.0376986
0.0261774
0.0103051
0.00724748
0.0394639
0.0378971
0.0375042
0.0379124
0.039044
0.0400227
0.0376522
0.0255315
0.00938123
0.00733109
0.0336222
0.0324589
0.0321497
0.032467
0.0334082
0.0345695
0.0334152
0.022641
0.00796935
0.00704234
0.0122602
0.0120048
0.0119607
0.0120212
0.012217
0.0124489
0.0126044
0.0106466
0.00448884
0.00445627
0.00178904
0.00178613
0.00178526
0.00178615
0.00178884
0.0017932
0.00180023
0.00181206
0.00183879
0.0018923
0.00187583
0.0018747
0.00187432
0.00187467
0.00187583
0.0018777
0.00188002
0.00188311
0.00188705
0.00189173
0.0134724
0.0132248
0.0131341
0.0132299
0.0135207
0.0139762
0.0144501
0.0148656
0.0145953
0.0128622
0.0340404
0.033357
0.0331615
0.0333637
0.0339296
0.034608
0.0346337
0.0324118
0.025687
0.017383
0.0376457
0.0367043
0.0364359
0.0367271
0.0375355
0.0385418
0.0386003
0.0352942
0.0257928
0.0167227
0.038192
0.0370995
0.0368312
0.0371878
0.0382008
0.0395813
0.0399758
0.0361451
0.0246339
0.0158809
0.0378704
0.0366942
0.0363926
0.0367885
0.0379483
0.0396918
0.0405407
0.0363517
0.0231427
0.0153342
0.0372099
0.0360345
0.0357536
0.0361422
0.0373455
0.0392852
0.0405183
0.0360612
0.0215244
0.0148453
0.0322062
0.0313246
0.0310946
0.0313819
0.0322898
0.0339208
0.0354083
0.0319998
0.0185287
0.0137227
0.0121942
0.0119839
0.0119515
0.0119978
0.0121467
0.0123367
0.0125437
0.0126725
0.0095884
0.00831886
0.00178013
0.00177709
0.00177608
0.00177689
0.0017796
0.00178426
0.00179186
0.00180457
0.00183071
0.00187806
0.00186474
0.00186406
0.00186382
0.00186406
0.00186481
0.00186593
0.00186711
0.00186854
0.00187012
0.00187159
0.0131897
0.0130529
0.0129931
0.0130525
0.0132318
0.0134919
0.0137228
0.0140117
0.0142931
0.0144155
0.0315067
0.0311059
0.0309995
0.0311245
0.0315079
0.0321218
0.0328089
0.0330911
0.03164
0.0274617
0.0347733
0.034171
0.0340019
0.0341975
0.0347931
0.0357779
0.0368788
0.03711
0.034096
0.02747
0.0355156
0.034792
0.0346158
0.0348565
0.0356002
0.0368663
0.038327
0.0385833
0.034233
0.026305
0.0355135
0.0347029
0.0344879
0.0347641
0.0356247
0.0371651
0.039049
0.0394576
0.0338279
0.0253953
0.0352038
0.03436
0.0341522
0.0344289
0.0353324
0.037004
0.0391552
0.0396399
0.0328214
0.0244431
0.0309616
0.0303142
0.0301389
0.0303469
0.031017
0.0323224
0.0341947
0.0350292
0.0289284
0.0222928
0.0121759
0.0120025
0.011979
0.0120105
0.0121119
0.0122294
0.0123003
0.0126957
0.0125737
0.0122107
0.0017698
0.00176674
0.00176566
0.00176641
0.00176909
0.00177383
0.00178148
0.00179385
0.00181656
0.00185319
0.0018513
0.00185095
0.00185084
0.00185099
0.00185142
0.00185199
0.00185251
0.0018531
0.00185367
0.00185407
0.0131474
0.0130815
0.0130442
0.013083
0.0131946
0.0133327
0.0134245
0.0135396
0.0136595
0.0137515
0.0297477
0.0295546
0.029507
0.0295669
0.0297602
0.0300886
0.0305439
0.0310951
0.0314188
0.0310582
0.0326058
0.0322651
0.0321664
0.0322735
0.0326193
0.0332421
0.0341524
0.0351929
0.03548
0.0339461
0.033388
0.0329505
0.0328429
0.0329819
0.0334365
0.0342689
0.0355109
0.0369058
0.0369207
0.0340656
0.0335739
0.0330506
0.0329046
0.0330764
0.0336315
0.0346851
0.0363081
0.0381511
0.0378579
0.0338488
0.0334985
0.032923
0.0327763
0.0329551
0.0335612
0.0347321
0.0365773
0.0386898
0.037949
0.0331007
0.0299086
0.0294535
0.0293261
0.0294666
0.0299204
0.0308159
0.0322746
0.034216
0.0337654
0.0299532
0.0122089
0.0120667
0.0120517
0.0120716
0.0121351
0.0121874
0.0121399
0.0123348
0.0127462
0.0136374
0.00175788
0.00175491
0.00175384
0.00175453
0.00175709
0.00176169
0.00176894
0.00178021
0.00179868
0.00182515
0.0018359
0.00183578
0.00183574
0.00183583
0.00183605
0.00183627
0.00183646
0.00183666
0.00183683
0.00183688
0.0132694
0.013251
0.0132306
0.013257
0.0133261
0.0133891
0.0134287
0.0134712
0.0135021
0.0134923
0.0286862
0.0286094
0.0285943
0.0286193
0.0287015
0.0288357
0.0290278
0.0292924
0.029574
0.0297924
0.0311279
0.0309509
0.0308967
0.0309494
0.0311275
0.0314522
0.0319526
0.0326491
0.033349
0.0337453
0.0318259
0.0315801
0.0315194
0.0315921
0.0318426
0.0323059
0.0330413
0.0340994
0.0350945
0.03539
0.0320808
0.031761
0.0316667
0.0317661
0.0320968
0.0327286
0.0337636
0.0353033
0.0366616
0.0367228
0.0321317
0.0317566
0.031658
0.031766
0.0321465
0.0328822
0.0341059
0.0359717
0.0374806
0.0371048
0.0290744
0.0287677
0.0286794
0.0287691
0.0290578
0.0296181
0.030542
0.0321141
0.0335566
0.0335464
0.0123016
0.0121843
0.0121767
0.0121879
0.0122222
0.0122205
0.0120993
0.0121026
0.0122893
0.0129842
0.00174423
0.00174146
0.00174043
0.00174106
0.00174344
0.00174769
0.00175423
0.00176396
0.00177837
0.00179693
0.00181875
0.00181877
0.00181879
0.00181883
0.00181893
0.00181897
0.00181901
0.00181904
0.00181905
0.00181898
0.0134977
0.0135138
0.0135071
0.0135254
0.0135654
0.0135905
0.0136097
0.0136263
0.0136271
0.0135852
0.0281282
0.0281065
0.0281067
0.0281168
0.0281475
0.0281925
0.0282574
0.0283457
0.0284431
0.0285277
0.0302027
0.0301139
0.0300849
0.0301098
0.0301977
0.0303552
0.0305929
0.0309229
0.0312974
0.0316307
0.0307575
0.0306264
0.0305944
0.0306301
0.0307604
0.0309974
0.0313683
0.0319153
0.0325573
0.0331294
0.0310014
0.0308142
0.0307558
0.0308108
0.0309985
0.0313516
0.0319236
0.0328125
0.0338827
0.0348216
0.0310984
0.0308628
0.0307995
0.0308614
0.03109
0.0315241
0.0322368
0.0333884
0.0347749
0.0359123
0.0284635
0.028265
0.028207
0.0282612
0.0284344
0.0287593
0.0292739
0.0302062
0.0314642
0.0327003
0.0124602
0.0123621
0.0123607
0.0123656
0.0123782
0.0123348
0.0121778
0.0120706
0.0120504
0.0123128
0.00172873
0.00172625
0.00172531
0.00172587
0.00172799
0.00173174
0.00173738
0.00174541
0.00175629
0.00176908
0.00179997
0.00180007
0.00180012
0.00180014
0.00180016
0.00180014
0.00180012
0.00180008
0.00180004
0.00179993
0.0137984
0.0138416
0.0138465
0.0138591
0.0138773
0.0138882
0.013899
0.0139056
0.0138957
0.013843
0.0278882
0.0278903
0.0278969
0.0279013
0.0279106
0.0279228
0.0279411
0.0279646
0.0279877
0.0280026
0.0296647
0.0296196
0.0296037
0.0296157
0.0296597
0.0297368
0.0298485
0.0299944
0.0301542
0.0302896
0.0300722
0.0300038
0.0299878
0.0300048
0.0300713
0.0301892
0.030367
0.0306163
0.0309092
0.0311767
0.0302671
0.0301606
0.0301255
0.0301551
0.0302592
0.0304503
0.0307496
0.031196
0.0317552
0.0323086
0.0303623
0.0302181
0.0301789
0.0302131
0.0303469
0.0305948
0.0309873
0.0316013
0.0323923
0.0331899
0.028062
0.0279382
0.0279022
0.0279333
0.0280307
0.0282037
0.0284624
0.0289332
0.0296362
0.0304946
0.0126897
0.0126055
0.0126094
0.0126098
0.0126066
0.012534
0.0123675
0.0122134
0.0120869
0.0121455
0.00171129
0.00170915
0.00170833
0.00170881
0.00171064
0.00171381
0.00171848
0.00172484
0.00173282
0.00174148
0.00177961
0.00177974
0.0017798
0.00177981
0.00177979
0.00177976
0.00177972
0.00177967
0.00177962
0.0017795
0.0141699
0.014223
0.0142382
0.0142466
0.014253
0.0142601
0.0142668
0.0142687
0.014254
0.0141959
0.0278361
0.0278456
0.0278546
0.0278569
0.0278586
0.0278611
0.0278648
0.0278688
0.0278701
0.0278659
0.0293735
0.0293491
0.02934
0.0293462
0.0293694
0.0294095
0.0294653
0.0295334
0.0296031
0.0296559
0.0296582
0.0296221
0.029614
0.0296223
0.0296568
0.0297166
0.0298032
0.0299164
0.0300422
0.030147
0.0297965
0.0297366
0.0297158
0.0297318
0.0297892
0.0298922
0.0300475
0.0302649
0.0305285
0.0307763
0.0298696
0.0297821
0.0297582
0.0297769
0.0298547
0.0299948
0.0302083
0.0305224
0.0309162
0.0312923
0.0278425
0.0277678
0.027747
0.0277637
0.0278139
0.0278947
0.0280106
0.0282226
0.028551
0.0289684
0.0129943
0.0129198
0.0129282
0.0129256
0.0129106
0.0128213
0.0126621
0.0124999
0.0123343
0.0123327
0.00169186
0.00169008
0.00168939
0.00168979
0.0016913
0.00169388
0.0016976
0.00170245
0.00170815
0.00171391
0.00175764
0.00175777
0.00175783
0.00175783
0.00175782
0.00175778
0.00175774
0.0017577
0.00175765
0.00175753
0.0146082
0.0146653
0.0146835
0.0146903
0.0146953
0.0147004
0.0147046
0.0147038
0.014686
0.0146238
0.0278888
0.0278997
0.0279079
0.0279101
0.0279105
0.0279105
0.0279104
0.0279094
0.0279054
0.0278966
0.0292282
0.0292139
0.0292083
0.0292117
0.029225
0.0292474
0.0292776
0.0293127
0.0293464
0.0293694
0.0294224
0.0294023
0.0293979
0.0294022
0.0294211
0.0294533
0.0294981
0.0295529
0.0296097
0.0296534
0.0295123
0.0294785
0.0294662
0.029475
0.0295071
0.0295634
0.0296452
0.0297528
0.0298772
0.0299887
0.0295608
0.0295072
0.0294926
0.0295031
0.0295489
0.0296289
0.0297467
0.0299093
0.0301021
0.0302716
0.0277707
0.0277267
0.0277158
0.0277242
0.0277465
0.0277752
0.027818
0.0279007
0.0280354
0.0282295
0.0133788
0.0133108
0.0133232
0.0133185
0.0132943
0.0132007
0.0130586
0.0129095
0.0127419
0.0127407
0.00167038
0.00166897
0.00166841
0.00166873
0.00166993
0.00167195
0.0016748
0.00167838
0.00168234
0.00168611
0.00173401
0.00173412
0.00173418
0.00173418
0.00173417
0.00173414
0.00173411
0.00173407
0.00173403
0.00173392
0.0151184
0.0151791
0.0151985
0.0152053
0.0152094
0.0152131
0.0152156
0.0152129
0.0151929
0.0151268
0.0279982
0.028009
0.0280163
0.0280185
0.0280188
0.0280184
0.0280177
0.0280158
0.0280109
0.0280012
0.0291634
0.0291546
0.029151
0.0291531
0.029161
0.0291742
0.0291916
0.0292112
0.0292294
0.0292408
0.029296
0.0292838
0.0292809
0.0292834
0.0292946
0.0293135
0.0293389
0.0293682
0.0293968
0.0294177
0.029351
0.0293315
0.0293241
0.0293291
0.0293475
0.029379
0.0294234
0.0294786
0.0295394
0.0295937
0.0293809
0.0293472
0.0293382
0.0293445
0.0293722
0.0294194
0.0294866
0.0295742
0.0296719
0.0297537
0.0278105
0.0277853
0.0277807
0.0277842
0.0277908
0.0277943
0.0278027
0.0278262
0.0278713
0.0279692
0.0138498
0.0137862
0.0138025
0.0137961
0.0137639
0.0136783
0.0135585
0.0134324
0.0132807
0.0133025
0.00164684
0.00164577
0.00164534
0.00164559
0.0016465
0.00164802
0.00165012
0.00165267
0.00165537
0.0016578
0.00170862
0.00170873
0.00170878
0.00170878
0.00170877
0.00170875
0.00170873
0.0017087
0.00170867
0.00170856
0.0157116
0.0157761
0.0157967
0.0158034
0.0158069
0.0158095
0.0158108
0.0158067
0.0157851
0.015715
0.0281382
0.0281485
0.0281549
0.028157
0.0281575
0.0281573
0.0281567
0.0281549
0.0281503
0.0281405
0.0291404
0.0291348
0.0291326
0.0291338
0.0291386
0.0291464
0.0291567
0.0291681
0.0291786
0.0291847
0.0292325
0.0292245
0.0292222
0.0292239
0.0292311
0.0292431
0.0292588
0.0292764
0.0292926
0.0293043
0.0292649
0.0292533
0.0292488
0.0292518
0.0292626
0.0292808
0.0293056
0.0293351
0.0293663
0.0293952
0.029285
0.0292629
0.0292571
0.0292613
0.0292788
0.029308
0.0293482
0.0293982
0.0294508
0.0294952
0.0279303
0.0279155
0.0279147
0.0279156
0.0279138
0.0279083
0.027903
0.0279023
0.0279098
0.0279678
0.0144182
0.0143573
0.0143778
0.0143698
0.0143325
0.0142649
0.0141691
0.0140688
0.01394
0.0139907
0.00162124
0.00162045
0.00162014
0.00162032
0.00162098
0.00162209
0.00162359
0.00162535
0.00162713
0.00162868
0.00168141
0.00168151
0.00168155
0.00168155
0.00168155
0.00168154
0.00168152
0.0016815
0.00168147
0.00168136
0.016406
0.0164745
0.016496
0.0165026
0.0165058
0.0165076
0.016508
0.0165031
0.0164801
0.0164058
0.0282946
0.0283044
0.0283099
0.0283119
0.0283124
0.0283125
0.0283122
0.0283108
0.0283068
0.0282971
0.0291372
0.0291339
0.0291326
0.0291333
0.029136
0.0291404
0.0291463
0.0291529
0.0291591
0.0291626
0.029203
0.0291974
0.0291955
0.0291966
0.0292015
0.0292096
0.0292201
0.0292314
0.0292416
0.029249
0.0292218
0.0292147
0.0292118
0.0292136
0.0292202
0.029231
0.0292453
0.0292617
0.0292785
0.0292951
0.0292393
0.0292242
0.0292204
0.0292234
0.0292349
0.0292539
0.0292792
0.0293095
0.0293401
0.0293678
0.0281046
0.0280931
0.0280944
0.0280939
0.0280898
0.028083
0.0280741
0.028066
0.0280598
0.0281011
0.0151137
0.015044
0.0150666
0.0150568
0.0150278
0.0149775
0.0149051
0.0148297
0.0147246
0.0148029
0.00159356
0.001593
0.00159278
0.00159291
0.00159338
0.00159416
0.00159519
0.00159636
0.00159751
0.00159848
0.0016523
0.00165239
0.00165242
0.00165242
0.00165242
0.00165241
0.0016524
0.00165238
0.00165236
0.00165226
0.0172273
0.0173004
0.0173225
0.0173289
0.0173319
0.0173332
0.017333
0.0173275
0.0173037
0.0172247
0.0284593
0.0284684
0.028473
0.0284748
0.0284754
0.0284757
0.0284757
0.0284748
0.0284715
0.0284624
0.0291424
0.0291406
0.02914
0.0291403
0.0291417
0.029144
0.0291471
0.0291507
0.0291543
0.0291565
0.0291905
0.0291864
0.0291848
0.0291855
0.0291889
0.0291945
0.0292017
0.0292094
0.0292162
0.0292212
0.0292013
0.0291968
0.0291949
0.0291959
0.0292
0.0292065
0.029215
0.0292244
0.0292339
0.029244
0.0292207
0.02921
0.0292074
0.0292097
0.0292176
0.0292304
0.0292469
0.0292662
0.0292851
0.0293047
0.0283108
0.0283
0.028301
0.0283007
0.0282976
0.0282922
0.0282844
0.0282758
0.0282664
0.0283001
0.0159625
0.0158853
0.0159021
0.0158959
0.0158764
0.0158421
0.0157914
0.0157378
0.0156547
0.0157559
0.00156382
0.00156343
0.00156328
0.00156337
0.00156369
0.00156421
0.0015649
0.00156565
0.00156637
0.00156696
0.00162124
0.00162132
0.00162134
0.00162135
0.00162135
0.00162134
0.00162133
0.00162132
0.0016213
0.0016212
0.0182125
0.0182907
0.0183131
0.0183192
0.0183222
0.018323
0.0183224
0.0183169
0.0182926
0.0182085
0.0286265
0.0286347
0.0286384
0.0286399
0.0286405
0.0286409
0.0286412
0.0286407
0.0286383
0.0286301
0.0291502
0.0291493
0.0291491
0.0291493
0.0291498
0.0291508
0.0291521
0.0291539
0.0291559
0.0291575
0.0291852
0.0291822
0.0291809
0.0291813
0.0291836
0.0291875
0.0291924
0.0291976
0.0292023
0.0292059
0.0291912
0.0291882
0.0291869
0.0291875
0.02919
0.029194
0.0291991
0.0292046
0.0292102
0.0292166
0.0292138
0.0292062
0.0292044
0.0292062
0.0292117
0.0292204
0.0292313
0.0292439
0.0292561
0.0292709
0.0285299
0.0285196
0.0285203
0.0285203
0.0285185
0.0285152
0.02851
0.0285036
0.028495
0.0285242
0.017003
0.0169202
0.0169311
0.0169281
0.0169173
0.0168973
0.0168663
0.0168311
0.0167676
0.0168852
0.00153201
0.00153176
0.00153166
0.00153172
0.00153193
0.00153227
0.00153271
0.00153317
0.00153361
0.00153396
0.0015883
0.00158836
0.00158839
0.00158839
0.00158839
0.00158838
0.00158837
0.00158836
0.00158834
0.00158825
0.0194158
0.0194997
0.0195222
0.0195279
0.0195304
0.0195309
0.0195301
0.0195248
0.0195008
0.0194111
0.0287898
0.0287968
0.0287996
0.0288006
0.0288012
0.0288017
0.0288022
0.0288022
0.0288008
0.0287941
0.0291575
0.0291572
0.0291572
0.0291572
0.0291574
0.0291576
0.0291579
0.0291586
0.0291596
0.029161
0.029182
0.0291798
0.0291787
0.0291789
0.0291804
0.0291829
0.0291861
0.0291896
0.0291929
0.0291955
0.0291847
0.0291827
0.0291818
0.0291821
0.0291836
0.029186
0.029189
0.0291923
0.0291956
0.0291996
0.0292091
0.0292038
0.0292025
0.0292038
0.0292075
0.0292133
0.0292204
0.0292284
0.0292363
0.0292476
0.0287442
0.0287347
0.0287351
0.0287353
0.0287347
0.0287334
0.0287307
0.028727
0.0287205
0.0287457
0.0182922
0.0182064
0.018211
0.0182108
0.0182077
0.0182007
0.0181881
0.0181679
0.0181228
0.0182486
0.00149825
0.00149809
0.00149802
0.00149806
0.00149819
0.0014984
0.00149867
0.00149895
0.00149921
0.00149941
0.00155369
0.00155375
0.00155376
0.00155377
0.00155377
0.00155376
0.00155375
0.00155374
0.00155372
0.00155364
0.0209198
0.0210092
0.0210316
0.0210367
0.0210378
0.0210379
0.0210371
0.0210324
0.0210098
0.0209146
0.0289409
0.0289461
0.0289477
0.0289482
0.0289486
0.0289492
0.0289499
0.0289504
0.0289501
0.0289457
0.0291625
0.0291624
0.0291625
0.0291625
0.0291625
0.0291624
0.0291623
0.0291624
0.0291628
0.0291641
0.0291782
0.0291766
0.0291758
0.0291758
0.0291767
0.0291782
0.0291802
0.0291824
0.0291846
0.0291866
0.0291788
0.0291774
0.0291768
0.0291769
0.0291777
0.0291791
0.0291808
0.0291826
0.0291845
0.029187
0.0292001
0.0291967
0.0291958
0.0291967
0.029199
0.0292025
0.0292068
0.0292116
0.0292164
0.0292245
0.0289344
0.0289263
0.0289264
0.0289267
0.0289268
0.0289267
0.0289258
0.0289242
0.0289199
0.0289406
0.0199133
0.019828
0.0198254
0.0198275
0.0198315
0.019837
0.0198424
0.0198356
0.0198103
0.0199327
0.00146271
0.00146262
0.00146257
0.00146259
0.00146267
0.0014628
0.00146296
0.00146313
0.00146329
0.0014634
0.00151762
0.00151766
0.00151766
0.00151766
0.00151766
0.00151766
0.00151766
0.00151765
0.00151764
0.00151759
0.0228573
0.0229492
0.022969
0.0229731
0.0229739
0.0229738
0.0229729
0.0229689
0.022949
0.0228509
0.0290674
0.02907
0.0290703
0.0290703
0.0290705
0.0290711
0.0290719
0.0290729
0.0290736
0.0290724
0.0291644
0.0291644
0.0291645
0.0291645
0.0291645
0.0291643
0.0291642
0.0291641
0.0291642
0.0291652
0.0291735
0.0291725
0.0291719
0.0291719
0.0291723
0.0291732
0.0291744
0.0291757
0.0291771
0.0291785
0.029173
0.0291721
0.0291717
0.0291718
0.0291722
0.0291729
0.0291738
0.0291748
0.0291758
0.0291771
0.0291854
0.0291834
0.0291829
0.0291834
0.0291847
0.0291866
0.0291889
0.0291914
0.029194
0.0291991
0.0290791
0.029073
0.0290729
0.0290732
0.0290734
0.0290735
0.0290733
0.0290729
0.0290708
0.0290864
0.0220129
0.0219345
0.0219325
0.0219342
0.0219373
0.0219415
0.0219457
0.0219486
0.0219496
0.0220527
0.00142553
0.00142547
0.00142544
0.00142545
0.0014255
0.00142558
0.00142568
0.00142578
0.0014259
0.00142596
0.00147922
0.00147922
0.0014792
0.0014792
0.00147919
0.0014792
0.00147921
0.00147922
0.00147925
0.00147927
0.0254658
0.0255462
0.02556
0.0255629
0.0255634
0.0255632
0.0255621
0.0255588
0.025544
0.0254558
0.0291557
0.0291555
0.0291547
0.0291543
0.0291543
0.0291548
0.0291556
0.0291569
0.0291585
0.0291603
0.0291642
0.0291642
0.0291643
0.0291643
0.0291643
0.0291643
0.0291643
0.0291643
0.0291642
0.0291646
0.0291698
0.0291692
0.0291688
0.0291688
0.0291691
0.0291696
0.0291703
0.0291711
0.0291719
0.0291728
0.0291693
0.0291688
0.0291685
0.0291686
0.0291688
0.0291693
0.0291698
0.0291704
0.029171
0.0291716
0.0291715
0.0291705
0.0291702
0.0291704
0.0291711
0.0291722
0.0291734
0.0291747
0.029176
0.0291783
0.0291666
0.0291628
0.0291624
0.0291623
0.0291623
0.0291623
0.0291622
0.0291623
0.0291625
0.0291723
0.0249074
0.0248486
0.0248475
0.0248486
0.0248507
0.0248534
0.0248562
0.0248581
0.0248584
0.0249353
0.00138594
0.00138589
0.00138587
0.00138588
0.00138592
0.00138598
0.00138606
0.00138614
0.00138622
0.00138626
0.00234422
0.00236509
0.00235487
0.00232095
0.00141084
0.00143386
0.00143121
0.00142636
0.00188738
0.00192946
0.00192032
0.00189564
0.00227432
0.00233248
0.00231295
0.00226672
0.00262177
0.00269292
0.00266091
0.00259644
0.00296323
0.00304554
0.00300529
0.0029318
0.00324536
0.00333584
0.00329351
0.0032202
0.00341315
0.00350998
0.00346992
0.0034013
0.00304497
0.00313452
0.00309566
0.00303996
0.00237482
0.00239146
0.00235657
0.00227531
0.00202757
0.00203328
0.0020344
0.00203138
0.00235371
0.00243402
0.00233399
0.00214212
0.00330822
0.0034227
0.00329222
0.00305435
0.0040717
0.00424012
0.00408147
0.00378352
0.00485347
0.00508943
0.00489488
0.00451922
0.00582836
0.00615443
0.00591294
0.00542838
0.00679475
0.00720856
0.006907
0.00630921
0.00749288
0.0079911
0.00763298
0.00693819
0.00591739
0.00635425
0.00600135
0.00540473
0.00218165
0.00221399
0.00220712
0.00217134
0.00193321
0.00193527
0.00193542
0.00193416
0.00406642
0.00404195
0.0040523
0.00414333
0.0049915
0.00497283
0.00499292
0.00509721
0.00549613
0.00551578
0.00553561
0.00558543
0.00601092
0.006065
0.00606831
0.00602678
0.00675387
0.00685065
0.00681106
0.00663329
0.00751197
0.00763552
0.00752198
0.00718423
0.0080505
0.00821116
0.00802391
0.00752521
0.00612452
0.00626442
0.00608843
0.00560745
0.002048
0.0020651
0.00206319
0.00204542
0.00189447
0.00189469
0.00189482
0.00189485
0.0102407
0.00996205
0.010098
0.0106126
0.0119479
0.0116137
0.0119165
0.01281
0.0114407
0.0112596
0.0116317
0.0125266
0.0110901
0.011029
0.0114259
0.0122563
0.0112079
0.0112506
0.011641
0.012368
0.0114041
0.011506
0.0118447
0.0124233
0.0113543
0.0115317
0.011802
0.012173
0.00801795
0.00820273
0.0083259
0.00836704
0.00195677
0.00196721
0.00196819
0.00196019
0.00187253
0.00187257
0.00187261
0.00187262
0.0144912
0.0144312
0.0144593
0.0145686
0.023842
0.0235184
0.0237061
0.0243332
0.022246
0.0219539
0.0223066
0.0232334
0.0203812
0.0202018
0.0206816
0.0217892
0.0193309
0.0193007
0.0198717
0.0210701
0.018518
0.0185931
0.0191861
0.0203776
0.0173307
0.0175431
0.0180983
0.0191105
0.0108798
0.0111152
0.0113567
0.01167
0.00189353
0.00190002
0.00190148
0.00189807
0.00185449
0.00185446
0.00185445
0.00185445
0.0140869
0.0140132
0.0140037
0.0140586
0.030404
0.0302972
0.0303232
0.0304704
0.0317979
0.0315592
0.0316498
0.0320268
0.0304325
0.0301454
0.0303659
0.0310246
0.0290254
0.0288077
0.0291969
0.0301264
0.0274492
0.0273218
0.0278366
0.0289647
0.0247748
0.0248403
0.0253976
0.0264743
0.0131733
0.0134057
0.0135813
0.0137418
0.0018456
0.00184953
0.0018508
0.00184945
0.00183719
0.00183714
0.00183712
0.00183711
0.0137853
0.0136946
0.0136769
0.0137313
0.0299159
0.029919
0.0299333
0.0299591
0.0336754
0.0336789
0.0337115
0.0337705
0.034825
0.0347789
0.0348401
0.0349963
0.0353464
0.0352618
0.0353983
0.0357256
0.0347083
0.0345952
0.0348275
0.0353615
0.0310988
0.0311309
0.0314429
0.0320076
0.0133157
0.0135931
0.0136543
0.0135464
0.00180727
0.00180966
0.00181061
0.00181009
0.00181925
0.0018192
0.00181917
0.00181916
0.0138649
0.0137677
0.0137476
0.0138031
0.028625
0.0286183
0.0286212
0.0286341
0.031759
0.0317853
0.0318027
0.0318117
0.0333167
0.0333622
0.0333952
0.0334168
0.0350526
0.0351259
0.0351873
0.0352386
0.0359192
0.035984
0.0360699
0.036178
0.0326213
0.0327799
0.0329064
0.0330045
0.0123922
0.0126488
0.0126892
0.0125501
0.00177444
0.00177596
0.0017766
0.00177636
0.0018002
0.00180014
0.00180011
0.0018001
0.0141242
0.0140237
0.0140027
0.0140594
0.0280676
0.0280548
0.0280534
0.0280637
0.0303409
0.030349
0.0303541
0.0303564
0.0312801
0.0313015
0.0313144
0.0313191
0.0325576
0.0326147
0.0326462
0.0326534
0.0334935
0.0335723
0.0336159
0.033629
0.0307735
0.0309416
0.0310099
0.0309863
0.0119571
0.0121818
0.0122235
0.0121015
0.00174437
0.00174539
0.0017458
0.00174562
0.00177977
0.0017797
0.00177967
0.00177967
0.0144824
0.014379
0.0143572
0.0144153
0.0279206
0.0279071
0.0279048
0.0279141
0.0296735
0.0296747
0.0296757
0.0296766
0.0301785
0.0301839
0.0301872
0.0301887
0.030881
0.030904
0.0309163
0.0309182
0.0314141
0.0314473
0.0314653
0.0314695
0.0290411
0.0291515
0.0291914
0.0291622
0.0120321
0.0122515
0.0122931
0.0121706
0.00171551
0.00171625
0.00171651
0.00171633
0.00175781
0.00175774
0.0017577
0.00175771
0.0149176
0.014811
0.0147884
0.0148481
0.0279468
0.0279338
0.0279315
0.0279402
0.0293772
0.0293767
0.0293768
0.0293774
0.0296627
0.0296636
0.0296642
0.0296647
0.0300318
0.0300409
0.0300456
0.0300459
0.0302999
0.0303107
0.030317
0.030319
0.0281841
0.0282591
0.0282835
0.0282569
0.0123973
0.0126281
0.0126708
0.0125389
0.00168701
0.00168758
0.00168775
0.00168755
0.0017342
0.00173413
0.00173409
0.0017341
0.0154295
0.0153193
0.0152957
0.0153572
0.0280476
0.0280353
0.028033
0.0280411
0.0292452
0.0292445
0.0292444
0.029245
0.0294211
0.0294212
0.0294212
0.0294214
0.0296151
0.0296195
0.0296216
0.0296215
0.0297543
0.029758
0.0297603
0.029761
0.0278875
0.0279466
0.0279641
0.0279393
0.0129388
0.0131885
0.013234
0.0130899
0.00165829
0.00165877
0.00165887
0.00165867
0.00170885
0.00170877
0.00170873
0.00170874
0.0160283
0.0159137
0.015889
0.0159526
0.0281829
0.0281714
0.0281692
0.0281765
0.0291876
0.0291869
0.0291869
0.0291874
0.0293061
0.029306
0.029306
0.029306
0.0294081
0.0294107
0.0294119
0.0294117
0.0294904
0.0294923
0.0294934
0.0294936
0.027881
0.0279319
0.0279462
0.0279233
0.0136125
0.0138852
0.0139344
0.0137768
0.00162893
0.00162934
0.00162941
0.0016292
0.00168167
0.00168158
0.00168154
0.00168156
0.0167317
0.0166117
0.0165856
0.0166517
0.0283353
0.0283245
0.0283223
0.028329
0.0291646
0.0291641
0.029164
0.0291645
0.0292502
0.0292502
0.0292501
0.0292501
0.0293038
0.0293056
0.0293064
0.0293062
0.0293639
0.0293656
0.0293663
0.0293661
0.02802
0.0280655
0.0280778
0.0280569
0.0144104
0.0147089
0.0147625
0.0145899
0.00159859
0.00159895
0.00159899
0.0015988
0.00165258
0.00165248
0.00165244
0.00165246
0.0175656
0.017439
0.0174111
0.0174803
0.0284958
0.0284859
0.0284838
0.0284897
0.029158
0.0291575
0.0291575
0.0291579
0.0292221
0.0292221
0.029222
0.029222
0.0292503
0.0292516
0.0292521
0.0292518
0.0293033
0.029305
0.0293057
0.0293052
0.0282292
0.02827
0.0282808
0.0282617
0.0153472
0.0156745
0.0157328
0.0155434
0.00156699
0.00156731
0.00156734
0.00156715
0.00162154
0.00162143
0.00162139
0.00162142
0.0185672
0.0184322
0.0184021
0.0184749
0.0286583
0.0286494
0.0286474
0.0286526
0.0291586
0.0291583
0.0291583
0.0291587
0.0292066
0.0292066
0.0292066
0.0292065
0.0292212
0.0292221
0.0292224
0.0292221
0.029272
0.0292737
0.0292743
0.0292737
0.0284663
0.0285027
0.0285121
0.0284945
0.0164564
0.0168157
0.0168787
0.0166706
0.00153395
0.00153423
0.00153425
0.00153408
0.00158861
0.00158849
0.00158845
0.00158849
0.0197912
0.0196451
0.0196118
0.0196893
0.0288166
0.0288089
0.0288071
0.0288116
0.0291619
0.0291617
0.0291617
0.029162
0.0291962
0.0291962
0.0291962
0.0291962
0.029203
0.0292036
0.0292038
0.0292036
0.0292504
0.0292521
0.0292526
0.0292518
0.0287033
0.0287353
0.0287431
0.0287269
0.0177923
0.0181858
0.0182531
0.0180248
0.00149938
0.00149962
0.00149963
0.00149948
0.00155402
0.0015539
0.00155386
0.0015539
0.0213177
0.0211561
0.0211183
0.0212024
0.028964
0.028958
0.0289565
0.0289599
0.0291648
0.0291647
0.0291648
0.0291648
0.0291874
0.0291875
0.0291875
0.0291875
0.0291893
0.0291897
0.0291898
0.0291896
0.0292282
0.0292296
0.02923
0.0292293
0.0289154
0.0289428
0.0289488
0.0289341
0.0194345
0.0198578
0.0199278
0.0196815
0.00146338
0.00146357
0.00146358
0.00146346
0.00151801
0.00151789
0.00151785
0.0015179
0.0232722
0.023088
0.0230445
0.0231384
0.0290875
0.0290837
0.0290827
0.0290849
0.0291655
0.0291655
0.0291655
0.0291655
0.0291793
0.0291795
0.0291796
0.0291796
0.0291784
0.0291787
0.0291787
0.0291786
0.0292023
0.0292034
0.0292037
0.0292031
0.0290778
0.0290995
0.0291036
0.0290909
0.0215232
0.0219757
0.0220428
0.021775
0.00142605
0.00142621
0.00142622
0.00142613
0.00147972
0.00147963
0.00147961
0.00147967
0.0258485
0.0256397
0.025594
0.0257012
0.0291704
0.0291689
0.0291684
0.0291693
0.0291643
0.0291642
0.0291641
0.0291641
0.0291734
0.0291736
0.0291736
0.0291737
0.0291721
0.0291721
0.0291722
0.0291722
0.0291798
0.0291802
0.0291804
0.0291801
0.0291743
0.0291867
0.0291886
0.0291809
0.0244726
0.0248976
0.0249472
0.0246875
0.00138663
0.00138676
0.00138677
0.00138667
0.00215551
0.00203895
0.00197453
0.00194199
0.00192287
0.00191048
0.00190231
0.00189712
0.00189378
0.0018915
0.00174746
0.00158322
0.00476557
0.00942422
0.0139351
0.0171231
0.018634
0.0187855
0.0181544
0.0172146
0.00236374
0.00257418
0.00732511
0.0155537
0.0249593
0.0330814
0.039067
0.0428705
0.0447471
0.0451337
0.00276849
0.00359687
0.00828878
0.0178415
0.0291694
0.0385222
0.0449973
0.0487279
0.0501655
0.0499569
0.00307703
0.00394179
0.00871628
0.0193462
0.0320858
0.0419673
0.0481518
0.0510052
0.0513211
0.0501096
0.00338874
0.00407076
0.00893785
0.0204183
0.0342685
0.0443134
0.0498917
0.0516825
0.0509079
0.0488688
0.00363083
0.00408388
0.00896778
0.02117
0.0358994
0.0457595
0.0504391