/*--------------------------------*- C++ -*----------------------------------*\
| =========                 |                                                 |
| \\      /  F ield         | foam-extend: Open Source CFD                    |
|  \\    /   O peration     | Version:     4.0                                |
|   \\  /    A nd           | Web:         http://www.foam-extend.org         |
|    \\/     M anipulation  |                                                 |
\*---------------------------------------------------------------------------*/
FoamFile
{
    version     2.0;
    format      ascii;
    class       volScalarField;
    location    "1950";
    object      epsilon;
}
// * * * * * * * * * * * * * * * * * * * * * * * * * * * * * * * * * * * * * //

dimensions      [0 2 -3 0 0 0 0];

internalField   nonuniform List<scalar> 
34480
(
4930.65
4928.62
4928.51
4930.01
4933.22
4938.37
4950.99
5004.65
5194.52
5725.86
655.441
602.135
601.218
653.193
838.746
1576.1
5099.73
22850.9
103714
382400
618.886
523.221
509.572
569.211
810.018
1829.2
7041.85
35119.6
172536
699241
524.902
439.495
427.461
485.167
733.898
1883.52
8219.52
44412.5
232216
1.01095e+06
456.733
384.86
377.43
433.203
684.917
1927.68
9178.16
52591.2
289180
1.33358e+06
392.549
332.877
326.65
378.53
628.454
1956.4
10121.6
61045.6
350629
1.69866e+06
353.306
302.821
298.431
346.463
591.561
1962.91
10726
67200
400348
2.02272e+06
321.395
282.143
277.747
317.547
534.261
1820.62
10350.7
66984.5
412652
2.16762e+06
460.08
436.001
433.395
458.808
597.145
1410.23
6841.22
43697.3
275994
1.49855e+06
5709.09
5709.32
5714.76
5726.72
5743.54
5763.61
5787.82
5823.77
5890.18
5958.86
4856.06
4853.54
4853.06
4854.55
4858.55
4865.55
4876.68
4902.8
4965.45
5186.01
512.075
479.196
473.561
487.683
532.093
648.546
1002.9
2354.68
11802.3
103656
447.112
384.034
370.336
389.742
458.538
645.821
1229.77
3567.31
21359.2
197651
399.702
338.762
325.306
345.016
416.49
620.251
1294.58
4289.74
30235.3
294760
365.916
311.189
300.656
319.87
390.832
598.994
1321.96
4812.43
38717.4
396500
326.38
279.005
269.203
286.494
352.287
554.217
1294.26
5180.68
47349.1
508560
302.57
260.882
252.709
267.978
328.983
521.534
1256.32
5361.37
54216.9
607806
283.133
249.992
242.319
253.943
301.606
456.708
1074.77
4828.26
54993.1
652020
432.872
410.987
405.886
413.353
443.48
531.734
848.209
2980.85
36401
467552
5591.63
5587.31
5587.82
5594.45
5606.13
5620.71
5640.07
5673.08
5740.75
5913.65
4770.92
4768.52
4767.77
4768.59
4771.21
4775.34
4780.16
4790.95
4815.03
4870.09
399.895
386.443
383.779
388.539
403.677
439.051
527.113
758.648
1516.99
5759.15
308.184
276.95
270.116
279.294
309.707
379.328
550.453
1030.23
2859.75
14989.7
290.314
256.491
248.82
259.398
294.559
378.484
597.283
1279.88
4409.41
28920.8
280.901
247.945
241.501
252.46
289.575
380.372
629.101
1481.43
6140.61
47810.3
261.367
231.118
224.631
235.033
270.737
361.717
625.307
1625.72
8150.99
73152.8
250.569
222.554
216.966
226.46
260.558
349.235
617.269
1724.66
10165.6
101598
243.089
220.126
214.717
222.345
249.688
322.229
550.013
1594.57
11043.5
122897
402.741
386.402
382.653
388.303
408.741
461.662
607.183
1235.64
7681.24
92098
5481.96
5474.86
5472.56
5476.14
5484.93
5496.92
5513.42
5544.2
5616.68
5802.08
4674.89
4673.4
4672.97
4673.6
4675.4
4677.68
4678.68
4681.49
4688.89
4705.01
328.463
324.337
323.516
324.612
328.697
339.058
365.074
421.625
541.258
940.476
219.339
206.084
203.235
207.278
220.67
248.962
309.101
445.271
772.205
2086.06
214.467
197.748
193.816
199.339
217.297
256.79
345.578
565.57
1169.59
4141.9
217.596
199.561
195.977
202.178
222.784
269.335
379.573
676.015
1611.25
7155.54
210.731
192.788
188.753
195.146
216.378
266.463
392.142
761.721
2117.73
11600
208.524
190.746
187.104
193.258
214.659
266.197
401.124
827.467
2633.6
17124
209.994
194.721
191.001
196.296
214.37
258.929
379.839
795.271
2860.96
21851
375.706
363.723
360.89
365.083
380.05
417.034
508.795
782.756
2181.22
16545.5
5359.97
5352.89
5350.33
5353.39
5361.65
5374.03
5391.16
5422.02
5488.83
5632.04
4569.49
4568.81
4568.67
4569.07
4570.03
4570.74
4569.42
4568.29
4568.23
4569.99
285.51
284.765
284.665
284.435
284.433
286.175
293.414
307.389
329.732
375.983
167.92
162.902
161.862
163.281
168.313
178.534
198.316
237.45
308.14
484.28
166.486
158.763
156.804
159.302
167.558
184.792
219.589
294.229
443.152
889.815
173.93
164.625
162.694
165.785
176.234
198.574
246.058
356.488
601.43
1498.04
173.627
163.438
160.948
164.495
176.231
202.462
261.486
410.94
783.886
2435
176.103
165.205
162.835
166.462
179.097
207.905
275.387
457.604
966.534
3640.74
183.361
173.485
170.917
174.298
185.627
212.198
276.708
463.625
1058.69
4746.61
351.375
342.775
340.592
343.481
354.027
379.286
438.213
581.582
1009.53
3814.34
5230.3
5223.37
5220.65
5223.23
5230.85
5242.93
5259.59
5287.97
5343.65
5446
4455.67
4455.62
4455.7
4455.92
4456.29
4455.95
4453.93
4451.83
4450.06
4448.99
259.799
259.877
259.958
259.44
258.449
258.055
259.952
263.305
268.039
275.315
139.453
137.807
137.539
137.924
139.539
142.781
148.682
159.194
175.191
203.062
137.547
134.168
133.246
134.292
137.843
144.91
157.848
182.374
222.512
303.018
145.055
140.525
139.577
141.004
145.974
156.027
175.337
215.187
286.34
458.051
147.369
141.851
140.4
142.264
148.423
161.453
187.88
247.294
364.049
701.813
151.788
145.391
143.945
145.971
153.099
168.464
200.826
278.323
444.167
1014.08
162.276
156.177
154.503
156.582
163.411
178.674
212.151
297.479
500.448
1320.57
329.495
323.6
321.993
323.946
331.288
348.573
387.08
467.638
640.007
1290.57
5092.35
5085.82
5083.12
5085.32
5092.23
5103.51
5119
5143.91
5186.98
5254.23
4334.16
4334.52
4334.76
4334.85
4334.83
4333.87
4332
4329.99
4328.17
4326.84
243.799
243.749
243.772
243.299
242.372
241.931
242.293
243.022
244.125
245.931
123.99
123.578
123.586
123.624
124.01
124.857
126.399
128.98
132.5
137.202
120.673
119.239
118.817
119.231
120.703
123.524
128.275
136.266
147.555
163.752
126.672
124.572
124.15
124.762
127.015
131.354
138.97
152.946
174.378
210.561
129.512
126.636
125.826
126.759
129.866
136.124
147.668
170.707
209.28
285.811
134.277
130.651
129.814
130.886
134.76
142.696
157.848
190.05
247.838
381.551
146.174
142.574
141.532
142.759
146.721
155.23
172.361
210.941
286.961
489.901
310.162
306.313
305.155
306.447
311.53
323.524
349.161
396.35
480.007
667.539
4945.88
4939.95
4937.4
4939.27
4945.39
4955.43
4969.18
4990.17
5022.63
5066.47
4205.47
4206.08
4206.4
4206.43
4206.18
4205.1
4203.61
4202.01
4200.58
4199.51
232.911
232.483
232.377
232.027
231.436
231.254
231.271
231.419
231.806
232.798
115.605
115.583
115.663
115.613
115.619
115.732
116.003
116.505
117.193
117.987
111.057
110.454
110.261
110.421
111.026
112.158
113.947
116.658
120.074
123.8
115.296
114.37
114.208
114.451
115.438
117.263
120.254
125.188
131.927
140.367
117.757
116.312
115.878
116.328
117.852
120.803
125.856
134.852
148.236
167.558
122.089
120.096
119.638
120.178
122.228
126.256
133.361
146.778
167.935
202.419
134.232
132.215
131.599
132.298
134.522
139.164
147.951
165.504
195.868
252.181
293.181
290.82
289.989
290.845
294.399
302.975
320.37
349.016
394.133
462.629
4790.74
4785.56
4783.28
4784.85
4790.09
4798.61
4810.29
4827.28
4851.15
4880.07
4069.92
4070.67
4071.05
4071.03
4070.66
4069.77
4068.68
4067.52
4066.49
4065.7
224.506
223.704
223.466
223.232
222.987
222.935
222.914
222.977
223.261
224.153
111.009
111.072
111.148
111.092
111.017
110.943
110.89
110.891
110.953
111.061
105.706
105.445
105.354
105.415
105.67
106.14
106.849
107.835
108.975
109.98
108.448
108.061
108.014
108.103
108.522
109.277
110.458
112.243
114.481
116.708
110.264
109.564
109.34
109.552
110.282
111.656
113.892
117.509
122.458
128.094
113.881
112.814
112.577
112.837
113.903
115.933
119.314
125.066
133.297
143.382
125.604
124.544
124.201
124.589
125.8
128.291
132.827
140.977
153.815
171.847
278.207
276.884
276.276
276.859
279.415
285.78
297.77
315.717
341.534
371.322
4626.9
4622.58
4620.63
4621.91
4626.24
4633.14
4642.67
4655.88
4672.97
4691.95
3927.93
3928.59
3928.98
3928.95
3928.59
3927.97
3927.21
3926.41
3925.71
3925.14
216.928
216.034
215.686
215.539
215.485
215.463
215.464
215.54
215.836
216.727
108.395
108.457
108.509
108.468
108.396
108.302
108.202
108.118
108.073
108.078
102.812
102.688
102.641
102.666
102.781
102.99
103.294
103.689
104.115
104.434
104.451
104.296
104.292
104.321
104.497
104.81
105.283
105.949
106.728
107.39
105.65
105.324
105.213
105.31
105.654
106.286
107.282
108.777
110.71
112.633
108.538
107.975
107.859
107.981
108.533
109.559
111.199
113.76
117.159
120.567
119.495
118.988
118.81
119.022
119.664
120.989
123.328
127.181
132.823
139.519
264.796
264.169
263.7
264.122
266.049
270.917
279.268
290.793
306.149
320.306
4454.51
4451.06
4449.48
4450.49
4453.93
4459.27
4466.72
4476.61
4488.51
4500.76
3779.61
3780.12
3780.45
3780.42
3780.19
3779.78
3779.26
3778.73
3778.27
3777.85
209.483
208.601
208.26
208.153
208.119
208.115
208.136
208.23
208.54
209.429
106.795
106.838
106.871
106.842
106.789
106.716
106.637
106.567
106.53
106.536
101.296
101.229
101.201
101.213
101.27
101.372
101.517
101.695
101.88
101.999
102.198
102.135
102.141
102.15
102.227
102.364
102.564
102.829
103.116
103.338
102.917
102.772
102.718
102.763
102.922
103.211
103.655
104.285
105.064
105.812
105.179
104.88
104.826
104.885
105.176
105.705
106.522
107.713
109.189
110.495
115.216
115.011
114.928
115.045
115.379
116.08
117.27
119.101
121.601
124.388
252.464
252.287
251.895
252.228
253.77
257.522
263.359
270.875
280.278
287.095
4273.84
4271.23
4270.01
4270.79
4273.38
4277.36
4282.96
4290.09
4298.13
4305.88
3625.09
3625.5
3625.76
3625.75
3625.6
3625.33
3625
3624.66
3624.36
3624.03
201.823
200.968
200.657
200.562
200.537
200.541
200.572
200.673
200.987
201.858
105.699
105.722
105.74
105.722
105.687
105.64
105.59
105.547
105.533
105.553
100.531
100.489
100.473
100.479
100.51
100.563
100.638
100.728
100.821
100.874
100.979
100.948
100.952
100.955
100.994
101.063
101.162
101.284
101.404
101.494
101.368
101.306
101.281
101.302
101.376
101.507
101.705
101.973
102.294
102.619
103.141
102.976
102.951
102.983
103.143
103.43
103.855
104.441
105.118
105.68
112.204
112.151
112.121
112.187
112.361
112.726
113.313
114.171
115.245
116.502
240.747
240.847
240.489
240.776
242.09
244.899
248.958
253.884
259.767
262.819
4085.33
4083.46
4082.59
4083.15
4084.98
4087.87
4091.91
4096.86
4102.12
4106.93
3464.58
3464.92
3465.12
3465.12
3465.04
3464.87
3464.65
3464.43
3464.24
3463.97
193.769
192.949
192.666
192.582
192.561
192.567
192.599
192.697
193.004
193.848
104.849
104.857
104.865
104.853
104.832
104.805
104.777
104.756
104.76
104.79
100.159
100.133
100.124
100.128
100.144
100.172
100.211
100.259
100.311
100.338
100.35
100.329
100.327
100.329
100.354
100.398
100.458
100.528
100.591
100.641
100.535
100.509
100.497
100.507
100.542
100.602
100.69
100.806
100.94
101.098
101.943
101.845
101.833
101.853
101.95
102.116
102.353
102.664
103.001
103.28
110.018
110.036
110.033
110.073
110.166
110.347
110.62
111.003
111.418
112.026
229.22
229.486
229.133
229.399
230.536
232.506
235.288
238.501
242.226
243.265
3889.53
3888.27
3887.7
3888.08
3889.31
3891.36
3894.16
3897.45
3900.78
3903.71
3298.38
3298.67
3298.82
3298.82
3298.78
3298.67
3298.54
3298.4
3298.27
3298.04
185.213
184.432
184.176
184.104
184.084
184.089
184.117
184.206
184.499
185.31
104.115
104.114
104.115
104.108
104.097
104.083
104.07
104.063
104.08
104.114
99.9896
99.9745
99.9706
99.9721
99.9795
99.9924
100.011
100.035
100.064
100.08
100.045
100.026
100.02
100.022
100.041
100.074
100.118
100.167
100.21
100.245
100.114
100.102
100.096
100.101
100.118
100.147
100.187
100.239
100.296
100.381
101.254
101.189
101.181
101.198
101.261
101.367
101.51
101.691
101.876
102.044
108.33
108.384
108.394
108.42
108.468
108.549
108.66
108.814
108.924
109.246
217.333
217.847
217.523
217.782
218.594
219.94
221.802
223.867
226.229
226.187
3687.21
3686.36
3686.01
3686.25
3687.08
3688.47
3690.32
3692.42
3694.44
3696.19
3126.88
3127.13
3127.24
3127.25
3127.22
3127.16
3127.08
3126.99
3126.9
3126.69
176.071
175.334
175.106
175.045
175.025
175.027
175.049
175.127
175.402
176.175
103.439
103.433
103.43
103.426
103.421
103.416
103.413
103.415
103.438
103.476
99.9214
99.9143
99.9138
99.9142
99.9161
99.9193
99.925
99.9342
99.9505
99.9613
99.9117
99.8934
99.8855
99.8871
99.9019
99.9283
99.9628
100.001
100.034
100.062
99.9195
99.913
99.9092
99.9116
99.9204
99.9352
99.9551
99.9793
100.004
100.056
100.854
100.807
100.802
100.815
100.86
100.932
101.025
101.14
101.253
101.373
106.922
106.99
107.009
107.026
107.046
107.077
107.108
107.153
107.128
107.32
204.85
205.503
205.306
205.488
206.031
206.916
208.113
209.409
210.884
210.293
3479.12
3478.58
3478.36
3478.52
3479.06
3479.95
3481.11
3482.38
3483.54
3484.56
2950.62
2950.83
2950.91
2950.92
2950.91
2950.87
2950.82
2950.76
2950.7
2950.5
166.264
165.574
165.376
165.327
165.306
165.306
165.321
165.385
165.639
166.372
102.798
102.789
102.783
102.78
102.779
102.78
102.783
102.79
102.816
102.856
99.9046
99.9026
99.9041
99.9039
99.9024
99.9002
99.8985
99.8994
99.9073
99.9167
99.8651
99.8487
99.8404
99.8414
99.8528
99.8732
99.8998
99.9289
99.955
99.9786
99.845
99.8398
99.8368
99.8379
99.843
99.8515
99.8623
99.8748
99.8866
99.9196
100.607
100.572
100.567
100.578
100.611
100.661
100.724
100.801
100.875
100.97
105.657
105.722
105.745
105.756
105.764
105.77
105.767
105.766
105.687
105.818
191.601
192.304
192.209
192.331
192.674
193.222
193.943
194.727
195.61
194.79
3266.15
3265.82
3265.69
3265.79
3266.12
3266.66
3267.35
3268.07
3268.68
3269.26
2770.32
2770.49
2770.55
2770.56
2770.56
2770.54
2770.5
2770.46
2770.42
2770.24
155.695
155.057
154.887
154.851
154.834
154.833
154.841
154.89
155.117
155.808
102.185
102.175
102.167
102.165
102.166
102.17
102.176
102.186
102.211
102.254
99.9137
99.914
99.916
99.9154
99.9126
99.9081
99.9033
99.9003
99.9033
99.913
99.8612
99.8476
99.8402
99.8406
99.8486
99.8632
99.8822
99.9033
99.9232
99.9424
99.8324
99.8276
99.825
99.8253
99.8283
99.8334
99.8396
99.8464
99.8524
99.8736
100.43
100.404
100.399
100.407
100.429
100.464
100.506
100.557
100.607
100.683
104.458
104.51
104.532
104.54
104.542
104.539
104.524
104.506
104.416
104.516
177.44
178.124
178.108
178.186
178.382
178.684
179.064
179.506
179.98
179.139
3049.37
3049.19
3049.11
3049.18
3049.36
3049.65
3050.03
3050.4
3050.68
3051
2586.98
2587.12
2587.16
2587.18
2587.17
2587.16
2587.14
2587.1
2587.06
2586.91
144.232
143.655
143.514
143.49
143.485
143.483
143.485
143.517
143.707
144.353
101.609
101.596
101.589
101.587
101.589
101.594
101.601
101.612
101.633
101.677
99.9327
99.9326
99.934
99.9331
99.9303
99.926
99.9212
99.9177
99.9185
99.9291
99.8785
99.8681
99.8625
99.8624
99.8674
99.8766
99.8889
99.9028
99.9168
99.9317
99.8521
99.8482
99.8461
99.8459
99.8474
99.8501
99.8531
99.8564
99.8592
99.8715
100.273
100.253
100.249
100.254
100.268
100.289
100.315
100.346
100.378
100.436
103.291
103.327
103.345
103.35
103.349
103.343
103.325
103.304
103.224
103.304
162.211
162.819
162.867
162.914
163.001
163.122
163.252
163.458
163.632
162.908
2830.08
2829.99
2829.95
2829.98
2830.07
2830.22
2830.4
2830.56
2830.67
2830.83
2401.73
2401.84
2401.87
2401.88
2401.88
2401.87
2401.85
2401.83
2401.8
2401.68
131.647
131.154
131.062
131.052
131.051
131.047
131.043
131.057
131.189
131.769
101.087
101.072
101.065
101.063
101.064
101.069
101.076
101.086
101.102
101.142
99.9496
99.9477
99.9479
99.9469
99.9449
99.9421
99.9392
99.9371
99.9375
99.948
99.9085
99.9015
99.8979
99.8976
99.9003
99.9054
99.9123
99.9204
99.9291
99.9393
99.89
99.8876
99.8863
99.8859
99.8862
99.887
99.8878
99.8886
99.8893
99.8949
100.119
100.106
100.103
100.106
100.113
100.123
100.136
100.151
100.169
100.208
102.169
102.188
102.198
102.2
102.196
102.187
102.17
102.151
102.097
102.156
145.454
145.93
145.964
146
146.06
146.14
146.222
146.282
146.214
145.695
2609.7
2609.66
2609.65
2609.66
2609.69
2609.74
2609.79
2609.83
2609.87
2609.94
2215.03
2215.09
2215.1
2215.1
2215.1
2215.1
2215.09
2215.09
2215.09
2215.03
117.389
117.052
117.021
117.025
117.027
117.023
117.013
117.006
117.05
117.479
100.625
100.609
100.602
100.599
100.599
100.602
100.609
100.617
100.631
100.662
99.9659
99.9636
99.963
99.9623
99.9614
99.9603
99.9592
99.9586
99.9594
99.9665
99.9507
99.947
99.9451
99.945
99.9462
99.9486
99.9518
99.9557
99.9602
99.9658
99.9405
99.9395
99.9389
99.9386
99.9385
99.9383
99.938
99.9376
99.9373
99.9386
100.009
100.004
100.002
100.003
100.006
100.01
100.014
100.019
100.026
100.045
101.124
101.127
101.129
101.127
101.122
101.112
101.1
101.087
101.069
101.111
125.763
126.045
126.063
126.084
126.116
126.159
126.201
126.225
126.175
125.835
2388.98
2388.96
2388.97
2388.97
2388.97
2388.97
2388.97
2388.97
2388.95
2388.99
7183.96
7294.25
7250.5
7044.05
658921
683861
689420
697301
1.49733e+06
1.58403e+06
1.59153e+06
1.57164e+06
2.52514e+06
2.7034e+06
2.70085e+06
2.61934e+06
3.76076e+06
4.05584e+06
4.02949e+06
3.86793e+06
5.30781e+06
5.75108e+06
5.69954e+06
5.4867e+06
6.86832e+06
7.46722e+06
7.40343e+06
7.20673e+06
7.88282e+06
8.61072e+06
8.55605e+06
8.42802e+06
5.61983e+06
6.17927e+06
6.11521e+06
6.08139e+06
7903.62
8151.37
7988.99
7569.75
5749.33
5802.11
5804.62
5765.48
308556
324670
345341
377318
689310
780837
824893
861772
1.17793e+06
1.40282e+06
1.46602e+06
1.49194e+06
1.7635e+06
2.17748e+06
2.25138e+06
2.26485e+06
2.45876e+06
3.1123e+06
3.21155e+06
3.24748e+06
3.13167e+06
4.04014e+06
4.20094e+06
4.3198e+06
3.57325e+06
4.70394e+06
4.94525e+06
5.18018e+06
2.80679e+06
3.81857e+06
4.00719e+06
4.32038e+06
7126.35
7357.94
7286.98
7066.62
4937.88
4948.83
4947.97
4938.26
21661.8
25960.7
24597.3
19966.5
61570
73408.4
68676.8
55729.4
128746
152833
140881
114027
228353
270522
246255
199427
372366
441909
401360
326388
545311
648509
591580
485384
702789
839371
769550
636828
584453
696857
629346
524648
6344.31
6431.61
6409.29
6313.96
4715.97
4718.09
4718.64
4717.84
1594.38
1711.33
1679.88
1545.01
4698.22
5172.37
5012.47
4434.5
11230.5
12504.6
11925.8
10213.2
22554.1
25252.5
23698.1
19744.9
41690.1
46920.5
43525.3
35535
68293.1
76981.5
70792.6
57126.3
97158.3
109909
100440
80426.3
83357.2
93763.3
84196.9
67264
5903.98
5945.68
5942.79
5904.87
4567.97
4568.87
4569.09
4568.55
423.294
436.217
438.467
431.554
710.119
757.037
761.54
731.357
1595.01
1736.75
1729.22
1610.22
3203.53
3529.13
3458.3
3118.46
6139.92
6823.01
6582.69
5757.9
10497.9
11693.2
11108.5
9472.14
15691.8
17554.9
16463
13724
13860.1
15396.8
14113.3
11585.9
5578.69
5600.71
5602.2
5586.59
4444.92
4445.67
4445.75
4445.12
275.59
278.46
279.171
277.912
226.361
231.456
233.281
232.242
385.581
403.063
407.296
400.53
674.039
717.832
722.076
696.088
1215.14
1316.43
1312.58
1233.46
2023.6
2211.36
2175.65
1991.31
3046.92
3360.38
3261.82
2904.43
2928.94
3183.24
3023.34
2664.06
5318.14
5328.92
5331.06
5325.5
4322.59
4323.3
4323.36
4322.73
241.778
243.683
244.081
243.024
140.137
140.889
141.241
141.227
175.867
178.563
179.69
179.436
243.2
250.224
252.458
250.758
368.971
386.592
390.318
383.176
549.224
582.681
585.318
565.799
795.525
854.983
852.133
807.121
984.68
1029.72
1010.25
962.48
5095.76
5100.64
5102.49
5101.24
4195.48
4196.17
4196.23
4195.63
228.097
229.814
230.153
229.143
118.191
118.328
118.382
118.358
125.854
126.303
126.527
126.554
146.031
147.26
147.803
147.782
183.408
186.919
188.186
187.624
233.792
240.346
242.101
240.312
314.619
327.194
329.132
323.573
543.032
548.697
546.181
542.489
4893.65
4895.65
4896.94
4897.13
4061.93
4062.59
4062.64
4062.08
219.492
221.147
221.475
220.5
110.889
110.945
110.954
110.916
110.348
110.42
110.458
110.466
117.766
117.977
118.087
118.119
131.713
132.524
132.878
132.845
149.88
151.239
151.779
151.738
187.362
190.306
191.152
190.49
400.188
397.214
396.468
399.127
4698.44
4699.13
4699.9
4700.39
3921.64
3922.25
3922.3
3921.78
212.197
213.796
214.117
213.179
107.869
107.917
107.921
107.882
104.485
104.492
104.495
104.495
107.575
107.597
107.611
107.623
113.657
113.879
113.979
113.971
121.962
122.214
122.354
122.431
144.582
145.287
145.55
145.487
335.335
330.255
329.475
332.891
4503.8
4503.9
4504.33
4504.78
3774.62
3775.18
3775.22
3774.75
205.056
206.597
206.908
206.008
106.338
106.386
106.391
106.353
101.988
101.987
101.985
101.983
103.358
103.351
103.347
103.35
106.199
106.279
106.311
106.298
110.766
110.78
110.806
110.859
126.73
126.862
126.915
126.909
297.597
292.088
291.183
294.498
4307.1
4306.96
4307.19
4307.53
3621.08
3621.57
3621.61
3621.19
197.659
199.137
199.438
198.576
105.37
105.417
105.423
105.388
100.853
100.851
100.85
100.849
101.489
101.481
101.477
101.476
102.817
102.857
102.871
102.857
105.716
105.686
105.685
105.714
117.999
117.977
117.96
117.947
271.434
265.981
265.028
268.143
4107.11
4106.93
4107.04
4107.27
3461.3
3461.73
3461.76
3461.38
189.835
191.248
191.538
190.717
104.624
104.668
104.673
104.641
100.318
100.317
100.316
100.316
100.637
100.633
100.629
100.628
101.224
101.25
101.257
101.245
103.289
103.262
103.255
103.27
113.193
113.134
113.094
113.072
250.827
245.579
244.633
247.557
3903.26
3903.13
3903.18
3903.29
3295.65
3296.02
3296.04
3295.71
181.496
182.843
183.121
182.342
103.966
104.007
104.013
103.982
100.064
100.065
100.064
100.064
100.245
100.243
100.241
100.239
100.47
100.488
100.492
100.482
102.072
102.055
102.05
102.056
110.241
110.181
110.135
110.104
232.992
228.003
227.093
229.839
3695.34
3695.31
3695.33
3695.33
3124.61
3124.91
3124.91
3124.64
172.574
173.853
174.12
173.386
103.349
103.387
103.392
103.364
99.9514
99.9525
99.9526
99.9517
100.065
100.064
100.063
100.061
100.119
100.133
100.135
100.127
101.425
101.42
101.416
101.415
108.201
108.152
108.107
108.067
216.468
211.767
210.91
213.482
3483.46
3483.54
3483.55
3483.46
2948.76
2948.99
2948.97
2948.74
163.001
164.212
164.469
163.781
102.757
102.792
102.797
102.772
99.9135
99.9156
99.9159
99.9144
99.9829
99.983
99.9822
99.9811
99.9646
99.974
99.9752
99.9687
101.041
101.044
101.042
101.036
106.605
106.574
106.534
106.484
200.4
196.018
195.23
197.621
3268
3268.19
3268.2
3268.04
2768.85
2769.01
2768.98
2768.8
152.692
153.838
154.087
153.446
102.191
102.224
102.229
102.205
99.9169
99.9201
99.9204
99.9181
99.9478
99.9484
99.9481
99.9473
99.9035
99.9097
99.9101
99.905
100.762
100.771
100.771
100.762
105.208
105.199
105.166
105.106
184.23
180.223
179.52
181.705
3049.65
3049.93
3049.94
3049.73
2585.93
2586
2585.96
2585.83
141.543
142.635
142.879
142.282
101.648
101.68
101.685
101.662
99.9388
99.943
99.9433
99.9402
99.9376
99.9387
99.9388
99.9383
99.889
99.8925
99.8924
99.8892
100.512
100.524
100.525
100.515
103.876
103.891
103.866
103.799
167.528
164.014
163.42
165.34
2829.46
2829.79
2829.81
2829.58
2401.16
2401.14
2401.08
2401.02
129.374
130.426
130.666
130.104
101.141
101.169
101.172
101.151
99.96
99.9643
99.9647
99.9614
99.945
99.9462
99.9466
99.9464
99.9026
99.904
99.9038
99.9024
100.268
100.28
100.282
100.273
102.554
102.58
102.565
102.506
149.618
146.673
146.231
147.868
2608.74
2609.11
2609.12
2608.88
2215.02
2214.86
2214.81
2214.85
115.753
116.734
116.94
116.407
100.666
100.683
100.684
100.67
99.974
99.9767
99.9768
99.9748
99.9698
99.9708
99.9712
99.9714
99.9404
99.9405
99.9405
99.9402
100.077
100.084
100.085
100.08
101.287
101.295
101.288
101.263
128.332
126.311
126.075
127.232
2388.2
2388.59
2388.6
2388.34
6105.84
5442.91
5173.15
5077.01
5022.19
4983.67
4958.06
4943.68
4935.7
4930.96
798367
193271
33401.8
11731.8
5300.6
2836.32
1749.37
1212.57
928.349
765.148
1.42399e+06
247024
44251.2
15128.6
6776.27
3637.43
2200.61
1460.56
1048.37
803.118
1.99535e+06
239505
46764.8
15017.2
6482.99
3391.13
2000.58
1297.57
912.999
688.661
2.45848e+06
252591
48931.4
14560.2
6098.03
3102.16
1792.05
1144.47
795.542
596.76
2.93024e+06
276380
51139.6
13973.9
5638.31
2768.49
1561.51
981.208
677.414
508.317
3.31247e+06
294956
51998.8
13161.6
5158.37
2467.72
1375.73
861.532
595.641
450.428
3.3965e+06
287376
47698.9
11001.5
4163.95
1946.61
1092.99
700.309
502.953
394.821
2.34165e+06
182149
27370.7
5711.06
2275.16
1237.91
858.037
671.641
568.215
506.605
6016.15
5992.9
5847.14
5822.73
5779.33
5755.04
5735.76
5725.51
5718.6
5712.65
5443.27
5175.18
5045.25
4972.67
4927.12
4897.11
4877.66
4866.1
4859.89
4855.96
180233
44894.3
13613.5
5322.8
2635.52
1567.24
1065.16
802.524
656.287
572.32
375657
86405.2
23466.5
8290.72
3889.09
2187.84
1383.95
956.285
710.87
565.823
594996
126236
30699.6
9651.16
4227.96
2261.57
1372.64
915.906
661.653
515.554
830445
165000
36424.8
10416.9
4317.41
2219.9
1310.37
857.655
610.436
472.046
1.10974e+06
207197
41750.2
10863.3
4246.92
2091.36
1198.72
768.9
542.101
418.504
1.38885e+06
244438
45352.5
10849.9
4055.53
1939.14
1095.65
699.581
493.237
382.965
1.56424e+06
258671
43995.7
9552.59
3395.55
1585.21
900.694
587.788
429.944
345.83
1.18224e+06
178725
26851.8
5249.54
1966.75
1091.4
771.675
615.231
526.628
476.311
6252.79
5952.85
5792.73
5733.9
5683.03
5652.27
5629.98
5616.37
5606.8
5598.5
4903.97
4869.14
4841.67
4818.87
4801.04
4788.13
4779.52
4774.36
4771.5
4769.45
9199.71
4176
2298.96
1432.83
985.444
735.897
591.249
504.994
452.276
420.457
23997.4
9564.64
4650.23
2546.88
1542.1
1010.29
712.73
538.4
431.168
364.805
45435.7
15961.2
6937.79
3411.04
1898.31
1159.05
771.565
555.731
428.574
352.782
73589.1
22900.9
9011.17
4055.86
2119.64
1232.33
791.81
556.678
421.566
343.311
112042
31039.3
11039.9
4548.08
2235.16
1236.98
767.178
526.294
393.53
319.007
156037
38866.3
12576.4
4794.7
2251.61
1205.94
734.747
500.586
373.478
303.55
191494
42868.4
12520.4
4385.25
1974.77
1036.67
636.247
443.059
341.774
286.193
141659
27754.1
7303.92
2547.23
1307.81
842.951
642.731
536.597
473.027
436.315
6018.28
5835.8
5711.18
5637.33
5584.24
5551.12
5528.1
5512.43
5500.85
5490.88
4712.94
4704.58
4695.41
4687.16
4680.91
4676.66
4674.01
4672.65
4672.32
4671.94
1208.09
906.542
708.908
570.501
479.282
420.792
383.211
358.498
341.813
331.534
3028.76
1919.55
1270.42
860.785
612.414
460.978
367.209
307.644
268.201
242.334
6220.8
3481.13
2057.47
1252.16
812.891
564.721
420.273
333.165
278.363
244.01
10746.5
5350.93
2878.14
1610.48
978.821
644.283
460.275
354.619
289.936
250.477
17345.4
7666.2
3761.22
1938.97
1105.18
689.151
472.652
353.786
284.451
243.635
25220.5
9946.96
4496.49
2165.73
1178.8
709.666
476.395
352.87
281.943
240.955
32101.9
11241.5
4658.91
2095
1100.61
652.744
441.599
333.004
272.802
238.111
23542.8
7366.66
2961.59
1443.34
906.123
663.595
542.641
472.694
427.936
401.471
5789.01
5660.49
5561.75
5497.85
5453.77
5424.89
5404.18
5389.32
5378.11
5368.64
4567.53
4566.3
4565.06
4564.09
4563.52
4563.27
4563.29
4563.67
4564.58
4565.43
412.738
382.981
356.683
334.896
318.467
306.423
297.574
290.945
285.866
282.615
637.771
512.564
411.74
334.526
279.772
241.972
216.091
198.19
185.254
176.198
1287.27
926.075
666.265
486.299
369.856
294.98
246.651
214.954
193.482
179.283
2276.05
1481.67
973.353
652.868
462.858
348.843
279.645
236.715
208.36
189.991
3814.12
2240.83
1346.81
830.601
548.836
390.254
299.439
245.703
212.128
191.249
5703.34
3044.09
1696.17
978.252
614.756
420.809
314.954
254.782
217.685
194.949
7460.09
3599.51
1861.03
1012.27
616.731
417.058
313.389
255.928
221.792
201.027
5661.91
2636.82
1436.08
904.113
665.886
539.394
466.878
421.232
389.993
371.12
5535.64
5459.59
5394.32
5347.93
5314.01
5289.76
5271.5
5257.8
5247.22
5238.41
4444.74
4444.86
4445.16
4445.63
4446.23
4446.87
4447.52
4448.33
4449.54
4450.98
277.891
274.894
271.422
267.996
264.979
262.419
260.266
258.419
256.797
255.49
225.928
210.883
194.967
180.657
169.151
160.383
153.859
148.973
145.045
142.085
373.135
321.83
273.237
233.344
203.641
182.288
167.108
156.251
148.288
142.763
613.181
488.019
382.058
302.903
248.817
212.622
188.491
172.255
160.542
152.464
1013.1
737.704
529.252
386.581
296.639
240.22
204.684
181.855
166.431
156.312
1522.05
1022.61
681.248
465.91
339.908
265.195
220.359
192.773
174.287
162.244
2045.38
1266.88
790.132
514.264
364.92
280.916
232.639
203.53
184.886
172.964
1814.27
1182.28
824.872
628.724
519.813
452.705
409.142
379.538
357.956
344.673
5303.3
5261.65
5221.82
5189.93
5164.51
5144.77
5129.2
5117.05
5107.44
5099.57
4322.47
4322.75
4323.2
4323.8
4324.49
4325.17
4325.83
4326.59
4327.73
4329.18
244.178
244.017
243.67
243.201
242.686
242.152
241.604
241.02
240.379
239.621
140.672
138.605
136.043
133.467
131.205
129.353
127.887
126.705
125.59
124.66
176.557
168.272
158.709
149.715
142.18
136.164
131.448
127.758
124.83
122.733
241.576
220.112
197.589
178.251
163.323
152.235
144.108
138.165
133.44
129.978
355.619
303.652
254.564
215.791
187.997
168.571
155.053
145.576
138.638
133.886
503.835
404.319
318.096
255.339
213.448
185.772
167.409
155.121
146.115
139.904
681.097
513.358
382.506
294.827
240.138
205.644
183.591
169.095
159.115
152.475
826.628
675.17
559.121
481.2
428.739
391.964
365.462
346.211
331.348
322.041
5091.75
5069.87
5046.08
5024.49
5005.79
4990.26
4977.46
4967.11
4958.72
4951.96
4195.39
4195.59
4195.93
4196.39
4196.9
4197.41
4197.88
4198.43
4199.36
4200.63
230.444
230.672
230.776
230.788
230.73
230.606
230.412
230.127
229.724
229.088
118.34
118.072
117.708
117.307
116.938
116.636
116.407
116.21
115.929
115.642
126.159
124.613
122.561
120.391
118.367
116.584
115.053
113.753
112.654
111.861
146.603
142.547
137.534
132.672
128.478
125.039
122.289
120.126
118.222
116.745
183.562
172.773
160.74
149.911
141.152
134.338
129.117
125.146
122.026
119.836
231.57
210.493
188.319
169.877
155.899
145.594
138.051
132.591
128.227
125.062
302.853
263.963
227.236
198.856
178.534
164.16
154
146.781
141.497
137.893
515.48
472.587
430.215
396.147
369.34
348.468
332.085
319.486
309.251
302.759
4892.51
4880.75
4866.37
4851.92
4838.5
4826.7
4816.57
4808.11
4801.08
4795.5
4061.85
4061.99
4062.2
4062.5
4062.84
4063.16
4063.43
4063.78
4064.48
4065.53
221.793
222.059
222.207
222.277
222.284
222.226
222.096
221.867
221.501
220.869
110.951
110.94
110.929
110.914
110.911
110.93
110.971
111.007
110.954
110.858
110.388
110.046
109.543
108.953
108.35
107.774
107.241
106.757
106.329
106.024
117.935
117.077
115.87
114.565
113.326
112.222
111.279
110.494
109.721
109.082
132.023
129.422
126.185
122.906
119.953
117.431
115.337
113.636
112.223
111.227
150.422
145.526
139.43
133.684
128.788
124.802
121.629
119.181
117.058
115.447