/*--------------------------------*- C++ -*----------------------------------*\
| =========                 |                                                 |
| \\      /  F ield         | foam-extend: Open Source CFD                    |
|  \\    /   O peration     | Version:     4.0                                |
|   \\  /    A nd           | Web:         http://www.foam-extend.org         |
|    \\/     M anipulation  |                                                 |
\*---------------------------------------------------------------------------*/
FoamFile
{
    version     2.0;
    format      ascii;
    class       volScalarField;
    location    "1950";
    object      k;
}
// * * * * * * * * * * * * * * * * * * * * * * * * * * * * * * * * * * * * * //

dimensions      [0 2 -2 0 0 0 0];

internalField   nonuniform List<scalar> 
34480
(
8.7672
8.76479
8.76467
8.76644
8.77024
8.77635
8.7913
8.8547
9.07726
9.68615
9.28014
8.66842
8.57574
8.85538
9.45446
10.3413
11.94
15.8525
28.7393
67.0274
15.0407
13.5713
13.1253
13.2735
13.8439
14.8768
17.2104
22.9062
41.6372
101.409
14.4923
12.9649
12.5148
12.7091
13.4196
14.8342
18.0062
25.4071
49.2507
127.782
13.4291
12.0135
11.6626
11.9297
12.7813
14.4915
18.2609
26.9568
55.2702
151.573
12.2201
10.9469
10.6346
10.9165
11.8083
13.7018
17.9434
27.9033
61.0605
176.654
11.3271
10.2072
9.95273
10.2279
11.1231
13.0889
17.5908
28.4209
65.5182
198.013
9.84015
9.00407
8.79935
9.01517
9.72783
11.3982
15.4925
26.1256
64.5447
205.594
6.88259
6.6141
6.56548
6.67555
7.00502
7.72966
9.73032
16.274
43.4124
149.67
9.23844
9.23869
9.24456
9.25745
9.27557
9.29716
9.32318
9.36175
9.43278
9.50596
8.67855
8.67556
8.67498
8.67675
8.68152
8.68986
8.7031
8.73416
8.8084
9.06734
7.93022
7.51034
7.41702
7.57473
8.02172
8.86406
10.3055
12.1081
15.4283
41.1764
12.2361
11.1734
10.8812
11.0844
11.763
13.0241
15.2218
18.1229
23.7887
66.4165
12.1401
10.9719
10.6532
10.8965
11.7016
13.2521
16.0327
20.0149
28.3909
86.1812
11.5993
10.4657
10.199
10.4751
11.3679
13.1094
16.2981
21.076
31.8422
104.294
10.8057
9.75555
9.5003
9.77422
10.6727
12.4996
15.9693
21.4568
34.8377
123.699
10.2152
9.26326
9.04623
9.29992
10.1735
12.002
15.6092
21.5531
37.1093
140.951
9.05447
8.33276
8.14873
8.34038
9.01826
10.5161
13.6633
19.2859
35.7045
147.363
6.64501
6.39772
6.34356
6.41777
6.68252
7.26757
8.61452
11.5622
22.4919
102.419
9.11128
9.10659
9.10714
9.11435
9.12703
9.14284
9.16383
9.19956
9.27256
9.45782
8.57681
8.57394
8.57304
8.57402
8.57716
8.58211
8.58789
8.60081
8.6296
8.69526
6.78288
6.57127
6.51724
6.59314
6.82455
7.27153
8.06606
9.36011
11.1359
16.4379
9.69208
9.07197
8.91867
9.08627
9.60592
10.5608
12.1758
14.5703
17.5479
29.1808
9.88969
9.15178
8.96649
9.18041
9.83981
11.0956
13.2879
16.6424
21.1142
40.7624
9.76017
9.00513
8.84242
9.07921
9.81777
11.2615
13.8646
17.9412
23.7781
52.2526
9.33143
8.60418
8.43679
8.67478
9.42924
10.9752
13.8899
18.6195
26.0238
64.9002
9.01635
8.33214
8.18603
8.40873
9.15037
10.7186
13.8036
18.9571
27.7477
76.9234
8.19553
7.66734
7.53817
7.70864
8.28378
9.5664
12.2722
17.1632
26.6519
82.8768
6.37372
6.18154
6.14173
6.20271
6.41368
6.87646
7.92542
10.3688
16.6987
57.1057
8.99176
8.98399
8.98148
8.98539
8.99501
9.00811
9.02613
9.05969
9.13848
9.33849
8.46134
8.45953
8.45902
8.45978
8.46195
8.4647
8.46591
8.46929
8.47822
8.49764
6.00882
5.91802
5.89093
5.92177
6.02198
6.21457
6.55129
7.13276
7.9964
9.88157
7.80924
7.4966
7.42376
7.51919
7.82067
8.38348
9.33449
10.8214
12.6582
17.0747
8.12531
7.70793
7.60424
7.74173
8.16787
8.99016
10.4237
12.727
15.5985
23.5548
8.2479
7.7894
7.69262
7.85047
8.34875
9.33635
11.1231
14.0851
17.8846
30.1252
8.08427
7.61596
7.50643
7.67344
8.20308
9.3023
11.3883
14.9958
19.8639
37.6351
7.97618
7.51201
7.41263
7.5742
8.11125
9.257
11.5236
15.5776
21.3675
44.9585
7.44552
7.07534
6.98336
7.11186
7.53584
8.48197
10.4806
14.3824
20.6522
48.767
6.13174
5.98481
5.95493
6.00092
6.15835
6.49636
7.22506
8.98563
12.9805
33.0367
8.85786
8.85006
8.84724
8.85061
8.85972
8.87334
8.89219
8.9261
8.99927
9.15513
8.33367
8.33285
8.33267
8.33316
8.33433
8.33519
8.33359
8.33221
8.33214
8.33428
5.53777
5.50333
5.49025
5.50012
5.5363
5.60504
5.7203
5.91177
6.17887
6.62143
6.56642
6.42875
6.39799
6.43826
6.57462
6.83289
7.27186
7.98236
8.87941
10.3572
6.87245
6.65585
6.59928
6.67003
6.89725
7.33986
8.11451
9.40845
11.0454
14.02
7.10243
6.84278
6.78648
6.87381
7.15932
7.72746
8.7597
10.5602
12.8857
17.776
7.0976
6.81109
6.73943
6.83996
7.16379
7.83628
9.11602
11.4647
14.6134
22.2336
7.12109
6.8184
6.75036
6.85234
7.19729
7.92931
9.37391
12.1317
15.9823
26.647
6.81362
6.56208
6.49604
6.58214
6.86428
7.48562
8.77895
11.475
15.6915
29.0123
5.91854
5.80769
5.78495
5.81678
5.9278
6.16013
6.63048
7.74153
10.1054
19.2387
8.71442
8.70672
8.7037
8.70657
8.71503
8.72844
8.74692
8.77836
8.83987
8.95239
8.19471
8.19464
8.19474
8.19501
8.19546
8.19504
8.19257
8.19
8.18782
8.18651
5.27044
5.25905
5.25272
5.25498
5.26627
5.2881
5.32356
5.37814
5.4476
5.53746
5.80968
5.75827
5.74859
5.762
5.813
5.90982
6.07234
6.33489
6.6744
7.13922
6.04329
5.93965
5.9109
5.94338
6.05159
6.26005
6.61671
7.21184
7.9879
9.10691
6.28258
6.14599
6.11619
6.15984
6.30809
6.59783
7.11235
8.02128
9.23784
11.203
6.3513
6.1858
6.14164
6.19785
6.38089
6.75339
7.4447
8.74065
10.5395
13.8037
6.44234
6.25445
6.21072
6.27088
6.47823
6.90753
7.72939
9.3408
11.6531
16.3935
6.29335
6.13051
6.08574
6.14072
6.31852
6.69948
7.4604
9.07722
11.6571
17.7681
5.73303
5.6519
5.63569
5.65703
5.73329
5.88857
6.18414
6.83632
8.10055
11.8445
8.56051
8.55318
8.55016
8.55263
8.56037
8.57301
8.59035
8.6182
8.66623
8.74098
8.04503
8.04548
8.04577
8.04589
8.04586
8.04467
8.04236
8.03988
8.03762
8.03597
5.12667
5.12328
5.11983
5.11976
5.12264
5.12903
5.13913
5.15349
5.16964
5.18573
5.37611
5.3612
5.36035
5.36321
5.37822
5.40739
5.45636
5.534
5.63293
5.75068
5.52674
5.47986
5.46595
5.47972
5.52781
5.61855
5.76723
6.00389
6.30878
6.68048
5.72738
5.66001
5.64576
5.66574
5.73743
5.87353
6.10469
6.49916
7.03134
7.7502
5.81521
5.72421
5.69836
5.72795
5.82569
6.01881
6.3608
6.984
7.86711
9.18689
5.92913
5.81742
5.79085
5.82418
5.94269
6.18026
6.61238
7.4398
8.65416
10.6615
5.88368
5.78326
5.75445
5.78785
5.8945
6.11638
6.53654
7.40189
8.80304
11.4701
5.57821
5.52027
5.5093
5.52305
5.57409
5.67534
5.85881
6.23092
6.89034
8.32494
8.39556
8.38885
8.38597
8.38808
8.39501
8.40636
8.42191
8.44561
8.48219
8.53148
7.88498
7.88575
7.88615
7.88618
7.88587
7.88452
7.88265
7.88066
7.87887
7.87753
5.05203
5.05082
5.04857
5.04806
5.04868
5.05071
5.05367
5.05747
5.06103
5.06344
5.13798
5.13636
5.13841
5.13801
5.14025
5.1457
5.15612
5.17362
5.19609
5.22011
5.21974
5.19913
5.19254
5.19814
5.21891
5.2573
5.31731
5.4062
5.51476
5.62686
5.36822
5.33694
5.33098
5.33943
5.37237
5.43304
5.53121
5.68813
5.89266
6.12699
5.44719
5.39938
5.38496
5.39983
5.44993
5.546
5.70766
5.9838
6.36776
6.85606
5.55784
5.49395
5.47873
5.49619
5.56144
5.68809
5.90607
6.29798
6.8647
7.64799
5.57435
5.51567
5.49819
5.5176
5.57867
5.70245
5.92575
6.35733
7.04553
8.13513
5.45389
5.41332
5.40634
5.41493
5.44852
5.51352
5.62692
5.83783
6.18538
6.75839
8.21906
8.21314
8.21053
8.21232
8.21832
8.22806
8.24141
8.26081
8.28802
8.32092
7.71463
7.71558
7.71605
7.71603
7.71556
7.71445
7.71306
7.71159
7.7103
7.7093
5.01368
5.01279
5.01112
5.01069
5.01097
5.01196
5.0132
5.01458
5.01552
5.01567
5.01152
5.0137
5.01619
5.01519
5.01385
5.01252
5.01202
5.01308
5.01557
5.01861
5.04484
5.03564
5.03244
5.03472
5.0438
5.06033
5.08508
5.11909
5.15789
5.19177
5.14549
5.13176
5.12972
5.13302
5.14762
5.17385
5.2146
5.2752
5.34994
5.42254
5.20539
5.18132
5.17362
5.18084
5.20573
5.25227
5.32736
5.44638
5.60496
5.77828
5.30071
5.2653
5.25707
5.26578
5.30076
5.3668
5.4752
5.65557
5.90502
6.19332
5.3506
5.31843
5.30851
5.31934
5.35267
5.41888
5.53426
5.74205
6.06215
6.49169
5.35795
5.32988
5.32574
5.33104
5.35302
5.39459
5.46468
5.58466
5.76938
6.02081
8.03059
8.02558
8.02333
8.02481
8.02983
8.03781
8.04882
8.06409
8.08381
8.10568
7.53414
7.53498
7.53549
7.53544
7.53498
7.53419
7.53321
7.53219
7.5313
7.53057
4.99324
4.99242
4.99112
4.99085
4.99119
4.99195
4.99285
4.99377
4.99434
4.99425
4.94621
4.94885
4.95096
4.95013
4.94835
4.94592
4.94337
4.94116
4.93968
4.939
4.94933
4.9449
4.94322
4.9442
4.94842
4.95599
4.96691
4.98094
4.99593
5.00715
5.01301
5.0072
5.00675
5.00793
5.01434
5.02565
5.04264
5.06626
5.09363
5.11683
5.05341
5.04176
5.03779
5.04123
5.05333
5.07549
5.11015
5.16147
5.22687
5.29108
5.13029
5.11104
5.10681
5.11103
5.12956
5.16371
5.21771
5.30114
5.41033
5.51821
5.19572
5.17948
5.17433
5.18017
5.1974
5.23116
5.28885
5.38657
5.53146
5.70569
5.28675
5.26736
5.26512
5.26845
5.283
5.30985
5.35341
5.42236
5.52055
5.64041
7.82986
7.82581
7.82396
7.82515
7.82918
7.83544
7.84416
7.85574
7.86965
7.88396
7.34326
7.34393
7.34435
7.34432
7.34402
7.34348
7.34281
7.34213
7.34153
7.34098
4.98136
4.98065
4.9797
4.97955
4.97989
4.98056
4.98137
4.98217
4.98273
4.98263
4.91319
4.91537
4.91693
4.91642
4.91503
4.91306
4.91086
4.90877
4.90722
4.90636
4.89947
4.89705
4.89608
4.89656
4.89871
4.90251
4.90782
4.9143
4.92088
4.92515
4.93752
4.93498
4.93499
4.93541
4.93834
4.94348
4.95095
4.9607
4.97118
4.97929
4.96221
4.95676
4.95476
4.95639
4.96221
4.97268
4.98865
5.011
5.03834
5.06423
5.0223
5.01181
5.00971
5.01179
5.02171
5.03958
5.06692
5.10652
5.15532
5.19844
5.09318
5.08595
5.08365
5.08671
5.09504
5.11124
5.13867
5.18313
5.24645
5.32162
5.23581
5.22228
5.22123
5.22346
5.23338
5.25114
5.27857
5.31887
5.37095
5.43179
7.61669
7.61358
7.61214
7.61306
7.61614
7.62087
7.62752
7.63598
7.64552
7.65471
7.14173
7.14227
7.14261
7.1426
7.14241
7.14205
7.14162
7.14116
7.14077
7.14034
4.97348
4.97293
4.97228
4.9722
4.97251
4.97309
4.97378
4.97447
4.97502
4.97486
4.89669
4.89831
4.89941
4.89915
4.89824
4.89694
4.89549
4.8941
4.89315
4.89264
4.87473
4.87326
4.87268
4.87294
4.87412
4.87617
4.87898
4.88231
4.88565
4.88754
4.89639
4.89508
4.89509
4.89527
4.8968
4.89947
4.90323
4.90782
4.91235
4.91573
4.9101
4.90759
4.90661
4.9074
4.9102
4.91516
4.92255
4.93243
4.94407
4.95556
4.95692
4.95099
4.94995
4.95108
4.95661
4.96634
4.98072
5.00042
5.02318
5.04212
5.02817
5.02568
5.02499
5.02657
5.03023
5.03732
5.04927
5.06827
5.09391
5.12876
5.20043
5.19082
5.19047
5.19213
5.19922
5.21135
5.22902
5.25314
5.28073
5.31356
7.39104
7.38878
7.38773
7.3884
7.39062
7.3941
7.39897
7.40493
7.41128
7.41707
6.92933
6.92979
6.93005
6.93005
6.92994
6.92971
6.92943
6.92914
6.92888
6.92852
4.96747
4.96712
4.96672
4.96669
4.96694
4.96739
4.96794
4.9685
4.969
4.96875
4.88844
4.88962
4.89038
4.89028
4.88975
4.88899
4.88816
4.88738
4.88697
4.88675
4.86324
4.86232
4.86199
4.86214
4.86278
4.8639
4.86542
4.86721
4.86908
4.87003
4.87505
4.87416
4.87405
4.87416
4.87513
4.87681
4.8791
4.88174
4.88416
4.88599
4.88186
4.8807
4.8802
4.8806
4.88198
4.88438
4.88784
4.8923
4.89738
4.90305
4.91904
4.91543
4.91488
4.91561
4.91893
4.92461
4.93266
4.9432
4.95461
4.96417
4.98843
4.98821
4.98836
4.98918
4.99053
4.99314
4.99748
5.00457
5.01308
5.03084
5.17629
5.16929
5.16932
5.17072
5.17605
5.18463
5.19639
5.21129
5.22585
5.24497
7.15295
7.15141
7.15071
7.15118
7.15268
7.15519
7.15862
7.16266
7.16674
7.17033
6.70591
6.7063
6.70651
6.70652
6.70645
6.70631
6.70613
6.70594
6.70577
6.70545
4.96237
4.96223
4.96204
4.96205
4.96224
4.96255
4.96295
4.96336
4.96383
4.96346
4.88424
4.88512
4.88562
4.88562
4.88535
4.88498
4.88458
4.88423
4.8842
4.88417
4.85846
4.85793
4.85777
4.85785
4.85816
4.85871
4.85947
4.86039
4.86147
4.862
4.86461
4.86386
4.86364
4.86373
4.86444
4.86567
4.8673
4.86912
4.87072
4.87198
4.86744
4.86686
4.86659
4.8668
4.86751
4.86872
4.8704
4.87249
4.87478
4.87789
4.89785
4.89545
4.89512
4.89568
4.89786
4.90145
4.90633
4.9125
4.91882
4.92461
4.96447
4.96519
4.96573
4.96618
4.96649
4.96704
4.96787
4.96965
4.97064
4.98096
5.15958
5.15445
5.15471
5.15599
5.1601
5.16645
5.17457
5.18414
5.19168
5.20396
6.90271
6.90164
6.90121
6.90151
6.90255
6.90427
6.90659
6.90921
6.91172
6.91391
6.4714
6.47174
6.4719
6.47191
6.47188
6.47179
6.47167
6.47155
6.47143
6.47114
4.95776
4.95785
4.95781
4.95786
4.95799
4.95818
4.95844
4.95873
4.95918
4.95872
4.882
4.88266
4.88298
4.88303
4.88293
4.88281
4.8827
4.88263
4.88285
4.88298
4.85696
4.85671
4.85668
4.85671
4.85681
4.85699
4.85728
4.85768
4.85828
4.85863
4.8599
4.85923
4.85895
4.85902
4.85957
4.86052
4.86177
4.86313
4.86432
4.86531
4.86061
4.86027
4.8601
4.86021
4.8606
4.86125
4.86212
4.86316
4.86424
4.86612
4.88613
4.8844
4.88415
4.88462
4.88615
4.88859
4.89178
4.89569
4.89958
4.90373
4.94943
4.95038
4.95107
4.95134
4.95125
4.951
4.95044
4.95008
4.94803
4.95502
5.14744
5.14365
5.14407
5.14525
5.14854
5.15341
5.15926
5.16568
5.16933
5.17807
6.6405
6.6398
6.63952
6.63973
6.64042
6.64154
6.64303
6.64464
6.64611
6.64742
6.22586
6.22616
6.22627
6.22628
6.22627
6.22622
6.22614
6.22606
6.22598
6.2257
4.95348
4.95379
4.95386
4.95395
4.95403
4.95413
4.95426
4.95444
4.95493
4.95441
4.88064
4.88114
4.88132
4.88137
4.88138
4.88141
4.88149
4.8816
4.88199
4.88229
4.85703
4.85695
4.85699
4.85699
4.85697
4.85694
4.85695
4.85704
4.85735
4.85764
4.85805
4.85748
4.8572
4.85724
4.85765
4.85837
4.85931
4.86033
4.86125
4.86205
4.85775
4.85749
4.85737
4.85742
4.85765
4.85803
4.85852
4.85907
4.85962
4.86082
4.87925
4.87794
4.87774
4.87811
4.87921
4.88093
4.8831
4.8857
4.88827
4.89156
4.93853
4.93935
4.94005
4.94025
4.94008
4.93964
4.93871
4.93771
4.93471
4.94009
5.13764
5.13486
5.13535
5.13648
5.13917
5.14303
5.14741
5.15186
5.15329
5.16005
6.36666
6.36623
6.36606
6.3662
6.36662
6.36732
6.36822
6.36915
6.36994
6.3707
5.96958
5.96983
5.96992
5.96994
5.96993
5.9699
5.96985
5.96979
5.96973
5.96947
4.9494
4.9499
4.95005
4.95019
4.95024
4.95026
4.95029
4.95037
4.95093
4.95047
4.87958
4.87991
4.87997
4.88
4.88006
4.88019
4.88037
4.8806
4.88108
4.88157
4.85776
4.85776
4.85782
4.8578
4.85772
4.8576
4.85748
4.85742
4.85756
4.85786
4.85757
4.8571
4.85685
4.85687
4.85715
4.85766
4.85832
4.85905
4.85973
4.86038
4.85687
4.85666
4.85656
4.85657
4.85671
4.85694
4.85721
4.85752
4.85781
4.85858
4.87436
4.87337
4.87319
4.87346
4.87422
4.8754
4.87685
4.87857
4.88029
4.88294
4.92851
4.92907
4.92968
4.92986
4.92973
4.92934
4.92849
4.9275
4.92454
4.92895
5.1282
5.12623
5.12673
5.1278
5.13002
5.13313
5.13649
5.13964
5.13973
5.14516
6.08173
6.08149
6.08139
6.08148
6.08172
6.08211
6.08262
6.0831
6.08348
6.08391
5.70321
5.70342
5.70349
5.7035
5.7035
5.70348
5.70344
5.7034
5.70334
5.70311
4.94523
4.94587
4.94609
4.94627
4.94631
4.94627
4.9462
4.94619
4.94678
4.94658
4.87841
4.87853
4.8785
4.8785
4.87857
4.87874
4.87896
4.87925
4.87972
4.88043
4.85859
4.85858
4.85862
4.8586
4.85851
4.85838
4.85824
4.85815
4.8582
4.85854
4.85769
4.85734
4.85715
4.85715
4.85732
4.85764
4.85806
4.85854
4.85901
4.85951
4.85697
4.85682
4.85674
4.85673
4.8568
4.85691
4.85705
4.8572
4.85734
4.85779
4.86971
4.86899
4.86884
4.86901
4.86948
4.8702
4.87109
4.87212
4.87322
4.87526
4.91723
4.91752
4.91799
4.91813
4.91804
4.91773
4.91707
4.91625
4.9138
4.91737
5.11637
5.11509
5.11555
5.11652
5.11832
5.12076
5.12331
5.12545
5.12474
5.12897
5.78656
5.78643
5.78638
5.78642
5.78654
5.78674
5.78699
5.78721
5.78736
5.78758
5.42759
5.42776
5.4278
5.42781
5.42781
5.4278
5.42778
5.42774
5.4277
5.42751
4.93955
4.94019
4.94056
4.9408
4.94085
4.94076
4.94059
4.94043
4.94079
4.94109
4.8768
4.87668
4.87657
4.87652
4.87658
4.87673
4.87696
4.87724
4.87766
4.8785
4.85911
4.85904
4.85905
4.85902
4.85895
4.85886
4.85877
4.85871
4.85874
4.85909
4.85815
4.85792
4.85779
4.85778
4.85788
4.85805
4.85828
4.85855
4.85885
4.85919
4.8576
4.85751
4.85746
4.85745
4.85747
4.8575
4.85754
4.85758
4.85763
4.85783
4.86473
4.86428
4.86417
4.86425
4.86449
4.86485
4.86528
4.86578
4.86638
4.86775
4.90352
4.90356
4.90385
4.9039
4.90377
4.90347
4.90293
4.90229
4.90067
4.90329
5.09508
5.09438
5.09477
5.09557
5.0969
5.09868
5.10047
5.10172
5.10057
5.10338
5.48212
5.48206
5.48204
5.48206
5.4821
5.48216
5.48224
5.4823
5.48235
5.48245
5.14253
5.14263
5.14264
5.14264
5.14264
5.14264
5.14264
5.14263
5.14263
5.14254
4.92471
4.92528
4.9259
4.92623
4.92631
4.92619
4.9259
4.92549
4.92509
4.92572
4.87369
4.87334
4.87314
4.87304
4.87305
4.87317
4.87337
4.87365
4.87404
4.87487
4.85937
4.8593
4.85928
4.85925
4.85922
4.85919
4.85915
4.85914
4.85917
4.8594
4.85896
4.85883
4.85877
4.85876
4.8588
4.85888
4.85899
4.85912
4.85927
4.85946
4.85863
4.85859
4.85857
4.85856
4.85856
4.85855
4.85855
4.85853
4.85853
4.85857
4.86084
4.86064
4.86059
4.86061
4.8607
4.86083
4.86099
4.86115
4.86139
4.86202
4.88685
4.88668
4.88674
4.88669
4.8865
4.8862
4.88578
4.88536
4.88479
4.88648
5.04093
5.04064
5.04089
5.04139
5.04219
5.04322
5.04424
5.0448
5.0438
5.04484
5.16848
5.16845
5.16846
5.16846
5.16846
5.16846
5.16846
5.16846
5.16843
5.16849
11.269
11.384
11.3385
11.1222
82.8108
84.8875
85.3469
85.9959
143.134
148.607
149.076
147.831
202.794
212.229
212.096
207.807
264.473
278.132
276.927
269.474
332.767
351.046
348.945
340.203
395.152
417.802
415.418
408.028
433.164
459.435
457.488
452.913
345.684
368.261
365.711
364.362
11.4769
11.7155
11.5594
11.1513
9.71376
9.77312
9.77595
9.73195
76.0795
79.3222
80.081
80.2016
133.884
144.802
145.902
143.736
192.901
214.527
215.061
209.165
256.132
290.971
290.023
280.074
329.502
380.26
378.485
365.612
399.593
466.609
465.642
452.614
446.083
527.568
528.611
517.422
350.525
422.883
420.974
416.14
10.7115
10.9423
10.8719
10.6516
8.7768
8.78978
8.78876
8.77725
26.539
28.9554
28.2179
25.7087
49.3574
53.7627
52.0982
47.4246
74.5818
81.3399
78.2201
70.705
103.454
112.992
107.813
96.732
139.438
152.799
145.172
129.28
177.305
194.668
184.509
163.487
207.526
228.701
216.441
190.906
164.728
181.62
170.137
149.301
9.91278
10.0035
9.98035
9.88113
8.51184
8.5144
8.51506
8.5141
11.4732
11.7227
11.6931
11.496
21.213
21.9399
21.8763
21.3342
31.997
33.4832
33.2311
31.9156
44.5097
46.9425
46.2781
43.7564
60.6325
64.4002
63.0803
58.7646
78.0536
83.1655
80.8986
74.4553
92.5737
99.1234
95.8365
87.145
71.9338
77.0737
73.5618
65.9605
9.44863
9.49307
9.48999
9.44958
8.33282
8.33392
8.33417
8.33352
7.04197
7.13345
7.15862
7.12877
11.678
11.9741
12.057
11.971
16.871
17.4853
17.5856
17.319
22.8363
23.8559
23.8916
23.2878
30.7124
32.3371
32.2243
31.0357
39.2223
41.4566
41.0389
39.0598
46.2606
49.1963
48.3794
45.3994
34.4002
36.6188
35.4285
32.5484
9.0983
9.12224
9.12385
9.10689
8.1825
8.18341
8.18351
8.18274
5.60675
5.62099
5.6262
5.62447
7.45593
7.52579
7.55846
7.55983
9.9374
10.121
10.1882
10.1631
12.8335
13.1792
13.2654
13.165
16.7959
17.4122
17.5021
17.2344
21.0454
21.942
21.9654
21.4362
24.4779
25.7298
25.6283
24.6921
17.4805
18.3745
18.0201
17.0163
8.81277
8.82468
8.82704
8.82089
8.03166
8.03255
8.03262
8.03184
5.19695
5.20013
5.20099
5.20001
5.82316
5.83893
5.84755
5.84976
6.91429
6.96713
6.99228
6.99338
8.25893
8.37114
8.41544
8.40574
10.2336
10.4612
10.5311
10.4823
12.3586
12.7063
12.7766
12.6575
14.053
14.5727
14.6194
14.3551
10.2217
10.5579
10.4794
10.1882
8.56535
8.57081
8.57289
8.57148
7.87342
7.8743
7.87436
7.87361
5.06323
5.06439
5.06439
5.06346
5.23316
5.23552
5.23695
5.2376
5.68408
5.69642
5.70295
5.70433
6.26561
6.29595
6.3105
6.31202
7.19415
7.26975
7.30041
7.2947
8.21568
8.33667
8.37653
8.35784
9.06875
9.2693
9.31388
9.24844
7.33886
7.45163
7.44557
7.37945
8.33734
8.33962
8.34108
8.3413
7.70545
7.70628
7.70635
7.70564
5.0133
5.01422
5.01416
5.01324
5.02034
5.02045
5.0205
5.02054
5.20444
5.20677
5.20805
5.20842
5.45539
5.462
5.46559
5.46671
5.88063
5.90364
5.91419
5.91405
6.35907
6.39493
6.41026
6.41052
6.80645
6.8778
6.90032
6.88562
6.19849
6.23245
6.23679
6.22626
8.11412
8.11492
8.11581
8.11636
7.52699
7.52777
7.52783
7.52717
4.99134
4.9922
4.99214
4.99126
4.93893
4.93883
4.93873
4.93863
5.00961
5.00984
5.00996
5.01002
5.1235
5.12441
5.12498
5.12537
5.32343
5.33046
5.33378
5.33371
5.55982
5.5683
5.57293
5.57498
5.81412
5.83903
5.84812
5.84385
5.69865
5.70623
5.70891
5.70966
7.88845
7.88857
7.88907
7.8896
7.33767
7.3384
7.33845
7.33785
4.97959
4.98038
4.98032
4.97948
4.90613
4.90609
4.90601
4.9059
4.92539
4.92529
4.92523
4.92524
4.98031
4.98017
4.98012
4.9802
5.07671
5.07929
5.08041
5.0801
5.20669
5.20781
5.20889
5.21025
5.36634
5.37609
5.37943
5.37671
5.45417
5.45324
5.45383
5.45612
7.65706
7.6569
7.65717
7.65758
7.13731
7.13796
7.13801
7.13746
4.97183
4.97253
4.97246
4.97166
4.89242
4.89242
4.89236
4.89224
4.88731
4.88719
4.88713
4.88715
4.91576
4.91555
4.91543
4.91541
4.96189
4.96317
4.96363
4.96327
5.04269
5.04223
5.04233
5.04307
5.15357
5.15844
5.1596
5.15701
5.32498
5.32168
5.32119
5.32312
7.41817
7.41795
7.41809
7.41835
6.92578
6.92636
6.92639
6.9259
4.9658
4.9664
4.9663
4.96555
4.88653
4.88655
4.8865
4.88637
4.86973
4.86965
4.86962
4.86964
4.88596
4.88584
4.88574
4.8857
4.90701
4.90782
4.90807
4.90775
4.96377
4.96324
4.96314
4.9635
5.04879
5.05203
5.05238
5.0498
5.25299
5.24945
5.24855
5.24985
7.17063
7.17047
7.17053
7.17067
6.70302
6.70352
6.70354
6.7031
4.96066
4.96114
4.96102
4.96031
4.88397
4.88399
4.88394
4.88381
4.86176
4.86171
4.86169
4.86171
4.87203
4.87197
4.87191
4.87187
4.88064
4.88122
4.88137
4.88111
4.92486
4.92458
4.92448
4.9246
4.99618
4.99881
4.99886
4.99628
5.21094
5.2079
5.20692
5.20757
6.91367
6.91363
6.91366
6.91366
6.46904
6.46946
6.46946
6.46908
4.95611
4.95647
4.95632
4.95566
4.88285
4.88288
4.88284
4.8827
4.8585
4.85848
4.85848
4.85849
4.86542
4.8654
4.86537
4.86533
4.8681
4.86852
4.86861
4.86839
4.90485
4.90485
4.9048
4.90473
4.96894
4.97137
4.97129
4.96868
5.18481
5.18256
5.18164
5.18166
6.6468
6.64691
6.64692
6.64681
6.22399
6.22431
6.22429
6.22397
4.95205
4.95231
4.95212
4.95152
4.88233
4.8824
4.88236
4.8822
4.85766
4.85768
4.85769
4.85768
4.86219
4.8622
4.86218
4.86215
4.86223
4.86252
4.86257
4.86239
4.89337
4.8936
4.8936
4.89338
4.95328
4.9557
4.95558
4.95289
5.16685
5.16551
5.16474
5.16413
6.36982
6.37007
6.37008
6.36987
5.96819
5.96841
5.96837
5.96811
4.94847
4.94864
4.94844
4.94788
4.88193
4.88208
4.88205
4.88185
4.85805
4.85812
4.85813
4.85809
4.86055
4.86057
4.86056
4.86054
4.85953
4.85972
4.85974
4.8596
4.88514
4.88552
4.88555
4.88525
4.94147
4.94401
4.94389
4.94109
5.15208
5.15176
5.1512
5.14994
6.08283
6.0832
6.08322
6.08294
5.70235
5.70246
5.70239
5.7022
4.94521
4.94539
4.94521
4.94467
4.88123
4.88148
4.88147
4.8812
4.85888
4.85898
4.859
4.85893
4.85969
4.85973
4.85973
4.85972
4.85835
4.85846
4.85847
4.85837
4.87746
4.87791
4.87796
4.87764
4.92866
4.93132
4.93125
4.92842
5.13578
5.13667
5.1364
5.13444
5.7864
5.78685
5.78687
5.78656
5.42738
5.42735
5.42726
5.42716
4.94101
4.94139
4.94128
4.94067
4.8796
4.87994
4.87994
4.8796
4.85948
4.85959
4.85961
4.85952
4.85936
4.8594
4.85942
4.85942
4.85809
4.85813
4.85813
4.85809
4.86957
4.86997
4.87003
4.86975
4.91186
4.91427
4.91425
4.91177
5.10931
5.11171
5.11178
5.10897
5.48141
5.48193
5.48196
5.48162
5.14313
5.14289
5.1428
5.14287
4.92734
4.92822
4.9282
4.92724
4.87564
4.87587
4.87584
4.87558
4.85963
4.85971
4.85971
4.85966
4.85958
4.85961
4.85963
4.85963
4.85863
4.85864
4.85864
4.85863
4.86302
4.86324
4.86328
4.86314
4.89062
4.89179
4.89176
4.89055
5.04769
5.05122
5.05153
5.0481
5.16797
5.16853
5.16854
5.16817
10.1126
9.36667
9.05458
8.94204
8.87756
8.83211
8.80183
8.7848
8.77535
8.76973
103.673
49.1174
35.7472
29.9531
24.5564
19.9491
16.3633
13.6896
11.7818
10.4197
160.947
70.8582
51.0925
43.7424
37.1915
31.4259
26.5936
22.7132
19.6696
17.2951
206.419
82.5906
55.981
46.7277
39.362
32.7669
27.2292
22.8359
19.4446
16.8569
242.054
88.9484
58.8251
47.9648
40.077
32.7362
26.6769
21.9547
18.3683
15.7231
278.028
94.6879
60.9732
48.3016
39.8446
31.7864
25.3521
20.4648
16.8822
14.3313
307.088
98.1565
61.6895
47.78
39.0445
30.5185
23.9426
19.0738
15.5945
13.2107
315.205
93.7509
56.6273
42.2267
33.916
25.7857
19.9234
15.7966
13.0459
11.2293
224.474
56.1333
30.5428
21.1156
16.2828
12.2237
9.95497
8.613
7.80411
7.28002
9.56914
9.54448
9.38907
9.36293
9.31635
9.29022
9.26947
9.25843
9.25097
9.24455
9.36708
9.05694
8.90471
8.81911
8.76517
8.72954
8.70641
8.69266
8.68525
8.68057
53.1031
28.6713
22.5571
19.4499
16.669
14.1982
12.1635
10.601
9.46129
8.66914
89.9972
46.2745
35.801
31.0214
27.1819
23.5098
20.2914
17.6326
15.5046
13.8857
122.262
58.6108
42.8645
35.6343
30.5508
25.7672
21.6968
18.4238
15.8739
13.9874
152.558
68.7656
47.8556
38.52
32.3846
26.6785
21.9777
18.2986
15.4862
13.4762
186.432
78.8731
52.1439
40.475
33.2575
26.6693
21.454
17.496
14.5917
12.5917
217.2
86.4722
54.712
41.249
33.3524
26.1768
20.6976
16.6608
13.7709
11.8536
233.194
86.748
51.9167
37.4831
29.5771
22.5766
17.5737
14.0832
11.7634
10.2832
167.407
54.7545
29.0615
19.3789
14.6943
11.2262
9.27441
8.12947
7.4336
7.00281
9.81846
9.5019
9.33074
9.26746
9.21257
9.17929
9.15514
9.14039
9.13
9.12099
8.73769
8.69627
8.66354
8.63631
8.615
8.59954
8.58923
8.58305
8.57962
8.57716
19.9488
16.5771
14.5033
12.6849
11.1152
9.81215
8.79787
8.04899
7.51026
7.13765
35.921
28.7129
24.9259
21.69
18.9145
16.5063
14.5113
12.907
11.6318
10.67
51.0373
37.9362
31.5409
26.3506
22.2597
18.8404
16.0973
13.9482
12.2888
11.075
66.1274
45.6916
36.6294
29.5935
24.3792
20.1256
16.8137
14.2909
12.3795
11.0264
83.2242
53.3425
41.1431
32.0837
25.7349
20.6613
16.842
14.0203
11.9744
10.581
99.122
59.1888
44.149
33.4571
26.3355
20.7048
16.5974
13.6542
11.5706
10.1995
108.417
59.7563
42.5981
30.9993
23.7635
18.2172
14.4242
11.8567
10.1703
9.09765
75.9421
36.648
23.8675
16.2722
12.2252
9.68216
8.28959
7.47143
6.96268
6.64333
9.5714
9.37693
9.24297
9.16312
9.10549
9.06945
9.04437
9.02727
9.01462
9.00373
8.50929
8.49922
8.48816
8.47823
8.47069
8.46556
8.46235
8.46072
8.46032
8.45986
10.9417
10.1338
9.28464
8.44016
7.73296
7.19024
6.79144
6.50343
6.29489
6.14982
19.8681
18.0291
16.1772
14.3042
12.6885
11.3603
10.299
9.46326
8.80408
8.30955
28.4779
24.6333
21.1904
17.9887
15.4008
13.3288
11.7053
10.4525
9.49405
8.79891
37.2429
30.6664
25.4308
20.8633
17.3674
14.6401
12.5635
11.0097
9.84207
9.01785
47.4693
36.9701
29.5236
23.3593
18.8644
15.4397
12.9153
11.0864
9.77457
8.88382
57.0677
42.0752
32.5518
25.0124
19.759
15.831
13.0266
11.0612
9.68095
8.7695
62.7973
43.2632
32.0873
23.7113
18.2346
14.3059
11.6795
9.94093
8.80279
8.06983
42.7443
26.2028
17.9716
12.791
10.0232
8.39117
7.47304
6.91838
6.55963
6.32903
9.32675
9.18819
9.08103
9.01134
8.96311
8.93144
8.90869
8.89235
8.88002
8.86959
8.33334
8.33185
8.33034
8.32916
8.32846
8.32816
8.32819
8.32865
8.32976
8.33079
6.99889
6.75876
6.50577
6.26735
6.06902
5.91262
5.79227
5.70064
5.6313
5.58334
11.6112
10.9254
10.1516
9.37395
8.68719
8.11496
7.6558
7.29426
7.00583
6.78792
16.44
14.9574
13.3756
11.8596
10.5722
9.52188
8.69375
8.05561
7.56738
7.21462
21.5362
18.9344
16.3579
14.0116
12.1131
10.6148
9.47275
8.62392
7.98381
7.52939
27.7673
23.4434
19.508
16.0866
13.4435
11.4219
9.93336
8.86355
8.09587
7.57198
33.7349
27.3818
22.0647
17.6414
14.3789
11.9548
10.2304
9.03389
8.18818
7.62157
37.3932
28.7894
22.2612
17.1535
13.6357
11.1583
9.50861
8.4215
7.70021
7.22522
24.5276
17.3337
12.8087
9.95679
8.36345
7.40483
6.82999
6.46704
6.22054
6.05879
9.05258
8.96948
8.89786
8.84676
8.80932
8.7825
8.76228
8.74709
8.73535
8.72557
8.18332
8.18346
8.18383
8.18441
8.18514
8.18592
8.18673
8.18771
8.1892
8.19096
5.60805
5.56485
5.51348
5.4613
5.41411
5.37365
5.34016
5.31321
5.29265
5.27969
7.50462
7.3136
7.06517
6.80581
6.5706
6.37245
6.21241
6.08462
5.97803
5.89509
9.97771
9.47192
8.85065
8.22743
7.67871
7.22442
6.86248
6.58015
6.36026
6.20057
12.736
11.7741
10.6613
9.59951
8.70696
7.99567
7.45062
7.04318
6.72825
6.50037
16.3271
14.6093
12.753
11.0606
9.69822
8.64818
7.87073
7.30849
6.89771
6.61346
19.8644
17.2458
14.5828
12.2674
10.4871
9.16056
8.21194
7.55019
7.06999
6.74011
22.1179
18.4194
14.997
12.2236
10.2379
8.84193
7.90154
7.27197
6.84167
6.55068
14.3936
11.5378
9.42754
8.05175
7.21579
6.67995
6.33282
6.10286
5.93852
5.82923
8.79748
8.75136
8.70714
8.67166
8.64331
8.62128
8.60387
8.59028
8.57952
8.5707
8.03254
8.03288
8.03344
8.03419
8.03504
8.03589
8.0367
8.03764
8.03905
8.04085
5.19673
5.18857
5.1789
5.16824
5.1576
5.14758
5.13867
5.13128
5.12623
5.12435
5.83878
5.79285
5.73045
5.66333
5.60097
5.54746
5.50348
5.46707
5.43326
5.4051
6.95007
6.79204
6.58424
6.36812
6.17129
6.00325
5.86462
5.75218
5.66114
5.59432
8.29787
7.96315
7.54429
7.13196
6.77523
6.48491
6.25693
6.08158
5.93878
5.83195
10.2206
9.55355
8.76923
8.03147
7.41926
6.93866
6.57426
6.30304
6.09732
5.95224
12.1903
11.1257
9.92476
8.8491
7.99542
7.34967
6.87718
6.53877
6.28129
6.09843
13.5193
11.9501
10.3394
8.99889
8.00446
7.29192
6.79591
6.45177
6.20679
6.03691
9.42596
8.386
7.5071
6.88465
6.46186
6.16834
5.96315
5.82088
5.71387
5.64235
8.56194
8.5374
8.51066
8.48637
8.46531
8.44779
8.43333
8.42164
8.41216
8.4045
7.87432
7.87457
7.87499
7.87557
7.87621
7.87684
7.87743
7.87813
7.87929
7.88087
5.06297
5.0612
5.05923
5.05688
5.05426
5.0515
5.04891
5.04686
5.04612
5.04704
5.23565
5.2272
5.21546
5.20232
5.18993
5.17943
5.17111
5.16399
5.15505
5.14632
5.69444
5.65148
5.59145
5.52543
5.46182
5.40438
5.3542
5.31117
5.2747
5.24784
6.28734
6.18738
6.05368
5.91584
5.79088
5.68445
5.59693
5.52653
5.46477
5.41651
7.22114
6.9884
6.69966
6.41666
6.17131
5.97028
5.81048
5.68579
5.58665
5.51571
8.22901
7.83652
7.36118
6.91965
6.55423
6.26681
6.04676
5.88219
5.74903
5.65094
8.98495
8.36873
7.69596
7.11382
6.66024
6.32041
6.07147
5.89053
5.75611
5.66121
7.18596
6.8234
6.46908
6.18821
5.97535
5.81565
5.69606
5.60967
5.54131
5.49577
8.3371
8.32374
8.30739
8.29093
8.27563
8.26217
8.25061
8.24095
8.23292
8.22653
7.70632
7.7065
7.70677
7.70715
7.70758
7.70798
7.70832
7.70876
7.70964
7.71098
5.0133
5.01254
5.01181
5.01097
5.00998
5.00887
5.00782
5.00713
5.00737
5.00862
5.02004
5.01897
5.01784
5.01666
5.01587
5.01581
5.01649
5.01715
5.01564
5.01311
5.20585
5.19453
5.17769
5.15774
5.13716
5.11733
5.0989
5.08216
5.06741
5.05663
5.46131
5.43457
5.39595
5.35329
5.31202
5.27476
5.24251
5.21532
5.18911
5.16747
5.89255
5.81793
5.72098
5.61959
5.52587
5.44426
5.37556
5.31911
5.27217
5.23847
6.38042
6.25257
6.08396
5.91745
5.77046
5.64773
5.54827
5.47022
5.40265
5.35092
6.80407
6.58105
6.32434
6.08754
5.89032
5.73345
5.61195
5.51946
5.44806
5.39729
6.17805
6.04676
5.90088
5.77166
5.664
5.5773
5.50825
5.45655
5.41345
5.38509