/*--------------------------------*- C++ -*----------------------------------*\
| =========                 |                                                 |
| \\      /  F ield         | foam-extend: Open Source CFD                    |
|  \\    /   O peration     | Version:     4.0                                |
|   \\  /    A nd           | Web:         http://www.foam-extend.org         |
|    \\/     M anipulation  |                                                 |
\*---------------------------------------------------------------------------*/
FoamFile
{
    version     2.0;
    format      ascii;
    class       volScalarField;
    location    "1950";
    object      MaU;
}
// * * * * * * * * * * * * * * * * * * * * * * * * * * * * * * * * * * * * * //

dimensions      [0 0 0 0 0 0 0];

internalField   nonuniform List<scalar> 
34480
(
0.623794
0.624791
0.625326
0.625439
0.625133
0.624334
0.622901
0.620155
0.614059
0.608263
0.627218
0.628045
0.628505
0.628537
0.627978
0.626683
0.624678
0.621713
0.614694
0.609138
0.629408
0.630166
0.630539
0.630446
0.62971
0.628361
0.626585
0.62429
0.617253
0.612133
0.629405
0.630184
0.630626
0.630664
0.630152
0.629207
0.627932
0.626351
0.619702
0.615056
0.629868
0.630752
0.631333
0.631591
0.631402
0.630935
0.630207
0.629397
0.623533
0.619372
0.629465
0.630408
0.631074
0.631462
0.63151
0.631449
0.631256
0.631268
0.626587
0.623245
0.629671
0.630756
0.63153
0.632058
0.632317
0.632597
0.632899
0.633729
0.630495
0.627955
0.629083
0.630209
0.630939
0.631353
0.631497
0.631731
0.632186
0.633555
0.631837
0.630484
0.628835
0.630117
0.630962
0.631511
0.631831
0.632225
0.632928
0.634794
0.634346
0.6329
0.625033
0.626058
0.626097
0.62522
0.6236
0.621613
0.619713
0.619167
0.618367
0.619153
0.613897
0.615358
0.615931
0.615683
0.614539
0.612223
0.608109
0.600839
0.590128
0.576272
0.618514
0.619823
0.620348
0.620086
0.618843
0.616248
0.611705
0.603857
0.591198
0.575038
0.621588
0.622811
0.623284
0.622988
0.621672
0.61903
0.614558
0.606872
0.593367
0.576029
0.622398
0.623633
0.624171
0.62401
0.622901
0.620603
0.616531
0.609273
0.595378
0.577619
0.623543
0.624853
0.625508
0.625553
0.624744
0.6229
0.619348
0.612735
0.598935
0.581331
0.62368
0.625034
0.62577
0.62595
0.625378
0.623948
0.620943
0.615116
0.601867
0.585053
0.624334
0.625796
0.626627
0.626952
0.626597
0.625539
0.623071
0.618098
0.605776
0.590036
0.624068
0.625559
0.626358
0.626601
0.626191
0.625196
0.623019
0.618764
0.607629
0.593579
0.624067
0.625665
0.626556
0.626913
0.626682
0.62592
0.624134
0.620626
0.61075
0.5975
0.620457
0.621871
0.622205
0.621543
0.61994
0.617546
0.614087
0.609279
0.599878
0.58975
0.606269
0.607836
0.6084
0.60808
0.606838
0.604519
0.600824
0.595256
0.587183
0.576994
0.611172
0.612706
0.613263
0.612886
0.611454
0.608704
0.604129
0.59687
0.58548
0.570322
0.614518
0.616051
0.616604
0.616223
0.614727
0.611797
0.606813
0.598649
0.584631
0.564809
0.615822
0.617417
0.618046
0.617779
0.616412
0.613622
0.608633
0.600042
0.583872
0.559945
0.617444
0.619128
0.619867
0.619781
0.618644
0.616162
0.611411
0.602801
0.585132
0.557916
0.618
0.619741
0.620566
0.620612
0.619677
0.617517
0.61311
0.604779
0.586223
0.556639
0.619017
0.620852
0.621767
0.621959
0.621226
0.619391
0.615393
0.607537
0.588669
0.557419
0.619051
0.620911
0.621811
0.621948
0.621188
0.61944
0.615713
0.608385
0.589731
0.557639
0.619308
0.621233
0.622203
0.622429
0.6218
0.620245
0.616879
0.610216
0.592205
0.558712
0.61594
0.617694
0.618252
0.61772
0.616081
0.613337
0.608824
0.60139
0.583935
0.550857
0.60071
0.602084
0.602556
0.602248
0.601156
0.599224
0.596354
0.59245
0.58749
0.58196
0.605347
0.606812
0.607321
0.606912
0.605512
0.602975
0.599051
0.593397
0.585571
0.576645
0.608542
0.610126
0.610671
0.610231
0.608679
0.605789
0.601136
0.594093
0.583499
0.570562
0.610043
0.611766
0.612399
0.612024
0.610478
0.607489
0.60244
0.594394
0.581142
0.563928
0.611932
0.613783
0.61452
0.614279
0.612856
0.609969
0.604811
0.596176
0.580671
0.559461
0.61278
0.614713
0.615537
0.615404
0.614112
0.611392
0.60629
0.597396
0.580096
0.555408
0.614069
0.616099
0.617006
0.617002
0.615865
0.613366
0.608447
0.599553
0.580974
0.55334
0.61436
0.616416
0.617319
0.617278
0.616121
0.613673
0.608888
0.600164
0.580893
0.551001
0.61484
0.616931
0.617887
0.617921
0.61687
0.614558
0.609961
0.60157
0.582273
0.549844
0.611719
0.613657
0.614324
0.613817
0.612062
0.608936
0.603572
0.594576
0.575471
0.541842
0.596848
0.59793
0.598291
0.598054
0.597239
0.595856
0.593919
0.591499
0.588745
0.586027
0.600929
0.602169
0.602601
0.602244
0.601069
0.599024
0.596039
0.592092
0.587244
0.582457
0.60367
0.605143
0.605648
0.605229
0.603813
0.601276
0.597406
0.591988
0.584742
0.577121
0.605101
0.606795
0.607407
0.607003
0.605475
0.602633
0.598091
0.591392
0.581608
0.570558
0.607031
0.608911
0.609629
0.60931
0.607792
0.604848
0.599898
0.592236
0.580059
0.565422
0.608006
0.610014
0.610826
0.610583
0.60911
0.606161
0.600983
0.592653
0.578331
0.560211
0.609444
0.611571
0.612465
0.612326
0.610946
0.608085
0.602846
0.594114
0.57801
0.556629
0.609911
0.612079
0.612982
0.612817
0.61141
0.60854
0.603261
0.594343
0.576966
0.552741
0.610563
0.612757
0.6137
0.613594
0.612262
0.60948
0.604255
0.595303
0.577295
0.549996
0.60767
0.609723
0.61047
0.609985
0.608166
0.604821
0.599072
0.589596
0.571363
0.541984
0.594206
0.59501
0.595267
0.595105
0.594552
0.593641
0.592421
0.590986
0.58947
0.588019
0.597689
0.598647
0.598984
0.598707
0.59781
0.596297
0.59419
0.591587
0.588692
0.586113
0.59986
0.601112
0.601546
0.601188
0.600003
0.597948
0.594966
0.591075
0.586387
0.581961
0.601053
0.602588
0.603141
0.602759
0.601375
0.598888
0.595115
0.589932
0.583151
0.576312
0.602847
0.604623
0.605289
0.604944
0.603472
0.600722
0.59635
0.590052
0.581129
0.571544
0.603809
0.605763
0.60653
0.606227
0.604714
0.601805
0.59699
0.589782
0.578778
0.566308
0.605281
0.607389
0.60824
0.608011
0.606521
0.603566
0.598479
0.590587
0.5777
0.562322
0.605837
0.60801
0.608886
0.608633
0.607095
0.604058
0.598769
0.590407
0.576013
0.557893
0.606607
0.608811
0.609719
0.609511
0.608013
0.605004
0.599647
0.590987
0.575615
0.554501
0.603907
0.605985
0.606767
0.606298
0.604467
0.601064
0.595319
0.586163
0.570289
0.546962
0.59239
0.592978
0.593154
0.593052
0.592701
0.592139
0.591408
0.590587
0.589756
0.588926
0.595356
0.596045
0.596293
0.596095
0.595459
0.59441
0.593005
0.591359
0.589658
0.58826
0.596958
0.597949
0.598298
0.598018
0.597095
0.595534
0.593363
0.590692
0.587743
0.58518
0.597839
0.59914
0.599613
0.599284
0.598118
0.596081
0.593128
0.589315
0.584779
0.580586
0.599383
0.600963
0.601552
0.601223
0.599899
0.597503
0.593874
0.588967
0.582689
0.576522
0.600227
0.602026
0.602722
0.602403
0.600968
0.598299
0.594104
0.588208
0.580124
0.571755
0.601642
0.603629
0.604414
0.604138
0.602661
0.599832
0.595217
0.588494
0.57867
0.567956
0.602202
0.604282
0.605104
0.604803
0.603249
0.600269
0.59533
0.587965
0.576649
0.563607
0.603037
0.605165
0.606018
0.605746
0.604199
0.601185
0.596081
0.58826
0.575856
0.560268
0.600489
0.602507
0.603286
0.602836
0.601059
0.597758
0.592336
0.584035
0.570989
0.553472
0.591112
0.591548
0.591667
0.591608
0.591396
0.591063
0.590639
0.590176
0.589711
0.58918
0.59368
0.59415
0.594323
0.594191
0.593764
0.593073
0.592174
0.591161
0.590168
0.589394
0.594784
0.595522
0.595787
0.595582
0.594903
0.593779
0.592269
0.590494
0.588662
0.587166
0.595355
0.596396
0.59678
0.596515
0.59559
0.594011
0.591807
0.589102
0.586126
0.58356
0.596596
0.597927
0.598424
0.598136
0.597017
0.595044
0.59218
0.588508
0.584201
0.580265
0.597258
0.598831
0.599439
0.599136
0.597859
0.59555
0.592081
0.587465
0.581701
0.576158
0.598551
0.600341
0.601039
0.600754
0.599383
0.596835
0.592871
0.587404
0.580163
0.572834
0.599043
0.60095
0.601697
0.60138
0.599906
0.597154
0.592792
0.586621
0.578051
0.568889
0.599903
0.60188
0.602658
0.602359
0.600859
0.598018
0.593421
0.586726
0.577117
0.565978
0.597465
0.599348
0.600089
0.599669
0.598005
0.594943
0.590067
0.582914
0.572643
0.560011
0.590179
0.590517
0.590599
0.590567
0.590443
0.590251
0.59001
0.589751
0.589484
0.589106
0.592465
0.592773
0.592889
0.592805
0.592531
0.592093
0.591535
0.590925
0.590346
0.58991
0.593162
0.593686
0.593878
0.593734
0.593259
0.592484
0.591471
0.590323
0.589196
0.588318
0.593473
0.594266
0.594564
0.594364
0.593665
0.592495
0.590913
0.589051
0.587122
0.58555
0.594405
0.595474
0.595876
0.59564
0.594741
0.593193
0.591024
0.588367
0.585461
0.582961
0.594861
0.596175
0.596684
0.596417
0.59534
0.59344
0.590693
0.587209
0.583182
0.579546
0.596002
0.597546
0.598145
0.597877
0.596672
0.594493
0.591239
0.586962
0.581753
0.576809
0.596368
0.598045
0.5987
0.598396
0.597069
0.594653
0.590978
0.586019
0.57971
0.573393
0.597229
0.598996
0.599684
0.599386
0.598008
0.595465
0.591516
0.586032
0.578818
0.571056
0.594861
0.59655
0.597226
0.596845
0.595345
0.592621
0.58842
0.582517
0.574701
0.565873
0.589471
0.589748
0.589805
0.589789
0.589719
0.58961
0.589474
0.589329
0.58917
0.588873
0.591567
0.591763
0.59184
0.591789
0.591619
0.591349
0.591011
0.590647
0.590309
0.590057
0.591945
0.592302
0.592435
0.592339
0.592019
0.591504
0.590844
0.590118
0.58943
0.588911
0.592069
0.592648
0.59287
0.592726
0.59222
0.591387
0.590288
0.589036
0.587799
0.586833
0.592715
0.593537
0.593849
0.593665
0.592976
0.59181
0.590225
0.588356
0.586423
0.584839
0.592972
0.594024
0.594433
0.594212
0.593345
0.591847
0.589753
0.587203
0.584437
0.58207
0.593955
0.595235
0.595731
0.595496
0.594488
0.592705
0.590138
0.586903
0.583229
0.57993
0.594157
0.595575
0.596128
0.595854
0.594715
0.592688
0.589715
0.585874
0.581335
0.57705
0.595011
0.596534
0.597122
0.596847
0.595641
0.593465
0.59021
0.585886
0.580609
0.575312
0.592683
0.594138
0.594732
0.594398
0.593096
0.590767
0.587286
0.582597
0.576817
0.570808
0.588916
0.589154
0.589195
0.589189
0.589149
0.589088
0.589012
0.58893
0.58883
0.588579
0.590888
0.591012
0.591063
0.591033
0.59093
0.590767
0.590565
0.59035
0.590151
0.590001
0.591016
0.591251
0.591339
0.591277
0.591069
0.590737
0.590318
0.589867
0.589452
0.589145
0.591032
0.59144
0.5916
0.591501
0.591149
0.590574
0.589831
0.589008
0.58822
0.587625
0.591429
0.592038
0.59227
0.592134
0.591625
0.590779
0.589657
0.588375
0.587106
0.586106
0.591513
0.592323
0.59264
0.592466
0.591796
0.59066
0.589117
0.587302
0.585431
0.5839
0.592357
0.593377
0.593773
0.59358
0.592772
0.591371
0.589416
0.587043
0.584496
0.582316
0.592371
0.593522
0.593972
0.593739
0.592803
0.591171
0.588853
0.585973
0.582776
0.579912
0.593228
0.594492
0.594978
0.59474
0.593729
0.591944
0.589361
0.586066
0.582293
0.57874
0.590913
0.592117
0.592618
0.592337
0.591248
0.589332
0.586552
0.582955
0.578788
0.574791
0.588469
0.588681
0.588712
0.588711
0.588688
0.588654
0.588611
0.588564
0.588498
0.588276
0.590367
0.590446
0.59048
0.590463
0.590402
0.590305
0.590186
0.590058
0.589938
0.589845
0.590289
0.590439
0.590495
0.590456
0.590324
0.590115
0.589856
0.589581
0.589333
0.589152
0.590273
0.590552
0.590664
0.590599
0.590361
0.589977
0.589487
0.588954
0.588456
0.588088
0.590461
0.590894
0.591061
0.590964
0.590602
0.590008
0.589236
0.588376
0.587554
0.586925
0.590409
0.591009
0.591246
0.591115
0.590617
0.589785
0.588682
0.587423
0.586174
0.585192
0.591141
0.591926
0.592232
0.59208
0.591458
0.590398
0.588957
0.587263
0.585526
0.584099
0.590953
0.591852
0.592205
0.592016
0.591277
0.590012
0.588266
0.586173
0.583964
0.582077
0.59184
0.592854
0.59324
0.593045
0.592233
0.590824
0.588846
0.586412
0.583772
0.581422
0.589516
0.590473
0.59088
0.590651
0.589775
0.588257
0.586112
0.583442
0.580508
0.577906
0.588103
0.588296
0.58832
0.588321
0.588308
0.588289
0.588265
0.588237
0.588192
0.587991
0.589967
0.590019
0.590043
0.590033
0.589997
0.58994
0.589869
0.589793
0.589718
0.589655
0.589701
0.589793
0.589827
0.589802
0.589721
0.589593
0.589436
0.589272
0.589126
0.589021
0.589723
0.589909
0.589986
0.589945
0.58979
0.589538
0.589222
0.588882
0.588569
0.588341
0.589734
0.590032
0.590148
0.590081
0.589831
0.589426
0.588909
0.588346
0.58782
0.587429
0.589586
0.590015
0.590186
0.590092
0.589735
0.589146
0.588379
0.587525
0.586705
0.586079
0.59024
0.590824
0.591052
0.590938
0.590477
0.589703
0.588673
0.587495
0.586331
0.585403
0.589841
0.590516
0.590784
0.590636
0.590075
0.58913
0.587857
0.586379
0.584882
0.583657
0.590801
0.591585
0.591883
0.59173
0.591103
0.590033
0.588568
0.586824
0.585013
0.583479
0.588446
0.589173
0.589493
0.589313
0.588634
0.587474
0.585876
0.583954
0.581935
0.580278
0.587801
0.587977
0.587995
0.587997
0.58799
0.587979
0.587965
0.587949
0.587916
0.587733
0.589668
0.589705
0.589722
0.589718
0.589697
0.589663
0.58962
0.589572
0.589522
0.589476
0.589206
0.589259
0.589278
0.589263
0.589213
0.589137
0.589044
0.588949
0.588866
0.588808
0.58933
0.589453
0.589505
0.58948
0.589381
0.589221
0.58902
0.588806
0.58861
0.588467
0.589189
0.589388
0.589465
0.58942
0.589253
0.588985
0.588648
0.588286
0.587956
0.587715
0.588984
0.589281
0.589401
0.589335
0.589088
0.588683
0.588165
0.587599
0.587068
0.586673
0.589591
0.59001
0.590174
0.590092
0.589763
0.589216
0.588503
0.587704
0.586938
0.58634
0.588971
0.589458
0.589653
0.589543
0.589133
0.588451
0.587552
0.586537
0.585542
0.58476
0.590059
0.590647
0.590867
0.590754
0.590288
0.589504
0.588456
0.58724
0.586024
0.585032
0.587644
0.588173
0.588414
0.588279
0.587771
0.586918
0.585765
0.584423
0.583065
0.582035
0.587541
0.587701
0.587714
0.587717
0.587712
0.587707
0.587699
0.587689
0.587665
0.5875
0.589465
0.589493
0.589508
0.589506
0.589493
0.589473
0.589446
0.589414
0.589378
0.589338
0.588771
0.5888
0.588809
0.588798
0.588768
0.588723
0.588671
0.588618
0.588574
0.588545
0.589059
0.589139
0.589174
0.58916
0.589099
0.588999
0.588873
0.588739
0.588617
0.588526
0.588786
0.588913
0.588963
0.588933
0.588825
0.588652
0.588437
0.588211
0.588007
0.587863
0.588557
0.588757
0.588838
0.588794
0.588628
0.588358
0.588017
0.58765
0.587311
0.587065
0.589136
0.589427
0.58954
0.589484
0.589257
0.588883
0.588404
0.587877
0.587383
0.587001
0.588284
0.588622
0.588759
0.58868
0.58839
0.587915
0.587299
0.586621
0.585972
0.585485
0.58957
0.589997
0.590154
0.590073
0.58974
0.589187
0.588461
0.587638
0.586839
0.586202
0.587043
0.58741
0.587586
0.587488
0.587123
0.586517
0.585712
0.584804
0.583909
0.58329
0.587285
0.587428
0.587436
0.587439
0.587437
0.587434
0.58743
0.587424
0.587407
0.587261
0.589364
0.589389
0.589401
0.589401
0.589394
0.58938
0.589362
0.589339
0.589308
0.589268
0.588375
0.588387
0.58839
0.588381
0.588364
0.588338
0.58831
0.588283
0.588263
0.588253
0.588884
0.588936
0.588959
0.588952
0.588914
0.588853
0.588776
0.588694
0.588619
0.58856
0.588498
0.588577
0.588608
0.588589
0.588521
0.588413
0.588279
0.58814
0.588017
0.587932
0.588276
0.588407
0.588461
0.588433
0.588325
0.58815
0.58793
0.587697
0.587483
0.587331
0.588831
0.589024
0.589099
0.58906
0.588909
0.588663
0.588351
0.588013
0.587704
0.587464
0.587736
0.587961
0.588055
0.588
0.587803
0.587482
0.587071
0.58663
0.586213
0.585919
0.589298
0.589599
0.589708
0.589652
0.589423
0.589047
0.58856
0.588018
0.587506
0.587097
0.586557
0.586799
0.586924
0.586855
0.586603
0.586187
0.585643
0.585048
0.584469
0.584112
0.586935
0.587056
0.587061
0.587063
0.587062
0.587061
0.58706
0.587057
0.587047
0.586924
0.58939
0.589415
0.589426
0.589427
0.589422
0.589412
0.589399
0.58938
0.589352
0.589307
0.588016
0.588019
0.588018
0.588012
0.588002
0.587988
0.587973
0.58796
0.587953
0.587955
0.588789
0.588821
0.588835
0.58883
0.588807
0.588771
0.588725
0.588677
0.588633
0.588595
0.588318
0.588367
0.588387
0.588375
0.588334
0.588268
0.588186
0.588102
0.588027
0.587978
0.588129
0.588213
0.588249
0.588232
0.588163
0.588053
0.587915
0.587769
0.587634
0.58754
0.588645
0.588766
0.588813
0.588786
0.588688
0.588531
0.588335
0.588126
0.587941
0.587795
0.587322
0.587469
0.587533
0.587498
0.587368
0.587157
0.586889
0.586606
0.586338
0.586166
0.589238
0.589443
0.589516
0.589478
0.589326
0.589079
0.588763
0.588417
0.588099
0.587833
0.58605
0.586202
0.58629
0.586243
0.586075
0.585799
0.585441
0.585061
0.58469
0.584498
0.586267
0.586363
0.586365
0.586366
0.586366
0.586366
0.586367
0.586368
0.586365
0.58627
0.589612
0.589638
0.589646
0.589647
0.589643
0.589636
0.589626
0.58961
0.589585
0.589532
0.58774
0.587741
0.587744
0.587742
0.587737
0.587728
0.587719
0.58771
0.587703
0.587708
0.588756
0.588772
0.588777
0.588772
0.588758
0.588737
0.588713
0.588687
0.588666
0.588646
0.588246
0.588276
0.58829
0.588285
0.58826
0.588219
0.58817
0.588118
0.588072
0.588041
0.588108
0.588163
0.588187
0.588177
0.588134
0.588066
0.58798
0.587889
0.587804
0.587743
0.588564
0.588634
0.588661
0.588642
0.58858
0.588482
0.588362
0.588237
0.588132
0.588051
0.58712
0.587219
0.587265
0.587244
0.587161
0.587025
0.586852
0.586668
0.586488
0.586383
0.589442
0.589575
0.589621
0.589595
0.589496
0.589337
0.589139
0.588925
0.588736
0.588562
0.585292
0.585386
0.585448
0.585418
0.585307
0.585128
0.584896
0.584657
0.584414
0.584321
0.584972
0.585038
0.585041
0.585044
0.585045
0.585045
0.585045
0.585044
0.585044
0.584976
0.590169
0.590186
0.590183
0.590178
0.590173
0.590169
0.590166
0.590163
0.590152
0.590102
0.587662
0.587676
0.587688
0.587693
0.587693
0.587686
0.587674
0.587659
0.587641
0.587631
0.588756
0.588759
0.588756
0.58875
0.588741
0.588729
0.588717
0.588707
0.588703
0.5887
0.588263
0.588285
0.588296
0.588293
0.588278
0.588253
0.588222
0.588188
0.588157
0.588134
0.588184
0.588221
0.588237
0.588231
0.588204
0.588161
0.588106
0.588048
0.587993
0.587951
0.588566
0.588603
0.588617
0.588603
0.588563
0.588501
0.588426
0.588352
0.588295
0.588257
0.587285
0.587362
0.587398
0.587387
0.587333
0.587243
0.587128
0.587002
0.586869
0.586782
0.590034
0.590109
0.590135
0.590114
0.590048
0.589944
0.589819
0.58969
0.58959
0.589493
0.584009
0.584073
0.584117
0.584098
0.584025
0.583906
0.583753
0.583597
0.583427
0.58338
0.58315
0.583191
0.583203
0.58321
0.583213
0.58321
0.583203
0.58319
0.583174
0.583119
0.591094
0.591065
0.591036
0.591017
0.591008
0.591009
0.59102
0.591043
0.591076
0.591087
0.587846
0.587882
0.587906
0.587918
0.58792
0.587913
0.587898
0.587874
0.587838
0.587794
0.588747
0.588739
0.588731
0.588725
0.588717
0.58871
0.588704
0.588702
0.588709
0.588722
0.588319
0.588337
0.588345
0.588344
0.588334
0.588316
0.588293
0.588268
0.588244
0.588224
0.588281
0.588308
0.58832
0.588315
0.588296
0.588265
0.588226
0.588184
0.588145
0.588113
0.588587
0.58861
0.588618
0.588607
0.588577
0.588532
0.588479
0.588428
0.588392
0.588379
0.587805
0.587876
0.587907
0.587901
0.587861
0.587795
0.587709
0.587613
0.587504
0.587406
0.590992
0.591021
0.591032
0.591013
0.590962
0.590886
0.590797
0.590713
0.590667
0.590665
0.582323
0.582381
0.582414
0.582399
0.582344
0.582255
0.582143
0.582027
0.581899
0.581858
0.439198
0.418445
0.42535
0.466308
0.391422
0.368183
0.379223
0.436458
0.348234
0.321086
0.338423
0.417346
0.310165
0.280767
0.305101
0.406428
0.278687
0.248621
0.280189
0.404017
0.251585
0.222068
0.261903
0.401207
0.229868
0.202224
0.250849
0.398574
0.209483
0.185367
0.242829
0.396481
0.191541
0.173519
0.239247
0.398115
0.172079
0.16221
0.234936
0.393619
0.499277
0.489079
0.489404
0.499118
0.468786
0.456171
0.457315
0.469993
0.43791
0.421189
0.423399
0.440972
0.408891
0.387924
0.391518
0.414238
0.384231
0.358766
0.364023
0.392089
0.362186
0.331836
0.337887
0.371216
0.344305
0.308968
0.314853
0.353279
0.327863
0.287728
0.293165
0.336582
0.31432
0.270151
0.275136
0.322946
0.298959
0.252366
0.254964
0.305305
0.56668
0.564464
0.563934
0.565067
0.54892
0.545223
0.544528
0.546829
0.528933
0.523038
0.52223
0.526565
0.506696
0.498428
0.497628
0.504462
0.485699
0.474977
0.474349
0.484084
0.464624
0.451317
0.450908
0.463653
0.445687
0.429713
0.42948
0.445172
0.427052
0.408532
0.408444
0.426902
0.410791
0.390591
0.390549
0.410931
0.391876
0.372164
0.371399
0.391308
0.579146
0.578062
0.577713
0.578064
0.569515
0.568103
0.567613
0.567977
0.557655
0.55517
0.554453
0.555353
0.542883
0.539092
0.538187
0.539912
0.528448
0.523208
0.522189
0.525044
0.512884
0.506069
0.504994
0.509241
0.498283
0.489821
0.488729
0.494569
0.48297
0.472937
0.471886
0.479396
0.468747
0.45777
0.456766
0.465577
0.450906
0.440976
0.439713
0.448063
0.586014
0.585424
0.585224
0.585412
0.580186
0.579705
0.579476
0.579485
0.572706
0.571766
0.571343
0.571415
0.562603
0.560967
0.560315
0.560582
0.552646
0.550141
0.549268
0.549901
0.541352
0.537837
0.536769
0.537948
0.530621
0.526007
0.524789
0.526701
0.518839
0.513149
0.51185
0.514639
0.507668
0.501327
0.500024
0.503598
0.492917
0.487717
0.486287
0.489309
0.588593
0.588117
0.587972
0.588157
0.585147
0.584935
0.584826
0.584818
0.580061
0.579641
0.579424
0.579407
0.572839
0.572076
0.571699
0.571692
0.565785
0.564552
0.563984
0.56404
0.557467
0.55564
0.554867
0.555064
0.549639
0.547123
0.546157
0.546605
0.540743
0.537519
0.536413
0.537232
0.53232
0.528649
0.527505
0.528731
0.520409
0.517858
0.516636
0.517195
0.589718
0.589287
0.589164
0.589351
0.587836
0.587743
0.587692
0.587683
0.584298
0.584103
0.583996
0.583976
0.578929
0.578559
0.578357
0.57832
0.573726
0.573105
0.572776
0.572728
0.567375
0.566418
0.565933
0.565893
0.561534
0.560166
0.559514
0.559524
0.554736
0.552928
0.552134
0.552266
0.548577
0.546459
0.545606
0.545927
0.538903
0.537901
0.537001
0.536559
0.590049
0.589633
0.589519
0.589708
0.589178
0.58913
0.589104
0.589098
0.586716
0.586618
0.586563
0.586552
0.5827
0.582508
0.582399
0.582373
0.578801
0.578472
0.578286
0.578241
0.57384
0.57332
0.573031
0.572967
0.569403
0.568643
0.568235
0.568162
0.564125
0.563102
0.562583
0.562535
0.559717
0.558491
0.557906
0.557926
0.551674
0.551582
0.550984
0.550203
0.590004
0.589593
0.589483
0.589673
0.589793
0.589767
0.589752
0.589748
0.588074
0.588022
0.587993
0.587987
0.585077
0.584972
0.584912
0.584895
0.582155
0.581975
0.581869
0.581839
0.578263
0.577972
0.577803
0.577753
0.574898
0.574466
0.574218
0.57415
0.570753
0.570165
0.569841
0.569769
0.56761
0.566895
0.566516
0.566459
0.56079
0.561218
0.560853
0.559998
0.589777
0.589368
0.589258
0.58945
0.589989
0.589974
0.589964
0.589961
0.588773
0.588745
0.588728
0.588725
0.586557
0.586497
0.586462
0.586451
0.584373
0.58427
0.584209
0.58419
0.581328
0.58116
0.581059
0.581025
0.578824
0.578571
0.578421
0.578371
0.575542
0.575199
0.574999
0.57494
0.573337
0.572914
0.572676
0.572617
0.567459
0.568172
0.567964
0.567129
0.589478
0.589067
0.588958
0.58915
0.589959
0.589948
0.589942
0.589939
0.589065
0.589049
0.58904
0.589038
0.587458
0.587422
0.5874
0.587393
0.585827
0.585766
0.58573
0.585718
0.583455
0.583354
0.583293
0.583272
0.581649
0.581497
0.581405
0.581372
0.579023
0.578819
0.578696
0.578655
0.577555
0.577301
0.577153
0.577109
0.572409
0.573263
0.573154
0.572367
0.589161
0.588749
0.588639
0.588833
0.589816
0.589808
0.589803
0.5898
0.589106
0.589098
0.589093
0.589092
0.587983
0.58796
0.587947
0.587942
0.586755
0.586719
0.586697
0.58669
0.584918
0.584857
0.584819
0.584805
0.583683
0.583589
0.583532
0.583511
0.58154
0.581416
0.581341
0.581314
0.58068
0.580523
0.580432
0.580403
0.5761
0.577008
0.576958
0.576226
0.588855
0.58844
0.588331
0.588527
0.589633
0.589626
0.589621
0.589619
0.588996
0.588992
0.58899
0.58899
0.588272
0.588258
0.588248
0.588245
0.587325
0.587304
0.587291
0.587286
0.585909
0.585871
0.585848
0.585838
0.585137
0.585078
0.585042
0.585028
0.583329
0.583254
0.583207
0.583189
0.582992
0.582894
0.582837
0.58282
0.578846
0.579751
0.579734
0.57906
0.588571
0.588153
0.588045
0.588243
0.589455
0.589449
0.589444
0.589441
0.588796
0.588795
0.588795
0.588795
0.58842
0.588411
0.588404
0.588401
0.587653
0.587641
0.587634
0.587631
0.586567
0.586543
0.586528
0.586522
0.586167
0.58613
0.586107
0.586098
0.584562
0.584516
0.584487
0.584475
0.5847
0.584636
0.584601
0.584593
0.580869
0.581734
0.581735
0.581122
0.588304
0.587883
0.587777
0.587979
0.589316
0.589309
0.589303
0.5893
0.588543
0.588544
0.588545
0.588545
0.588494
0.588487
0.588482
0.58848
0.587827
0.58782
0.587816
0.587815
0.586998
0.586983
0.586974
0.58697
0.586889
0.586865
0.586851
0.586846
0.585368
0.58534
0.585322
0.585314
0.585963
0.58592
0.585899
0.585898
0.582332
0.583129
0.583138
0.58259
0.588022
0.5876
0.587499
0.587705
0.589242
0.589234
0.589228
0.589224
0.588258
0.58826
0.588262
0.588263
0.588537
0.588532
0.588528
0.588527
0.587912
0.587909
0.587907
0.587906
0.587289
0.587279
0.587272
0.58727
0.587393
0.58738
0.587372
0.587369
0.585852
0.585835
0.585824
0.585818
0.586916
0.586886
0.586873
0.586877
0.583335
0.58404
0.584051
0.583576
0.587629
0.587211
0.587118
0.587328
0.589273
0.589262
0.589255
0.58925
0.587964
0.587967
0.587969
0.587971
0.588581
0.588578
0.588576
0.588575
0.587966
0.587965
0.587964
0.587963
0.58751
0.587503
0.587499
0.587497
0.587756
0.58775
0.587746
0.587745
0.586125
0.586113
0.586105
0.586101
0.587688
0.587665
0.587658
0.587666
0.58389
0.584482
0.584491
0.584097
0.586897
0.586496
0.586417
0.586628
0.589486
0.589473
0.589465
0.58946
0.587716
0.587718
0.587719
0.587719
0.588641
0.58864
0.58864
0.58864
0.588031
0.58803
0.588029
0.588028
0.587718
0.587712
0.587708
0.587707
0.588038
0.588038
0.588037
0.588037
0.586339
0.586327
0.586319
0.586316
0.588442
0.588423
0.588419
0.588432
0.583876
0.584332
0.584336
0.584032
0.585484
0.58513
0.585074
0.58527
0.590046
0.590031
0.590024
0.590024
0.587617
0.587614
0.587611
0.587608
0.588709
0.588711
0.588713
0.588715
0.588122
0.58812
0.588119
0.588117
0.587927
0.587921
0.587918
0.587918
0.588268
0.588273
0.588275
0.588275
0.586695
0.586674
0.586665
0.586667
0.589416
0.589403
0.589403
0.589419
0.583063
0.583352
0.58335
0.583155
0.583414
0.583193
0.583168
0.583292
0.591062
0.591057
0.591062
0.591075
0.587733
0.58772
0.587711
0.587704
0.588748
0.588753
0.588758
0.588761
0.588209
0.588206
0.588204
0.588203
0.58809
0.588084
0.588082
0.588083
0.588411
0.588419
0.588421
0.58842
0.587242
0.587205
0.587194
0.587206
0.590737
0.590748
0.590755
0.590759
0.581581
0.581655
0.58165
0.581607
0.595265
0.603721
0.607723
0.610827
0.613951
0.616708
0.618947
0.620695
0.622061
0.623208
0.596194
0.59953
0.606954
0.612004
0.61647
0.619858
0.622323
0.624088
0.625333
0.626276
0.600055
0.596413
0.607398
0.613115
0.618399
0.621997
0.624566
0.626389
0.627643
0.628534
0.603472
0.592541
0.607156
0.612729
0.61859
0.622139
0.624695
0.626474
0.627691
0.628555
0.607966
0.590532
0.607905
0.613204
0.619509
0.622909
0.625436
0.627131
0.628259
0.629042
0.611054
0.587878
0.607647
0.612472
0.619229
0.622444
0.624985
0.62663
0.627763
0.628588
0.615056
0.586617
0.608472
0.612581
0.619741
0.622692
0.625249
0.626837
0.627943
0.628744
0.616627
0.583566
0.607479
0.610819
0.618487
0.621239
0.623957
0.62563
0.626936
0.627973
0.618292
0.582084
0.607929
0.609934
0.617746
0.620032
0.622979
0.624799
0.626307
0.627536
0.602748
0.566219
0.594709
0.597061
0.606746
0.610613
0.61526
0.618372
0.620933
0.622953
0.537848
0.559916
0.576262
0.587889
0.595853
0.601397
0.605404
0.608396
0.610705
0.612624
0.524137
0.554682
0.576768
0.590717
0.599571
0.605562
0.609806
0.612882
0.615125
0.616787
0.513873
0.551553
0.577875
0.592893
0.602347
0.608611
0.613
0.616143
0.61838
0.619975
0.505488
0.548523
0.57805
0.593389
0.603247
0.609589
0.613987
0.617093
0.619285
0.620837
0.501032
0.547706
0.579315
0.594706
0.604854
0.611146
0.615487
0.618494
0.620583
0.622046
0.497836
0.546636
0.579729
0.594884
0.605272
0.611443
0.615726
0.618648
0.620697
0.622162
0.497439
0.547068
0.581235
0.595865
0.606415
0.612363
0.616571
0.619394
0.621383
0.622809
0.496645
0.546121
0.58119
0.59512
0.605863
0.611596
0.61583
0.618671
0.620783
0.622382
0.497136
0.546442
0.582369
0.595043
0.605582
0.610843
0.615173
0.618133
0.620413
0.622197
0.488053
0.536407
0.573085
0.585273
0.596833
0.603113
0.608634
0.612524
0.615565
0.617833
0.568968
0.575242
0.581319
0.586695
0.591279
0.595112
0.598286
0.600907
0.6031
0.604991
0.555731
0.567124
0.577311
0.585638
0.592306
0.597555
0.60165
0.604833
0.607295
0.60917
0.542646
0.559821
0.574191
0.585081
0.593392
0.599643
0.604351
0.6079
0.610555
0.612501
0.529491
0.552398
0.570753
0.583749
0.593332
0.600244
0.605305
0.609037
0.611787
0.613777
0.519569
0.547545
0.569329
0.583907
0.594409
0.601707
0.606936
0.610714
0.613462
0.615425
0.510725
0.543014
0.567739
0.583442
0.594617
0.602118
0.607428
0.61121
0.61396
0.615945
0.504699
0.540491
0.567669
0.584056
0.595686
0.603221
0.608533
0.612271
0.614994
0.616958
0.499007
0.537457
0.566699
0.5834
0.595347
0.602832
0.608174
0.611939
0.614754
0.616852
0.4953
0.536118
0.567096
0.583464
0.595298
0.602499
0.607899
0.611763
0.614709
0.616956
0.48521
0.527226
0.559411
0.575722
0.588256
0.596181
0.602397
0.606925
0.610403
0.612928
0.578782
0.581191
0.584096
0.587044
0.589821
0.592334
0.594556
0.596498
0.598212
0.599771
0.570009
0.574775
0.580189
0.585332
0.589869
0.593729
0.596951
0.599606
0.601762
0.603465
0.559489
0.567567
0.575978
0.583402
0.589624
0.594693
0.598767
0.602007
0.604542
0.606472
0.547174
0.559277
0.571022
0.580705
0.588461
0.594526
0.599247
0.602906
0.605715
0.607818
0.536482
0.552878
0.567906
0.579595
0.58863
0.595441
0.600604
0.604513
0.607469
0.609647
0.525867
0.546571
0.564719
0.578114
0.588194
0.59555
0.601016
0.605086
0.608147
0.610407
0.517335
0.542163
0.563162
0.577905
0.588787
0.596487
0.602132
0.606279
0.609386
0.61167
0.50896
0.537546
0.561086
0.576814
0.588291
0.596192
0.601973
0.606211
0.609425
0.611829
0.502446
0.534662
0.560402
0.576534
0.588212
0.596094
0.601988
0.606334
0.609655
0.612178
0.491546
0.52636
0.55355
0.57007
0.582387
0.590834
0.597302
0.60212
0.605811
0.60846
0.585278
0.586039
0.587203
0.588568
0.590003
0.59142
0.592766
0.59402
0.595199
0.596352
0.579944
0.581799
0.584318
0.587041
0.589713
0.592195
0.594422
0.596368
0.598024
0.599381
0.572407
0.575809
0.580119
0.584507
0.588598
0.592225
0.59534
0.597953
0.600093
0.601788
0.562591
0.568203
0.574771
0.58103
0.586582
0.591297
0.595208
0.598396
0.60095
0.602934
0.553471
0.56176
0.570819
0.578954
0.585869
0.59152
0.596067
0.59968
0.602525
0.604693
0.543675
0.554968
0.566625
0.576543
0.584683
0.591114
0.596163
0.600101
0.603171
0.605503
0.535226
0.549705
0.563934
0.575446
0.584622
0.591653
0.597069
0.601227
0.604442
0.606863
0.526532
0.544222
0.560898
0.573745
0.583755