/*--------------------------------*- C++ -*----------------------------------*\
| =========                 |                                                 |
| \\      /  F ield         | foam-extend: Open Source CFD                    |
|  \\    /   O peration     | Version:     4.0                                |
|   \\  /    A nd           | Web:         http://www.foam-extend.org         |
|    \\/     M anipulation  |                                                 |
\*---------------------------------------------------------------------------*/
FoamFile
{
    version     2.0;
    format      ascii;
    class       volScalarField;
    location    "1950";
    object      p;
}
// * * * * * * * * * * * * * * * * * * * * * * * * * * * * * * * * * * * * * //

dimensions      [1 -1 -2 0 0 0 0];

internalField   nonuniform List<scalar> 
34480
(
107971
107871
107831
107846
107931
108113
108456
109138
110104
110450
107829
107730
107690
107701
107781
107958
108296
108966
110000
109975
107687
107584
107544
107546
107612
107759
108057
108659
109689
109114
107613
107508
107462
107453
107495
107598
107839
108342
109304
108152
107530
107415
107361
107334
107351
107409
107591
107989
108849
107156
107547
107432
107372
107336
107334
107354
107480
107770
108490
106273
107452
107324
107257
107209
107191
107182
107259
107451
108011
105337
107540
107417
107354
107321
107318
107321
107383
107502
107880
104740
107439
107312
107243
107206
107204
107216
107270
107331
107504
103993
107532
107418
107404
107470
107608
107800
108044
108281
108451
104456
108730
108605
108560
108585
108690
108894
109229
109757
110571
111638
108522
108390
108344
108370
108484
108709
109097
109750
110890
112493
108321
108184
108138
108159
108267
108485
108880
109586
110967
112954
108193
108052
107998
108008
108100
108293
108665
109362
110882
113122
108068
107915
107852
107845
107915
108074
108407
109060
110649
113034
108046
107892
107822
107803
107855
107980
108270
108853
110446
112863
107922
107756
107678
107645
107679
107774
108019
108528
110078
112467
107986
107824
107747
107723
107764
107859
108085
108528
109980
112251
107872
107706
107623
107591
107622
107710
107918
108312
109618
111810
107953
107798
107757
107803
107936
108148
108480
108977
110231
112217
109297
109183
109144
109172
109275
109461
109746
110147
110678
111288
109083
108950
108906
108942
109066
109297
109662
110205
111020
112027
108863
108720
108675
108710
108842
109090
109500
110149
111245
112674
108704
108551
108500
108528
108655
108903
109331
110041
111360
113170
108550
108384
108325
108339
108453
108685
109109
109837
111324
113462
108497
108328
108262
108267
108368
108579
108987
109703
111302
113689
108348
108168
108095
108087
108173
108360
108744
109431
111094
113678
108390
108214
108140
108138
108227
108412
108784
109438
111102
113796
108265
108084
108004
107993
108069
108240
108592
109222
110824
113633
108332
108160
108108
108152
108298
108550
108978
109674
111240
114048
109694
109606
109575
109599
109679
109818
110016
110269
110562
110843
109515
109398
109359
109392
109502
109696
109985
110376
110882
111401
109317
109179
109136
109172
109299
109528
109885
110399
111153
111992
109154
109000
108948
108981
109114
109363
109770
110385
111382
112568
108992
108821
108761
108785
108913
109165
109598
110279
111490
113017
108924
108745
108678
108694
108816
109061
109505
110224
111611
113448
108760
108569
108495
108501
108612
108845
109286
110020
111544
113667
108786
108597
108522
108531
108645
108878
109320
110058
111662
114010
108649
108456
108376
108379
108483
108706
109136
109875
111490
114067
108702
108517
108456
108497
108650
108929
109408
110195
111802
114521
109968
109906
109885
109902
109958
110052
110179
110331
110491
110629
109834
109742
109710
109737
109824
109972
110182
110446
110749
111025
109677
109557
109518
109551
109661
109854
110138
110516
110997
111470
109529
109386
109338
109371
109496
109722
110072
110561
111247
111969
109376
109211
109154
109182
109311
109555
109952
110531
111418
112412
109303
109127
109062
109085
109215
109468
109896
110542
111618
112885
109135
108944
108872
108887
109013
109265
109710
110404
111644
113184
109152
108960
108886
108904
109033
109291
109751
110478
111843
113626
109008
108811
108733
108746
108870
109123
109584
110338
111768
113810
109050
108859
108793
108834
108990
109281
109777
110573
112026
114265
110156
110117
110103
110114
110150
110209
110286
110373
110458
110526
110064
109997
109974
109993
110056
110161
110303
110472
110650
110799
109955
109858
109826
109852
109940
110090
110303
110567
110870
111138
109831
109707
109665
109694
109802
109993
110274
110643
111101
111535
109698
109548
109497
109525
109645
109864
110202
110665
111289
111918
109632
109467
109406
109433
109560
109798
110182
110726
111517
112358
109468
109285
109218
109239
109367
109616
110031
110641
111591
112659
109483
109296
109225
109249
109383
109644
110086
110749
111834
113119
109335
109142
109068
109088
109221
109483
109937
110643
111822
113352
109370
109181
109114
109153
109308
109597
110078
110823
112046
113764
110290
110266
110257
110264
110286
110321
110366
110415
110461
110495
110230
110183
110167
110180
110223
110293
110385
110490
110594
110675
110165
110091
110066
110086
110152
110262
110413
110592
110781
110937
110067
109966
109931
109955
110043
110194
110409
110675
110978
111243
109960
109832
109788
109813
109917
110102
110374
110729
111159
111559
109907
109761
109707
109733
109849
110060
110385
110821
111388
111943
109754
109587
109526
109549
109672
109901
110266
110775
111480
112208
109773
109599
109533
109560
109691
109938
110337
110907
111737
112641
109625
109444
109375
109399
109532
109785
110204
110824
111752
112861
109657
109478
109413
109450
109598
109871
110313
110972
111952
113211
110389
110374
110369
110373
110386
110407
110432
110459
110483
110501
110348
110318
110307
110316
110344
110389
110446
110509
110569
110614
110322
110268
110250
110264
110311
110389
110491
110608
110725
110816
110247
110169
110141
110160
110228
110342
110498
110685
110882
111046
110169
110064
110027
110049
110134
110282
110492
110753
111046
111302
110132
110008
109962
109986
110085
110263
110525
110860
111260
111627
109993
109847
109793
109816
109926
110127
110432
110839
111350
111845
110021
109866
109807
109834
109954
110176
110519
110987
111605
112233
109876
109711
109649
109675
109799
110032
110399
110917
111622
112404
109909
109745
109685
109719
109854
110103
110491
111045
111801
112695
110465
110457
110454
110456
110464
110475
110489
110504
110517
110527
110436
110417
110409
110415
110433
110460
110495
110533
110567
110593
110440
110402
110389
110399
110431
110483
110551
110625
110696
110750
110383
110325
110304
110318
110368
110450
110560
110687
110814
110915
110331
110249
110220
110237
110304
110417
110573
110759
110955
111118
110311
110210
110172
110193
110275
110417
110620
110869
111146
111387
110187
110064
110019
110040
110134
110302
110546
110859
111223
111557
110228
110096
110045
110069
110175
110364
110646
111015
111465
111895
110087
109942
109888
109913
110024
110227
110535
110951
111472
112011
110125
109980
109926
109956
110076
110292
110619
111067
111633
112251
110527
110522
110521
110522
110526
110532
110540
110548
110555
110560
110501
110490
110485
110488
110499
110516
110537
110559
110579
110593
110529
110503
110495
110501
110522
110556
110599
110646
110689
110720
110483
110442
110426
110436
110471
110529
110604
110688
110769
110832
110455
110394
110372
110385
110435
110518
110630
110759
110888
110992
110450
110372
110341
110358
110422
110532
110684
110863
111052
111209
110341
110241
110205
110223
110299
110433
110622
110855
111109
111332
110397
110288
110245
110267
110355
110510
110734
111014
111334
111624
110258
110136
110091
110113
110208
110377
110625
110947
111323
111688
110304
110182
110135
110161
110263
110444
110709
111057
111470
111889
110579
110576
110576
110576
110578
110582
110586
110591
110594
110597
110551
110545
110542
110544
110550
110560
110572
110585
110597
110606
110597
110581
110575
110579
110593
110614
110641
110670
110696
110714
110557
110529
110517
110524
110548
110587
110637
110692
110743
110782
110549
110505
110488
110498
110534
110593
110671
110758
110843
110908
110556
110497
110474
110487
110535
110617
110727
110853
110980
111081
110460
110382
110353
110367
110427
110530
110671
110840
111014
111161
110531
110445
110411
110429
110499
110622
110793
110999
111223
111415
110394
110294
110258
110276
110354
110490
110683
110924
111189
111433
110450
110350
110311
110333
110416
110562
110770
111032
111326
111604
110624
110622
110622
110622
110624
110625
110628
110630
110632
110633
110590
110586
110585
110586
110590
110596
110603
110611
110617
110623
110652
110642
110638
110641
110649
110663
110679
110696
110711
110721
110611
110592
110584
110588
110604
110630
110663
110698
110730
110754
110620
110589
110577
110584
110609
110650
110702
110760
110815
110855
110636
110593
110576
110585
110620
110679
110756
110842
110927
110991
110549
110490
110468
110479
110524
110601
110703
110821
110938
111035
110636
110571
110544
110559
110613
110706
110832
110980
111133
111258
110498
110419
110391
110405
110467
110571
110716
110891
111075
111235
110567
110488
110457
110474
110540
110653
110810
111001
111206
111388
110664
110662
110663
110663
110663
110664
110666
110667
110668
110668
110620
110618
110617
110618
110620
110623
110628
110633
110637
110640
110697
110691
110689
110690
110696
110704
110713
110723
110732
110737
110650
110637
110632
110635
110645
110661
110682
110704
110725
110740
110673
110652
110644
110648
110665
110693
110727
110765
110799
110824
110694
110664
110652
110658
110683
110724
110777
110834
110889
110930
110614
110571
110555
110563
110596
110651
110722
110803
110881
110944
110718
110670
110650
110661
110702
110770
110860
110963
111066
111145
110574
110514
110493
110504
110550
110628
110733
110857
110981
111086
110658
110599
110575
110588
110638
110723
110838
110973
111112
111230
110700
110699
110699
110699
110699
110700
110700
110701
110701
110702
110642
110641
110641
110641
110642
110644
110647
110650
110653
110656
110736
110732
110731
110732
110735
110740
110746
110751
110756
110758
110677
110669
110666
110667
110674
110684
110697
110711
110724
110734
110712
110698
110693
110696
110707
110725
110748
110771
110793
110808
110735
110715
110706
110711
110728
110755
110791
110828
110864
110889
110661
110631
110620
110625
110648
110686
110735
110789
110839
110880
110781
110748
110734
110742
110771
110819
110882
110951
111019
111068
110627
110583
110567
110575
110609
110665
110739
110823
110906
110974
110731
110687
110669
110679
110716
110777
110858
110951
111043
111118
110734
110733
110733
110733
110734
110734
110734
110734
110734
110734
110657
110656
110656
110656
110657
110658
110660
110662
110664
110666
110770
110768
110767
110768
110770
110773
110776
110779
110781
110781
110697
110691
110689
110690
110694
110700
110708
110717
110725
110731
110741
110732
110729
110731
110738
110749
110763
110778
110791
110800
110764
110750
110744
110747
110758
110777
110799
110824
110846
110862
110694
110674
110666
110670
110686
110711
110743
110778
110810
110836
110831
110808
110799
110804
110824
110857
110900
110945
110990
111019
110661
110629
110618
110624
110647
110686
110736
110793
110846
110890
110789
110759
110746
110753
110779
110822
110877
110939
110999
111046
110771
110770
110771
110771
110771
110771
110771
110771
110771
110770
110663
110662
110662
110661
110662
110663
110664
110666
110668
110670
110800
110800
110800
110800
110802
110803
110805
110806
110807
110806
110709
110705
110704
110704
110707
110711
110716
110721
110725
110730
110760
110755
110753
110754
110759
110766
110774
110783
110791
110796
110780
110771
110768
110769
110777
110788
110803
110818
110832
110842
110717
110704
110699
110702
110712
110728
110749
110771
110790
110806
110869
110855
110848
110852
110865
110887
110915
110944
110973
110990
110677
110655
110648
110652
110668
110693
110726
110763
110797
110826
110844
110823
110814
110819
110837
110865
110902
110942
110981
111009
110823
110823
110823
110823
110824
110823
110823
110823
110822
110822
110657
110656
110655
110655
110655
110656
110657
110659
110661
110664
110826
110826
110826
110827
110827
110828
110829
110830
110830
110828
110716
110713
110713
110713
110715
110717
110720
110723
110725
110728
110770
110767
110766
110766
110769
110773
110778
110784
110789
110792
110785
110780
110777
110778
110783
110790
110799
110809
110818
110824
110730
110723
110720
110722
110728
110739
110751
110765
110776
110785
110893
110884
110879
110881
110890
110904
110922
110941
110960
110969
110676
110661
110656
110659
110669
110686
110707
110730
110751
110770
110908
110895
110889
110892
110904
110922
110947
110972
110997
111013
110917
110917
110917
110917
110917
110917
110917
110916
110916
110915
110630
110629
110629
110629
110629
110630
110631
110632
110633
110637
110839
110839
110839
110838
110839
110839
110840
110841
110842
110840
110719
110718
110718
110718
110719
110721
110722
110723
110724
110725
110771
110769
110768
110768
110770
110772
110775
110779
110782
110784
110780
110777
110775
110776
110778
110783
110789
110795
110801
110805
110736
110732
110731
110732
110736
110743
110750
110758
110764
110769
110892
110885
110881
110882
110888
110897
110909
110922
110935
110941
110649
110639
110636
110638
110645
110656
110669
110683
110695
110708
111008
111000
110995
110997
111005
111017
111032
111048
111066
111074
111079
111079
111079
111078
111078
111078
111078
111078
111078
111078
110569
110569
110570
110571
110572
110572
110572
110571
110571
110573
110827
110825
110823
110823
110822
110823
110824
110826
110828
110830
110721
110721
110722
110723
110723
110724
110725
110725
110725
110724
110765
110764
110763
110763
110764
110766
110768
110770
110773
110774
110770
110767
110766
110767
110768
110771
110775
110779
110783
110786
110737
110735
110734
110735
110738
110742
110747
110752
110755
110757
110849
110843
110840
110840
110844
110851
110859
110868
110879
110885
110583
110578
110576
110578
110583
110590
110599
110607
110613
110619
111164
111158
111155
111156
111162
111170
111181
111192
111205
111209
111262
111259
111258
111257
111257
111257
111258
111259
111262
111266
110486
110491
110495
110497
110498
110498
110497
110494
110489
110482
110793
110789
110787
110785
110785
110786
110787
110789
110793
110798
110726
110727
110728
110729
110729
110730
110730
110730
110729
110728
110760
110759
110758
110758
110759
110760
110762
110764
110766
110768
110763
110760
110760
110760
110761
110764
110767
110770
110773
110776
110739
110737
110737
110738
110740
110744
110748
110752
110755
110756
110786
110779
110777
110777
110781
110786
110793
110801
110809
110818
110498
110497
110496
110497
110501
110508
110515
110521
110524
110521
111331
111326
111324
111325
111329
111336
111345
111354
111364
111368
122714
123928
123753
122479
125946
127352
126952
125330
128889
130476
129888
127897
131055
132757
131984
129714
132718
134499
133552
131078
134067
135908
134951
132356
134993
136867
136041
133379
135816
137695
137033
134333
135731
137582
137065
134373
135320
137157
136897
134360
113012
113201
113240
113120
115298
115669
115727
115437
117554
118107
118166
117656
119695
120415
120460
119705
121647
122503
122517
121505
123500
124465
124444
123215
125035
126084
126033
124646
126539
127647
127578
126082
127319
128458
128388
126839
127967
129140
129117
127618
111810
111899
111926
111900
113133
113301
113341
113273
114587
114853
114906
114776
116064
116436
116496
116283
117488
117963
118021
117703
118964
119540
119590
119156
120256
120923
120964
120410
121637
122381
122411
121743
122457
123248
123272
122510
123276
124104
124144
123327
110958
110981
110992
110992
111711
111764
111784
111777
112631
112734
112767
112742
113662
113830
113879
113824
114690
114930
114992
114894
115818
116137
116209
116053
116822
117219
117298
117074
117980
118448
118530
118231
118694
119212
119299
118936
119470
120031
120135
119731
110675
110685
110690
110690
111147
111171
111181
111181
111730
111779
111799
111795
112437
112521
112552
112542
113163
113289
113333
113310
114001
114177
114235
114190
114737
114968
115037
114963
115657
115940
116019
115908
116235
116560
116652
116507
116913
117273
117384
117217
110544
110548
110550
110550
110847
110856
110861
110862
111242
111262
111272
111274
111735
111774
111793
111795
112257
112320
112349
112349
112887
112982
113023
113017
113424
113555
113607
113592
114153
114321
114384
114353
114612
114810
114887
114842
115165
115390
115481
115424
110504
110505
110507
110507
110699
110704
110706
110707
110987
110997
111002
111003
111339
111358
111369
111372
111722
111755
111773
111777
112204
112256
112283
112287
112594
112668
112704
112708
113176
113274
113319
113318
113525
113645
113701
113695
113959
114096
114162
114150
110506
110506
110507
110507
110627
110629
110630
110631
110842
110847
110850
110851
111096
111106
111112
111114
111387
111404
111415
111418
111764
111793
111809
111814
112049
112090
112114
112120
112518
112575
112605
112611
112765
112836
112875
112879
113102
113185
113230
113232
110529
110529
110530
110530
110600
110601
110602
110602
110764
110767
110769
110769
110944
110949
110953
110954
111166
111176
111182
111185
111465
111481
111492
111495
111671
111695
111710
111715
112054
112088
112108
112114
112213
112257
112281
112287
112480
112530
112559
112564
110562
110562
110562
110562
110597
110598
110598
110599
110728
110730
110731
110731
110849
110852
110855
110856
111020
111026
111029
111031
111255
111265
111272
111274
111399
111413
111422
111426
111717
111738
111750
111755
111806
111833
111848
111853
112022
112052
112070
112075
110598
110598
110598
110598
110608
110608
110609
110609
110718
110719
110720
110720
110793
110795
110796
110797
110925
110928
110930
110932
111110
111116
111120
111121
111201
111210
111216
111219
111471
111483
111491
111494
111504
111520
111530
111534
111684
111703
111714
111717
110634
110634
110634
110634
110624
110624
110624
110625
110724
110724
110725
110725
110761
110762
110763
110763
110866
110867
110869
110870
111010
111013
111016
111017
111060
111065
111069
111071
111293
111301
111305
111307
111280
111290
111296
111299
111437
111448
111455
111458
110668
110669
110669
110668
110641
110641
110642
110642
110739
110739
110739
110739
110744
110745
110746
110746
110831
110832
110832
110833
110942
110945
110946
110947
110959
110962
110965
110966
111167
111172
111175
111176
111114
111121
111125
111126
111259
111266
111271
111272
110702
110702
110702
110702
110656
110656
110657
110657
110759
110759
110759
110759
110736
110737
110737
110738
110812
110812
110812
110813
110897
110899
110900
110900
110889
110891
110892
110893
111082
111085
111087
111088
110992
110997
110999
111000
111136
111140
111143
111144
110734
110734
110734
110734
110667
110667
110667
110667
110782
110782
110782
110782
110733
110733
110733
110734
110802
110802
110803
110803
110868
110869
110869
110870
110840
110841
110842
110843
111028
111030
111031
111032
110902
110905
110907
110907
111056
111059
111061
111061
110770
110770
110770
110770
110671
110671
110671
110672
110807
110806
110806
110806
110730
110730
110731
110731
110797
110798
110798
110798
110846
110847
110847
110847
110808
110808
110808
110809
110996
110997
110998
110998
110834
110836
110837
110837
111014
111016
111017
111017
110821
110821
110821
110821
110664
110664
110665
110665
110829
110829
110829
110829
110727
110727
110727
110728
110793
110793
110793
110793
110827
110828
110828
110828
110784
110784
110784
110785
110975
110976
110977
110977
110775
110776
110777
110777
111015
111015
111015
111016
110914
110914
110914
110913
110637
110637
110637
110638
110843
110843
110843
110843
110723
110723
110723
110723
110786
110786
110786
110786
110808
110808
110809
110809
110766
110765
110765
110766
110949
110951
110951
110951
110710
110711
110711
110711
111074
111074
111074
111076
111077
111077
111077
111077
110570
110570
110570
110570
110836
110837
110837
110837
110721
110720
110720
110720
110776
110776
110776
110776
110789
110789
110789
110789
110753
110752
110752
110752
110899
110901
110902
110901
110615
110614
110614
110614
111215
111215
111216
111217
111266
111267
111268
111268
110466
110463
110461
110461
110808
110810
110811
110811
110724
110723
110722
110722
110769
110769
110769
110770
110778
110778
110778
110778
110751
110749
110749
110750
110836
110839
110840
110839
110497
110491
110490
110493
111390
111393
111393
111391
116090
113576
111651
110363
109557
109037
108682
108431
108252
108115
117147
113965
111596
110195
109369
108843
108493
108252
108083
107958
117508
114003
111326
110004
109179
108659
108309
108067
107903
107796
117492
113900
110998
109842
109035
108549
108216
107986
107828
107722
117206
113679
110689
109663
108864
108414
108094
107879
107729
107634
116836
113552
110520
109627
108830
108418
108110
107907
107760
107656
116194
113294
110228
109475
108670
108299
107997
107803
107658
107562
115772
113317
110219
109610
108790
108454
108144
107946
107789
107667
115046
112984
109907
109478
108682
108393
108074
107872
107707
107576
115485
113681
110578
110174
109255
108863
108431
108140
107904
107703
112563
111819
111158
110604
110150
109780
109480
109239
109046
108896
114186
112820
111686
110831
110187
109704
109340
109063
108850
108691
115484
113532
111990
110914
110127
109562
109151
108849
108627
108477
116472
114020
112139
110933
110064
109466
109040
108733
108507
108353
117098
114286
112134
110851
109931
109325
108897
108594
108370
108223
117572
114534
112166
110854
109903
109305
108880
108583
108362
108208
117720
114566
112021
110714
109743
109161
108742
108452
108231
108082
117931
114768
112087
110821
109840
109278
108855
108561
108332
108163
117711
114571
111844
110686
109735
109204
108775
108475
108238
108058
118116
115084
112320
111184
110157
109553
109046
108681
108396
108166
111743
111427
111074
110735
110428
110160
109930
109737
109575
109445
112914
112273
111604
111024
110550
110167
109858
109609
109409
109253
114112
113062
112037
111215
110576
110087
109710
109418
109194
109035
115225
113740
112381
111366
110605
110043
109621
109303
109060
108887
116153
114236
112571
111402
110546
109937
109489
109158
108906
108733
117026
114710
112772
111488
110563
109927
109465
109128
108872
108689
117624
114951
112773
111411
110435
109786
109316
108978
108718
108539
118275
115315
112945
111546
110537
109885
109407
109061
108794
108596
118445
115268
112811
111451
110451
109809
109320
108964
108688
108481
118949
115687
113184
111818
110763
110068
109524
109123
108813
108571
110969
110873
110738
110585
110429
110277
110136
110009
109898
109804
111702
111474
111186
110891
110614
110363
110142
109952
109791
109662
112571
112136
111627
111148
110727
110370
110073
109828
109630
109482
113507
112818
112065
111404
110849
110397
110035
109746
109515
109343
114371
113392
112386
111554
110881
110355
109945
109624
109371
109190
115264
113979
112722
111740
110969
110387
109941
109599
109332
109135
115958
114361
112863
111753
110901
110278
109807
109452
109173
108974
116750
114862
113151
111947
111035
110384
109892
109521
109232
109015
117126
114990
113147
111909
110970
110304
109794
109411
109112
108887
117732
115419
113479
112192
111201
110493
109945
109530
109208
108958
110682
110642
110580
110504
110421
110336
110253
110175
110103
110042
111154
111058
110921
110763
110600
110442
110295
110162
110045
109948
111736
111543
111286
111013
110748
110505
110289
110100
109942
109819
112434
112108
111698
111289
110912
110581
110296
110057
109858
109703
113127
112633
112048
111496
111008
110596
110252
109970
109740
109567
113900
113210
112436
111744
111154
110671
110279
109964
109710
109516
114529
113621
112650
111826
111144
110603
110172
109832
109558
109356
115300
114169
113011
112074
111315
110727
110263
109900
109611
109389
115738
114403
113103
112090
111276
110654
110164
109785
109484
109255
116337
114823
113409
112327
111461
110801
110281
109876
109559
109311
110547
110530
110501
110464
110421
110375
110328
110283
110240
110203
110854
110811
110743
110659
110567
110472
110379
110292
110214
110146
111256
111168
111037
110884
110722
110564
110415
110279
110161
110067
111759
111604
111385
111140
110895
110664
110454
110268
110108
109980
112287
112040
111709
111360
111025
110719
110450
110218
110022
109870
112913
112552
112093
111632
111205
110829
110506
110235
110009
109831
113428
112930
112328
111753
111237
110797
110428
110124
109871
109681
114111
113463
112716
112033
111437
110941
110532
110198
109927
109715
114525
113727
112853
112080
111418
110879
110438
110085
109799
109577
115046
114110
113134
112291
111579
111003
110535
110160
109861
109625
110505
110497
110482
110463
110440
110416
110390
110364
110339
110318
110702
110681
110645
110599
110547
110491
110434
110380
110329
110284
110994
110950
110879
110790
110692
110591
110492
110398
110315
110248
111357
111277
111155
111008
110851
110694
110545
110408
110287
110186
111753
111624
111434
111215
110989
110771
110569
110388
110231
110106
112247
112055
111782
111481
111182
110901
110648
110427
110237
110083
112645
112371
112002
111613
111237
110895
110594
110337
110118
109948
113222
112854
112381
111901
111452
111055
110712
110423
110182
109988
113563
113093
112519
111957
111444
111002
110625
110314
110056
109853
113987
113425
112772
112149
111591
111114
110713
110383
110113
109896
110506
110502
110494
110485
110472
110459
110445
110431
110417
110404
110629
110617
110598
110573
110543
110511
110477
110444
110412
110384
110846
110822
110782
110730
110670
110607
110543
110482
110425
110380
111107
111064
110993
110904
110804
110700
110597
110501
110413
110338
111407
111337
111224
111086
110936
110784
110638
110503
110383
110286
111797
111690
111525
111330
111123
110920
110730
110558
110406
110280
112095
111941
111713
111452
111185
110929
110694
110486
110305
110161
112571
112360
112061
111732
111404
111098
110824
110584
110380
110212
112822
112545
112174
111779
111397
111050
110743
110482
110258
110080
113160
112827
112399
111956
111535
111157
110828
110549
110315
110124
110529
110527
110523
110518
110511
110504
110496
110488
110480
110474
110601
110595
110584
110570
110553
110534
110514
110495
110476
110458
110766
110753
110729
110699
110663
110624
110584
110544
110507
110478
110950
110925
110884
110829
110766
110698
110630
110564
110502
110449
111179
111138
111069
110982
110883
110780
110678
110581
110493
110420
111486
111424
111322
111196
111056
110913
110774
110645
110529
110430
111703
111613
111470
111296
111110
110924
110748
110587
110442
110326
112095
111971
111781
111558
111324
111097
110886
110696
110530
110390
112260
112096
111858
111587
111311
111049
110808
110597
110412
110261
112530
112333
112057
111749
111442
111154
110894
110667
110472
110311
110562
110560
110558
110555
110552
110548
110544
110539
110535
110531
110598
110595
110589
110581
110571
110560
110549
110537
110526
110515
110729
110721
110708
110689
110668
110644
110619
110594
110571
110553
110853
110839
110814
110780
110741
110697
110653
110608
110567
110530
111027
111003
110961
110906
110842
110773
110703
110635
110572
110520
111269
111231
111168
111086
110993
110894
110796
110703
110616
110542
111420
111365
111275
111160
111033
110901
110772
110652
110541
110451
111744
111669
111548
111400
111237
111073
110916
110770
110640
110529
111839
111741
111589
111406
111211
111019
110837
110672
110524
110402
112058
111940
111763
111554
111336
111124
110925
110747
110591
110459
110598
110597
110596
110594
110592
110590
110588
110585
110583
110581
110609
110607
110603
110599
110594
110587
110581
110574
110567
110560
110718
110714
110706
110695
110682
110667
110652
110636
110622
110612
110796
110787
110772
110751
110727
110699
110670
110642
110614
110589
110929
110914
110888
110853
110812
110767
110720
110674
110631
110595
111118
111095
111055
111002
110941
110874
110807
110741
110679
110624
111215
111181
111124
111049
110963
110872
110780
110693
110611
110543
111488
111442
111365
111267
111156
111040
110926
110819
110721
110634
111526
111466
111369
111247
111112
110975
110841
110717
110603
110508
111708
111637
111524
111385
111233
111081
110934
110799
110678
110575
110634
110633
110633
110632
110631
110630
110628
110627
110626
110625
110625
110624
110622
110619
110616
110613
110609
110605
110601
110596
110724
110721
110716
110709
110702
110693
110683
110674
110665
110660
110763
110758
110749
110736
110721
110704
110685
110667
110649
110632
110868
110859
110843
110821
110794
110765
110734
110704
110674
110651
111015
111000
110975
110942
110901
110857
110812
110766
110723
110684
111069
111047
111011
110962
110905
110843
110779
110717
110659
110610
111303
111275
111226
111162
111087
111008
110928
110851
110779
110714
111294
111257
111195
111114
111023
110927
110831
110741
110656
110585
111453
111409
111337
111246
111143
111036
110931
110832
110742
110663
110668
110668
110668
110667
110667
110666
110665
110665
110664
110664
110642
110641
110640
110639
110637
110635
110633
110631
110628
110624
110738
110736
110733
110729
110725
110719
110714
110708
110703
110701
110746
110743
110737
110730
110720
110710
110698
110687
110675
110664
110832
110826
110816
110802
110786
110767
110747
110727
110708
110693
110945
110936
110921
110899
110873
110844
110814
110784
110754
110728
110965
110951
110928
110897
110859
110818
110775
110732
110691
110657
111174
111157
111125
111084
111035
110981
110926
110872
110822
110775
111123
111100
111060
111008
110947
110882
110815
110751
110689
110637
111270
111243
111198
111138
111070
110997
110924
110853
110788
110730
110701
110701
110701
110701
110701
110700
110700
110700
110699
110699
110657
110657
110656
110656
110655
110654
110652
110651
110649
110646
110758
110757
110755
110752
110750
110746
110743
110740
110737
110737
110738
110736
110733
110728
110722
110716
110709
110702
110694
110687
110812
110809
110802
110794
110783
110772
110759
110746
110734
110725
110899
110894
110884
110871
110854
110836
110816
110796
110776
110758
110893
110884
110869