/*--------------------------------*- C++ -*----------------------------------*\
| =========                 |                                                 |
| \\      /  F ield         | foam-extend: Open Source CFD                    |
|  \\    /   O peration     | Version:     4.0                                |
|   \\  /    A nd           | Web:         http://www.foam-extend.org         |
|    \\/     M anipulation  |                                                 |
\*---------------------------------------------------------------------------*/
FoamFile
{
    version     2.0;
    format      ascii;
    class       volScalarField;
    location    "1950";
    object      T;
}
// * * * * * * * * * * * * * * * * * * * * * * * * * * * * * * * * * * * * * //

dimensions      [0 0 0 1 0 0 0];

internalField   nonuniform List<scalar> 
34480
(
278.81
278.699
278.618
278.564
278.531
278.522
278.537
278.622
278.893
278.86
278.258
278.14
278.046
277.98
277.946
277.95
277.975
278.019
278.236
277.792
278.146
278.014
277.909
277.835
277.797
277.784
277.766
277.712
277.84
277.065
278.187
278.035
277.906
277.804
277.731
277.668
277.584
277.426
277.432
276.309
278.2
278.023
277.866
277.731
277.617
277.498
277.344
277.075
276.926
275.447
278.269
278.068
277.888
277.727
277.578
277.408
277.188
276.805
276.469
274.607
278.295
278.07
277.865
277.679
277.5
277.285
277.002
276.506
275.96
273.71
278.367
278.119
277.902
277.707
277.52
277.29
276.974
276.393
275.637
272.968
278.424
278.156
277.92
277.707
277.495
277.238
276.879
276.214
275.249
272.226
279.24
278.96
278.756
278.614
278.51
278.389
278.18
277.654
276.649
273.195
279.343
279.251
279.214
279.23
279.303
279.45
279.71
280.167
280.836
281.706
278.692
278.609
278.576
278.593
278.673
278.841
279.132
279.63
280.423
281.444
278.487
278.408
278.379
278.399
278.486
278.658
278.947
279.437
280.288
281.404
278.434
278.354
278.321
278.333
278.406
278.557
278.821
279.287
280.167
281.331
278.36
278.275
278.234
278.232
278.287
278.408
278.641
279.068
279.949
281.127
278.35
278.263
278.216
278.206
278.245
278.34
278.538
278.916
279.768
280.924
278.308
278.214
278.161
278.141
278.165
278.237
278.401
278.726
279.525
280.64
278.325
278.229
278.178
278.164
278.192
278.258
278.403
278.682
279.409
280.432
278.341
278.238
278.181
278.158
278.174
278.225
278.345
278.576
279.222
280.166
279.106
279.016
278.994
279.038
279.141
279.295
279.515
279.82
280.416
281.086
279.817
279.718
279.683
279.703
279.781
279.927
280.158
280.504
281.002
281.626
279.16
279.062
279.027
279.051
279.142
279.316
279.606
280.062
280.769
281.697
278.939
278.84
278.805
278.83
278.926
279.113
279.431
279.946
280.818
282.031
278.855
278.753
278.712
278.73
278.818
278.997
279.316
279.86
280.867
282.332
278.751
278.643
278.595
278.601
278.675
278.835
279.14
279.688
280.792
282.464
278.715
278.603
278.55
278.548
278.608
278.748
279.032
279.564
280.727
282.552
278.65
278.532
278.473
278.461
278.509
278.628
278.887
279.39
280.578
282.517
278.648
278.528
278.471
278.462
278.512
278.625
278.866
279.337
280.513
282.513
278.647
278.523
278.461
278.446
278.487
278.588
278.807
279.236
280.375
282.454
279.379
279.268
279.232
279.266
279.372
279.547
279.832
280.3
281.384
283.382
280.155
280.069
280.04
280.059
280.127
280.248
280.426
280.668
280.973
281.312
279.527
279.434
279.402
279.428
279.516
279.676
279.922
280.275
280.76
281.308
279.317
279.216
279.181
279.209
279.308
279.491
279.785
280.226
280.882
281.674
279.221
279.112
279.071
279.095
279.194
279.384
279.703
280.209
281.029
282.078
279.101
278.983
278.936
278.952
279.043
279.227
279.555
280.099
281.06
282.35
279.047
278.924
278.871
278.88
278.963
279.137
279.462
280.024
281.097
282.598
278.965
278.835
278.777
278.778
278.851
279.011
279.326
279.889
281.045
282.727
278.947
278.816
278.758
278.761
278.835
278.992
279.298
279.851
281.051
282.87
278.932
278.798
278.737
278.735
278.802
278.951
279.245
279.778
280.982
282.951
279.631
279.508
279.466
279.498
279.61
279.809
280.147
280.709
281.883
283.884
280.385
280.318
280.295
280.31
280.36
280.446
280.566
280.715
280.884
281.051
279.803
279.726
279.699
279.721
279.795
279.923
280.109
280.355
280.655
280.95
279.623
279.53
279.498
279.525
279.614
279.774
280.016
280.354
280.802
281.27
279.533
279.425
279.387
279.412
279.509
279.688
279.974
280.392
280.996
281.671
279.411
279.292
279.246
279.267
279.363
279.549
279.861
280.341
281.093
281.983
279.349
279.222
279.17
279.186
279.279
279.467
279.794
280.316
281.2
282.298
279.258
279.123
279.066
279.075
279.163
279.345
279.677
280.226
281.221
282.515
279.23
279.092
279.034
279.045
279.134
279.317
279.651
280.212
281.286
282.749
279.203
279.063
279.003
279.01
279.095
279.272
279.604
280.167
281.281
282.926
279.87
279.74
279.693
279.724
279.839
280.05
280.411
281
282.114
283.855
280.537
280.487
280.471
280.481
280.515
280.571
280.646
280.735
280.828
280.916
280.005
279.946
279.924
279.942
279.998
280.092
280.223
280.385
280.564
280.723
279.861
279.783
279.756
279.778
279.852
279.981
280.167
280.409
280.699
280.971
279.786
279.69
279.655
279.679
279.766
279.922
280.158
280.48
280.899
281.317
279.674
279.562
279.52
279.542
279.635
279.808
280.081
280.474
281.024
281.608
279.613
279.49
279.442
279.461
279.556
279.74
280.042
280.491
281.169
281.926
279.521
279.388
279.334
279.348
279.443
279.629
279.949
280.442
281.236
282.167
279.487
279.349
279.294
279.31
279.407
279.599
279.932
280.454
281.34
282.434
279.452
279.312
279.255
279.268
279.363
279.554
279.892
280.433
281.38
282.651
280.088
279.957
279.908
279.937
280.053
280.267
280.626
281.192
282.16
283.545
280.636
280.599
280.589
280.595
280.616
280.651
280.696
280.746
280.797
280.848
280.15
280.107
280.092
280.104
280.144
280.209
280.296
280.398
280.504
280.59
280.042
279.98
279.959
279.976
280.034
280.131
280.266
280.432
280.614
280.773
279.987
279.906
279.876
279.897
279.97
280.097
280.281
280.517
280.797
281.055
279.891
279.792
279.755
279.775
279.858
280.008
280.235
280.539
280.926
281.303
279.838
279.725
279.681
279.701
279.791
279.959
280.221
280.587
281.084
281.594
279.749
279.624
279.575
279.592
279.685
279.863
280.152
280.569
281.174
281.824
279.715
279.584
279.532
279.551
279.649
279.836
280.146
280.603
281.298
282.087
279.676
279.542
279.488
279.505
279.603
279.793
280.113
280.6
281.362
282.303
280.282
280.155
280.106
280.135
280.247
280.453
280.79
281.303
282.097
283.142
280.7
280.673
280.666
280.67
280.683
280.703
280.729
280.757
280.786
280.818
280.254
280.225
280.214
280.222
280.248
280.291
280.347
280.41
280.472
280.52
280.178
280.132
280.115
280.128
280.17
280.24
280.334
280.444
280.557
280.65
280.142
280.077
280.053
280.069
280.127
280.225
280.362
280.53
280.714
280.871
280.064
279.981
279.95
279.968
280.038
280.161
280.339
280.567
280.832
281.074
280.023
279.925
279.887
279.906
279.986
280.13
280.346
280.631
280.986
281.325
279.943
279.83
279.787
279.805
279.891
280.05
280.297
280.636
281.081
281.527
279.913
279.793
279.746
279.766
279.859
280.031
280.303
280.685
281.211
281.767
279.871
279.747
279.699
279.717
279.812
279.99
280.277
280.693
281.283
281.958
280.449
280.331
280.285
280.311
280.416
280.607
280.909
281.349
281.975
282.733
280.742
280.722
280.717
280.719
280.726
280.738
280.753
280.768
280.785
280.808
280.329
280.309
280.302
280.307
280.324
280.352
280.386
280.424
280.46
280.487
280.278
280.246
280.234
280.243
280.272
280.32
280.383
280.454
280.524
280.578
280.259
280.209
280.191
280.203
280.247
280.319
280.418
280.533
280.652
280.749
280.201
280.134
280.109
280.124
280.18
280.276
280.411
280.575
280.754
280.908
280.172
280.091
280.059
280.075
280.143
280.261
280.431
280.647
280.895
281.117
280.102
280.005
279.968
279.984
280.06
280.196
280.398
280.662
280.983
281.285
280.079
279.975
279.934
279.953
280.036
280.186
280.415
280.721
281.109
281.493
280.038
279.927
279.884
279.903
279.989
280.148
280.394
280.734
281.177
281.649
280.588
280.483
280.441
280.464
280.558
280.727
280.987
281.35
281.827
282.359
280.77
280.753
280.749
280.75
280.754
280.761
280.769
280.778
280.788
280.806
280.384
280.371
280.367
280.37
280.38
280.397
280.418
280.441
280.462
280.477
280.354
280.332
280.323
280.329
280.349
280.381
280.422
280.467
280.51
280.542
280.346
280.31
280.296
280.305
280.336
280.388
280.456
280.534
280.61
280.67
280.306
280.255
280.235
280.247
280.29
280.362
280.46
280.576
280.695
280.792
280.29
280.224
280.199
280.213
280.267
280.36
280.489
280.647
280.817
280.963
280.229
280.149
280.118
280.133
280.196
280.307
280.466
280.666
280.892
281.094
280.217
280.129
280.094
280.111
280.182
280.308
280.493
280.73
281.009
281.27
280.175
280.08
280.043
280.06
280.136
280.271
280.474
280.741
281.066
281.389
280.698
280.608
280.571
280.592
280.673
280.817
281.032
281.32
281.673
282.037
280.786
280.772
280.769
280.77
280.772
280.776
280.78
280.785
280.791
280.807
280.425
280.417
280.414
280.416
280.422
280.433
280.445
280.458
280.471
280.48
280.411
280.397
280.391
280.395
280.408
280.429
280.454
280.482
280.508
280.527
280.41
280.385
280.375
280.381
280.403
280.438
280.484
280.535
280.584
280.621
280.385
280.348
280.333
280.342
280.373
280.426
280.495
280.574
280.653
280.714
280.38
280.33
280.31
280.321
280.363
280.433
280.529
280.641
280.756
280.85
280.328
280.265
280.24
280.252
280.302
280.389
280.51
280.657
280.814
280.947
280.328
280.256
280.228
280.243
280.301
280.402
280.546
280.723
280.92
281.095
280.284
280.206
280.176
280.19
280.253
280.365
280.525
280.729
280.961
281.178
280.782
280.707
280.676
280.694
280.761
280.88
281.051
281.272
281.527
281.77
280.795
280.782
280.78
280.78
280.782
280.784
280.786
280.789
280.793
280.807
280.457
280.452
280.45
280.451
280.454
280.46
280.468
280.476
280.483
280.489
280.456
280.447
280.444
280.446
280.454
280.467
280.483
280.5
280.515
280.527
280.457
280.44
280.433
280.437
280.452
280.475
280.506
280.539
280.569
280.592
280.445
280.418
280.408
280.414
280.437
280.473
280.521
280.574
280.625
280.664
280.449
280.411
280.397
280.405
280.436
280.487
280.555
280.633
280.71
280.771
280.403
280.355
280.336
280.345
280.384
280.449
280.538
280.643
280.75
280.838
280.416
280.36
280.338
280.35
280.395
280.474
280.582
280.711
280.847
280.963
280.369
280.307
280.283
280.295
280.345
280.433
280.555
280.706
280.868
281.013
280.84
280.781
280.756
280.77
280.824
280.918
281.05
281.214
281.393
281.552
280.798
280.786
280.785
280.785
280.785
280.786
280.788
280.79
280.792
280.805
280.481
280.477
280.476
280.477
280.479
280.482
280.487
280.491
280.496
280.5
280.493
280.487
280.485
280.486
280.491
280.499
280.509
280.519
280.528
280.535
280.491
280.479
280.475
280.477
280.487
280.502
280.522
280.543
280.562
280.576
280.49
280.472
280.465
280.469
280.484
280.509
280.541
280.576
280.609
280.633
280.499
280.473
280.462
280.468
280.49
280.527
280.574
280.627
280.677
280.716
280.459
280.423
280.409
280.416
280.444
280.492
280.556
280.629
280.7
280.758
280.484
280.442
280.426
280.435
280.47
280.528
280.607
280.698
280.79
280.865
280.433
280.384
280.366
280.375
280.414
280.48
280.571
280.679
280.791
280.885
280.876
280.831
280.812
280.823
280.865
280.936
281.034
281.153
281.276
281.378
280.796
280.785
280.784
280.783
280.784
280.784
280.785
280.786
280.788
280.8
280.499
280.496
280.495
280.495
280.497
280.499
280.501
280.504
280.508
280.51
280.523
280.52
280.519
280.52
280.523
280.527
280.533
280.539
280.544
280.548
280.515
280.508
280.504
280.506
280.512
280.522
280.534
280.548
280.56
280.569
280.524
280.512
280.507
280.51
280.52
280.537
280.557
280.58
280.6
280.615
280.537
280.518
280.511
280.515
280.53
280.555
280.587
280.622
280.655
280.679
280.499
280.473
280.463
280.468
280.489
280.522
280.566
280.616
280.663
280.7
280.538
280.508
280.496
280.503
280.528
280.57
280.626
280.688
280.749
280.797
280.477
280.441
280.427
280.434
280.463
280.512
280.577
280.652
280.727
280.788
280.894
280.861
280.846
280.855
280.886
280.939
281.01
281.092
281.175
281.238
280.789
280.779
280.778
280.778
280.779
280.779
280.779
280.78
280.781
280.792
280.51
280.509
280.508
280.508
280.509
280.51
280.512
280.513
280.516
280.518
280.55
280.548
280.548
280.548
280.55
280.553
280.556
280.559
280.562
280.564
280.532
280.527
280.525
280.526
280.53
280.536
280.544
280.552
280.559
280.565
280.549
280.541
280.538
280.54
280.547
280.557
280.57
280.584
280.597
280.606
280.563
280.551
280.546
280.548
280.559
280.575
280.596
280.619
280.64
280.655
280.527
280.509
280.502
280.506
280.52
280.543
280.573
280.605
280.636
280.659
280.58
280.559
280.551
280.556
280.574
280.603
280.641
280.683
280.723
280.753
280.506
280.48
280.47
280.475
280.496
280.53
280.575
280.626
280.675
280.715
280.897
280.875
280.864
280.87
280.892
280.93
280.979
281.035
281.09
281.128
280.781
280.772
280.772
280.772
280.772
280.772
280.772
280.772
280.774
280.782
280.516
280.514
280.514
280.514
280.514
280.515
280.516
280.517
280.519
280.522
280.574
280.574
280.573
280.574
280.575
280.577
280.578
280.58
280.581
280.582
280.543
280.54
280.538
280.539
280.541
280.545
280.549
280.555
280.559
280.563
280.567
280.562
280.56
280.561
280.565
280.572
280.58
280.589
280.596
280.602
280.58
280.572
280.569
280.571
280.577
280.588
280.602
280.616
280.629
280.639
280.546
280.534
280.53
280.532
280.541
280.557
280.576
280.597
280.616
280.631
280.614
280.6
280.594
280.598
280.61
280.63
280.655
280.682
280.708
280.726
280.522
280.503
280.497
280.5
280.514
280.538
280.568
280.601
280.633
280.658
280.892
280.877
280.869
280.873
280.889
280.915
280.948
280.985
281.02
281.042
280.777
280.77
280.77
280.77
280.77
280.77
280.77
280.77
280.771
280.778
280.514
280.512
280.511
280.511
280.512
280.512
280.513
280.514
280.516
280.519
280.597
280.596
280.596
280.597
280.597
280.598
280.599
280.6
280.6
280.6
280.549
280.547
280.546
280.546
280.548
280.55
280.553
280.556
280.558
280.561
280.578
280.575
280.574
280.574
280.577
280.581
280.586
280.591
280.596
280.599
280.589
280.584
280.582
280.583
280.587
280.594
280.603
280.612
280.62
280.626
280.558
280.55
280.547
280.549
280.555
280.565
280.577
280.59
280.601
280.61
280.639
280.63
280.626
280.629
280.637
280.65
280.666
280.684
280.7
280.711
280.525
280.512
280.507
280.51
280.519
280.534
280.554
280.575
280.595
280.611
280.886
280.876
280.871
280.874
280.884
280.901
280.923
280.946
280.969
280.981
280.792
280.786
280.786
280.786
280.786
280.786
280.786
280.786
280.786
280.792
280.499
280.498
280.497
280.497
280.497
280.498
280.498
280.499
280.501
280.504
280.614
280.613
280.613
280.613
280.614
280.614
280.615
280.615
280.616
280.615
280.551
280.55
280.549
280.55
280.551
280.552
280.553
280.555
280.556
280.558
280.582
280.58
280.579
280.58
280.581
280.584
280.587
280.59
280.593
280.595
280.591
280.587
280.586
280.587
280.589
280.593
280.599
280.604
280.61
280.613
280.563
280.558
280.557
280.558
280.562
280.568
280.575
280.583
280.589
280.594
280.652
280.646
280.643
280.644
280.649
280.658
280.668
280.68
280.691
280.697
280.511
280.503
280.5
280.501
280.508
280.517
280.53
280.543
280.555
280.565
280.893
280.887
280.883
280.885
280.892
280.903
280.917
280.932
280.946
280.952
280.843
280.839
280.839
280.839
280.839
280.839
280.839
280.839
280.839
280.843
280.464
280.463
280.463
280.464
280.464
280.464
280.464
280.465
280.465
280.468
280.618
280.617
280.617
280.616
280.616
280.617
280.618
280.618
280.62
280.62
280.551
280.551
280.551
280.551
280.552
280.552
280.553
280.554
280.554
280.554
280.581
280.58
280.579
280.579
280.58
280.582
280.584
280.586
280.588
280.589
280.586
280.584
280.583
280.583
280.585
280.587
280.591
280.594
280.598
280.6
280.562
280.56
280.559
280.56
280.563
280.567
280.571
280.576
280.579
280.582
280.642
280.637
280.635
280.635
280.639
280.644
280.651
280.659
280.667
280.673
280.473
280.469
280.467
280.468
280.472
280.479
280.487
280.494
280.501
280.507
280.93
280.926
280.923
280.924
280.929
280.936
280.945
280.955
280.965
280.968
280.925
280.922
280.922
280.921
280.921
280.921
280.922
280.922
280.924
280.927
280.406
280.408
280.41
280.411
280.412
280.412
280.411
280.41
280.407
280.407
280.607
280.605
280.603
280.603
280.602
280.603
280.604
280.605
280.607
280.61
280.551
280.552
280.552
280.553
280.553
280.554
280.554
280.554
280.554
280.553
280.578
280.577
280.576
280.576
280.577
280.578
280.579
280.581
280.582
280.584
280.58
280.578
280.578
280.578
280.579
280.581
280.583
280.586
280.588
280.59
280.561
280.56
280.559
280.56
280.562
280.565
280.568
280.571
280.573
280.574
280.609
280.605
280.603
280.604
280.606
280.61
280.615
280.621
280.628
280.634
280.413
280.411
280.411
280.412
280.415
280.42
280.425
280.43
280.433
280.433
280.989
280.985
280.983
280.984
280.988
280.993
281
281.007
281.015
281.017
289.473
291.231
291.495
289.906
290.638
292.769
293.178
291.518
292.3
294.927
295.461
293.488
293.582
296.65
297.317
295.135
294.527
298.004
298.814
296.49
295.276
299.132
300.1
297.906
295.822
300.039
301.199
299.33
296.293
300.834
302.2
300.709
296.508
301.348
302.929
301.862
297.067
302.098
303.944
303.463
286.161
286.708
286.689
286.164
287.458
288.101
288.039
287.386
289.062
289.866
289.754
288.896
290.503
291.453
291.282
290.23
291.679
292.77
292.533
291.298
292.701
293.93
293.668
292.275
293.508
294.866
294.617
293.088
294.204
295.668
295.44
293.802
294.642
296.17
295.971
294.267
295.428
296.929
296.84
295.19
282.251
282.385
282.416
282.347
282.979
283.198
283.238
283.101
284.146
284.484
284.528
284.279
285.415
285.873
285.913
285.533
286.578
287.152
287.179
286.656
287.714
288.4
288.412
287.752
288.705
289.5
289.5
288.714
289.644
290.531
290.522
289.632
290.403
291.331
291.32
290.379
291.647
292.504
292.533
291.669
281.483
281.549
281.57
281.549
281.741
281.826
281.856
281.833
282.45
282.598
282.64
282.586
283.327
283.548
283.6
283.499
284.168
284.467
284.524
284.361
285.058
285.438
285.496
285.258
285.877
286.338
286.394
286.074
286.714
287.246
287.298
286.897
287.469
288.035
288.082
287.627
288.814
289.305
289.366
288.953
281.051
281.087
281.1
281.088
281.089
281.118
281.132
281.132
281.539
281.596
281.622
281.618
282.151
282.249
282.288
282.272
282.747
282.895
282.946
282.909
283.414
283.619
283.68
283.611
284.039
284.304
284.373
284.262
284.715
285.035
285.106
284.949
285.352
285.701
285.771
285.574
286.605
286.883
286.958
286.797
280.88
280.91
280.919
280.907
280.783
280.796
280.803
280.803
281.088
281.114
281.127
281.128
281.529
281.575
281.598
281.599
281.957
282.031
282.065
282.061
282.456
282.565
282.611
282.599
282.922
283.07
283.127
283.1
283.446
283.633
283.697
283.649
283.948
284.158
284.222
284.152
285.069
285.212
285.28
285.249
280.798
280.825
280.833
280.821
280.616
280.622
280.625
280.626
280.827
280.839
280.845
280.847
281.156
281.179
281.191
281.193
281.474
281.511
281.531
281.534
281.859
281.916
281.946
281.948
282.211
282.292
282.331
282.33
282.617
282.724
282.771
282.763
282.996
283.12
283.17
283.151
283.993
284.051
284.102
284.128
280.764
280.79
280.797
280.785
280.533
280.536
280.537
280.538
280.677
280.683
280.687
280.688
280.924
280.936
280.943
280.944
281.163
281.183
281.195
281.197
281.466
281.497
281.515
281.519
281.735
281.781
281.805
281.81
282.054
282.115
282.146
282.149
282.333
282.406
282.44
282.44
283.226
283.231
283.266
283.313
280.752
280.777
280.784
280.772
280.494
280.496
280.497
280.497
280.593
280.597
280.598
280.599
280.778
280.784
280.788
280.789
280.957
280.968
280.975
280.977
281.196
281.213
281.224
281.227
281.401
281.427
281.442
281.446
281.653
281.689
281.708
281.713
281.858
281.9
281.923
281.927
282.663
282.637
282.659
282.71
280.75
280.775
280.782
280.77
280.481
280.482
280.483
280.483
280.55
280.552
280.553
280.553
280.687
280.69
280.692
280.693
280.821
280.827
280.831
280.832
281.008
281.018
281.024
281.026
281.161
281.177
281.186
281.189
281.362
281.383
281.395
281.399
281.51
281.535
281.549
281.553
282.239
282.196
282.208
282.259
280.751
280.776
280.783
280.771
280.482
280.483
280.484
280.484
280.532
280.533
280.534
280.534
280.631
280.633
280.635
280.635
280.732
280.735
280.737
280.738
280.877
280.884
280.887
280.889
280.988
280.998
281.003
281.005
281.15
281.162
281.17
281.172
281.251
281.266
281.275
281.278
281.914
281.862
281.869
281.917
280.752
280.777
280.784
280.772
280.491
280.491
280.491
280.492
280.529
280.53
280.53
280.53
280.599
280.6
280.601
280.601
280.674
280.676
280.678
280.678
280.787
280.791
280.793
280.794
280.863
280.869
280.873
280.874
280.995
281.003
281.008
281.009
281.059
281.068
281.073
281.075
281.662
281.607
281.61
281.654
280.751
280.777
280.783
280.771
280.501
280.502
280.502
280.502
280.536
280.536
280.537
280.537
280.581
280.582
280.582
280.582
280.639
280.64
280.641
280.642
280.726
280.729
280.73
280.731
280.774
280.778
280.78
280.781
280.886
280.89
280.893
280.894
280.915
280.921
280.924
280.926
281.465
281.41
281.411
281.452
280.747
280.773
280.78
280.768
280.512
280.512
280.512
280.512
280.548
280.549
280.549
280.549
280.571
280.572
280.572
280.573
280.619
280.62
280.62
280.62
280.686
280.687
280.688
280.689
280.711
280.713
280.714
280.715
280.81
280.813
280.814
280.815
280.809
280.812
280.815
280.815
281.31
281.257
281.257
281.294
280.742
280.768
280.774
280.762
280.519
280.52
280.52
280.52
280.564
280.564
280.564
280.564
280.567
280.567
280.568
280.568
280.608
280.609
280.609
280.609
280.659
280.66
280.661
280.661
280.666
280.667
280.668
280.669
280.76
280.762
280.763
280.763
280.73
280.732
280.733
280.734
281.187
281.138
281.137
281.171
280.735
280.761
280.768
280.755
280.523
280.524
280.524
280.524
280.582
280.581
280.581
280.581
280.564
280.565
280.565
280.565
280.603
280.603
280.603
280.603
280.641
280.642
280.642
280.643
280.635
280.636
280.636
280.636
280.73
280.731
280.732
280.732
280.67
280.671
280.672
280.672
281.09
281.046
281.046
281.075
280.734
280.76
280.766
280.753
280.521
280.521
280.522
280.522
280.6
280.6
280.599
280.599
280.562
280.562
280.562
280.562
280.6
280.6
280.6
280.6
280.628
280.628
280.628
280.628
280.613
280.613
280.613
280.613
280.713
280.714
280.714
280.715
280.621
280.622
280.622
280.622
281.018
280.982
280.981
281.005
280.753
280.778
280.782
280.769
280.507
280.508
280.508
280.509
280.615
280.615
280.615
280.615
280.558
280.558
280.558
280.558
280.595
280.596
280.596
280.596
280.615
280.615
280.615
280.616
280.595
280.595
280.595
280.595
280.7
280.701
280.701
280.701
280.573
280.574
280.574
280.573
280.98
280.951
280.951
280.97
280.812
280.833
280.837
280.825
280.472
280.473
280.473
280.473
280.621
280.621
280.621
280.622
280.554
280.554
280.553
280.553
280.59
280.59
280.59
280.59
280.602
280.602
280.602
280.603
280.581
280.581
280.58
280.58
280.678
280.679
280.68
280.68
280.512
280.512
280.512
280.511
280.988
280.97
280.97
280.982
280.909
280.922
280.924
280.916
280.408
280.409
280.408
280.408
280.614
280.615
280.615
280.616
280.551
280.551
280.551
280.55
280.585
280.585
280.585
280.585
280.592
280.592
280.592
280.592
280.572
280.572
280.571
280.571
280.644
280.647
280.647
280.646
280.429
280.428
280.428
280.428
281.034
281.03
281.03
281.033
282.181
280.881
280.338
279.991
279.696
279.455
279.263
279.111
278.99
278.885
282.326
281.087
280.253
279.728
279.312
279.004
278.777
278.606
278.477
278.373
282.9
281.594
280.463
279.824
279.324
278.976
278.722
278.532
278.388
278.274
283.496
282.129
280.731
280.027
279.461
279.09
278.817
278.612
278.456
278.33
283.974
282.584
280.94
280.186
279.561
279.17
278.878
278.66
278.494
278.361
284.524
283.077
281.21
280.42
279.735
279.326
279.013
278.781
278.599
278.449
285.006
283.477
281.41
280.597
279.855
279.433
279.099
278.852
278.657
278.496
285.572
283.966
281.714
280.884
280.083
279.644
279.28
279.01
278.787
278.594
286.021
284.358
281.927
281.122
280.286
279.843
279.443
279.143
278.891
278.673
287.753
286.09
283.503
282.645
281.683
281.114
280.59
280.186
279.851
279.557
283.979
282.669
281.681
280.968
280.475
280.129
279.878
279.69
279.545
279.423
284.425
282.638
281.308
280.448
279.894
279.516
279.247
279.051
278.908
278.802
285.021
282.827
281.239
280.309
279.714
279.317
279.037
278.836
278.693
278.59
285.509
283.013
281.233
280.28
279.658
279.255
278.973
278.774
278.634
278.534
285.777
283.069
281.159
280.199
279.557
279.156
278.878
278.685
278.55
278.456
285.976
283.14
281.137
280.19
279.531
279.137
278.862
278.674
278.542
278.448
286.021
283.121
281.047
280.129
279.458
279.078
278.808
278.626
278.498
278.406
286.078
283.18
281.051
280.176
279.493
279.127
278.855
278.673
278.537
278.434
286.035
283.169
280.993
280.198
279.53
279.194
278.916
278.725
278.578
278.463
286.944
284.23
282.058
281.314
280.598
280.206
279.858
279.612
279.419
279.274
282.111
281.731
281.361
281.032
280.75
280.512
280.315
280.152
280.015
279.897
282.572
281.89
281.272
280.761
280.347
280.019
279.762
279.561
279.405
279.286
283.345
282.328
281.461
280.793
280.276
279.884
279.587
279.361
279.192
279.068
284.115
282.775
281.675
280.878
280.282
279.848
279.527
279.289
279.114
278.986
284.69
283.067
281.765
280.871
280.217
279.757
279.425
279.183
279.007
278.881
285.199
283.339
281.865
280.902
280.205
279.731
279.394
279.152
278.975
278.848
285.547
283.491
281.873
280.866
280.139
279.662
279.324
279.084
278.909
278.783
285.869
283.669
281.932
280.906
280.16
279.686
279.346
279.105
278.925
278.79
286.073
283.755
281.918
280.915
280.177
279.722
279.379
279.132
278.943
278.798
287.062
284.74
282.865
281.884
281.116
280.625
280.236
279.952
279.732
279.572
281.505
281.358
281.181
281
280.829
280.674
280.537
280.417
280.31
280.213
281.711
281.422
281.091
280.775
280.495
280.255
280.054
279.887
279.752
279.645
282.34
281.855
281.345
280.89
280.505
280.189
279.934
279.73
279.57
279.448
283.073
282.356
281.649
281.058
280.579
280.201
279.905
279.674
279.496
279.363
283.702
282.74
281.841
281.128
280.57
280.145
279.82
279.573
279.386
279.247
284.317
283.116
282.036
281.221
280.598
280.139
279.795
279.537
279.343
279.199
284.807
283.378
282.132
281.235
280.563
280.081
279.725
279.462
279.264
279.119
285.28
283.648
282.258
281.303
280.594
280.1
279.735
279.467
279.262
279.109
285.649
283.826
282.311
281.333
280.613
280.12
279.749
279.474
279.263
279.102
286.696
284.769
283.195
282.209
281.461
280.941
280.539
280.237
280.005
279.838
281.096
281.05
280.979
280.895
280.807
280.72
280.637
280.559
280.486
280.415
281.104
280.99
280.835
280.667
280.502
280.348
280.21
280.088
279.985
279.9
281.557
281.35
281.087
280.817
280.565
280.34
280.145
279.982
279.848
279.741
282.151
281.813
281.415
281.032
280.69
280.398
280.154
279.955
279.794
279.669
282.697
282.203
281.657
281.161
280.736
280.385
280.101
279.875
279.696
279.559
283.277
282.61
281.912
281.31
280.81
280.411
280.096
279.849
279.655
279.508
283.771
282.924
282.076
281.378
280.814
280.378
280.04
279.778
279.575
279.422
284.272
283.248
282.26
281.483
280.869
280.405
280.049
279.776
279.564
279.402
284.69
283.484
282.37
281.541
280.898
280.421
280.053
279.771
279.552
279.383
285.728
284.399
283.214
282.354
281.679
281.178
280.787
280.486
280.252
280.083
280.923
280.905
280.873
280.832
280.785
280.737
280.689
280.641
280.594
280.543
280.792
280.741
280.664
280.574
280.479
280.384
280.294
280.212
280.139
280.077
281.107
281.01
280.871
280.714
280.556
280.405
280.268
280.147
280.044
279.959
281.559
281.394
281.172
280.934
280.703
280.492
280.307
280.148
280.015
279.907
281.99
281.737
281.414
281.087
280.782
280.514
280.285
280.093
279.936
279.812
282.48
282.12
281.686
281.267
280.891
280.57
280.303
280.084
279.906
279.767
282.914
282.432
281.88
281.372
280.93
280.565
280.266
280.025
279.833
279.684
283.376
282.763
282.094
281.506
281.008
280.606
280.283
280.025
279.82
279.66
283.77
283.015
282.237
281.587
281.05
280.624
280.283
280.014
279.8
279.633
284.754
283.894
283.046
282.353
281.783
281.333
280.973
280.688
280.463
280.3
280.839
280.833
280.818
280.797
280.773
280.747
280.72
280.692
280.661
280.625
280.621
280.597
280.559
280.51
280.456
280.399
280.343
280.29
280.242
280.2
280.838
280.79
280.715
280.626
280.529
280.432
280.34
280.255
280.18
280.117
281.178
281.094
280.969
280.824
280.675
280.53
280.396
280.277
280.173
280.087
281.507
281.375
281.186
280.977
280.768
280.574
280.398
280.246
280.116
280.011
281.904
281.709
281.445
281.164
280.895
280.651
280.437
280.254
280.101
279.977
282.259
281.989
281.64
281.286
280.957
280.667
280.418
280.21
280.038
279.902
282.653
282.296
281.86
281.435
281.052
280.722
280.445
280.216
280.029
279.88
282.987
282.532
282.011
281.528
281.103
280.745
280.447
280.204
280.006
279.85
283.893
283.363
282.782
282.256
281.797
281.416
281.1
280.843
280.636
280.484
280.804
280.803
280.795
280.785
280.772
280.758
280.742
280.726
280.706
280.679
280.535
280.523
280.503
280.476
280.445
280.411
280.377
280.344
280.314
280.286
280.683
280.658
280.617
280.565
280.506
280.445
280.385
280.328
280.276
280.232
280.937
280.892
280.82
280.733
280.638
280.541
280.448
280.362
280.285
280.219
281.185
281.112
281.001
280.869
280.73
280.594
280.465
280.349
280.248
280.163
281.5
281.391
281.231
281.047
280.86
280.681
280.517
280.372
280.247
280.143
281.78
281.626
281.408
281.169
280.931
280.711
280.514
280.342
280.196
280.078
282.103
281.895
281.615
281.319
281.035
280.777
280.551
280.357
280.194
280.062
282.368
282.098
281.758
281.413
281.089
280.803
280.555
280.345
280.171
280.031
283.191
282.873
282.486
282.102
281.749
281.44
281.175
280.954
280.771
280.636
280.791
280.792
280.789
280.783
280.776
280.768
280.76
280.75
280.737
280.715
280.496
280.489
280.478
280.463
280.445
280.426
280.405
280.385
280.366
280.349
280.596
280.582
280.559
280.529
280.494
280.456
280.417
280.38
280.346
280.316
280.785
280.76
280.718
280.665
280.605
280.542
280.479
280.419
280.364
280.316
280.971
280.929
280.863
280.78
280.689
280.595
280.504
280.419
280.343
280.278
281.218
281.155
281.057
280.939
280.811
280.684
280.563
280.452
280.354
280.27
281.432
281.343
281.207
281.048
280.881
280.719
280.568
280.432
280.314
280.216
281.692
281.569
281.391
281.19
280.985
280.79
280.613
280.456
280.321
280.209
281.894
281.735
281.515
281.275
281.037
280.816
280.618
280.445
280.298
280.177
282.637
282.448
282.196
281.925
281.663
281.422
281.209
281.025
280.87
280.754
280.789
280.791