/*--------------------------------*- C++ -*----------------------------------*\
| =========                 |                                                 |
| \\      /  F ield         | foam-extend: Open Source CFD                    |
|  \\    /   O peration     | Version:     4.0                                |
|   \\  /    A nd           | Web:         http://www.foam-extend.org         |
|    \\/     M anipulation  |                                                 |
\*---------------------------------------------------------------------------*/
FoamFile
{
    version     2.0;
    format      ascii;
    class       volVectorField;
    location    "1950";
    object      Urel;
}
// * * * * * * * * * * * * * * * * * * * * * * * * * * * * * * * * * * * * * //

dimensions      [0 1 -1 0 0 0 0];

internalField   nonuniform List<vector> 
34480
(
(209.001 -9.79383 -19.0911)
(209.321 -9.2935 -21.5536)
(209.478 -8.56818 -23.9801)
(209.485 -7.64371 -26.4137)
(209.336 -6.55889 -28.9924)
(208.994 -5.31652 -31.892)
(208.378 -3.89689 -35.5127)
(207.212 -2.18377 -40.1989)
(204.541 0.0514711 -48.1211)
(197.604 4.25587 -75.2917)
(209.934 -12.8027 -26.8098)
(210.194 -11.6755 -29.5938)
(210.321 -10.3938 -32.2536)
(210.294 -8.97182 -34.8567)
(210.059 -7.44608 -37.5204)
(209.556 -5.83644 -40.452)
(208.749 -4.16182 -44.1111)
(207.456 -2.36823 -49.2399)
(204.32 -0.294161 -58.0608)
(196.161 3.65926 -88.6309)
(210.624 -17.1005 -33.7466)
(210.859 -15.5493 -36.8318)
(210.953 -13.821 -39.779)
(210.882 -11.9094 -42.6018)
(210.587 -9.87059 -45.4277)
(210.059 -7.73858 -48.5132)
(209.307 -5.54089 -52.3869)
(208.164 -3.20785 -58.0776)
(204.863 -0.5725 -67.776)
(195.653 4.13229 -101.29)
(210.632 -20.496 -41.1586)
(210.867 -18.414 -44.5382)
(210.976 -16.1563 -47.725)
(210.939 -13.7047 -50.75)
(210.705 -11.1158 -53.7479)
(210.29 -8.42693 -57.0045)
(209.674 -5.67058 -61.051)
(208.695 -2.76787 -67.1361)
(205.368 0.454191 -77.458)
(195.355 5.84585 -112.879)
(210.791 -24.9729 -48.0202)
(211.055 -22.4812 -51.6773)
(211.203 -19.7762 -55.1506)
(211.228 -16.839 -58.4254)
(211.085 -13.7459 -61.6613)
(210.806 -10.5339 -65.1561)
(210.338 -7.23007 -69.4378)
(209.542 -3.74473 -75.9421)
(206.315 0.102154 -86.9317)
(195.658 6.19688 -123.872)
(210.676 -28.2275 -55.6163)
(210.952 -25.2357 -59.5102)
(211.119 -22.0162 -63.1521)
(211.178 -18.5479 -66.5705)
(211.103 -14.8981 -69.9177)
(210.941 -11.1097 -73.5157)
(210.626 -7.21143 -77.8766)
(210.045 -3.11629 -84.608)
(207.065 1.37598 -96.0826)
(196.009 8.10807 -134.171)
(210.758 -33.0092 -62.4745)
(211.074 -29.6284 -66.6086)
(211.27 -25.9844 -70.5001)
(211.367 -22.0662 -74.1251)
(211.351 -17.949 -77.6651)
(211.286 -13.6693 -81.4432)
(211.112 -9.23158 -85.9753)
(210.747 -4.53268 -92.9908)
(208.098 0.6987 -105.044)
(196.747 8.26164 -144.124)
(210.585 -36.1792 -70.3217)
(210.906 -32.3265 -74.6629)
(211.082 -28.1647 -78.6823)
(211.138 -23.7085 -82.4165)
(211.081 -19.0117 -86.0096)
(210.998 -14.1315 -89.7899)
(210.869 -9.06533 -94.2566)
(210.661 -3.70554 -101.229)
(208.42 2.37054 -113.47)
(197.103 10.8376 -153.054)
(210.531 -41.4424 -77.1512)
(210.895 -37.2226 -81.6784)
(211.102 -32.6854 -85.8809)
(211.196 -27.8695 -89.7661)
(211.19 -22.8304 -93.5195)
(211.152 -17.5978 -97.4454)
(211.091 -12.1155 -102.078)
(211.023 -6.23083 -109.204)
(209.11 0.774786 -121.818)
(197.679 10.7322 -161.342)
(209.566 -44.6436 -85.1132)
(209.841 -40.0415 -89.9215)
(209.788 -35.0025 -94.3265)
(209.429 -29.6473 -98.396)
(208.811 -23.9892 -102.257)
(208.026 -18.0692 -106.188)
(207.156 -11.8217 -110.661)
(206.369 -5.05623 -117.278)
(204.432 2.95959 -129.04)
(194.246 14.3052 -166.631)
(205.887 1.91218 3.00074)
(206.365 1.10966 1.54413)
(206.552 0.42656 -0.00972508)
(206.469 -0.117401 -1.60982)
(206.091 -0.546529 -3.31957)
(205.329 -0.86135 -5.15136)
(203.982 -1.06596 -7.15891)
(201.616 -1.17184 -9.31719)
(198.15 -1.25692 -11.2449)
(193.575 -1.15902 -14.3936)
(207.186 2.86837 2.79815)
(207.617 2.16403 1.16209)
(207.789 1.51917 -0.491968)
(207.7 0.943652 -2.18883)
(207.289 0.416268 -3.99607)
(206.434 -0.0690304 -5.97158)
(204.94 -0.527353 -8.2085)
(202.355 -0.9936 -10.958)
(198.186 -1.58394 -14.0066)
(192.501 -1.82403 -20.5816)
(208.135 2.57704 3.30761)
(208.545 1.77095 1.54525)
(208.702 1.04427 -0.256311)
(208.603 0.422137 -2.08982)
(208.166 -0.134042 -4.02949)
(207.292 -0.63679 -6.15906)
(205.808 -1.11541 -8.66745)
(203.23 -1.58659 -12.0866)
(198.686 -2.15732 -16.333)
(192.067 -2.07113 -26.7166)
(208.379 3.17718 3.30431)
(208.794 2.40266 1.45694)
(208.973 1.69365 -0.402704)
(208.915 1.08753 -2.29641)
(208.542 0.545748 -4.30955)
(207.77 0.0566181 -6.5685)
(206.398 -0.412985 -9.2991)
(203.914 -0.855893 -13.2584)
(199.14 -1.3639 -18.4764)
(191.707 -0.933658 -32.4541)
(208.732 2.66756 3.83934)
(209.175 1.8082 1.93678)
(209.393 1.04137 -0.0194604)
(209.4 0.407861 -2.00787)
(209.118 -0.147595 -4.1455)
(208.482 -0.636284 -6.58616)
(207.261 -1.09308 -9.57203)
(204.939 -1.48913 -14.0627)
(200.087 -1.90264 -20.2307)
(191.947 -1.07312 -37.6932)
(208.768 3.39233 3.63536)
(209.225 2.54052 1.72106)
(209.469 1.78295 -0.205756)
(209.518 1.16312 -2.17469)
(209.311 0.634329 -4.29695)
(208.803 0.182157 -6.77246)
(207.747 -0.224642 -9.84301)
(205.646 -0.548488 -14.662)
(200.882 -0.830493 -21.5475)
(192.217 0.36449 -42.2101)
(208.973 2.56636 4.16112)
(209.466 1.61565 2.23871)
(209.74 0.786028 0.260187)
(209.836 0.113842 -1.7486)
(209.696 -0.451077 -3.93503)
(209.303 -0.920312 -6.51512)
(208.41 -1.31037 -9.74397)
(206.554 -1.56859 -14.9175)
(201.996 -1.65649 -22.5675)
(192.907 0.000992197 -46.2452)
(208.888 3.37374 3.69666)
(209.389 2.40953 1.80456)
(209.653 1.59807 -0.0871992)
(209.723 0.95069 -2.02346)
(209.567 0.441033 -4.11963)
(209.195 0.0370285 -6.62223)
(208.396 -0.264237 -9.78086)
(206.76 -0.418685 -15.005)
(202.531 -0.208359 -23.0525)
(193.315 1.83435 -49.2175)
(208.9 2.05561 4.24582)
(209.433 0.977581 2.40283)
(209.725 0.0663309 0.526844)
(209.831 -0.688812 -1.37694)
(209.733 -1.31838 -3.48005)
(209.435 -1.83478 -6.02999)
(208.757 -2.19014 -9.33504)
(207.349 -2.32174 -14.7934)
(203.459 -1.74196 -23.4883)
(193.991 1.00293 -51.498)
(207.978 2.86405 3.63752)
(208.455 1.6934 1.79032)
(208.573 0.796586 -0.0339185)
(208.359 0.0679961 -1.90478)
(207.832 -0.474068 -3.92933)
(207.024 -0.855571 -6.35346)
(205.824 -1.01328 -9.46946)
(204.022 -0.832118 -14.5638)
(200.28 0.222244 -23.0377)
(191.634 4.03744 -51.3446)
(203.513 1.42782 2.33452)
(204.016 0.833491 1.21647)
(204.198 0.30246 -0.0130847)
(204.094 -0.131823 -1.26323)
(203.693 -0.482436 -2.55445)
(202.946 -0.746797 -3.8323)
(201.761 -0.934683 -5.04896)
(199.985 -1.07161 -6.05475)
(197.43 -1.24297 -6.49853)
(194.214 -1.4323 -6.51704)
(204.909 2.41401 2.3135)
(205.404 1.87166 0.946425)
(205.584 1.34536 -0.448522)
(205.461 0.854719 -1.86552)
(204.997 0.389624 -3.33113)
(204.108 -0.0552677 -4.84796)
(202.635 -0.493261 -6.3796)
(200.307 -0.955965 -7.8629)
(196.683 -1.55474 -8.80243)
(191.843 -2.13666 -9.81082)
(205.944 2.21147 2.94856)
(206.444 1.52825 1.39594)
(206.624 0.890034 -0.208314)
(206.499 0.326589 -1.83769)
(206.011 -0.194151 -3.53852)
(205.058 -0.682106 -5.32751)
(203.442 -1.16202 -7.21447)
(200.798 -1.66406 -9.29192)
(196.296 -2.33252 -11.0027)
(189.854 -2.91132 -13.5841)
(206.341 2.89616 2.99493)
(206.863 2.21953 1.31885)
(207.069 1.57877 -0.380207)
(206.979 1.01371 -2.11179)
(206.528 0.490819 -3.93987)
(205.613 0.000349069 -5.92271)
(203.98 -0.489588 -8.10625)
(201.167 -0.996398 -10.7404)
(195.929 -1.6814 -13.2006)
(187.992 -2.16648 -17.5588)
(206.843 2.42558 3.56971)
(207.397 1.64916 1.80639)
(207.64 0.939954 -0.0187282)
(207.606 0.339791 -1.8767)
(207.225 -0.20181 -3.86892)
(206.398 -0.693344 -6.08587)
(204.825 -1.17029 -8.6023)
(201.968 -1.63865 -11.8315)
(196.181 -2.28657 -15.1301)
(186.924 -2.57794 -21.5719)
(207.008 3.19944 3.39072)
(207.582 2.4167 1.5949)
(207.852 1.70716 -0.22154)
(207.86 1.11429 -2.08359)
(207.542 0.593512 -4.09159)
(206.813 0.132494 -6.387)
(205.339 -0.3042 -9.06265)
(202.54 -0.716098 -12.7144)
(196.407 -1.27704 -16.715)
(186.059 -1.34024 -25.3332)
(207.326 2.38999 3.93976)
(207.932 1.50245 2.1177)
(208.231 0.719778 0.232263)
(208.285 0.0781687 -1.6886)
(208.029 -0.470791 -3.78463)
(207.399 -0.935398 -6.22051)
(206.045 -1.33807 -9.12129)
(203.365 -1.66962 -13.2318)
(197.058 -2.06896 -18.0274)
(185.781 -1.79935 -28.9564)
(207.333 3.2354 3.47967)
(207.947 2.33235 1.68447)
(208.24 1.5657 -0.116711)
(208.277 0.948492 -1.9693)
(208.014 0.454163 -3.98403)
(207.412 0.0564389 -6.3668)
(206.142 -0.257498 -9.26018)
(203.615 -0.48815 -13.5541)
(197.324 -0.620797 -18.8722)
(185.385 -0.0697532 -31.8728)
(207.426 1.90371 4.03338)
(208.058 0.887604 2.27576)
(208.373 0.0350556 0.473455)
(208.439 -0.66059 -1.36091)
(208.217 -1.2312 -3.38727)
(207.677 -1.68701 -5.81476)
(206.519 -1.9927 -8.8762)
(204.185 -2.12679 -13.5147)
(198.027 -1.8608 -19.642)
(185.305 -0.799249 -34.2639)
(206.57 2.7698 3.39275)
(207.15 1.67694 1.66439)
(207.335 0.850877 -0.0519762)
(207.163 0.187524 -1.82396)
(206.626 -0.293548 -3.74803)
(205.715 -0.615325 -6.03786)
(204.199 -0.726497 -8.92213)
(201.628 -0.547162 -13.3055)
(195.607 0.217602 -19.5467)
(182.826 2.30028 -34.6945)
(201.778 0.948973 1.70192)
(202.215 0.547585 0.911562)
(202.365 0.165518 0.0080485)
(202.267 -0.157987 -0.896274)
(201.918 -0.428713 -1.79996)
(201.303 -0.641293 -2.62139)
(200.392 -0.807954 -3.29561)
(199.158 -0.952203 -3.68717)
(197.598 -1.12943 -3.58053)
(195.867 -1.36499 -2.75297)
(203.1 1.90716 1.79166)
(203.567 1.53167 0.718419)
(203.73 1.13449 -0.387453)
(203.599 0.741469 -1.49688)
(203.151 0.353782 -2.6015)
(202.341 -0.0313519 -3.67079)
(201.092 -0.424587 -4.62874)
(199.3 -0.848371 -5.34698)
(196.835 -1.37088 -5.40305)
(194.037 -1.93809 -4.61978)
(204.089 1.75932 2.50401)
(204.599 1.21942 1.20655)
(204.775 0.689584 -0.150404)
(204.633 0.20403 -1.51764)
(204.134 -0.260738 -2.91188)
(203.205 -0.713042 -4.31322)
(201.714 -1.1723 -5.65519)
(199.465 -1.66477 -6.84632)
(196.11 -2.29613 -7.30003)
(192.031 -2.99179 -6.92415)
(204.548 2.52581 2.58779)
(205.105 1.97141 1.13247)
(205.31 1.42004 -0.353962)
(205.188 0.915369 -1.86067)
(204.687 0.432155 -3.42331)
(203.72 -0.0388997 -5.05609)
(202.093 -0.52687 -6.71318)
(199.506 -1.05417 -8.37932)
(195.289 -1.7599 -9.2936)
(189.824 -2.52604 -9.54052)
(205.134 2.1002 3.20357)
(205.735 1.4312 1.62619)
(205.975 0.799464 -0.0192148)
(205.894 0.24919 -1.68677)
(205.429 -0.262156 -3.45114)
(204.486 -0.742508 -5.35588)
(202.809 -1.22482 -7.38162)
(200.005 -1.72835 -9.61117)
(195.037 -2.44257 -11.1402)
(188.233 -3.18156 -12.3682)
(205.39 2.92864 3.05357)
(206.02 2.23862 1.41931)
(206.287 1.59559 -0.242981)
(206.24 1.04503 -1.94308)
(205.814 0.548152 -3.75804)
(204.92 0.0924717 -5.77963)
(203.251 -0.359695 -8.01085)
(200.341 -0.82692 -10.6684)
(194.767 -1.50729 -12.7414)
(186.756 -2.16681 -15.1353)
(205.793 2.14557 3.63172)
(206.455 1.34274 1.94849)
(206.75 0.622936 0.195279)
(206.743 0.0238172 -1.58822)
(206.365 -0.498618 -3.52042)
(205.535 -0.952152 -5.71719)
(203.913 -1.36331 -8.22137)
(200.974 -1.74508 -11.3673)
(194.942 -2.30078 -14.1236)
(185.841 -2.77419 -17.9496)
(205.88 3.04165 3.18257)
(206.55 2.21921 1.51877)
(206.843 1.51076 -0.158545)
(206.825 0.933685 -1.88592)
(206.441 0.463099 -3.7553)
(205.628 0.0767569 -5.9257)
(204.045 -0.247281 -8.46727)
(201.144 -0.53626 -11.8564)
(194.855 -0.880956 -15.1101)
(184.867 -1.19401 -20.3184)
(206.04 1.70848 3.76503)
(206.721 0.77098 2.12421)
(207.03 -0.0163523 0.424541)
(207.036 -0.65282 -1.30738)
(206.686 -1.16973 -3.20978)
(205.917 -1.57422 -5.43771)
(204.391 -1.84582 -8.14308)
(201.58 -1.9955 -11.889)
(195.219 -1.94759 -15.9862)
(184.256 -1.89917 -22.3807)
(205.252 2.64819 3.103)
(205.886 1.64541 1.51525)
(206.104 0.893245 -0.0753329)
(205.94 0.293773 -1.7262)
(205.37 -0.131651 -3.516)
(204.346 -0.403096 -5.61245)
(202.58 -0.481745 -8.16682)
(199.579 -0.316639 -11.7255)
(193.238 0.228218 -16.0576)
(181.784 1.20171 -22.8631)
(200.568 0.550951 1.19407)
(200.91 0.294759 0.66624)
(201.025 0.0338984 0.0358813)
(200.949 -0.195437 -0.582978)
(200.691 -0.396813 -1.18734)
(200.252 -0.562556 -1.69745)
(199.64 -0.702229 -2.06658)
(198.877 -0.830967 -2.20479)
(198.012 -0.975245 -2.02036)
(197.161 -1.14174 -1.42919)
(201.724 1.43416 1.31163)
(202.118 1.19965 0.510537)
(202.255 0.920355 -0.320985)
(202.141 0.621786 -1.1454)
(201.768 0.313132 -1.93574)
(201.12 -0.00435656 -2.64885)
(200.175 -0.335188 -3.21059)
(198.931 -0.689154 -3.51259)
(197.408 -1.09449 -3.32761)
(195.911 -1.51155 -2.5177)
(202.574 1.29215 2.05088)
(203.045 0.890024 1.0161)
(203.207 0.470201 -0.0828962)
(203.073 0.0683882 -1.18005)
(202.62 -0.330204 -2.26733)
(201.811 -0.730216 -3.30326)
(200.58 -1.14486 -4.20328)
(198.862 -1.59164 -4.83742)
(196.579 -2.12578 -4.81336)
(194.19 -2.69458 -3.92709)
(203.014 2.11662 2.14899)
(203.556 1.69036 0.936117)
(203.752 1.23681 -0.314925)
(203.623 0.802527 -1.57373)
(203.132 0.372185 -2.84673)
(202.222 -0.0607361 -4.11422)
(200.772 -0.520368 -5.29402)
(198.639 -1.0259 -6.27063)
(195.549 -1.66523 -6.46656)
(192.08 -2.3695 -5.60777)
(203.613 1.728 2.79497)
(204.218 1.1782 1.43169)
(204.45 0.635036 -0.00589316)
(204.346 0.145213 -1.4533)
(203.855 -0.323577 -2.95311)
(202.906 -0.777295 -4.50621)
(201.314 -1.24445 -6.04447)
(198.857 -1.74737 -7.49225)
(194.993 -2.42689 -8.08628)
(190.376 -3.19423 -7.53466)
(203.91 2.60645 2.67036)
(204.557 2.02389 1.22768)
(204.819 1.4595 -0.251114)
(204.739 0.961633 -1.75708)
(204.261 0.500185 -3.33615)
(203.305 0.0639967 -5.02937)
(201.634 -0.384314 -6.78386)
(198.95 -0.871008 -8.60567)
(194.39 -1.55975 -9.55992)
(188.65 -2.35341 -9.45981)
(204.358 1.8529 3.27635)
(205.046 1.15065 1.76189)
(205.335 0.505382 0.169821)
(205.287 -0.0423596 -1.44418)
(204.836 -0.529458 -3.16778)
(203.904 -0.962863 -5.06264)
(202.202 -1.37136 -7.11157)
(199.367 -1.77997 -9.39667)
(194.211 -2.38003 -10.8782)
(187.387 -3.09975 -11.5024)
(204.5 2.80576 2.83991)
(205.2 2.0796 1.33461)
(205.492 1.4405 -0.192858)
(205.436 0.91199 -1.76583)
(204.977 0.473314 -3.4485)
(204.041 0.105887 -5.34401)
(202.324 -0.218867 -7.45813)
(199.417 -0.543416 -9.99059)
(193.836 -0.991438 -11.8664)
(186.053 -1.65663 -13.2458)
(204.713 1.47467 3.45773)
(205.422 0.630553 1.95916)
(205.726 -0.0842675 0.386981)
(205.689 -0.659574 -1.21457)
(205.253 -1.12419 -2.95705)
(204.345 -1.48269 -4.93682)
(202.642 -1.72724 -7.2249)
(199.712 -1.89036 -10.0744)
(193.886 -1.98186 -12.6837)
(185.055 -2.39465 -14.8187)
(203.987 2.50159 2.77506)
(204.652 1.59949 1.34514)
(204.894 0.925285 -0.103255)
(204.738 0.389975 -1.61279)
(204.15 0.0175223 -3.23989)
(203.066 -0.209308 -5.10171)
(201.197 -0.264026 -7.27246)
(198.1 -0.119001 -10.0003)
(192.172 0.260016 -12.811)
(182.631 0.640387 -15.131)
(199.736 0.251499 0.824999)
(199.99 0.0929529 0.488528)
(200.071 -0.079727 0.0637069)
(200.02 -0.236666 -0.342619)
(199.845 -0.382254 -0.735322)
(199.557 -0.507502 -1.04645)
(199.172 -0.618658 -1.25085)
(198.72 -0.723193 -1.29412)
(198.244 -0.831836 -1.14386)
(197.788 -0.943377 -0.777548)
(200.714 1.04006 0.911142)
(201.016 0.910684 0.337013)
(201.123 0.727818 -0.259906)
(201.035 0.512068 -0.844964)
(200.752 0.276835 -1.38633)
(200.273 0.0263416 -1.84321)
(199.609 -0.238158 -2.15824)
(198.79 -0.517222 -2.25868)
(197.882 -0.815758 -2.03782)
(197.075 -1.10397 -1.431)
(201.387 0.86104 1.63646)
(201.785 0.574475 0.842668)
(201.923 0.254231 -0.0149011)
(201.81 -0.0666402 -0.863475)
(201.433 -0.396334 -1.68066)
(200.781 -0.735342 -2.41782)
(199.836 -1.09025 -2.99859)
(198.607 -1.46972 -3.31464)
(197.133 -1.89578 -3.14399)
(195.745 -2.32568 -2.3466)
(201.754 1.71139 1.72097)
(202.243 1.4032 0.746804)
(202.42 1.04556 -0.268747)
(202.298 0.684784 -1.28275)
(201.857 0.314491 -2.28003)
(201.065 -0.0676839 -3.22089)
(199.868 -0.478403 -4.01842)
(198.227 -0.930142 -4.54536)
(196.093 -1.46913 -4.43743)
(193.951 -2.0412 -3.43931)
(202.312 1.34244 2.37816)
(202.88 0.910207 1.23732)
(203.094 0.458763 0.0185775)
(202.983 0.035323 -1.19969)
(202.511 -0.382184 -2.43228)
(201.631 -0.79638 -3.64919)
(200.236 -1.22901 -4.7636)
(198.232 -1.69957 -5.64702)
(195.413 -2.29772 -5.77461)
(192.405 -2.96249 -4.766)
(202.606 2.25764 2.26853)
(203.232 1.78667 1.03258)
(203.478 1.30703 -0.245921)
(203.38 0.868861 -1.54135)
(202.894 0.451495 -2.87037)
(201.96 0.0467352 -4.23213)
(200.42 -0.378218 -5.54349)
(198.119 -0.849788 -6.71202)
(194.638 -1.48363 -7.04659)
(190.721 -2.22676 -6.09573)
(203.066 1.53026 2.89519)
(203.743 0.936328 1.56843)
(204.016 0.372952 0.157457)
(203.941 -0.116731 -1.26658)
(203.46 -0.561214 -2.76011)
(202.507 -0.965533 -4.33652)
(200.871 -1.35735 -5.93746)
(198.338 -1.76634 -7.50451)
(194.243 -2.34351 -8.22494)
(189.393 -3.07491 -7.55895)
(203.235 2.54038 2.46881)
(203.933 1.92003 1.1408)
(204.214 1.35825 -0.217328)
(204.131 0.884975 -1.61476)
(203.635 0.484976 -3.0866)
(202.656 0.143756 -4.68397)
(200.954 -0.169153 -6.36115)
(198.264 -0.501488 -8.14041)
(193.682 -0.973541 -9.13457)
(187.951 -1.71704 -8.79371)
(203.484 1.21048 3.1235)
(204.192 0.469772 1.78602)
(204.484 -0.167006 0.361296)
(204.415 -0.679452 -1.08759)
(203.931 -1.09257 -2.64438)
(202.959 -1.40841 -4.35221)
(201.233 -1.62848 -6.21877)
(198.439 -1.79484 -8.27884)
(193.52 -1.95814 -9.83226)
(186.813 -2.51397 -9.91472)
(202.809 2.33626 2.41877)
(203.478 1.54231 1.15915)
(203.729 0.949179 -0.13359)
(203.579 0.478305 -1.48507)
(202.991 0.156525 -2.92802)
(201.895 -0.0308189 -4.53186)
(200.044 -0.0680787 -6.30656)
(197.09 0.0555879 -8.29685)
(191.993 0.313717 -9.98367)
(184.565 0.412646 -10.0826)
(199.162 0.0419338 0.576473)
(199.347 -0.0567617 0.369869)
(199.403 -0.170603 0.0877256)
(199.371 -0.275991 -0.172365)
(199.26 -0.379449 -0.425475)
(199.082 -0.471586 -0.616423)
(198.852 -0.556256 -0.736389)
(198.593 -0.635726 -0.752737)
(198.332 -0.713003 -0.658295)
(198.071 -0.784228 -0.451666)
(199.984 0.740325 0.599304)
(200.202 0.681985 0.200507)
(200.28 0.571662 -0.210981)
(200.217 0.423166 -0.609632)
(200.016 0.251297 -0.966677)
(199.686 0.061741 -1.25021)
(199.244 -0.140156 -1.4213)
(198.726 -0.350027 -1.43694)
(198.193 -0.562722 -1.25233)
(197.755 -0.754624 -0.85088)
(200.482 0.495023 1.28463)
(200.795 0.295892 0.694732)
(200.906 0.0585216 0.0460885)
(200.817 -0.189899 -0.590803)
(200.525 -0.453634 -1.18872)
(200.031 -0.729955 -1.7021)
(199.345 -1.02013 -2.07145)
(198.503 -1.32535 -2.22267)
(197.576 -1.64908 -2.04299)
(196.771 -1.95804 -1.47337)
(200.753 1.34147 1.33118)
(201.166 1.13192 0.574471)
(201.316 0.860896 -0.222288)
(201.212 0.571199 -1.01198)
(200.842 0.263043 -1.76758)
(200.196 -0.061984 -2.44271)
(199.262 -0.412456 -2.96159)
(198.059 -0.79333 -3.22048)
(196.634 -1.22279 -3.01393)
(195.32 -1.65848 -2.19327)
(201.234 0.972061 1.97877)
(201.737 0.645798 1.05237)
(201.925 0.282409 0.0486093)
(201.82 -0.0732009 -0.947613)
(201.398 -0.434349 -1.9316)
(200.635 -0.799946 -2.857)
(199.482 -1.18409 -3.6381)
(197.928 -1.60008 -4.14873)
(195.949 -2.09746 -4.06626)
(194.015 -2.62827 -3.11883)
(201.493 1.90569 1.87055)
(202.066 1.54117 0.842613)
(202.288 1.14657 -0.231159)
(202.186 0.771608 -1.31343)
(201.728 0.404298 -2.39824)
(200.877 0.0401446 -3.45725)
(199.542 -0.346056 -4.39843)
(197.672 -0.775618 -5.09982)
(195.123 -1.32043 -5.10547)
(192.501 -1.94609 -4.03142)
(201.934 1.19654 2.50697)
(202.569 0.710686 1.3754)
(202.821 0.231829 0.155687)
(202.732 -0.195741 -1.06915)
(202.258 -0.59213 -2.32871)
(201.352 -0.959697 -3.60137)
(199.878 -1.32204 -4.80823)
(197.736 -1.70717 -5.8272)
(194.628 -2.22206 -6.09941)
(191.263 -2.86481 -5.0738)
(202.106 2.25974 2.08501)
(202.77 1.74796 0.943908)
(203.033 1.26756 -0.233138)
(202.936 0.85392 -1.44276)
(202.438 0.49764 -2.69393)
(201.485 0.188363 -3.99723)
(199.907 -0.102269 -5.27583)
(197.558 -0.417876 -6.4533)
(193.975 -0.858036 -6.8833)
(189.877 -1.53923 -5.92368)
(202.374 0.926424 2.77548)
(203.054 0.293477 1.60998)
(203.327 -0.262317 0.346306)
(203.239 -0.711202 -0.935082)
(202.743 -1.07371 -2.29214)
(201.777 -1.34948 -3.72546)
(200.143 -1.54604 -5.20085)
(197.643 -1.70596 -6.62896)
(193.701 -1.88957 -7.46383)
(188.787 -2.41854 -6.70037)
(201.736 2.16033 2.04551)
(202.383 1.47803 0.962624)
(202.632 0.96751 -0.165339)
(202.489 0.560818 -1.3473)
(201.92 0.287453 -2.59355)
(200.864 0.134976 -3.9337)
(199.128 0.110284 -5.33109)
(196.472 0.213089 -6.71444)
(192.316 0.384838 -7.61554)
(186.784 0.372446 -6.78128)
(198.755 -0.0986993 0.417888)
(198.893 -0.162918 0.295661)
(198.93 -0.239881 0.107118)
(198.912 -0.310514 -0.0577719)
(198.845 -0.38367 -0.222931)
(198.74 -0.450196 -0.34331)
(198.606 -0.512651 -0.420345)
(198.46 -0.570615 -0.432979)
(198.314 -0.623899 -0.383284)
(198.147 -0.668458 -0.273363)
(199.46 0.530326 0.367531)
(199.607 0.516545 0.0969763)
(199.662 0.457452 -0.176361)
(199.62 0.36039 -0.437814)
(199.486 0.239959 -0.664785)
(199.268 0.102159 -0.835042)
(198.986 -0.0458074 -0.924305)
(198.667 -0.19761 -0.908739)
(198.356 -0.34523 -0.771882)
(198.113 -0.470994 -0.513456)
(199.802 0.204439 1.00243)
(200.035 0.0662234 0.574923)
(200.119 -0.106546 0.0964056)
(200.054 -0.293983 -0.370539)
(199.84 -0.49865 -0.8)
(199.485 -0.716188 -1.15454)
(199.008 -0.944486 -1.39157)
(198.449 -1.18001 -1.46539)
(197.872 -1.41763 -1.32192)
(197.402 -1.63255 -0.946467)
(199.978 1.02589 0.995039)
(200.307 0.89233 0.424901)
(200.429 0.694502 -0.180282)
(200.345 0.469389 -0.775974)
(200.053 0.221199 -1.33154)
(199.553 -0.0456798 -1.80308)
(198.858 -0.333073 -2.13147)
(198.006 -0.640083 -2.24278)
(197.071 -0.968384 -2.02978)
(196.267 -1.28613 -1.42375)
(200.365 0.638601 1.61554)
(200.787 0.400938 0.883785)
(200.945 0.116946 0.0794323)
(200.854 -0.173395 -0.713497)
(200.498 -0.476825 -1.47922)
(199.873 -0.789087 -2.16726)
(198.965 -1.11759 -2.70371)
(197.805 -1.4686 -2.9867)
(196.449 -1.86453 -2.83166)
(195.214 -2.26723 -2.08487)
(200.569 1.57115 1.49568)
(201.068 1.30106 0.665242)
(201.261 0.986702 -0.210571)
(201.164 0.674942 -1.08875)
(200.759 0.360744 -1.9487)
(200.026 0.0431427 -2.74861)
(198.927 -0.294577 -3.4023)
(197.468 -0.666553 -3.79564)
(195.654 -1.1105 -3.64719)
(193.918 -1.60376 -2.71258)
(200.972 0.870273 2.12951)
(201.542 0.485338 1.18965)
(201.765 0.0890746 0.161485)
(201.673 -0.275235 -0.865566)
(201.236 -0.620261 -1.90085)
(200.424 -0.945493 -2.90222)
(199.164 -1.26907 -3.78736)
(197.43 -1.61321 -4.42109)
(195.145 -2.04691 -4.44765)
(192.846 -2.5678 -3.45727)
(201.123 1.97892 1.70476)
(201.73 1.57196 0.750682)
(201.967 1.17296 -0.241971)
(201.866 0.820755 -1.26074)
(201.397 0.511297 -2.294)
(200.52 0.238053 -3.3253)
(199.134 -0.0227788 -4.26575)
(197.177 -0.306059 -5.0018)
(194.473 -0.683806 -5.08989)
(191.6 -1.24176 -4.02969)
(201.398 0.634372 2.42814)
(202.028 0.10773 1.437)
(202.276 -0.367149 0.340634)
(202.18 -0.753196 -0.766751)
(201.701 -1.06642 -1.9215)
(200.795 -1.30424 -3.09443)
(199.332 -1.47741 -4.22883)
(197.204 -1.62401 -5.18395)
(194.163 -1.79834 -5.56517)
(190.663 -2.23195 -4.57282)
(200.785 1.98332 1.66801)
(201.386 1.41187 0.761638)
(201.622 0.983384 -0.197838)
(201.489 0.639638 -1.20516)
(200.958 0.412133 -2.25154)
(199.983 0.290277 -3.33719)
(198.429 0.274562 -4.39679)
(196.154 0.358282 -5.31035)
(192.898 0.468951 -5.69505)
(188.923 0.424368 -4.59136)
(198.457 -0.191951 0.321384)
(198.563 -0.237173 0.252312)
(198.589 -0.292153 0.12257)
(198.579 -0.340318 0.0170902)
(198.54 -0.39256 -0.0945135)
(198.479 -0.440268 -0.174383)
(198.403 -0.485489 -0.229673)
(198.321 -0.526741 -0.245345)
(198.237 -0.562799 -0.226334)
(198.118 -0.590229 -0.173634)
(199.078 0.395948 0.199693)
(199.175 0.408598 0.0192925)
(199.212 0.383998 -0.155595)
(199.185 0.324471 -0.320233)
(199.099 0.243743 -0.458485)
(198.961 0.147483 -0.556133)
(198.786 0.0429552 -0.598971)
(198.594 -0.0633142 -0.57412)
(198.413 -0.163577 -0.477403)
(198.276 -0.244839 -0.311719)
(199.294 -0.0133533 0.785783)
(199.459 -0.11197 0.481701)
(199.52 -0.236943 0.135024)
(199.474 -0.375614 -0.201868)
(199.324 -0.530247 -0.507213)
(199.08 -0.696363 -0.752779)
(198.76 -0.870107 -0.909807)
(198.399 -1.04589 -0.952156)
(198.044 -1.21592 -0.85446)
(197.768 -1.36219 -0.621969)
(199.39 0.772228 0.717505)
(199.64 0.693291 0.299992)
(199.734 0.553983 -0.145576)
(199.671 0.384534 -0.58135)
(199.451 0.190974 -0.978428)
(199.082 -0.0207698 -1.3001)
(198.583 -0.248173 -1.50354)
(197.997 -0.486816 -1.54025)
(197.391 -0.730496 -1.35792)
(196.898 -0.955528 -0.931792)
(199.681 0.355609 1.29932)
(200.019 0.187432 0.735641)
(200.147 -0.0286849 0.107339)
(200.072 -0.259417 -0.508245)
(199.787 -0.507115 -1.0909)
(199.297 -0.765447 -1.59392)
(198.611 -1.03696 -1.95891)
(197.773 -1.322 -2.11255)
(196.858 -1.62725 -1.95441)
(196.073 -1.92147 -1.41156)
(199.821 1.26931 1.15814)
(200.237 1.07774 0.506139)
(200.398 0.835131 -0.187448)
(200.314 0.583399 -0.879492)
(199.972 0.322424 -1.54206)
(199.371 0.0539927 -2.13042)
(198.503 -0.230777 -2.57191)
(197.404 -0.539644 -2.77566)
(196.138 -0.887163 -2.57491)
(194.999 -1.25761 -1.84163)
(200.177 0.567385 1.77766)
(200.667 0.271351 1.01697)
(200.858 -0.0480679 0.171711)
(200.773 -0.350825 -0.668151)
(200.39 -0.643631 -1.49858)
(199.698 -0.923419 -2.26913)
(198.667 -1.20301 -2.90493)
(197.314 -1.49733 -3.28534)
(195.673 -1.84732 -3.1968)
(194.121 -2.24563 -2.37638)
(200.29 1.71198 1.34294)
(200.821 1.40076 0.56742)
(201.029 1.07943 -0.245756)
(200.932 0.787814 -1.07939)
(200.511 0.526208 -1.90773)
(199.745 0.291304 -2.69961)
(198.581 0.0650073 -3.36774)
(197.014 -0.178305 -3.80033)
(195.028 -0.485534 -3.70313)
(193.048 -0.910478 -2.75678)
(200.564 0.346044 2.09554)
(201.125 -0.0809269 1.27304)
(201.344 -0.478016 0.342708)
(201.249 -0.803617 -0.592479)
(200.811 -1.0696 -1.5525)
(200.003 -1.27159 -2.49069)
(198.75 -1.42135 -3.3428)
(197.014 -1.55017 -3.96245)
(194.737 -1.70153 -4.08213)
(192.3 -2.03015 -3.14741)
(199.964 1.81519 1.29889)
(200.501 1.34967 0.562279)
(200.716 1.00028 -0.23088)
(200.595 0.71699 -1.06515)
(200.119 0.532288 -1.9173)
(199.253 0.437113 -2.76881)
(197.92 0.427767 -3.54119)
(196.049 0.494848 -4.10948)
(193.579 0.562931 -4.1793)
(190.805 0.519257 -3.11561)
(198.228 -0.255983 0.265942)
(198.316 -0.29092 0.229629)
(198.334 -0.333376 0.135542)
(198.329 -0.367509 0.0658584)
(198.306 -0.405836 -0.0139643)
(198.272 -0.440327 -0.0711118)
(198.229 -0.472946 -0.115468)
(198.183 -0.501986 -0.135261)
(198.133 -0.526087 -0.136004)
(198.04 -0.542539 -0.116945)
(198.796 0.320598 0.0784718)
(198.858 0.348413 -0.0400681)
(198.882 0.346303 -0.146916)
(198.866 0.313241 -0.245107)
(198.812 0.261989 -0.324064)
(198.728 0.197526 -0.375288)
(198.622 0.12622 -0.390991)
(198.507 0.0539183 -0.364043)
(198.401 -0.0130135 -0.29536)
(198.322 -0.065002 -0.186046)
(198.912 -0.168348 0.62524)
(199.025 -0.24264 0.411367)
(199.067 -0.333686 0.162731)
(199.036 -0.435021 -0.0785646)
(198.935 -0.549292 -0.295494)
(198.773 -0.672873 -0.46798)
(198.565 -0.801314 -0.577369)
(198.336 -0.928837 -0.609598)
(198.119 -1.04791 -0.552351)
(197.956 -1.1459 -0.417845)
(198.951 0.579401 0.496188)
(199.133 0.537348 0.198764)
(199.203 0.442681 -0.119352)
(199.157 0.319067 -0.428573)
(198.998 0.172834 -0.704491)
(198.736 0.0104535 -0.918809)
(198.39 -0.163568 -1.04218)
(197.996 -0.343285 -1.04439)
(197.607 -0.520009 -0.902243)
(197.304 -0.676658 -0.609941)
(199.152 0.128993 1.03392)
(199.412 0.0123849 0.609278)
(199.511 -0.148295 0.129808)
(199.453 -0.327045 -0.337481)
(199.235 -0.523633 -0.772316)
(198.866 -0.73097 -1.13565)
(198.366 -0.948362 -1.38416)
(197.776 -1.17239 -1.46922)
(197.168 -1.40211 -1.33843)
(196.67 -1.61177 -0.963943)
(199.231 1.00932 0.866526)
(199.563 0.879252 0.368855)
(199.693 0.69774 -0.164316)
(199.623 0.500392 -0.693884)
(199.349 0.290085 -1.19022)
(198.876 0.0704194 -1.61222)
(198.215 -0.161378 -1.9029)
(197.412 -0.408462 -1.99716)
(196.543 -0.672008 -1.79877)
(195.801 -0.941045 -1.25455)
(199.539 0.299844 1.46198)
(199.944 0.0781544 0.861446)
(200.101 -0.172883 0.183433)
(200.027 -0.418254 -0.486807)
(199.707 -0.660336 -1.1378)
(199.142 -0.894166 -1.71943)
(198.33 -1.1283 -2.16943)
(197.309 -1.37069 -2.39238)
(196.152 -1.64444 -2.26758)
(195.116 -1.93676 -1.63889)
(199.6 1.47041 1.01161)
(200.048 1.24227 0.399355)
(200.223 0.991828 -0.246388)
(200.137 0.757537 -0.907983)
(199.776 0.542763 -1.55178)
(199.135 0.346634 -2.14145)
(198.196 0.157018 -2.59936)
(196.985 -0.0440397 -2.83421)
(195.558 -0.284861 -2.65437)
(194.215 -0.594919 -1.88881)
(199.872 0.0716409 1.78988)
(200.354 -0.266263 1.12346)
(200.54 -0.591401 0.350973)
(200.453 -0.860627 -0.421274)
(200.071 -1.08232 -1.20217)
(199.381 -1.25086 -1.93789)
(198.351 -1.37764 -2.56662)
(196.985 -1.4864 -2.96002)
(195.323 -1.61001 -2.94819)
(193.659 -1.84765 -2.17793)
(199.274 1.66539 0.94931)
(199.736 1.29741 0.370043)
(199.924 1.02196 -0.264648)
(199.819 0.795295 -0.933749)
(199.406 0.649778 -1.60468)
(198.668 0.577618 -2.24955)
(197.566 0.572777 -2.78829)
(196.084 0.62583 -3.1146)
(194.261 0.664514 -3.01096)
(192.373 0.633188 -2.10707)
(198.047 -0.304542 0.237641)
(198.122 -0.333917 0.221074)
(198.135 -0.369614 0.14779)
(198.133 -0.395315 0.0988001)
(198.121 -0.424712 0.0373082)
(198.101 -0.450285 -0.00767427)
(198.077 -0.474094 -0.0468852)
(198.051 -0.494548 -0.0705286)
(198.02 -0.510488 -0.0840091)
(197.941 -0.519835 -0.0851358)
(198.583 0.289126 -0.0110364)
(198.622 0.325789 -0.0876249)
(198.638 0.338054 -0.148188)
(198.628 0.323279 -0.201346)
(198.596 0.293293 -0.240877)
(198.545 0.252223 -0.26197)
(198.482 0.205298 -0.26078)
(198.414 0.15737 -0.233042)
(198.351 0.113265 -0.181836)
(198.304 0.0802138 -0.105268)
(198.621 -0.273433 0.509733)
(198.695 -0.333424 0.3596)
(198.722 -0.40111 0.181353)
(198.703 -0.474926 0.00795115)
(198.637 -0.558118 -0.14771)
(198.532 -0.648043 -0.272077)
(198.4 -0.740611 -0.353246)
(198.258 -0.83078 -0.38415)
(198.127 -0.912387 -0.357847)
(198.031 -0.97681 -0.288442)
(198.626 0.440758 0.324329)
(198.754 0.422141 0.118492)
(198.804 0.3602 -0.101512)
(198.773 0.272865 -0.314013)
(198.662 0.165925 -0.500052)
(198.481 0.045534 -0.638925)
(198.248 -0.0834042 -0.711407)
(197.989 -0.214815 -0.699193)
(197.741 -0.340273 -0.593898)
(197.555 -0.447974 -0.395313)