/*--------------------------------*- C++ -*----------------------------------*\
| =========                 |                                                 |
| \\      /  F ield         | foam-extend: Open Source CFD                    |
|  \\    /   O peration     | Version:     4.0                                |
|   \\  /    A nd           | Web:         http://www.foam-extend.org         |
|    \\/     M anipulation  |                                                 |
\*---------------------------------------------------------------------------*/
FoamFile
{
    version     2.0;
    format      ascii;
    class       volScalarField;
    location    "4500";
    object      divFlux;
}
// * * * * * * * * * * * * * * * * * * * * * * * * * * * * * * * * * * * * * //

dimensions      [1 -3 -1 0 0 0 0];

internalField   nonuniform List<scalar> 
34480
(
1.8846e-05
6.87881e-06
6.98011e-06
6.41058e-06
5.93093e-06
5.56682e-06
5.28369e-06
0.000297673
0.000181176
4.72e-06
5.677e-06
3.13507e-06
2.92184e-06
2.65746e-06
2.50294e-06
2.43633e-06
2.41462e-06
2.40649e-06
0.00346396
2.34366e-06
1.34867e-06
8.42296e-07
9.13912e-07
8.14117e-07
8.61403e-07
9.05389e-07
9.04061e-07
9.38975e-07
0.00334123
9.64038e-07
5.35866e-07
3.54603e-07
3.26043e-07
3.01033e-07
3.42728e-07
3.47463e-07
3.46318e-07
4.11686e-07
0.000801558
3.58842e-07
2.39537e-07
1.93227e-07
1.34185e-07
1.23712e-07
1.60957e-07
1.514e-07
1.298e-07
1.73982e-07
1.76012e-07
1.47735e-07
1.12608e-07
8.65412e-08
5.94506e-08
6.38034e-08
7.72055e-08
5.2234e-08
5.45823e-08
9.74806e-08
7.23945e-08
4.31847e-08
8.27802e-08
3.90991e-08
2.94771e-08
2.64734e-08
3.60954e-08
2.68807e-08
2.81534e-08
4.0321e-08
2.25533e-08
2.83571e-08
3.76005e-08
1.9519e-08
1.08134e-08
1.6724e-08
2.05729e-08
4.53611e-09
1.4708e-08
2.30013e-08
1.38833e-08
1.50287e-08
1.48913e-09
9.66371e-09
9.66371e-09
1.22879e-08
2.49924e-09
6.45636e-09
1.76613e-08
7.08117e-09
4.16539e-10
8.41409e-09
1.38031e-08
1.04621e-08
4.88739e-09
5.61287e-09
6.52925e-09
7.522e-09
3.0928e-09
2.63461e-09
7.522e-09
1.01566e-08
2.58624e-05
8.81193e-06
8.90819e-06
8.32836e-06
7.80483e-06
7.41881e-06
7.16544e-06
7.02346e-06
7.01072e-06
0.00106661
8.20595e-06
4.20404e-06
4.13403e-06
3.88373e-06
3.70296e-06
3.63029e-06
3.64062e-06
3.70036e-06
3.82404e-06
0.00345693
2.68584e-06
1.56486e-06
1.55106e-06
1.48909e-06
1.46072e-06
1.51205e-06
1.61551e-06
1.69465e-06
1.75084e-06
0.00431126
1.06025e-06
6.34989e-07
6.40845e-07
6.38893e-07
6.32539e-07
6.69491e-07
7.27385e-07
7.51238e-07
8.07286e-07
0.00149817
5.13194e-07
2.63239e-07
2.80033e-07
3.07416e-07
2.91717e-07
2.92143e-07
3.44109e-07
3.55549e-07
3.56766e-07
3.93588e-07
2.6844e-07
1.39553e-07
1.40671e-07
1.56591e-07
1.36731e-07
1.30661e-07
1.94394e-07
1.60211e-07
1.49137e-07
2.0083e-07
1.90392e-07
6.44608e-08
6.49814e-08
8.58531e-08
8.14043e-08
5.57051e-08
9.46561e-08
7.19386e-08
9.45615e-08
9.28103e-08
1.31014e-08
4.94531e-08
4.44694e-08
5.89518e-08
1.51213e-08
3.18187e-08
7.33064e-08
4.35749e-08
3.25854e-08
5.12687e-08
6.89874e-08
4.64675e-09
3.86455e-08
2.09104e-08
2.6835e-08
4.30212e-08
2.25368e-08
7.74459e-11
2.91584e-08
4.39554e-08
2.21333e-07
3.15205e-08
6.03433e-10
4.76357e-08
2.41373e-09
5.50189e-09
3.33308e-08
3.31888e-08
2.54507e-08
2.39243e-08
2.41871e-05
6.55909e-06
6.91375e-06
6.49352e-06
6.09833e-06
5.8251e-06
5.67704e-06
5.65622e-06
3.02008e-05
0.000874888
7.16363e-06
3.00673e-06
3.00153e-06
2.81968e-06
2.67925e-06
2.5763e-06
2.54086e-06
2.60293e-06
8.16247e-05
0.00135376
1.9828e-06
1.10601e-06
1.0918e-06
1.01874e-06
9.97871e-07
9.83259e-07
9.78666e-07
1.02662e-06
0.000120484
0.00127444
8.85035e-07
5.32792e-07
5.18833e-07
4.42343e-07
4.2558e-07
4.24425e-07
3.8486e-07
4.22874e-07
4.91148e-07
5.87408e-07
3.77936e-07
1.97934e-07
2.22711e-07
1.44307e-07
1.59297e-07
1.97821e-07
1.49963e-07
1.60202e-07
2.16771e-07
2.63672e-07
1.26584e-07
6.71682e-08
7.54838e-08
4.039e-08
8.29084e-08
8.96896e-08
2.55407e-08
7.80577e-08
1.3107e-07
1.0736e-07
6.91577e-08
2.64867e-08
4.65057e-08
3.9598e-10
3.03145e-08
5.10815e-08
1.37273e-08
4.49658e-08
4.19299e-08
4.11215e-08
1.22222e-08
3.11637e-08
7.88001e-09
3.44503e-09
4.79532e-08
1.58392e-08
1.64728e-08
2.51844e-08
3.6945e-08
3.19111e-08
2.43854e-08
1.04395e-08
1.01875e-08
1.48673e-08
1.23834e-08
9.39554e-09
1.9439e-08
4.17939e-08
4.64377e-09
1.86741e-09
2.19011e-08
1.52123e-08
4.38878e-09
3.43183e-09
2.0228e-08
1.31994e-08
3.06885e-09
1.64992e-10
3.62982e-09
1.58495e-08
2.40357e-05
5.7126e-06
6.2314e-06
5.89709e-06
5.54311e-06
5.31218e-06
5.19306e-06
5.1857e-06
1.51278e-05
0.00037487
7.29956e-06
2.88337e-06
2.87385e-06
2.68496e-06
2.53081e-06
2.42396e-06
2.37127e-06
2.38131e-06
3.5354e-05
0.00114461
1.98905e-06
9.69032e-07
9.67376e-07
9.16392e-07
8.7796e-07
8.63419e-07
8.83887e-07
8.96697e-07
0.000121966
0.00228992
6.87678e-07
3.68148e-07
4.11003e-07
3.9637e-07
3.71431e-07
3.79775e-07
3.71645e-07
3.77259e-07
0.000113189
0.00210573
3.8049e-07
1.74908e-07
2.28548e-07
2.01097e-07
1.54241e-07
1.70912e-07
1.75382e-07
1.60973e-07
4.51684e-05
0.00156998
1.63525e-07
7.97895e-08
1.07214e-07
7.92833e-08
5.84847e-08
9.73211e-08
7.33474e-08
4.94658e-08
1.07528e-05
0.000987031
7.70222e-08
1.50519e-08
5.99213e-08
3.81206e-08
1.13298e-08
4.53194e-08
2.9204e-08
3.15763e-08
4.55648e-08
0.000414904
1.56145e-08
2.21239e-08
3.11427e-08
1.58291e-09
1.31418e-08
3.62964e-08
9.27656e-09
5.0064e-09
2.43326e-08
0.000156094
2.36359e-08
9.00215e-09
1.38881e-08
9.30333e-09
1.56283e-08
5.01978e-09
6.35839e-10
1.96106e-08
2.49985e-08
8.34539e-09
4.95616e-09
2.17496e-08
5.06162e-09
1.53382e-10
8.77347e-09
1.54303e-08
3.2517e-09
4.6935e-09
7.69979e-09
7.65953e-09
2.4137e-05
4.83732e-06
5.55483e-06
5.33758e-06
5.0218e-06
4.8112e-06
4.70454e-06
4.69188e-06
1.97425e-05
0.000144215
7.07397e-06
2.59455e-06
2.60751e-06
2.44431e-06
2.30644e-06
2.20921e-06
2.15668e-06
2.14659e-06
3.27547e-06
0.000579562
2.19679e-06
1.06039e-06
1.01662e-06
9.40749e-07
8.87466e-07
8.40788e-07
8.26928e-07
8.18373e-07
7.6634e-05
0.0013348
7.1549e-07
3.50628e-07
3.55305e-07
3.44953e-07
3.38337e-07
3.35285e-07
3.30551e-07
3.4096e-07
7.89345e-05
0.00142038
3.00499e-07
1.37619e-07
1.61525e-07
1.60841e-07
1.54779e-07
1.48228e-07
1.47397e-07
1.46957e-07
5.301e-05
0.00127958
1.57194e-07
8.14899e-08
9.01309e-08
8.60243e-08
6.82291e-08
7.55867e-08
7.25068e-08
6.1342e-08
4.01414e-05
0.00101552
8.39948e-08
2.73772e-08
4.58188e-08
4.73778e-08
2.79095e-08
3.70733e-08
3.39934e-08
3.23964e-08
5.86788e-06
0.000666446
2.0242e-08
1.87534e-08
2.56661e-08
1.73845e-08
9.82157e-09
2.33733e-08
1.91298e-08
1.07798e-08
8.62519e-06
0.000499079
2.21711e-08
6.78208e-09
1.28797e-08
1.22575e-08
9.17758e-09
1.17909e-08
5.63099e-09
9.79979e-09
2.26484e-08
0.000305697
5.30923e-09
2.00481e-08
7.35762e-09
3.65029e-09
4.10658e-09
1.26334e-08
6.5306e-09
4.99064e-09
7.69984e-09
0.000402786
2.45554e-05
3.78003e-06
4.7509e-06
4.70498e-06
4.44167e-06
4.24191e-06
4.13594e-06
4.11603e-06
4.18061e-06
2.52817e-05
6.68445e-06
2.2928e-06
2.34064e-06
2.21005e-06
2.09066e-06
2.00393e-06
1.9551e-06
1.93454e-06
1.53379e-05
0.000223208
2.04306e-06
9.54692e-07
9.47152e-07
8.88074e-07
8.40577e-07
8.02305e-07
7.80767e-07
7.58561e-07
3.51544e-05
0.000718516
8.88389e-07
4.38152e-07
4.15325e-07
3.76513e-07
3.52361e-07
3.39212e-07
3.21131e-07
3.21661e-07
4.16289e-05
0.00084795
3.10135e-07
1.41207e-07
1.5725e-07
1.41661e-07
1.41161e-07
1.41979e-07
1.38298e-07
1.32526e-07
3.69159e-05
0.000863312
1.21977e-07
6.32691e-08
7.05067e-08
6.72061e-08
6.43826e-08
6.69277e-08
6.00878e-08
5.96503e-08
3.52151e-05
0.000779492
7.72196e-08
3.04349e-08
4.05092e-08
3.67623e-08
3.17075e-08
3.32981e-08
3.1354e-08
3.10712e-08
1.93429e-05
0.000594033
2.5497e-08
2.27467e-08
1.97244e-08
2.14423e-08
1.61295e-08
1.74974e-08
1.81655e-08
1.35207e-08
2.61537e-05
0.000524125
2.46157e-08
9.65974e-09
1.16553e-08
1.4721e-08
8.41612e-09
9.94896e-09
9.65974e-09
8.3872e-09
9.5451e-06
0.000446881
1.13584e-08
2.11295e-08
3.18135e-09
7.07851e-09
5.93852e-09
9.06685e-09
7.60873e-09
5.62039e-09
2.60708e-05
0.000523474
2.59764e-05
2.56834e-06
3.82025e-06
4.01145e-06
3.84406e-06
3.67915e-06
3.57808e-06
3.54547e-06
3.57941e-06
1.30906e-06
6.33291e-06
2.01698e-06
2.08045e-06
1.97894e-06
1.87132e-06
1.79387e-06
1.74777e-06
1.71553e-06
1.02406e-05
7.16392e-05
1.86248e-06
8.02132e-07
8.04617e-07
7.69186e-07
7.33785e-07
7.10864e-07
6.95958e-07
6.7638e-07
1.35879e-05
0.00037821
7.50639e-07
3.81739e-07
3.81098e-07
3.56723e-07
3.37081e-07
3.22219e-07
3.05756e-07
3.0127e-07
1.64968e-05
0.000490381
3.77017e-07
1.72591e-07
1.77492e-07
1.58184e-07
1.48171e-07
1.44537e-07
1.40228e-07
1.28778e-07
1.75779e-05
0.000542701
1.32224e-07
6.42516e-08
7.10169e-08
6.42886e-08
6.17378e-08
6.60631e-08
5.69318e-08
5.69688e-08
2.02125e-05
0.000536486
6.77952e-08
2.35285e-08
3.65415e-08
2.87206e-08
2.80634e-08
3.01993e-08
2.90492e-08
2.92792e-08
1.59454e-05
0.000441548
2.37212e-08
2.14714e-08
1.67986e-08
1.70943e-08
1.63845e-08
1.68873e-08
1.5586e-08
1.25694e-08
2.56632e-05
0.000433102
2.39154e-08
1.09965e-08
1.04588e-08
1.37389e-08
8.14656e-09
9.73285e-09
8.92626e-09
9.51776e-09
1.94453e-05
0.000409064
1.49899e-08
2.19841e-08
2.66175e-09
7.54162e-09
6.35862e-09
7.0487e-09
7.14728e-09
5.84106e-09
3.31465e-05
0.000468914
2.91221e-05
1.37227e-06
2.85848e-06
3.31059e-06
3.25952e-06
3.13087e-06
3.04896e-06
3.01982e-06
3.0379e-06
3.23358e-06
5.81683e-06
1.7049e-06
1.76556e-06
1.69514e-06
1.60647e-06
1.53908e-06
1.49914e-06
1.4766e-06
2.68722e-06
1.48609e-05
1.82571e-06
7.4877e-07
7.40164e-07
7.03322e-07
6.62329e-07
6.39014e-07
6.21665e-07
5.99203e-07
4.95977e-06
0.000180881
6.4269e-07
3.03602e-07
3.09009e-07
2.96224e-07
2.8738e-07
2.77758e-07
2.69349e-07
2.68043e-07
5.33593e-06
0.000266991
3.18092e-07
1.49646e-07
1.56637e-07
1.45993e-07
1.3747e-07
1.32599e-07
1.29457e-07
1.18067e-07
5.83184e-06
0.00032178
1.50832e-07
7.2584e-08
7.70174e-08
6.87692e-08
6.37172e-08
6.5848e-08
5.59845e-08
5.66375e-08
8.0118e-06
0.000350039
7.15468e-08
2.38892e-08
3.68113e-08
2.89908e-08
2.80744e-08
2.83799e-08
2.90214e-08
2.85937e-08
8.85809e-06
0.000302733
2.22995e-08
1.82285e-08
1.56441e-08
1.49292e-08
1.43793e-08
1.67713e-08
1.42144e-08
1.14925e-08
1.91557e-05
0.000325777
2.07774e-08
1.08226e-08
1.13725e-08
1.18474e-08
8.34816e-09
9.27296e-09
7.89826e-09
9.22297e-09
1.82157e-05
0.000311964
1.62003e-08
2.13536e-08
2.42863e-09
6.23196e-09
7.67539e-09
6.62146e-09
6.20905e-09
6.32361e-09
3.05424e-05
0.00036679
3.32272e-05
1.7408e-07
1.82468e-06
2.56948e-06
2.65312e-06
2.54814e-06
2.45259e-06
2.41632e-06
2.44213e-06
2.58491e-06
5.17916e-06
1.43944e-06
1.47203e-06
1.43461e-06
1.36889e-06
1.30765e-06
1.26988e-06
1.25519e-06
1.22883e-06
2.91614e-07
1.67769e-06
6.52402e-07
6.4476e-07
6.17641e-07
5.80734e-07
5.60414e-07
5.39788e-07
5.18599e-07
1.63932e-06
7.9822e-05
6.5623e-07
2.93464e-07
2.87947e-07
2.69523e-07
2.59768e-07
2.47052e-07
2.39576e-07
2.40322e-07
1.61322e-06
0.000135643
2.64457e-07
1.19435e-07
1.24876e-07
1.20238e-07
1.14469e-07
1.13483e-07
1.1268e-07
1.02639e-07
1.04289e-06
0.000176955
1.29252e-07
6.15341e-08
6.66779e-08
6.07673e-08
5.72849e-08
5.84031e-08
4.98407e-08
1.22725e-05
1.4549e-06
0.000214852
7.49934e-08
2.59569e-08
3.58115e-08
2.93364e-08
2.77461e-08
2.66953e-08
2.72917e-08
2.67805e-08
3.57538e-06
0.000190134
2.44367e-08
1.65625e-08
1.55656e-08
1.51056e-08
1.32909e-08
1.70481e-08
1.41088e-08
1.01684e-05
1.24175e-05
0.000227334
1.67766e-08
1.07582e-08
9.36401e-09
9.75902e-09
7.83045e-09
8.48105e-09
6.0413e-09
9.48019e-09
1.36368e-05
0.000214248
1.58841e-08
1.95103e-08
3.10972e-09
6.45373e-09
5.79345e-09
6.15554e-09
6.00644e-09
4.82366e-06
2.442e-05
0.000264516
3.93534e-05
6.68393e-07
9.68235e-07
2.07028e-06
2.45473e-06
2.45129e-06
2.31492e-06
2.17325e-06
2.07628e-06
2.05713e-06
4.36299e-06
1.25576e-06
1.2058e-06
1.20019e-06
1.16366e-06
1.11403e-06
1.06974e-06
1.05029e-06
1.03348e-06
9.68014e-07
1.45734e-06
5.45145e-07
5.32861e-07
5.2041e-07
4.90709e-07
4.76334e-07
4.56565e-07
4.3758e-07
1.55562e-07
3.16988e-05
5.89063e-07
2.59587e-07
2.57429e-07
2.4341e-07
2.32183e-07
2.18283e-07
2.1066e-07
2.11135e-07
4.66901e-07
6.42915e-05
2.63052e-07
1.167e-07
1.14969e-07
1.0947e-07
1.02749e-07
1.02274e-07
1.02002e-07
9.39912e-08
3.79902e-07
9.10393e-05
1.08979e-07
4.90365e-08
5.45312e-08
4.96305e-08
4.96305e-08
4.8888e-08
4.31557e-08
1.75905e-05
1.32354e-06
0.0001256
6.81277e-08
2.252e-08
3.01235e-08
2.68498e-08
2.52393e-08
2.28896e-08
2.28896e-08
2.252e-08
8.24555e-07
0.000108978
2.54336e-08
1.50406e-08
1.46367e-08
1.42565e-08
1.18804e-08
1.5801e-08
1.29734e-08
1.90068e-05
7.39536e-06
0.000150131
1.48094e-08
1.1038e-08
9.13713e-09
8.57551e-09
7.32267e-09
9.28834e-09
5.14099e-09
8.07869e-09
8.8253e-06
0.000136404
1.37394e-08
1.5999e-08
3.80174e-09
5.64321e-09
5.34619e-09
6.39563e-09
5.72241e-09
1.01647e-05
1.79246e-05
0.000180338
4.1868e-05
1.97799e-06
1.34102e-06
2.5174e-07
7.21627e-07
1.36254e-06
1.71718e-06
1.90018e-06
2.02046e-06
2.22029e-06
3.15393e-06
1.16947e-06
8.94105e-07
8.82536e-07
9.07552e-07
9.02416e-07
8.84027e-07
8.62186e-07
8.67184e-07
7.3906e-07
1.25463e-06
4.69986e-07
4.30226e-07
4.236e-07
4.05509e-07
3.98286e-07
3.84414e-07
3.646e-07
3.52782e-07
1.08506e-05
5.00537e-07
2.09992e-07
2.0771e-07
1.9904e-07
1.93389e-07
1.78718e-07
1.7222e-07
1.71171e-07
4.71599e-08
2.73948e-05
2.33248e-07
1.04986e-07
1.03534e-07
9.85482e-08
9.11326e-08
9.05646e-08
9.13535e-08
8.5358e-08
5.47143e-07
4.39812e-05
1.04249e-07
4.6083e-08
4.88994e-08
4.43988e-08
4.4951e-08
4.30458e-08
3.95944e-08
1.68654e-05
2.24617e-06
7.13341e-05
6.08337e-08
1.77939e-08
2.46414e-08
2.28743e-08
2.1549e-08
1.9831e-08
1.85547e-08
1.80393e-08
2.01058e-07
5.66598e-05
2.40726e-08
1.27674e-08
1.30546e-08
1.24803e-08
1.0669e-08
1.34963e-08
9.15807e-07
2.11573e-05
4.06953e-06
9.62127e-05
1.00834e-08
1.10846e-08
8.57452e-09
8.01226e-09
6.24515e-09
8.05242e-09
5.40175e-09
7.28935e-09
4.88621e-06
7.99467e-05
1.12622e-08
1.29036e-08
4.01282e-09
6.00083e-09
3.35016e-09
6.00083e-09
4.4546e-09
1.12147e-05
1.23852e-05
0.000117775
5.79318e-05
4.84999e-06
2.1822e-06
1.21634e-07
5.89156e-07
6.29541e-07
4.56109e-07
2.70305e-07
1.66502e-07
1.31823e-07
1.21484e-06
1.55694e-06
8.09296e-07
5.93015e-07
5.86316e-07
6.00639e-07
6.07466e-07
6.16014e-07
6.62012e-07
6.43402e-07
1.00439e-06
4.42707e-07
3.46399e-07
3.3106e-07
3.16521e-07
3.15638e-07
3.05782e-07
2.93769e-07
2.77793e-07
3.39797e-06
4.29038e-07
1.72645e-07
1.66793e-07
1.61522e-07
1.58031e-07
1.44701e-07
1.36538e-07
1.33184e-07
1.35135e-07
8.95706e-06
1.88968e-07
8.44854e-08
8.2696e-08
8.04372e-08
7.24287e-08
7.32207e-08
7.31327e-08
7.02872e-08
3.5701e-07
1.97502e-05
9.16952e-08
4.17624e-08
4.26864e-08
3.88618e-08
3.91955e-08
3.73217e-08
1.21285e-06
1.43063e-05
2.35402e-06
3.98294e-05
5.70371e-08
1.5401e-08
2.06487e-08
2.03065e-08
1.83671e-08
1.75229e-08
1.67472e-08
1.50359e-08
2.42058e-07
2.53907e-05
2.30219e-08
1.01441e-08
1.08628e-08
1.02263e-08
9.22006e-09
1.19101e-08
1.64378e-05
2.02901e-05
1.99412e-06
6.09845e-05
7.98212e-09
1.0566e-08
7.6725e-09
6.6831e-09
6.04839e-09
6.40308e-09
4.83498e-09
4.87231e-09
2.07676e-06
4.15785e-05
8.28606e-09
9.6684e-09
3.76469e-09
5.57858e-09
3.37111e-09
4.74008e-09
4.39784e-09
1.01507e-05
8.18281e-06
7.43506e-05
2.88513e-05
1.67891e-05
1.41522e-05
1.03826e-05
7.83375e-06
6.29222e-06
5.39075e-06
4.84561e-06
4.49584e-06
4.28737e-06
4.20024e-06
2.4631e-06
1.22592e-06
7.36244e-07
6.31727e-07
6.15501e-07
6.02186e-07
5.73241e-07
5.34155e-07
4.54634e-07
5.78921e-07
4.61323e-07
2.92149e-07
2.58055e-07
2.49369e-07
2.5439e-07
2.50095e-07
2.47193e-07
3.81337e-07
2.24351e-06
3.57032e-07
1.48184e-07
1.32085e-07
1.29317e-07
1.28729e-07
1.19804e-07
1.13059e-07
1.08096e-07
1.06553e-07
8.45286e-08
1.53362e-07
6.73868e-08
6.5096e-08
6.31052e-08
5.72147e-08
5.63966e-08
5.55512e-08
5.37513e-08
1.72053e-07
8.28415e-06
7.21344e-08
3.34071e-08
3.49342e-08
3.06629e-08
3.15697e-08
2.97084e-08
8.89694e-06
1.17068e-05
2.16299e-06
2.21922e-05
5.28342e-08
1.35325e-08
1.65869e-08
1.74141e-08
1.59505e-08
1.60778e-08
1.37022e-08
1.2981e-08
1.31931e-08
8.04738e-06
2.94304e-06
8.09405e-09
9.58305e-09
7.88406e-09
7.02503e-09
1.57311e-05
2.42278e-05
1.84351e-05
7.47459e-07
3.89765e-05
5.12196e-09
8.2433e-09
6.94173e-09
5.83105e-09
5.53603e-09
5.0154e-09
4.8245e-09
4.2171e-09
2.91136e-07
1.69391e-05
5.5858e-09
7.445e-09
3.97703e-09
4.18384e-09
3.00663e-09
4.16793e-09
1.96729e-06
8.32873e-06
5.23439e-06
4.57245e-05
0.000286892
1.27477e-05
1.32809e-05
1.2877e-05
1.24904e-05
1.19191e-05
1.1022e-05
9.7962e-06
8.30789e-06
6.58336e-06
6.64562e-06
3.896e-06
1.84264e-06
7.98836e-07
3.99696e-07
2.57369e-07
2.15731e-07
2.15154e-07
2.0719e-07
1.55516e-07
5.77711e-05
7.11283e-06
9.44715e-06
7.09203e-06
5.80208e-06
4.86192e-06
3.6885e-06
1.4569e-06
1.77918e-06
3.99884e-06
2.6575e-07
1.32759e-07
1.03891e-07
9.80642e-08
9.85227e-08
9.23262e-08
8.83924e-08
8.55086e-08
7.98149e-08
7.09405e-08
1.23986e-07
5.41775e-08
5.16677e-08
5.04254e-08
4.56592e-08
4.39353e-08
4.2693e-08
4.16789e-08
1.07544e-07
3.56997e-06
9.75537e-06
2.56659e-08
2.58877e-08
2.42018e-08
2.38469e-08
7.38159e-06
1.19276e-05
9.60853e-06
1.9203e-06
1.25982e-05
4.42776e-08
1.09831e-08
1.30141e-08
1.42958e-08
1.21465e-08
1.28169e-08
1.1693e-08
1.09437e-08
9.28734e-09
1.03732e-08
5.02728e-05
4.56819e-05
4.11014e-05
3.65095e-05
3.47309e-05
3.23313e-05
2.75793e-05
1.65857e-05
2.21831e-09
2.57295e-05
5.41653e-09
6.37261e-09
5.51755e-09
5.01742e-09
4.59796e-09
4.66249e-09
4.17849e-09
4.19463e-09
4.1301e-09
2.04282e-06
3.65739e-09
4.49578e-09
3.15e-09
3.00212e-09
2.72113e-09
2.72113e-09
5.08699e-06
6.38314e-06
3.25773e-06
2.74759e-05
0.000342569
4.49569e-05
4.85708e-05
4.73626e-05
4.34746e-05
3.78868e-05
3.15012e-05
2.49037e-05
1.82886e-05
1.15066e-05
2.54091e-05
2.08041e-06
1.00816e-06
4.62989e-07
3.01662e-07
2.50972e-07
2.60273e-07
3.43669e-07
5.74659e-07
9.72739e-07
0.000199421
0.00012833
6.98682e-05
3.98135e-05
2.24009e-05
1.25904e-05
6.46871e-06
1.52349e-06
3.82859e-06
7.12724e-06
1.5493e-07
1.23747e-07
7.8117e-08
6.95794e-08
7.06517e-08
6.77234e-08
6.59774e-08
6.24853e-08
5.86496e-08
4.93255e-08
9.59729e-08
4.2305e-08
3.92411e-08
3.712e-08
3.48339e-08
3.42918e-08
3.25006e-08
1.65661e-07
1.46005e-07
2.11116e-06
3.93633e-05
3.00164e-05
1.96656e-05
1.57394e-05
1.50347e-05
1.43035e-05
1.23452e-05
7.94341e-06
1.70971e-06
7.40589e-06
3.5828e-08
8.30388e-09
9.49539e-09
9.99032e-09
9.25709e-09
9.6237e-09
9.80701e-09
9.23875e-09
8.28555e-09
7.26609e-09
0.00021923
4.3498e-05
7.99377e-05
7.0131e-05
5.465e-05
4.07516e-05
2.86858e-05
1.51843e-05
4.75136e-07
1.80507e-05
6.11677e-09
4.24443e-09
3.50953e-09
4.18444e-09
3.52452e-09
3.44953e-09
3.11958e-09
3.04459e-09
2.83462e-09
3.43949e-09
1.4239e-09
2.84587e-09
3.40954e-09
1.27858e-09
1.8285e-09
2.26844e-09
5.26862e-06
4.37852e-06
1.90871e-06
1.57241e-05
0.00101048
0.000148371
0.000147771
0.000124488
9.85202e-05
7.46116e-05
5.39508e-05
3.63009e-05
2.06636e-05
5.70705e-06
3.00311e-06
7.56313e-06
4.94855e-06
3.43921e-06
2.61903e-06
1.95962e-06
1.20889e-06
2.31261e-07
1.15627e-06
3.06147e-06
0.000338653
0.000242198
0.000117554
6.11728e-05
3.0772e-05
1.49801e-05
6.17458e-06
2.73304e-08
6.64139e-06
1.11472e-05
6.442e-09
1.26248e-07
6.85049e-08
4.97044e-08
4.60746e-08
4.71227e-08
4.71738e-08
4.87586e-08
5.02028e-08
3.40212e-08
1.83417e-05
3.35002e-08
2.81761e-08
2.03433e-07
1.59081e-06
2.41098e-06
2.46355e-06
1.62718e-06
2.29287e-07
1.85226e-06
3.98124e-05
4.50276e-05
3.52055e-05
2.63129e-05
1.99952e-05
1.51527e-05
1.09226e-05
6.33785e-06
1.49046e-06
4.40988e-06
2.49987e-08
6.47559e-09
6.50967e-09
6.90161e-09
6.25405e-09
6.21997e-09
5.93027e-09
5.72578e-09
6.20293e-09
4.85617e-09
0.000486736
1.65073e-05
8.40226e-05
8.30524e-05
6.35263e-05
4.44289e-05
2.87614e-05
1.43111e-05
8.37288e-07
1.37415e-05
6.44575e-09
3.29047e-09
1.40821e-09
2.55151e-09
2.80247e-09
2.80247e-09
2.7467e-09
2.49573e-09
2.52362e-09
2.06294e-09
2.02887e-09
9.96899e-10
3.29744e-09
2.21107e-09
1.9299e-09
3.57989e-08
2.91169e-06
2.17954e-06
9.13339e-07
7.57726e-06
0.00376102
0.000267268
0.000240453
0.000177341
0.000123374
8.22814e-05
5.14121e-05
2.73202e-05
6.76515e-06
1.29875e-05
7.91298e-05
1.30478e-05
1.11667e-05
9.23543e-06
6.89223e-06
4.32341e-06
1.58917e-06
1.45801e-06
5.14164e-06
9.48013e-06
0.000485238
0.000365826
0.000159442
7.48618e-05
3.28769e-05
1.29499e-05
2.9943e-06
3.42939e-06
1.09992e-05
1.69777e-05
9.79791e-08
1.24458e-07
6.20449e-08
3.66899e-08
2.51293e-08
2.22183e-08
2.08876e-08
2.16005e-08
2.61154e-08
4.29205e-08
5.89279e-05
3.53713e-05
2.0436e-05
1.31759e-05
8.93626e-06
6.1549e-06
4.02797e-06
2.09269e-06
2.73076e-07
1.63513e-06
2.92256e-05
3.7151e-05
3.07043e-05
2.28628e-05
1.65935e-05
1.17759e-05
7.92233e-06
4.42165e-06
1.15689e-06
2.41073e-06
1.61418e-08
4.81595e-09
4.84763e-09
4.21395e-09
4.57832e-09
4.07138e-09
4.13474e-09
3.96048e-09
3.64364e-09
3.4759e-09
0.000834377
0.000119407
6.16337e-05
7.95963e-05
6.31587e-05
4.36519e-05
2.73255e-05
1.33459e-05
1.12819e-06
1.09778e-05
5.13424e-09
2.4627e-09
1.6202e-09
1.59427e-09
1.7887e-09
1.37393e-09
1.60724e-09
1.47762e-09
1.56835e-09
1.555e-09
4.40034e-09
3.08918e-10
1.00992e-09
1.16438e-09
6.77243e-10
1.05745e-09
1.56835e-09
2.6081e-07
2.45197e-07
2.14937e-06
0.00692965
0.000147193
0.000120436
8.12496e-05
5.04935e-05
2.80815e-05
1.12065e-05
2.84437e-06
1.64237e-05
3.11941e-05
2.11191e-05
3.37677e-05
2.42157e-05
1.60979e-05
9.58723e-06
4.3127e-06
2.97199e-07
4.82548e-06
9.8694e-06
1.51777e-05
0.000551525
0.000460538
0.000178817
7.51656e-05
2.81161e-05
8.13471e-06
3.41873e-07
5.07944e-06
1.13098e-05
1.7732e-05
2.23208e-07
1.05705e-07
5.94354e-08
3.16341e-08
1.39945e-08
5.63316e-10
1.33539e-08
2.67962e-08
4.12436e-08
7.26866e-08
5.05731e-05
3.42765e-05
1.93685e-05
1.20493e-05
7.73408e-06
4.9864e-06
3.0595e-06
1.53373e-06
2.24228e-07
1.05214e-06
1.65339e-05
1.99962e-05
1.69653e-05
1.26776e-05
9.08457e-06
6.29814e-06
4.12333e-06
2.28546e-06
6.73726e-07
1.00399e-06
8.24823e-09
2.93072e-09
3.6818e-09
3.28417e-09
2.98963e-09
2.57726e-09
2.56254e-09
2.31217e-09
1.97345e-09
2.04495e-09
0.00106778
0.000215528
2.05451e-05
5.77046e-05
4.97657e-05
3.49438e-05
2.17349e-05
1.06699e-05
1.18237e-06
7.88136e-06
3.95929e-09
1.83153e-09
1.45799e-09
1.39775e-09
1.09651e-09
1.02421e-09
7.71171e-10
1.07241e-09
9.76013e-10
9.0849e-10
1.23506e-06
7.92332e-07
8.28406e-10
9.94087e-10
6.51679e-10
4.96149e-07
8.04217e-07
3.80658e-07
2.01424e-07
1.24732e-06
0.00395038
0.000718586
0.00051002
0.000347116
0.000239646
0.000161549
0.000100781
5.21273e-05
1.59309e-06
4.12812e-05
6.91337e-06
1.46126e-05
8.83418e-06
4.11624e-06
7.25002e-07
1.8728e-06
4.16559e-06
6.51297e-06
9.15045e-06
1.12803e-05
0.000285335
0.000372624
0.000124919
4.60926e-05
1.31582e-05
5.56122e-07
4.13555e-06
6.65583e-06
1.04697e-05
1.51722e-05
1.60927e-07
4.32394e-08
3.81259e-08
3.98612e-08
4.594e-08
5.29737e-08
6.10342e-08
6.79037e-08
7.39106e-08
8.18188e-08
2.06403e-05
1.52914e-05
8.38284e-06
5.05956e-06
3.1429e-06
1.96153e-06
1.1726e-06
5.83862e-07
9.66033e-08
3.88053e-07
6.22751e-06
5.83812e-06
4.94909e-06
3.69481e-06
2.63092e-06
1.80173e-06
1.16429e-06
6.49392e-07
2.1477e-07
2.32876e-07
3.37246e-09
8.48839e-10
1.15004e-09
1.43755e-09
1.04051e-09
1.32802e-09
1.36909e-09
8.89911e-10
1.32802e-09
6.37465e-10
0.000713972
0.000178244
8.17429e-06
2.39349e-05
2.3591e-05
1.71022e-05
1.0713e-05
5.32974e-06
7.25831e-07
3.63434e-06
1.14512e-09
2.24034e-10
1.45622e-10
5.37681e-10
5.82487e-10
2.6884e-10
4.14462e-10
5.93689e-10
2.35235e-10
2.474e-10
9.12262e-05
0.000129192
8.54024e-05
5.05395e-05
2.88919e-05
1.62695e-05
8.70843e-06
3.49573e-06
8.31674e-07
5.54596e-06
0.00297466
0.000668557
0.000498652
0.000376095
0.000282942
0.000210291
0.000152457
0.000105682
6.6697e-05
3.56153e-05
4.79578e-06
1.27149e-05
9.07987e-06
6.34838e-06
4.59864e-06
3.56398e-06
3.00394e-06
2.71096e-06
2.46748e-06
1.69181e-06
9.76412e-05
8.39516e-05
1.99688e-05
5.74141e-06
4.59465e-07
1.04518e-06
1.30702e-06
1.38201e-06
1.85091e-06
3.10983e-06
3.36268e-08
6.23333e-09
6.63425e-09
5.24058e-09
4.5342e-09
2.52961e-09
1.23139e-09
1.19321e-09
1.23139e-09
1.96641e-09
1.70041e-06
1.78967e-06
9.40801e-07
5.51337e-07
3.32468e-07
2.01294e-07
1.18132e-07
6.04324e-08
1.17821e-08
4.26774e-08
7.90905e-07
4.52838e-07
3.69676e-07
2.72224e-07
1.9025e-07
1.2818e-07
8.11575e-08
4.51893e-08
1.72968e-08
1.49915e-08
1.04283e-09
8.78203e-10
3.30917e-10
5.60014e-10
3.94555e-10
6.10924e-10
1.27276e-10
3.43645e-10
4.58193e-10
4.2001e-10
5.29895e-05
2.82597e-05
2.45688e-06
2.70639e-06
2.99191e-06
2.22948e-06
1.40894e-06
7.08046e-07
1.09875e-07
4.7431e-07
1.16185e-09
3.64472e-10
2.3951e-10
1.45789e-10
2.7075e-10
4.89434e-10
1.66616e-10
8.33078e-11
0
1.04135e-10
0.000264507
0.000160036
9.49116e-05
5.4207e-05
3.05116e-05
1.6958e-05
8.9134e-06
3.58281e-06
7.71473e-07
5.35753e-06
0.526012
0.418966
0.530151
0.919619
0.686124
0.623863
0.739198
1.11566
0.849572
0.791482
0.937835
1.44122
0.616641
0.593184
0.702751
1.09974
0.450499
0.449063
0.53322
0.863283
0.298413
0.294924
0.365823
0.622511
0.198637
0.189615
0.253269
0.455008
0.128208
0.118233
0.169409
0.315546
0.0885352
0.0808788
0.122104
0.230979
0.0666971
0.0615654
0.0993564
0.188055
0.0358384
0.00179809
1.37451e-05
0.0190194
0.078516
0.00652239
1.02067e-05
0.0409476
0.136615
0.0152023
5.65482e-06
0.0704193
0.124982
0.0170208
2.77713e-06
0.0603782
0.110288
0.0169902
1.45759e-06
0.0489182
0.0853362
0.0142367
7.64354e-07
0.0375744
0.0644173
0.0110625
3.741e-07
0.0305243
0.04644
0.00833726
1.88894e-07
0.0231947
0.0357252
0.00714223
0.00104056
0.0184317
0.0301014
0.00824466
0.00382106
0.0155014
0.0171136
0.0134539
0.0141318
0.0196849
0.0387184
0.0266659
0.0261771
0.0408113
0.0749444
0.0486876
0.0492566
0.0796688
0.071052
0.0430727
0.0446859
0.0749949
0.0650965
0.0370616
0.039567
0.0699571
0.0519878
0.0280392
0.0306784
0.0566914
0.0404136
0.0206548
0.023233
0.045203
0.0299337
0.0145388
0.0166895
0.0336759
0.0234821
0.0104547
0.0123937
0.0259867
0.0200754
0.00850517
0.0105697
0.0215278
0.00192805
0.00139183
0.00134046
0.00195241
0.00609604
0.00417516
0.00386417
0.00631605
0.0162359
0.0110089
0.0104772
0.0165941
0.0190441
0.0125547
0.0123945
0.0189696
0.0207149
0.0131692
0.0136027
0.0207294
0.0189496
0.0116301
0.0124462
0.0190385
0.0164222
0.00967201
0.0106895
0.0167375
0.013386
0.00760395
0.00860512
0.0136689
0.0111888
0.00583604
0.00691435
0.011236
0.0099405
0.00508178
0.00648158
0.0100756
0.000614588
0.000572154
0.000601932
0.000819631
0.00226827
0.00210439
0.00236588
0.00340876
0.00609276
0.0057425
0.00640326
0.0088921
0.00729308
0.00654784
0.00705838
0.0096001
0.00837959
0.00713435
0.00763225
0.0103483
0.00813591
0.00655907
0.00704046
0.00951432
0.00745552
0.00568248
0.00617901
0.00841261
0.00648674
0.00469298
0.00517432
0.00704978
0.00583517
0.0038739
0.00445891
0.00604625
0.0055871
0.00369065
0.00456169
0.00582664
0.000115475
0.000106213
0.000106071
0.000165425
0.000767453
0.000722021
0.000846097
0.00123507
0.00245453
0.00248874
0.00298633
0.00410901
0.00301949
0.00305284
0.00354269
0.00471746
0.0035839
0.00355014
0.00403794
0.00531287
0.00361439
0.003449
0.00386839
0.00503558
0.00342474
0.00313023
0.00349268
0.00451896
0.00315365
0.00273742
0.00304622
0.00389821
0.00305454
0.00244028
0.00279353
0.00347065
0.00302861
0.00238184
0.0028929
0.00336873
1.23759e-05
1.07607e-05
6.15036e-06
2.50151e-05
0.000271944
0.00025182
0.000301127
0.000459889
0.00117347
0.00119804
0.00148043
0.00206858
0.00149202
0.00157099
0.00189599
0.00252737
0.00179906
0.00191342
0.00227572
0.00297673
0.0018429
0.00193171
0.00226041
0.00291526
0.00174885
0.0017957
0.00207857
0.00264658
0.00166977
0.00164267
0.00187396
0.00235161
0.00169594
0.00155564
0.0017889
0.00213896
0.00169421
0.00153254
0.00182976
0.0020568
1.15556e-05
4.10947e-06
3.94804e-06
4.05355e-06
7.58752e-05
6.35398e-05
7.56487e-05
0.000129434
0.000536349
0.000529093
0.000659769
0.00094725
0.00075541
0.000795565
0.000972296
0.00130431
0.000954779
0.00103522
0.00125499
0.0016467
0.00102085
0.00110783
0.00132605
0.00171301
0.000971394
0.00105442
0.0012508
0.00158567
0.000959518
0.00101063
0.00117666
0.00146878
0.000961876
0.000966138
0.00111384
0.00131133
0.000976122
0.000979362
0.00115427
0.00128492
9.27945e-06
3.34749e-06
3.24391e-06
3.37724e-06
1.21292e-05
6.32531e-06
6.16189e-06
2.03181e-05
0.000232827
0.000210111
0.000261882
0.00040085
0.00037698
0.000390973
0.000479475
0.000649317
0.000503553
0.000548169
0.00067006
0.000883537
0.000577646
0.000635092
0.000767684
0.000995734
0.000554182
0.000618838
0.000742769
0.000939247
0.000574636
0.000627541
0.000738728
0.000921638
0.000548144
0.000583963
0.000672915
0.000789284
0.000579508
0.000624126
0.000727951
0.000809898
6.25551e-06
2.0284e-06
1.98861e-06
2.10215e-06
2.28214e-06
8.54845e-07
7.96267e-07
8.35636e-07
8.77463e-05
6.05416e-05
7.36485e-05
0.000138298
0.000181554
0.00018193
0.000222606
0.000305822
0.000256246
0.000276704
0.000339757
0.000451797
0.00032155
0.000353886
0.000429881
0.00056156
0.000307229
0.000349142
0.000421543
0.000531432
0.000343647
0.000382279
0.000452683
0.000566691
0.000313648
0.000346268
0.000398794
0.000468317
0.000350039
0.000393698
0.000455698
0.000507916
8.69191e-06
2.95081e-06
2.7789e-06
2.79826e-06
1.81101e-06
6.51804e-07
6.30339e-07
7.00957e-07
2.22764e-05
2.57167e-07
2.49078e-07
2.17858e-05
8.32405e-05
7.85289e-05
9.51221e-05
0.000133343
0.000125198
0.000132411
0.000163082
0.000220089
0.000176907
0.000193005
0.000235227
0.000310971
0.000163255
0.00018786
0.000227765
0.000285686
0.000204635
0.000228859
0.000272225
0.000343526
0.000177294
0.000199556
0.000229801
0.00027038
0.000212099
0.000244338
0.000281761
0.000314349
3.09755e-06
7.05733e-07
4.48165e-07
1.84448e-07
1.29628e-06
4.48165e-07
4.46883e-07
5.12789e-07
5.07945e-07
1.84659e-07
1.88761e-07
2.16097e-07
3.48301e-05
2.94806e-05
3.4697e-05
4.97822e-05
5.73925e-05
5.83582e-05
7.20047e-05
9.96898e-05
9.62136e-05
0.000103143
0.000126008
0.000169596
8.11991e-05
9.47365e-05
0.000115282
0.000142944
0.000121879
0.000135528
0.000161907
0.000207164
9.56286e-05
0.000108665
0.000125102
0.000147201
0.000127273
0.000148349
0.000171181
0.00019068
1.58359e-05
3.37519e-06
2.47263e-06
1.74575e-06
1.39244e-06
5.36691e-07
5.55315e-07
6.82112e-07
4.22844e-07
1.41466e-07