/*--------------------------------*- C++ -*----------------------------------*\
| =========                 |                                                 |
| \\      /  F ield         | foam-extend: Open Source CFD                    |
|  \\    /   O peration     | Version:     4.0                                |
|   \\  /    A nd           | Web:         http://www.foam-extend.org         |
|    \\/     M anipulation  |                                                 |
\*---------------------------------------------------------------------------*/
FoamFile
{
    version     2.0;
    format      ascii;
    class       volScalarField;
    location    "1200";
    object      epsilon;
}
// * * * * * * * * * * * * * * * * * * * * * * * * * * * * * * * * * * * * * //

dimensions      [0 2 -3 0 0 0 0];

internalField   nonuniform List<scalar> 
34480
(
4930.15
4928.22
4928.11
4929.55
4932.64
4937.6
4950.17
5003.97
5194.17
5725.74
653.874
600.683
599.896
651.924
837.666
1576.31
5107.32
22893.5
103883
382814
617.848
522.5
509.068
568.772
809.747
1830.08
7048.97
35153.9
172649
699335
524.201
439.278
427.528
485.368
734.369
1885.01
8224.78
44425.8
232191
1.01034e+06
456.252
384.936
377.824
433.812
685.947
1929.87
9183.19
52592.9
289056
1.33236e+06
392.262
333.115
327.187
379.325
629.787
1959.18
10127.8
61047
350470
1.69709e+06
353.163
303.165
299.056
347.365
593.052
1965.98
10733
67203
400182
2.02101e+06
321.462
282.573
278.393
318.435
535.695
1823.71
10359.2
67002
412586
2.16644e+06
460.443
436.567
434.086
459.643
598.312
1412.65
6848.92
43725.8
276067
1.49841e+06
5707.63
5707.78
5713.11
5724.95
5741.67
5761.64
5785.81
5821.76
5888.22
5957.07
4855.3
4852.91
4852.45
4853.89
4857.79
4864.59
4875.61
4901.76
4964.57
5185.55
511.36
478.442
472.868
487.037
531.515
648.141
1003.11
2358.75
11836.5
103895
446.908
383.936
370.359
389.793
458.6
645.988
1230.6
3572.55
21401.8
197938
399.566
338.901
325.628
345.402
416.947
620.876
1295.77
4293.65
30264.6
294901
365.791
311.439
301.128
320.46
391.59
600.088
1323.82
4816.04
38733.3
396464
326.299
279.304
269.714
287.151
353.183
555.602
1296.76
5185.04
47359.4
508382
302.54
261.223
253.256
268.69
329.975
523.11
1259.29
5366.47
54224.2
607536
283.229
250.374
242.861
254.629
302.539
458.168
1077.59
4833.79
55009.7
651838
433.238
411.516
406.507
414.061
444.316
532.843
849.898
2984.47
36421.9
467550
5590.29
5585.92
5586.33
5592.87
5604.45
5618.92
5638.23
5671.17
5738.71
5911.51
4769.99
4767.73
4767.01
4767.79
4770.33
4774.27
4779
4789.82
4813.96
4869.16
399.633
386.088
383.446
388.252
403.484
439.05
527.447
760.041
1522.35
5781.12
308.347
277.131
270.364
279.565
309.995
379.68
551.096
1032.18
2868.46
15036.6
290.472
256.789
249.228
259.843
295.04
379.031
598.024
1281.38
4416.99
28973.3
281.005
248.276
241.974
253.005
290.211
381.154
630.147
1482.9
6146.56
47853
261.447
231.44
225.093
235.587
271.427
362.64
626.654
1627.56
8156.71
73182.7
250.651
222.884
217.437
227.041
261.308
350.283
618.892
1726.97
10171.3
101608
243.231
220.466
215.169
222.898
250.395
323.21
551.567
1597.03
11050.9
122914
403.122
386.9
383.215
388.928
409.467
462.554
608.313
1237.36
7687.73
92119.9
5480.75
5473.61
5471.24
5474.72
5483.42
5495.3
5511.75
5542.44
5614.73
5799.81
4673.86
4672.5
4672.11
4672.72
4674.43
4676.55
4677.48
4680.29
4687.73
4703.88
328.399
324.177
323.363
324.498
328.667
339.191
365.39
422.349
542.974
944.185
219.581
206.329
203.523
207.582
220.989
249.319
309.598
446.253
774.817
2094.4
214.705
198.063
194.201
199.744
217.719
257.237
346.095
566.297
1171.59
4152.48
217.786
199.889
196.397
202.639
223.293
269.905
380.226
676.662
1612.43
7165.97
210.883
193.092
189.148
195.595
216.902
267.101
392.939
762.479
2118.49
11609.3
208.664
191.048
187.5
193.722
215.223
266.92
402.096
828.476
2634.19
17129.4
210.16
195.02
191.377
196.738
214.906
259.619
380.791
796.375
2861.75
21854.5
376.098
364.194
361.401
365.637
380.676
417.769
509.623
783.67
2182.13
16545.7
5358.85
5351.74
5349.12
5352.1
5360.28
5372.55
5389.61
5420.38
5487.01
5629.89
4568.41
4567.86
4567.75
4568.13
4569.03
4569.58
4568.23
4567.09
4567.03
4568.78
285.534
284.702
284.601
284.404
284.469
286.338
293.66
307.792
330.458
377.04
168.134
163.123
162.115
163.544
168.58
178.812
198.644
237.947
309.115
486.23
166.706
159.034
157.121
159.628
167.885
185.117
219.92
294.599
443.832
892.263
174.124
164.908
163.038
166.15
176.617
198.97
246.454
356.797
601.673
1500.5
173.79
163.699
161.268
164.844
176.615
202.887
261.944
411.26
783.771
2437.15
176.257
165.465
163.157
166.824
179.512
208.391
275.954
458.044
966.205
3641.8
183.527
173.74
171.223
174.645
186.026
212.673
277.277
464.118
1058.31
4746.44
351.768
343.218
341.057
343.972
354.568
379.894
438.832
582.128
1009.45
3812.7
5229.28
5222.33
5219.56
5222.07
5229.6
5241.58
5258.17
5286.46
5341.99
5444.08
4454.58
4454.65
4454.76
4454.97
4455.28
4454.81
4452.77
4450.67
4448.88
4447.78
259.866
259.868
259.944
259.453
258.516
258.216
260.14
263.553
268.416
275.804
139.62
137.986
137.742
138.132
139.744
142.982
148.889
159.447
175.598
203.703
137.72
134.38
133.489
134.538
138.082
145.133
158.048
182.557
222.771
303.761
145.219
140.751
139.844
141.281
146.251
156.295
175.573
215.337
286.384
458.763
147.512
142.061
140.648
142.526
148.697
161.732
188.14
247.43
363.869
702.369
151.931
145.605
144.199
146.247
153.398
168.787
201.152
278.518
443.833
1014.21
162.427
156.388
154.747
156.85
163.706
178.998
212.49
297.701
500.023
1320.09
329.881
324.015
322.415
324.381
331.759
349.084
387.562
468.014
639.84
1289.44
5091.41
5084.86
5082.13
5084.27
5091.11
5102.29
5117.72
5142.55
5185.49
5252.56
4333.1
4333.57
4333.83
4333.91
4333.84
4332.79
4330.91
4328.89
4327.05
4325.68
243.892
243.775
243.79
243.341
242.458
242.073
242.443
243.194
244.355
246.221
124.113
123.715
123.742
123.784
124.164
125.002
126.534
129.119
132.691
137.476
120.799
119.396
118.996
119.411
120.873
123.674
128.397
136.357
147.658
164.038
126.799
124.744
124.351
124.967
127.213
131.534
139.114
153.02
174.373
210.814
129.627
126.797
126.013
126.952
130.059
136.306
147.817
170.761
209.147
285.979
134.398
130.821
130.011
131.093
134.974
142.91
158.038
190.135
247.614
381.527
146.303
142.744
141.724
142.963
146.937
155.453
172.566
211.042
286.668
489.578
310.534
306.699
305.538
306.836
311.944
323.96
349.556
396.646
479.928
666.904
4945.02
4939.08
4936.51
4938.33
4944.38
4954.33
4968.03
4988.95
5021.31
5065.02
4204.45
4205.16
4205.51
4205.52
4205.23
4204.11
4202.6
4200.99
4199.55
4198.44
233.023
232.537
232.42
232.092
231.537
231.38
231.396
231.552
231.966
232.997
115.694
115.687
115.781
115.733
115.735
115.837
116.095
116.59
117.295
118.128
111.145
110.566
110.39
110.549
111.145
112.26
114.024
116.706
120.116
123.932
115.39
114.497
114.355
114.6
115.578
117.386
120.345
125.226
131.909
140.47
117.843
116.431
116.014
116.467
117.986
120.922
125.943
134.872
148.144
167.608
122.184
120.226
119.786
120.33
122.38
126.4
133.475
146.815
167.792
202.368
134.339
132.349
131.747
132.453
134.68
139.319
148.08
165.553
195.686
251.981
293.537
291.178
290.338
291.193
294.768
303.354
320.709
349.277
394.152
462.318
4789.95
4784.77
4782.47
4784
4789.18
4797.63
4809.27
4826.2
4850
4878.83
4069.01
4069.81
4070.21
4070.18
4069.77
4068.88
4067.77
4066.6
4065.56
4064.74
224.607
223.781
223.53
223.317
223.1
223.047
223.023
223.087
223.385
224.302
111.074
111.151
111.238
111.183
111.104
111.021
110.958
110.948
111.013
111.141
105.766
105.523
105.443
105.504
105.752
106.209
106.898
107.862
108.992
110.048
108.516
108.153
108.12
108.208
108.621
109.362
110.519
112.265
114.464
116.752
110.325
109.649
109.437
109.648
110.373
111.734
113.945
117.514
122.392
128.102
113.954
112.911
112.686
112.947
114.01
116.03
119.386
125.083
133.204
143.329
125.688
124.648
124.313
124.704
125.915
128.4
132.912
141.005
153.704
171.719
278.544
277.216
276.593
277.173
279.747
286.115
298.07
315.963
341.629
371.215
4626.18
4621.86
4619.9
4621.15
4625.43
4632.28
4641.76
4654.94
4671.97
4690.89
3927.13
3927.8
3928.22
3928.17
3927.81
3927.18
3926.41
3925.6
3924.89
3924.29
217.02
216.132
215.765
215.639
215.587
215.564
215.562
215.638
215.939
216.846
108.442
108.517
108.578
108.537
108.462
108.361
108.253
108.159
108.112
108.125
102.851
102.74
102.7
102.725
102.835
103.035
103.326
103.705
104.122
104.471
104.498
104.361
104.366
104.394
104.566
104.868
105.325
105.964
106.714
107.409
105.691
105.382
105.279
105.376
105.714
106.337
107.316
108.779
110.664
112.626
108.592
108.046
107.937
108.059
108.608
109.625
111.246
113.77
117.1
120.521
119.56
119.066
118.894
119.107
119.748
121.066
123.387
127.202
132.759
139.437
265.113
264.477
263.99
264.406
266.349
271.215
279.541
291.031
306.297
320.329
4453.86
4450.41
4448.82
4449.81
4453.21
4458.51
4465.94
4475.79
4487.66
4499.87
3778.93
3779.45
3779.78
3779.76
3779.52
3779.1
3778.58
3778.04
3777.57
3777.13
209.567
208.692
208.35
208.243
208.211
208.207
208.226
208.319
208.632
209.529
106.831
106.883
106.922
106.894
106.839
106.762
106.677
106.599
106.557
106.564
101.32
101.262
101.24
101.251
101.305
101.402
101.538
101.705
101.882
102.019
102.231
102.18
102.192
102.2
102.274
102.404
102.594
102.841
103.107
103.344
102.943
102.81
102.761
102.805
102.961
103.243
103.676
104.285
105.033
105.8
105.218
104.931
104.882
104.939
105.227
105.75
106.554
107.721
109.152
110.458
115.266
115.069
114.99
115.106
115.439
116.135
117.312
119.119
121.567
124.337
252.76
252.571
252.16
252.487
254.043
257.788
263.608
271.105
280.457
287.197
4273.26
4270.65
4269.43
4270.19
4272.74
4276.7
4282.28
4289.38
4297.41
4305.14
3624.52
3624.94
3625.2
3625.19
3625.04
3624.77
3624.43
3624.07
3623.77
3623.43
201.901
201.051
200.737
200.642
200.621
200.626
200.656
200.756
201.07
201.946
105.728
105.758
105.78
105.762
105.725
105.676
105.622
105.574
105.554
105.57
100.545
100.509
100.496
100.502
100.531
100.581
100.651
100.734
100.821
100.884
101.002
100.979
100.986
100.988
101.025
101.091
101.183
101.294
101.399
101.495
101.385
101.33
101.308
101.328
101.4
101.527
101.718
101.974
102.274
102.607
103.169
103.011
102.989
103.02
103.178
103.46
103.877
104.449
105.098
105.653
112.242
112.193
112.165
112.231
112.404
112.766
113.345
114.188
115.231
116.472
241.021
241.107
240.729
241.011
242.337
245.136
249.185
254.103
259.959
262.966
4084.81
4082.94
4082.07
4082.62
4084.43
4087.3
4091.33
4096.26
4101.52
4106.32
3464.12
3464.46
3464.67
3464.67
3464.57
3464.4
3464.18
3463.96
3463.76
3463.48
193.843
193.024
192.738
192.654
192.638
192.646
192.678
192.775
193.08
193.927
104.872
104.885
104.895
104.884
104.862
104.834
104.804
104.779
104.778
104.801
100.167
100.144
100.137
100.14
100.156
100.182
100.219
100.263
100.31
100.343
100.366
100.349
100.349
100.351
100.375
100.416
100.473
100.537
100.591
100.64
100.544
100.523
100.513
100.523
100.556
100.614
100.698
100.807
100.928
101.088
101.963
101.869
101.858
101.878
101.973
102.137
102.369
102.672
102.991
103.263
110.045
110.066
110.064
110.104
110.196
110.375
110.643
111.018
111.415
112.011
229.458
229.723
229.35
229.611
230.751
232.715
235.492
238.704
242.419
243.433
3889.08
3887.82
3887.25
3887.62
3888.84
3890.87
3893.66
3896.95
3900.28
3903.2
3298.02
3298.3
3298.46
3298.47
3298.41
3298.3
3298.17
3298.02
3297.89
3297.66
185.281
184.501
184.241
184.167
184.154
184.161
184.19
184.279
184.57
185.381
104.135
104.137
104.139
104.132
104.121
104.107
104.093
104.083
104.095
104.122
99.9931
99.9799
99.9769
99.9784
99.9854
99.9977
100.015
100.037
100.063
100.082
100.057
100.039
100.035
100.036
100.054
100.086
100.129
100.175
100.212
100.245
100.119
100.11
100.105
100.109
100.125
100.153
100.192
100.24
100.289
100.374
101.268
101.205
101.198
101.214
101.277
101.381
101.522
101.699
101.874
102.034
108.348
108.405
108.416
108.442
108.489
108.568
108.677
108.827
108.927
109.238
217.536
218.047
217.717
217.971
218.779
220.122
221.981
224.051
226.41
226.358
3686.83
3685.98
3685.62
3685.86
3686.68
3688.06
3689.91
3692.01
3694.02
3695.78
3126.61
3126.85
3126.97
3126.98
3126.94
3126.88
3126.79
3126.7
3126.62
3126.41
176.135
175.397
175.162
175.1
175.089
175.094
175.116
175.193
175.467
176.239
103.457
103.453
103.449
103.445
103.44
103.435
103.432
103.432
103.451
103.482
99.9225
99.9162
99.9162
99.9166
99.9183
99.9215
99.9268
99.9351
99.9498
99.9627
99.9195
99.9022
99.8947
99.8961
99.9107
99.9368
99.9707
100.007
100.037
100.063
99.9215
99.9163
99.9129
99.9153
99.9239
99.9384
99.9576
99.9802
100.001
100.051
100.864
100.818
100.813
100.826
100.871
100.942
101.034
101.147
101.255
101.37
106.934
107.003
107.023
107.039
107.06
107.089
107.12
107.164
107.133
107.316
205.02
205.669
205.468
205.646
206.187
207.069
208.267
209.57
211.048
210.456
3478.81
3478.26
3478.03
3478.19
3478.73
3479.61
3480.78
3482.05
3483.2
3484.23
2950.42
2950.62
2950.71
2950.72
2950.7
2950.67
2950.61
2950.55
2950.5
2950.3
166.322
165.631
165.423
165.373
165.363
165.365
165.381
165.445
165.696
166.428
102.813
102.805
102.799
102.796
102.795
102.796
102.798
102.804
102.828
102.863
99.9045
99.9028
99.9044
99.9042
99.9028
99.9007
99.899
99.8998
99.9071
99.9181
99.8707
99.8545
99.8462
99.8471
99.8585
99.8789
99.9054
99.934
99.9586
99.9804
99.8454
99.8407
99.8379
99.839
99.8441
99.8527
99.8634
99.8755
99.885
99.9161
100.615
100.58
100.575
100.586
100.618
100.668
100.731
100.807
100.879
100.971
105.664
105.729
105.753
105.764
105.771
105.778
105.774
105.773
105.692
105.816
191.738
192.438
192.34
192.46
192.802
193.348
194.07
194.862
195.75
194.934
3265.9
3265.56
3265.43
3265.53
3265.86
3266.39
3267.08
3267.8
3268.41
3269
2770.18
2770.35
2770.41
2770.43
2770.42
2770.4
2770.36
2770.32
2770.28
2770.11
155.746
155.107
154.93
154.892
154.884
154.884
154.894
154.942
155.167
155.856
102.198
102.187
102.18
102.178
102.179
102.183
102.189
102.198
102.222
102.261
99.9132
99.9135
99.9155
99.9149
99.9122
99.9079
99.9033
99.9005
99.9036
99.915
99.8653
99.8515
99.844
99.8443
99.8524
99.867
99.8863
99.9074
99.9267
99.9451
99.8319
99.8273
99.8248
99.8251
99.8282
99.8335
99.8399
99.8468
99.8517
99.8713
100.436
100.409
100.404
100.412
100.434
100.469
100.512
100.562
100.612
100.687
104.46
104.513
104.535
104.543
104.545
104.542
104.527
104.51
104.419
104.513
177.547
178.228
178.211
178.288
178.483
178.784
179.165
179.615
180.094
179.259
3049.17
3048.99
3048.91
3048.97
3049.15
3049.45
3049.83
3050.19
3050.48
3050.81
2586.89
2587.03
2587.07
2587.08
2587.08
2587.07
2587.04
2587.01
2586.97
2586.82
144.274
143.697
143.557
143.532
143.527
143.525
143.528
143.561
143.75
144.393
101.619
101.606
101.599
101.597
101.598
101.603
101.611
101.621
101.641
101.682
99.9324
99.9321
99.9334
99.9326
99.9299
99.9257
99.9211
99.9179
99.9192
99.9318
99.8815
99.8709
99.8651
99.865
99.87
99.8794
99.8919
99.906
99.9199
99.9345
99.8514
99.8476
99.8455
99.8453
99.8469
99.8497
99.853
99.8565
99.859
99.8702
100.277
100.257
100.253
100.257
100.271
100.293
100.319
100.35
100.382
100.442
103.291
103.327
103.345
103.35
103.35
103.343
103.325
103.304
103.225
103.299
162.291
162.897
162.944
162.99
163.077
163.198
163.329
163.54
163.718
163.002
2829.94
2829.84
2829.8
2829.83
2829.92
2830.07
2830.25
2830.41
2830.53
2830.69
2401.67
2401.78
2401.81
2401.82
2401.81
2401.81
2401.79
2401.77
2401.74
2401.63
131.679
131.185
131.093
131.082
131.081
131.078
131.074
131.089
131.222
131.801
101.095
101.08
101.073
101.07
101.072
101.077
101.083
101.093
101.108
101.145
99.9495
99.9474
99.9475
99.9465
99.9446
99.9419
99.9391
99.9373
99.9383
99.9511
99.9107
99.9035
99.8997
99.8994
99.9021
99.9073
99.9144
99.9226
99.9316
99.9418
99.8894
99.887
99.8856
99.8853
99.8857
99.8866
99.8876
99.8885
99.8893
99.8942
100.122
100.109
100.106
100.108
100.115
100.126
100.139
100.154
100.172
100.213
102.167
102.186
102.197
102.199
102.195
102.185
102.169
102.15
102.096
102.151
145.512
145.987
146.02
146.056
146.116
146.196
146.278
146.339
146.273
145.761
2609.61
2609.56
2609.55
2609.56
2609.59
2609.63
2609.69
2609.73
2609.77
2609.85
2214.99
2215.06
2215.06
2215.06
2215.06
2215.06
2215.06
2215.06
2215.05
2215
117.408
117.069
117.037
117.041
117.043
117.039
117.029
117.024
117.07
117.503
100.631
100.614
100.607
100.604
100.604
100.608
100.614
100.622
100.634
100.662
99.9658
99.9634
99.9628
99.9621
99.9611
99.9601
99.9591
99.9586
99.9598
99.9686
99.952
99.9481
99.9462
99.946
99.9473
99.9497
99.953
99.957
99.9617
99.9674
99.9401
99.9391
99.9384
99.9382
99.9381
99.938
99.9378
99.9374
99.9371
99.9383
100.011
100.005
100.003
100.004
100.007
100.011
100.016
100.021
100.028
100.048
101.122
101.125
101.127
101.126
101.12
101.111
101.098
101.086
101.067
101.107
125.797
126.078
126.096
126.116
126.148
126.191
126.234
126.258
126.21
125.873
2388.93
2388.9
2388.91
2388.91
2388.91
2388.91
2388.91
2388.91
2388.89
2388.94
7181.77
7291.41
7247.37
7041.1
659132
683804
689202
696972
1.49617e+06
1.58217e+06
1.58934e+06
1.56928e+06
2.52157e+06
2.69862e+06
2.69561e+06
2.61394e+06
3.75477e+06
4.04805e+06
4.02119e+06
3.85945e+06
5.2999e+06
5.7408e+06
5.68904e+06
5.47692e+06
6.85937e+06
7.45564e+06
7.39184e+06
7.19559e+06
7.87576e+06
8.60126e+06
8.54684e+06
8.41882e+06
5.61773e+06
6.17577e+06
6.11185e+06
6.07755e+06
7900.98
8148.31
7985.88
7567.07
5748.43
5800.84
5803.11
5763.87
308624
324489
345010
376795
688888
779759
823494
860075
1.17658e+06
1.40023e+06
1.46296e+06
1.48856e+06
1.76109e+06
2.17316e+06
2.24653e+06
2.25976e+06
2.45516e+06
3.10581e+06
3.20534e+06
3.24202e+06
3.1273e+06
4.03241e+06
4.19394e+06
4.31364e+06
3.56923e+06
4.69659e+06
4.93916e+06
5.17484e+06
2.8046e+06
3.81406e+06
4.00406e+06
4.31758e+06
7124.1
7355.35
7284.31
7063.88
4936.79
4947.63
4946.71
4936.98
21685.9
25972
24599.1
19962.3
61582.2
73365.3
68609.1
55661.1
128673
152628
140639
113806
228119
270043
245741
198976
371918
441081
400609
325762
544625
647294
590510
484489
702056
838022
768411
635862
583967
695907
628579
523939
6341.8
6428.93
6406.44
6311.09
4714.64
4716.69
4717.21
4716.42
1597.39
1713.43
1681.24
1546.09
4703.02
5172.95
5010.5
4432.51
11231
12493.6
11909.8
10199
22541
25214.7
23652.5
19705.9
41654.9
46840.8
43437.9
35463.4
68221.7
76839.9
70643.4
57003.9
97067.1
109726
100250
80268.4
83279.9
93616.6
84045.9
67128.7
5901.64
5943.26
5940.3
5902.38
4566.59
4567.44
4567.64
4567.12
423.952
436.681
438.808
431.903
711.002
757.314
761.457
731.329
1595.52
1735.76
1727.42
1608.68
3202.59
3524.91
3452.58
3113.49
6136.35
6813.15
6570.41
5747.38
10488.8
11673.3
11085.1
9452.09
15678
17525.8
16429.6
13695.2
13845.2
15370.5
14084.1
11559
5576.65
5598.64
5600.1
5584.49
4443.58
4444.28
4444.35
4443.74
275.906
278.7
279.364
278.108
226.661
231.608
233.344
232.314
385.846
403.041
407.104
400.375
674.16
717.413
721.338
695.429
1214.99
1315.29
1310.87
1231.91
2022.63
2208.67
2172.02
1988
3044.97
3355.93
3256.16
2899.2
2925.79
3178.3
3017.53
2658.38
5316.4
5327.17
5329.29
5323.73
4321.32
4322.01
4322.05
4321.44
241.99
243.858
244.233
243.174
140.279
140.976
141.295
141.282
176.012
178.627
179.704
179.456
243.351
250.257
252.409
250.714
369.148
386.594
390.185
383.034
549.295
582.479
584.895
565.337
795.381
854.464
851.302
806.225
983.806
1028.59
1008.87
961.041
5094.27
5099.15
5101
5099.75
4194.32
4194.99
4195.04
4194.45
228.26
229.957
230.282
229.269
118.272
118.383
118.421
118.397
125.939
126.356
126.56
126.59
146.128
147.322
147.838
147.815
183.545
187.023
188.252
187.675
233.917
240.434
242.131
240.303
314.688
327.231
329.092
323.463
542.717
548.364
545.789
542.054
4892.39
4894.39
4895.68
4895.88
4060.9
4061.54
4061.59
4061.04
219.625
221.267
221.587
220.609
110.938
110.981
110.981
110.942
110.4
110.459
110.487
110.497
117.823
118.021
118.121
118.152
131.796
132.604
132.946
132.902
149.955
151.317
151.84
151.775
187.422
190.384
191.21
190.508
400.089
397.129
396.373
399.016
4697.38
4698.07
4698.85
4699.34
3920.75
3921.34
3921.39
3920.89
212.309
213.9
214.215
213.275
107.898
107.939
107.938
107.898
104.518
104.519
104.518
104.518
107.608
107.626
107.636
107.647
113.707
113.934
114.031
114.015
122
122.263
122.398
122.461
144.621
145.348
145.608
145.522
335.353
330.287
329.511
332.926
4502.91
4503.01
4503.45
4503.9
3773.87
3774.42
3774.46
3774
205.153
206.689
206.996
206.094
106.354
106.398
106.4
106.363
102.01
102.006
102.002
102.001
103.376
103.368
103.364
103.366
106.23
106.316
106.348
106.33
110.785
110.808
110.835
110.879
126.759
126.91
126.964
126.943
297.687
292.187
291.289
294.61
4306.36
4306.23
4306.46
4306.81
3620.47
3620.96
3621
3620.58
197.745
199.22
199.518
198.655
105.379
105.422
105.427
105.391
100.867
100.864
100.862
100.861
101.498
101.491
101.486
101.486
102.837
102.883
102.897
102.879
105.725
105.703
105.703
105.728
118.022
118.015
118
117.978
271.569
266.12
265.174
268.297
4106.51
4106.34
4106.45
4106.67
3460.82
3461.25
3461.28
3460.91
189.913
191.324
191.612
190.79
104.627
104.669
104.674
104.641
100.327
100.326
100.325
100.324
100.641
100.637
100.635
100.634
101.236
101.267
101.275
101.261
103.293
103.272
103.267
103.28
113.211
113.163
113.126
113.098
250.987
245.742
244.801
247.732
3902.77
3902.65
3902.7
3902.81
3295.3
3295.67
3295.69
3295.36
181.567
182.912
183.189
182.41
103.967
104.006
104.011
103.981
100.07
100.071
100.071
100.07
100.247
100.246
100.244
100.243
100.477
100.5
100.505
100.493
102.075
102.062
102.058
102.063
110.256
110.203
110.16
110.125
233.163
228.176
227.27
230.021
3694.95
3694.93
3694.95
3694.95
3124.36
3124.67
3124.67
3124.39
172.639
173.917
174.183
173.448
103.349
103.385
103.39
103.363
99.9557
99.9573
99.9575
99.9564
100.066
100.066
100.066
100.065
100.125
100.141
100.144
100.135
101.43
101.426
101.424
101.423
108.211
108.167
108.124
108.082
216.637
211.938
211.085
213.66
3483.15
3483.24
3483.25
3483.16
2948.59
2948.83
2948.82
2948.59
163.058
164.269
164.525
163.837
102.757
102.791
102.796
102.771
99.9172
99.9198
99.9201
99.9183
99.985
99.9854
99.9853
99.9848
99.968
99.9795
99.9814
99.9738
101.047
101.051
101.051
101.044
106.61
106.582
106.543
106.492
200.558
196.179
195.393
197.784
3267.76
3267.96
3267.97
3267.81
2768.76
2768.92
2768.89
2768.71
152.74
153.887
154.136
153.496
102.192
102.224
102.229
102.205
99.9207
99.9242
99.9244
99.9218
99.9507
99.9516
99.9519
99.9517
99.9056
99.9131
99.914
99.9083
100.77
100.78
100.781
100.771
105.208
105.2
105.168
105.108
184.367
180.364
179.662
181.846
3049.48
3049.76
3049.77
3049.56
2585.88
2585.96
2585.91
2585.78
141.583
142.675
142.92
142.324
101.65
101.681
101.686
101.663
99.9432
99.9473
99.9474
99.9438
99.9411
99.9424
99.943
99.943
99.8901
99.8944
99.8947
99.8911
100.521
100.534
100.535
100.524
103.871
103.885
103.862
103.796
167.638
164.129
163.535
165.452
2829.34
2829.67
2829.69
2829.46
2401.13
2401.12
2401.06
2400.99
129.406
130.458
130.698
130.137
101.141
101.169
101.173
101.153
99.9646
99.9687
99.9686
99.9647
99.9483
99.9498
99.9506
99.9508
99.9032
99.905
99.9051
99.9036
100.276
100.289
100.29
100.281
102.546
102.572
102.557
102.499
149.704
146.764
146.322
147.954
2608.65
2609.03
2609.05
2608.8
2215
2214.85
2214.8
2214.84
115.777
116.758
116.963
116.429
100.666
100.683
100.685
100.673
99.9777
99.9802
99.9798
99.9772
99.9724
99.9736
99.9743
99.9745
99.9408
99.9412
99.9413
99.941
100.082
100.09
100.091
100.085
101.28
101.288
101.281
101.257
128.384
126.367
126.131
127.285
2388.16
2388.54
2388.55
2388.29
6104.96
5442.5
5172.78
5076.59
5021.65
4983.02
4957.34
4942.9
4934.99
4930.35
797083
192569
33309.9
11698.4
5284.74
2828.24
1744.91
1209.94
926.564
763.611
1.42091e+06
245841
44115.7
15082.7
6755.4
3626.64
2194.73
1457.33
1046.51
801.856
1.99031e+06
238053
46599.6
14964.2
6459.46
3378.8
1993.8
1293.79
910.851
687.405
2.45108e+06
251632
48756.8
14504.4
6073.38
3089.14
1784.86
1140.45
793.272
595.533
2.92286e+06
275445
50957.8
13918.1
5613.52
2755.62
1554.57
977.43
675.332
507.266
3.30482e+06
294010
51810.6
13106.1
5133.54
2455.11
1369.09
858.022
593.775
449.548
3.38984e+06
286544
47532.4
10956.3
4143.66
1937
1088.21
697.94
501.777
394.349
2.33776e+06
181663
27280.1
5690.84
2267.82
1235.11
856.89
671.255
568.172
506.713
6014.68
5990.7
5845.07
5820.64
5777.34
5753.16
5734.01
5723.85
5717.01
5711.18
5442.02
5174.23
5044.38
4971.78
4926.18
4896.12
4876.63
4865.05
4858.89
4855.07
179922
44836
13606.2
5320.44
2633.91
1566.05
1064.36
802.023
655.886
571.826
374781
86214
23429.4
8279.42
3883.83
2184.95
1382.41
955.582
710.604
565.68
593341
125856
30618.1
9627.07
4217.52
2256.08
1369.63
914.311
660.84
515.158
827972
164442
36301.5
10382.8
4303.1
2212.48
1306.28
855.402
609.207
471.431
1.10711e+06
206567
41606.4
10823.5
4230.41
2083
1194.23
766.486
540.793
417.864
1.38587e+06
243716
45189.3
10806
4037.47
1930.21
1090.98
697.135
491.947
382.357
1.56148e+06
257985
43843.2
9513.46
3380.06
1578.05
897.173
586.073
429.101
345.489
1.18051e+06
178301
26764.5
5230.76
1960.79
1089.22
770.851
615.032
526.714
476.468
6250.4
5950.5
5790.6
5731.87
5681.14
5650.51
5628.34
5614.83
5605.31
5597.13
4902.79
4868.05
4840.57
4817.72
4799.86
4786.92
4778.3
4773.14
4770.34
4768.41
9202.37
4181.69
2302.64
1434.62
986.266
736.302
591.498
505.195
452.384
420.409
23980.1
9564.95
4651.32
2547.08
1542.04
1010.26
712.833
538.64
431.476
365.084
45359.4
15939.6
6928.64
3406.11
1895.51
1157.46
770.709
555.351
428.479
352.846
73419.9
22846
8988.72
4045.32
2114.05
1229.21
790.046
555.726
421.091
343.146
111788
30953.7
11006.1
4533.07
2227.52
1232.88
764.933
525.096
392.904
318.752
155670
38747
12532.1
4775.99
2242.37
1201.13
732.193
499.251
372.788
303.263
191082
42738.9
12475.4
4367.48
1966.44
1032.64
634.255
442.104
341.323
286.046
141343
27667.8
7278.82
2539.01
1304.63
841.76
642.364
536.63
473.247
436.555
6015.75
5833.48
5709.09
5635.4
5582.47
5549.49
5526.59
5511
5499.47
5489.62
4711.62
4703.31
4694.14
4685.88
4679.61
4675.35
4672.7
4671.37
4671.09
4670.81
1209.66
908.596
710.49
571.535
479.945
421.24
383.545
358.782
342.025
331.625
3029.8
1921.78
1271.97
861.682
612.966
461.378
367.559
307.997
268.555
242.655
6216.18
3479.67
2056.35
1251.34
812.383
564.447
420.173
333.205
278.502
244.213
10729.4
5341.74
2872.45
1607.16
976.895
643.165
459.643
354.305
289.826
250.521
17311.7
7647.38
3750.46
1933.18
1102
687.392
471.685
353.285
284.216
243.595
25161.7
9916.41
4480.41
2157.59
1174.51
707.38
475.175
352.242
281.636
240.872
32025.1
11204.7
4641.16
2086.66
1096.5
650.725
440.612
332.551
272.613
238.094
23475.8
7341.13
2951.56
1439.42
904.554
663.066
542.59
472.89
428.25
401.771
5786.69
5658.34
5559.82
5496.1
5452.17
5423.42
5402.79
5388.01
5376.85
5367.47
4566.18
4564.99
4563.75
4562.78
4562.2
4561.96
4561.99
4562.38
4563.32
4564.26
413.289
383.714
357.325
335.394
318.848
306.723
297.827
291.177
286.073
282.739
638.327
513.43
412.432
335.015
280.13
242.262
216.35
198.449
185.517
176.45
1287.11
926.272
666.307
486.289
369.866
295.024
246.732
215.078
193.646
179.481
2273.8
1479.9
971.909
651.906
462.27
348.503
279.467
236.655
208.387
190.098
3808.28
2235.96
1343.35
828.516
547.64
389.584
299.079
245.535
212.076
191.299
5691.35
3034.86
1690.27
974.947
612.946
419.831
314.438
254.531
217.583
194.967
7442.41
3587.16
1853.88
1008.6
614.874
416.143
312.958
255.756
221.749
201.078
5645.06
2627.8
1431.9
902.348
665.212
539.26
467.022
421.528
390.361
371.458
5533.61
5457.7
5392.61
5346.37
5312.58
5288.43
5270.25
5256.6
5246.06
5237.33
4443.43
4443.58
4443.88
4444.36
4444.96
4445.6
4446.27
4447.08
4448.32
4449.81
278.161
275.232
271.737
268.267
265.21
262.62
260.447
258.594
256.965
255.62
226.144
211.202
195.251
180.888
169.345
160.554
154.02
149.137
145.22
142.263
373.259
322.019
273.355
233.429
203.722
182.373
167.2
156.36
148.417
142.916
612.939
487.695
381.704
302.645
248.663
212.544
188.467
172.276
160.603
152.57
1012.1
736.421
528.164
385.872
296.223
239.994
204.575
181.823
166.449
156.386
1519.49
1019.78
679.16
464.653
339.202
264.815
220.17
192.698
174.278
162.302
2041.03
1262.66
787.371
512.753
364.141
280.541
232.483
203.495
184.914
173.042
1809.53
1178.95
823.179
628.006
519.613
452.794
409.397
379.887
358.348
345.029
5301.57
5260.03
5220.33
5188.56
5163.23
5143.58
5128.06
5115.96
5106.39
5098.58
4321.24
4321.54
4322
4322.61
4323.3
4323.99
4324.66
4325.43
4326.59
4328.06
244.355
244.216
243.858
243.372
242.842
242.294
241.737
241.151
240.513
239.753
140.775
138.746
136.175
133.584
131.312
129.452
127.984
126.806
125.701
124.781
176.653
168.38
158.788
149.783
142.246
136.232
131.518
127.835
124.921
122.841
241.607
220.067
197.503
178.185
163.293
152.233
144.126
138.203
133.497
130.064
355.497
303.307
254.211
215.546
187.856
168.503
155.034
145.589
138.674
133.954
503.29
403.432
317.352
254.864
213.178
185.635
167.354
155.117
146.142
139.968
679.98
511.901
381.45
294.217
239.823
205.506
183.556
169.119
159.169
152.558
825.122
673.914
558.479
480.983
428.785
392.173
365.773
346.582
331.743
322.403
5090.29
5068.49
5044.79
5023.28
5004.66
4989.19
4976.43
4966.13
4957.77
4951.05
4194.26
4194.5
4194.84
4195.3
4195.82
4196.33
4196.81
4197.38
4198.32
4199.6
230.578
230.811
230.908
230.911
230.845
230.714
230.516
230.23
229.831
229.2
118.398
118.145
117.777
117.372
117
116.696
116.465
116.272
115.999
115.722
126.221
124.675
122.609
120.435
118.413
116.631
115.101
113.805
112.713
111.934
146.651
142.549
137.51
132.656
128.479
125.054
122.314
120.16
118.266
116.809
183.579
172.663
160.606
149.816
141.102
134.322
129.124
125.168
122.06
119.889
231.45
210.177
188.026
169.682
155.792
145.549
138.045
132.611
128.262
125.12
302.536
263.418
226.807
198.6
178.408
164.119
154.012
146.825
141.556
137.969
514.961
472.136
430.035
396.177
369.513
348.738
332.419
319.857
309.635
303.118
4891.28
4879.58
4865.26
4850.87
4837.5
4825.75
4815.66
4807.23
4800.22
4794.68
4060.85
4061.01
4061.24
4061.54
4061.88
4062.2
4062.48
4062.84
4063.55
4064.62
221.903
222.167
222.31
222.375
222.377
222.315
222.182
221.952
221.591
220.965
110.987
110.982
110.968
110.952
110.948
110.966
111.007
111.044
110.998
110.912
110.429
110.083
109.573
108.982
108.381
107.806
107.273
106.79
106.366
106.07
117.969
117.082
115.862
114.562
113.333
112.239
111.301
110.521
109.754
109.128
132.049
129.375
126.121
122.861
119.933
117.43
115.35
113.656
112.249
111.265
150.387
145.385
139.294
133.595
128.743
124.791
121.64
119.206
117.09
115.493
185.995
175.635
164.574