/*--------------------------------*- C++ -*----------------------------------*\
| =========                 |                                                 |
| \\      /  F ield         | foam-extend: Open Source CFD                    |
|  \\    /   O peration     | Version:     4.0                                |
|   \\  /    A nd           | Web:         http://www.foam-extend.org         |
|    \\/     M anipulation  |                                                 |
\*---------------------------------------------------------------------------*/
FoamFile
{
    version     2.0;
    format      ascii;
    class       volScalarField;
    location    "1200";
    object      k;
}
// * * * * * * * * * * * * * * * * * * * * * * * * * * * * * * * * * * * * * //

dimensions      [0 2 -2 0 0 0 0];

internalField   nonuniform List<scalar> 
34480
(
8.76677
8.76449
8.76436
8.76606
8.76972
8.7756
8.79048
8.85399
9.07684
9.68583
9.2722
8.66256
8.5711
8.85049
9.44891
10.3365
11.9416
15.8718
28.7981
67.1379
15.0262
13.5607
13.1182
13.2678
13.8399
14.8771
17.2186
22.9318
41.7031
101.523
14.4808
12.9611
12.5164
12.7128
13.4256
14.8433
18.0187
25.4256
49.2883
127.827
13.4205
12.0151
11.6706
11.9408
12.7955
14.5086
18.2791
26.9724
55.2855
151.557
12.2145
10.9519
10.6459
10.9315
11.827
13.7238
17.9663
27.9201
61.0674
176.608
11.3241
10.2146
9.96614
10.2452
11.1445
13.1139
17.6175
28.4399
65.5224
197.955
9.84077
9.01244
8.81214
9.0312
9.74717
11.4206
15.5173
26.1458
64.5582
205.573
6.88422
6.61826
6.57108
6.68231
7.01295
7.73869
9.7414
16.2874
43.4344
149.698
9.2368
9.23698
9.24275
9.25552
9.27354
9.29503
9.321
9.35955
9.43061
9.50394
8.6778
8.67495
8.6744
8.67612
8.68077
8.68887
8.702
8.73306
8.80745
9.06675
7.928
7.50906
7.41656
7.57418
8.02051
8.86168
10.3042
12.1152
15.4583
41.2774
12.2334
11.1726
10.8827
11.0863
11.7645
13.0252
15.2248
18.1351
23.8296
66.5568
12.138
10.9751
10.6602
10.9045
11.7098
13.2599
16.0403
20.0235
28.415
86.2798
11.5972
10.4713
10.2095
10.4878
11.3822
13.1244
16.3126
21.0852
31.8517
104.34
10.8041
9.76244
9.51216
9.78887
10.6901
12.5195
15.9899
21.4687
34.8398
123.711
10.2146
9.27119
9.05907
9.31604
10.1934
12.0256
15.6351
21.5688
37.1076
140.937
9.05578
8.34055
8.16021
8.35467
9.0359
10.5375
13.6877
19.3019
35.7043
147.361
6.64662
6.40155
6.3486
6.42379
6.68967
7.27589
8.62458
11.5707
22.4974
102.438
9.10975
9.10501
9.10548
9.11258
9.12516
9.14086
9.16179
9.19744
9.2703
9.45541
8.57584
8.57313
8.57227
8.5732
8.57624
8.58098
8.58667
8.5996
8.62846
8.69424
6.78365
6.5724
6.51885
6.59475
6.82599
7.27269
8.06865
9.36821
11.1548
16.4748
9.69576
9.07651
8.92473
9.09261
9.61199
10.5666
12.1826
14.5822
17.5747
29.2488
9.89329
9.15875
8.97613
9.19071
9.85011
11.1053
13.2965
16.6492
21.1275
40.8234
9.76267
9.01305
8.85386
9.0921
9.83175
11.2759
13.8777
17.9472
23.7796
52.2916
9.33339
8.61211
8.44829
8.68829
9.44489
10.9927
13.9073
18.6274
26.0182
64.9154
9.01827
8.34025
8.19778
8.42295
9.16754
10.739
13.8255
18.9689
27.7384
76.9133
8.19791
7.67454
7.54814
7.72079
8.29865
9.58451
12.2928
17.1755
26.6422
82.856
6.37555
6.1851
6.14625
6.20798
6.4198
6.88339
7.93354
10.3754
16.6967
57.0903
8.99032
8.98253
8.97995
8.98377
8.99329
9.00627
9.02423
9.0577
9.13628
9.33594
8.46023
8.45857
8.45809
8.45883
8.4609
8.46348
8.46462
8.468
8.47697
8.49641
6.01054
5.91994
5.8932
5.92404
6.02419
6.21675
6.55466
7.13984
8.01029
9.9015
7.81499
7.50287
7.43114
7.52684
7.8282
8.39092
9.3428
10.8333
12.679
17.1127
8.13116
7.716
7.61416
7.75208
8.17817
8.99996
10.4325
12.7341
15.6078
23.5896
8.25264
7.79784
7.70353
7.86232
8.36123
9.34893
11.1343
14.0902
17.8829
30.1488
8.08812
7.62392
7.51686
7.68518
8.21619
9.31656
11.402
15.0012
19.855
37.644
7.97966
7.51981
7.423
7.58625
8.12529
9.27318
11.5405
15.5857
21.3547
44.9483
7.44858
7.08185
6.99187
7.12189
7.54771
8.49598
10.496
14.3908
20.6382
48.741
6.13376
5.98814
5.95897
6.0055
6.16348
6.50191
7.23105
8.99015
12.9758
33.0115
8.85651
8.84869
8.84581
8.8491
8.85812
8.87163
8.89041
8.92421
8.99719
9.15269
8.33247
8.33179
8.33165
8.33212
8.33321
8.33392
8.33228
8.33089
8.33082
8.33294
5.53955
5.5053
5.49249
5.50237
5.53847
5.60717
5.72306
5.91642
6.1871
6.63211
6.57198
6.4348
6.40491
6.44536
6.58158
6.83968
7.27908
7.99173
8.89433
10.3793
6.87839
6.66337
6.60812
6.6791
6.90613
7.34819
8.12193
9.41457
11.0527
14.0407
7.10763
6.85058
6.79603
6.88388
7.1696
7.73748
8.76836
10.5644
12.8846
17.7905
7.10201
6.81833
6.74838
6.84967
7.17417
7.84704
9.12584
11.4684
14.6056
22.2395
7.12513
6.82546
6.7592
6.86222
7.2083
7.94136
9.38581
12.1369
15.9706
26.6409
6.81685
6.56778
6.50314
6.59023
6.87344
7.49584
8.78941
11.4799
15.678
28.9937
5.92064
5.81079
5.78857
5.82075
5.93207
6.16452
6.63475
7.7442
10.1005
19.2204
8.71315
8.70544
8.70237
8.70517
8.71354
8.72685
8.74526
8.7766
8.83794
8.95018
8.19347
8.19353
8.19367
8.19392
8.1943
8.19377
8.19127
8.18868
8.18649
8.18514
5.27197
5.26079
5.25469
5.25694
5.26814
5.28989
5.32558
5.38098
5.45212
5.5432
5.81422
5.76333
5.75436
5.76788
5.81866
5.91514
6.07761
6.34102
6.68351
7.15191
6.04833
5.9459
5.91813
5.95069
6.05859
6.2664
6.62212
7.21613
7.99283
9.11918
6.28729
6.1526
6.12404
6.16794
6.3161
6.60532
7.11851
8.02436
9.23734
11.212
6.35544
6.19193
6.14895
6.20555
6.38879
6.76113
7.45129
8.74296
10.5339
13.8075
6.44627
6.26051
6.21799
6.27875
6.48661
6.91618
7.73731
9.34395
11.6442
16.3898
6.29638
6.13531
6.0915
6.14708
6.32541
6.70669
7.46708
9.07968
11.6462
17.7556
5.73514
5.65475
5.6389
5.66045
5.73684
5.89205
6.1872
6.83784
8.09633
11.8323
8.55931
8.55198
8.54892
8.55133
8.559
8.57154
8.58881
8.61657
8.66446
8.73901
8.04379
8.04435
8.04468
8.04478
8.0447
8.04343
8.0411
8.0386
8.03632
8.03463
5.12789
5.1247
5.12144
5.12137
5.12417
5.13047
5.14059
5.15526
5.1722
5.18899
5.3795
5.36513
5.36487
5.3678
5.38256
5.41134
5.45998
5.5377
5.63794
5.75758
5.53061
5.48471
5.47152
5.4853
5.53304
5.62312
5.77088
6.00648
6.31149
6.68741
5.73122
5.66527
5.65192
5.672
5.74346
5.87894
6.10888
6.50109
7.03091
7.75545
5.81867
5.72912
5.70408
5.73384
5.83152
6.02421
6.36503
6.98523
7.86329
9.18921
5.93258
5.82239
5.79666
5.83028
5.94894
6.18634
6.61747
7.44151
8.64799
10.6591
5.8863
5.78714
5.759
5.79274
5.89957
6.12136
6.54065
7.40281
8.79497
11.4618
5.58026
5.52286
5.51214
5.526
5.57706
5.67814
5.8611
6.23187
6.88714
8.31667
8.39444
8.38773
8.38482
8.38688
8.39373
8.40501
8.42049
8.44412
8.48059
8.52973
7.88378
7.88463
7.88507
7.88509
7.88473
7.88334
7.88146
7.87945
7.87764
7.87626
5.05297
5.05195
5.04985
5.04935
5.0499
5.05184
5.05475
5.05866
5.06258
5.06543
5.14039
5.1393
5.14182
5.14146
5.1435
5.14859
5.15862
5.17588
5.19881
5.22385
5.22251
5.20269
5.19663
5.20221
5.22267
5.26051
5.31972
5.40767
5.51605
5.63063
5.37116
5.34096
5.33564
5.3441
5.37678
5.43688
5.53403
5.68926
5.89213
6.12977
5.44987
5.40312
5.38927
5.40419
5.45412
5.54971
5.71032
5.98432
6.36504
6.85711
5.56066
5.49786
5.48322
5.50081
5.56601
5.69232
5.90932
6.2988
6.86047
7.64615
5.57646
5.5187
5.50167
5.52125
5.58232
5.70584
5.92824
6.35743
7.0398
8.12938
5.45584
5.41566
5.40885
5.41748
5.45102
5.51583
5.62872
5.83857
6.18326
6.75289
8.21801
8.21209
8.20946
8.21121
8.21715
8.22682
8.24012
8.25945
8.28658
8.31939
7.71352
7.71451
7.71502
7.71498
7.71447
7.71335
7.71194
7.71046
7.70915
7.70812
5.01437
5.01367
5.01212
5.0117
5.01194
5.01285
5.01403
5.01542
5.01652
5.01694
5.01319
5.01585
5.01871
5.01774
5.01625
5.01464
5.01379
5.01454
5.01709
5.02064
5.04673
5.03814
5.03533
5.03758
5.04642
5.06253
5.08667
5.11994
5.15844
5.1938
5.14764
5.13471
5.13313
5.13641
5.15079
5.17656
5.21653
5.2759
5.34941
5.42386
5.20734
5.18405
5.17674
5.18395
5.20866
5.25478
5.32904
5.44654
5.60297
5.77847
5.3029
5.26828
5.26044
5.26919
5.30405
5.36972
5.4773
5.65593
5.90211
6.19162
5.3522
5.32069
5.31108
5.32198
5.35524
5.42114
5.53575
5.74182
6.05817
6.48754
5.35979
5.33199
5.32795
5.33325
5.35516
5.39654
5.4662
5.58538
5.76819
6.01736
8.02961
8.02461
8.02234
8.02379
8.02876
8.03668
8.04765
8.06287
8.08253
8.10433
7.53313
7.53397
7.53452
7.53445
7.53399
7.53319
7.5322
7.53116
7.53025
7.5295
4.99377
4.99313
4.99191
4.99166
4.99196
4.99266
4.99352
4.99441
4.99503
4.99509
4.94737
4.95041
4.95279
4.952
4.95011
4.94749
4.94467
4.94217
4.94057
4.94008
4.95057
4.94658
4.94517
4.94614
4.95018
4.95746
4.96796
4.98145
4.99613
5.00824
5.01454
5.0093
5.00916
5.01033
5.01657
5.02755
5.04399
5.06675
5.0932
5.11738
5.05476
5.04367
5.03996
5.04337
5.05532
5.07716
5.11122
5.1615
5.22544
5.29084
5.13192
5.11323
5.10926
5.11348
5.13188
5.16572
5.2191
5.30134
5.40836
5.5167
5.19686
5.18109
5.17615
5.18201
5.19915
5.23264
5.28974
5.38627
5.52876
5.70269
5.28847
5.26926
5.26706
5.27037
5.28485
5.31153
5.35476
5.42315
5.52011
5.63847
7.82895
7.82491
7.82305
7.82422
7.8282
7.83442
7.84311
7.85465
7.86852
7.88279
7.34236
7.34303
7.34347
7.34344
7.34313
7.34258
7.34191
7.34121
7.3406
7.34004
4.98178
4.98122
4.98034
4.98019
4.98051
4.98115
4.98192
4.98269
4.98324
4.98321
4.91401
4.91651
4.91827
4.91779
4.91633
4.91423
4.91185
4.90951
4.90778
4.9069
4.90024
4.89813
4.89735
4.89782
4.89985
4.90346
4.90851
4.91462
4.92093
4.92572
4.93859
4.93645
4.93666
4.93706
4.93988
4.9448
4.95192
4.96108
4.97089
4.97946
4.9631
4.95802
4.9562
4.95781
4.96352
4.97376
4.98934
5.01101
5.03736
5.06385
5.02348
5.01337
5.01145
5.0135
5.0233
5.04095
5.06786
5.10668
5.15405
5.19721
5.09394
5.08703
5.08487
5.08793
5.09618
5.11217
5.13919
5.18287
5.24466
5.31949
5.2374
5.22398
5.22295
5.22514
5.235
5.25263
5.27982
5.31975
5.37106
5.43093
7.61586
7.61276
7.61131
7.61221
7.61525
7.61995
7.62658
7.63502
7.64453
7.6537
7.14095
7.1415
7.14184
7.14183
7.14163
7.14127
7.14083
7.14037
7.13996
7.13953
4.97384
4.9734
4.9728
4.97273
4.97303
4.97358
4.97425
4.97491
4.97542
4.97528
4.89731
4.89917
4.90041
4.90016
4.89922
4.89784
4.89626
4.89469
4.89354
4.89286
4.87519
4.87392
4.87346
4.87371
4.87482
4.87677
4.87942
4.88252
4.88564
4.88781
4.89714
4.89608
4.89622
4.89638
4.89784
4.90038
4.90393
4.90816
4.91221
4.91573
4.91065
4.9084
4.90751
4.90829
4.91102
4.91584
4.923
4.93245
4.94343
4.95519
4.95776
4.95208
4.95114
4.95224
4.95769
4.96727
4.98137
5.00059
5.02243
5.04121
5.02863
5.02636
5.02575
5.02733
5.03093
5.03788
5.04957
5.06809
5.09277
5.1273
5.20191
5.19234
5.19199
5.19361
5.20066
5.21269
5.2302
5.2541
5.28123
5.31346
7.39028
7.38803
7.38698
7.38764
7.38983
7.39329
7.39815
7.40409
7.41042
7.4162
6.92867
6.92913
6.9294
6.9294
6.92928
6.92905
6.92876
6.92846
6.92819
6.92783
4.96779
4.96752
4.96716
4.96713
4.96738
4.96781
4.96835
4.96888
4.96933
4.96907
4.88895
4.8903
4.89114
4.89105
4.89051
4.88971
4.88879
4.88788
4.88728
4.88682
4.8635
4.8627
4.86244
4.86258
4.86319
4.86425
4.86569
4.86734
4.86905
4.87015
4.87559
4.87484
4.8748
4.8749
4.87583
4.87744
4.87961
4.88204
4.88413
4.88595
4.88219
4.88118
4.88074
4.88113
4.88247
4.88479
4.88813
4.89235
4.897
4.90274
4.91963
4.91617
4.91568
4.91639
4.91966
4.92524
4.93313
4.94339
4.95424
4.96356
4.98867
4.9886
4.98879
4.98961
4.99093
4.99344
4.99763
5.00445
5.01239
5.02985
5.17764
5.17065
5.17067
5.17203
5.17732
5.18584
5.1975
5.21229
5.2266
5.24538
7.15229
7.15074
7.15004
7.1505
7.15198
7.15448
7.1579
7.16193
7.166
7.16959
6.70537
6.70576
6.70597
6.70598
6.7059
6.70576
6.70557
6.70538
6.70521
6.70489
4.96267
4.96259
4.96241
4.96243
4.96262
4.96293
4.96332
4.96371
4.96412
4.96372
4.88469
4.88567
4.88622
4.88623
4.88596
4.88556
4.88511
4.88467
4.88448
4.88419
4.85859
4.85812
4.858
4.85808
4.85838
4.8589
4.85962
4.86048
4.86145
4.86205
4.86499
4.86432
4.86413
4.86422
4.8649
4.8661
4.86768
4.86938
4.87078
4.87196
4.86762
4.86713
4.86689
4.86709
4.86778
4.86895
4.87058
4.87254
4.87457
4.87767
4.89828
4.89596
4.89565
4.89619
4.89834
4.90189
4.90669
4.9127
4.9187
4.92427
4.96457
4.96537
4.96594
4.96639
4.96667
4.96718
4.96794
4.96957
4.97024
4.98031
5.16082
5.15567
5.15591
5.15715
5.16124
5.16754
5.17561
5.18514
5.19256
5.20469
6.90212
6.90105
6.90062
6.90091
6.90194
6.90366
6.90597
6.90858
6.9111
6.91328
6.47097
6.47131
6.47147
6.47148
6.47144
6.47135
6.47123
6.4711
6.47099
6.4707
4.95805
4.95817
4.95814
4.9582
4.95832
4.95852
4.95878
4.95905
4.95945
4.95894
4.88241
4.88313
4.88347
4.88352
4.88342
4.88329
4.88315
4.88302
4.88313
4.88302
4.85702
4.8568
4.85678
4.85681
4.85691
4.85709
4.85736
4.85773
4.85827
4.85866
4.86018
4.85954
4.85928
4.85934
4.85988
4.86082
4.86205
4.86335
4.86444
4.86534
4.86071
4.8604
4.86024
4.86035
4.86073
4.86138
4.86223
4.86321
4.86414
4.86598
4.88644
4.88474
4.8845
4.88496
4.88647
4.88889
4.89205
4.8959
4.89961
4.90361
4.94943
4.95042
4.95113
4.9514
4.9513
4.95103
4.95044
4.95001
4.94779
4.95458
5.14856
5.14472
5.14512
5.14628
5.14954
5.15439
5.16023
5.16663
5.17026
5.17899
6.64
6.6393
6.63901
6.63921
6.6399
6.64102
6.6425
6.64412
6.64559
6.6469
6.22553
6.22582
6.22594
6.22595
6.22593
6.22588
6.2258
6.22572
6.22564
6.22538
4.95375
4.95408
4.95416
4.95425
4.95433
4.95443
4.95457
4.95473
4.95517
4.9546
4.88102
4.88155
4.88173
4.88178
4.88179
4.88182
4.88188
4.88195
4.88227
4.88237
4.85706
4.85699
4.85703
4.85703
4.85701
4.85698
4.85699
4.85708
4.85736
4.85769
4.85826
4.85769
4.85741
4.85745
4.85786
4.85858
4.85951
4.86052
4.86139
4.86213
4.85779
4.85754
4.85742
4.85747
4.8577
4.85809
4.85857
4.85911
4.85959
4.86074
4.87948
4.87818
4.87798
4.87835
4.87944
4.88115
4.88331
4.8859
4.88839
4.8916
4.93846
4.9393
4.94001
4.94021
4.94004
4.93959
4.93866
4.93764
4.93456
4.93977
5.13862
5.13579
5.13626
5.13736
5.14004
5.14389
5.14827
5.15275
5.15419
5.16103
6.36624
6.36581
6.36564
6.36577
6.3662
6.36689
6.36779
6.36871
6.36951
6.37028
5.96934
5.96959
5.96968
5.96969
5.96968
5.96965
5.9696
5.96954
5.96948
5.96924
4.94966
4.95017
4.95032
4.95045
4.9505
4.95053
4.95056
4.95064
4.95115
4.95064
4.87991
4.88025
4.88031
4.88034
4.8804
4.88053
4.8807
4.8809
4.88133
4.88169
4.85777
4.85777
4.85783
4.85781
4.85774
4.85762
4.85751
4.85746
4.85759
4.85795
4.85773
4.85725
4.857
4.85701
4.85729
4.8578
4.85847
4.8592
4.85987
4.86049
4.85687
4.85667
4.85657
4.85658
4.85672
4.85695
4.85724
4.85755
4.85781
4.85854
4.87454
4.87354
4.87335
4.87362
4.87438
4.87556
4.87702
4.87874
4.88044
4.88309
4.92839
4.92897
4.92959
4.92976
4.92964
4.92925
4.92841
4.92741
4.92441
4.92868
5.12905
5.12703
5.1275
5.12855
5.13077
5.13387
5.13724
5.14042
5.14055
5.14613
6.0814
6.08115
6.08106
6.08114
6.08138
6.08177
6.08228
6.08276
6.08314
6.08358
5.70304
5.70325
5.70331
5.70333
5.70332
5.7033
5.70327
5.70323
5.70317
5.70295
4.94547
4.9461
4.94632
4.94649
4.94652
4.94649
4.94644
4.94644
4.947
4.94674
4.87869
4.87881
4.87878
4.87878
4.87886
4.87901
4.87923
4.8795
4.87994
4.88055
4.85861
4.85859
4.85863
4.8586
4.85852
4.85839
4.85826
4.85818
4.85825
4.85865
4.85781
4.85745
4.85726
4.85725
4.85742
4.85775
4.85817
4.85866
4.85914
4.85963
4.85696
4.85681
4.85673
4.85672
4.85679
4.85692
4.85706
4.85722
4.85735
4.85778
4.86985
4.86912
4.86896
4.86912
4.86959
4.87032
4.87121
4.87226
4.87337
4.87545
4.9171
4.91739
4.91787
4.91801
4.91793
4.91762
4.91696
4.91615
4.91368
4.91712
5.11707
5.11574
5.11618
5.11714
5.11893
5.12137
5.12393
5.12611
5.12544
5.12984
5.7863
5.78617
5.78612
5.78616
5.78629
5.78648
5.78674
5.78695
5.78711
5.78733
5.42748
5.42764
5.42768
5.4277
5.4277
5.42768
5.42766
5.42763
5.42759
5.42741
4.93976
4.94038
4.94073
4.94095
4.941
4.94092
4.94077
4.94064
4.94102
4.9413
4.87702
4.8769
4.8768
4.87676
4.87682
4.87696
4.87718
4.87745
4.87782
4.87857
4.85912
4.85905
4.85905
4.85902
4.85896
4.85887
4.85879
4.85874
4.85879
4.85921
4.85824
4.85799
4.85787
4.85785
4.85795
4.85812
4.85836
4.85864
4.85894
4.85929
4.85759
4.8575
4.85745
4.85744
4.85746
4.8575
4.85754
4.85759
4.85764
4.85783
4.86482
4.86436
4.86425
4.86432
4.86456
4.86493
4.86537
4.86588
4.8665
4.86792
4.9034
4.90344
4.90373
4.90379
4.90366
4.90336
4.90282
4.90219
4.90056
4.90308
5.09562
5.09489
5.09525
5.09604
5.09738
5.09915
5.10096
5.10224
5.10114
5.1041
5.48194
5.48188
5.48187
5.48188
5.48192
5.48198
5.48206
5.48212
5.48218
5.48228
5.14246
5.14256
5.14257
5.14258
5.14258
5.14257
5.14257
5.14256
5.14256
5.14248
4.92486
4.92539
4.92598
4.9263
4.92638
4.92627
4.92599
4.92562
4.92528
4.92601
4.87385
4.8735
4.87331
4.87321
4.87322
4.87333
4.87353
4.8738
4.87416
4.87489
4.85938
4.8593
4.85928
4.85925
4.85922
4.85919
4.85916
4.85914
4.85919
4.85948
4.859
4.85887
4.85881
4.8588
4.85884
4.85892
4.85903
4.85917
4.85932
4.85952
4.85862
4.85858
4.85856
4.85855
4.85855
4.85854
4.85854
4.85853
4.85853
4.85857
4.86088
4.86068
4.86062
4.86064
4.86073
4.86087
4.86102
4.8612
4.86145
4.86212
4.88676
4.8866
4.88666
4.88661
4.88643
4.88612
4.8857
4.88528
4.8847
4.88634
5.04129
5.04098
5.04122
5.04172
5.04251
5.04354
5.04457
5.04515
5.04418
5.04533
5.16838
5.16835
5.16836
5.16836
5.16836
5.16836
5.16836
5.16836
5.16833
5.1684
11.2665
11.3809
11.335
11.1188
82.8303
84.8856
85.3318
85.9697
143.066
148.498
148.948
147.69
202.606
211.984
211.828
207.527
264.189
277.775
276.547
269.084
332.428
350.619
348.51
339.797
394.796
417.359
414.975
407.604
432.893
459.088
457.148
452.58
345.581
368.104
365.555
364.192
11.4742
11.7124
11.5562
11.1485
9.71268
9.77165
9.77421
9.73007
76.1453
79.3476
80.0836
80.18
133.906
144.742
145.804
143.611
192.815
214.323
214.814
208.896
255.94
290.625
289.636
279.678
329.236
379.792
378.026
365.198
399.285
466.083
465.148
452.171
445.851
527.131
528.227
517.083
350.441
422.657
420.786
415.963
10.709
10.9394
10.8689
10.6485
8.77559
8.78844
8.78735
8.77584
26.5687
28.9765
28.2312
25.7171
49.3902
53.7695
52.0893
47.4132
74.5824
81.2985
78.1599
70.6487
103.408
112.887
107.69
96.6207
139.347
152.635
145.001
129.129
177.173
194.448
184.286
163.288
207.403
228.485
216.222
190.706
164.645
181.47
169.975
149.14
9.90998
10.0005
9.9772
9.87798
8.51035
8.51282
8.51344
8.51251
11.4856
11.7312
11.6988
11.5011
21.2314
21.947
21.8769
21.3351
32.0061
33.4744
33.2136
31.9008
44.502
46.9097
46.235
43.7191
60.6063
64.3414
63.0103
58.7045
78.0034
83.0761
80.797
74.3662
92.5142
99.0224
95.7228
87.0429
71.8772
76.9898
73.4672
65.8698
9.44601
9.49036
9.48721
9.4468
8.33125
8.33228
8.33252
8.3319
7.04778
7.13729
7.16128
7.13155
11.6875
11.9781
12.0579
11.9724
16.8771
17.4831
17.5791
17.314
22.8361
23.8442
23.8744
23.2731
30.7049
32.3149
32.1953
31.0102
39.203
41.4194
40.9937
39.0186
46.2329
49.1496
48.3245
45.3481
34.3687
36.5757
35.3799
32.5002
9.09597
9.11987
9.12144
9.10449
8.18094
8.1818
8.18188
8.18114
5.61003
5.62329
5.62788
5.62618
7.46163
7.5287
7.55974
7.56126
9.94197
10.1216
10.1866
10.162
12.836
13.1765
13.2598
13.1601
16.796
17.406
17.4921
17.2252
21.0401
21.9292
21.9478
21.4191
24.467
25.7111
25.6047
24.6683
17.4647
18.3545
17.9969
16.9922
8.81073
8.82262
8.82496
8.81882
8.03017
8.03102
8.03107
8.03032
5.199
5.20165
5.20218
5.20116
5.82658
5.84098
5.84876
5.85096
6.9177
6.96871
6.99273
6.99397
8.262
8.37202
8.41487
8.40527
10.2364
10.4617
10.5298
10.4807
12.3592
12.7043
12.7721
12.6522
14.0501
14.5673
14.6114
14.3456
10.2138
10.5489
10.4689
10.1767
8.56357
8.56903
8.5711
8.5697
7.87204
7.87287
7.87293
7.8722
5.06459
5.06545
5.06525
5.06427
5.23516
5.23681
5.2378
5.23842
5.68641
5.6979
5.70389
5.7053
6.2681
6.29757
6.31144
6.31291
7.19721
7.27213
7.30198
7.2959
8.21788
8.33833
8.3771
8.35752
9.06886
9.26928
9.3127
9.24582
7.33456
7.44736
7.44076
7.37398
8.33579
8.33807
8.33953
8.33976
7.70418
7.70499
7.70506
7.70437
5.01422
5.01496
5.01477
5.0138
5.02145
5.02118
5.02099
5.02101
5.20594
5.20787
5.20889
5.20927
5.45701
5.4633
5.46659
5.46765
5.88287
5.90583
5.91608
5.91564
6.36087
6.39689
6.41181
6.41142
6.80713
6.87906
6.90117
6.88542
6.19604
6.23027
6.23447
6.22357
8.11278
8.11358
8.11447
8.11503
7.52587
7.52663
7.5267
7.52605
4.99197
4.99271
4.99256
4.99164
4.93948
4.93916
4.93892
4.93881
5.01056
5.01061
5.0106
5.01066
5.12447
5.12527
5.12573
5.12608
5.32489
5.33207
5.33531
5.33502
5.56087
5.56968
5.5742
5.57583
5.81464
5.84022
5.84924
5.84428
5.69737
5.70521
5.7079
5.70847
7.88729
7.88741
7.88792
7.88845
7.33671
7.33742
7.33748
7.33688
4.98003
4.98073
4.98061
4.97974
4.90632
4.90614
4.90598
4.90586
4.92599
4.9258
4.92568
4.92569
4.98085
4.98069
4.9806
4.98066
5.07764
5.08042
5.08154
5.08108
5.20723
5.20867
5.20975
5.21085
5.36671
5.37704
5.38043
5.37725
5.45372
5.45299
5.45363
5.45584
7.65607
7.65592
7.65619
7.65659
7.1365
7.13716
7.13721
7.13666
4.97216
4.97279
4.97267
4.97185
4.89238
4.89229
4.89218
4.89206
4.88767
4.88752
4.88745
4.88746
4.91602
4.91583
4.9157
4.91569
4.96248
4.96395
4.96445
4.96398
5.04294
5.04275
5.04289
5.04347
5.15384
5.15918
5.16042
5.15751
5.32513
5.32197
5.32154
5.32345
7.41732
7.41712
7.41725
7.41752
6.92512
6.92571
6.92575
6.92525
4.96606
4.96661
4.96648
4.9657
4.88637
4.88632
4.88624
4.88612
4.86996
4.86987
4.86983
4.86985
4.88608
4.88597
4.88589
4.88586
4.90739
4.90837
4.90866
4.90826
4.96389
4.96355
4.9635
4.96378
5.049
5.05259
5.05302
5.05022
5.2536
5.25015
5.2493
5.25061
7.16992
7.16977
7.16984
7.16996
6.70251
6.70302
6.70304
6.7026
4.96089
4.96134
4.96118
4.96046
4.88377
4.88373
4.88366
4.88354
4.8619
4.86186
4.86185
4.86187
4.87208
4.87204
4.872
4.87197
4.88091
4.88161
4.8818
4.88148
4.92495
4.9248
4.92475
4.92482
4.99632
4.99922
4.99933
4.9966
5.21188
5.20891
5.20798
5.20864
6.91308
6.91305
6.91308
6.91308
6.46867
6.4691
6.4691
6.46871
4.95632
4.95666
4.95649
4.95582
4.88266
4.88265
4.88258
4.88245
4.85861
4.85861
4.85861
4.85862
4.86547
4.86546
4.86544
4.86543
4.8683
4.86881
4.86893
4.86867
4.90498
4.90506
4.90505
4.90496
4.96902
4.97162
4.9716
4.96889
5.186
5.18381
5.18294
5.18294
6.64632
6.64644
6.64645
6.64633
6.22373
6.22406
6.22405
6.22372
4.95225
4.95249
4.9523
4.9517
4.88219
4.88222
4.88216
4.88202
4.85778
4.85781
4.85782
4.8578
4.86227
4.86228
4.86228
4.86227
4.86239
4.86275
4.86282
4.8626
4.89358
4.89385
4.89388
4.89366
4.95327
4.9558
4.95572
4.95297
5.1682
5.16694
5.1662
5.16555
6.36943
6.36969
6.3697
6.36949
5.96802
5.96826
5.96822
5.96795
4.94865
4.94882
4.94862
4.94808
4.88187
4.88197
4.88193
4.88175
4.85819
4.85826
4.85826
4.85822
4.86066
4.86069
4.8607
4.8607
4.85965
4.85989
4.85993
4.85976
4.88542
4.88583
4.88588
4.88558
4.94135
4.94395
4.94386
4.94103
5.1535
5.15328
5.15275
5.15142
6.08254
6.08291
6.08293
6.08264
5.70224
5.70237
5.7023
5.7021
4.94538
4.94556
4.94539
4.94488
4.88122
4.88144
4.88143
4.88119
4.85904
4.85914
4.85914
4.85906
4.85984
4.85988
4.8599
4.8599
4.85845
4.85859
4.8586
4.8585
4.87779
4.87826
4.87832
4.87798
4.92843
4.93112
4.93107
4.92824
5.13716
5.13818
5.13792
5.13586
5.78618
5.78664
5.78666
5.78634
5.42732
5.4273
5.42721
5.42711
4.9412
4.94159
4.94149
4.94089
4.8796
4.87993
4.87995
4.87966
4.85965
4.85976
4.85976
4.85966
4.85951
4.85956
4.85958
4.85959
4.85815
4.85822
4.85822
4.85817
4.86987
4.87029
4.87035
4.87005
4.91158
4.91398
4.91398
4.91153
5.11051
5.11305
5.11313
5.1102
5.48126
5.48179
5.48181
5.48147
5.1431
5.14286
5.14277
5.14284
4.92765
4.92852
4.92847
4.92749
4.87562
4.87588
4.87589
4.87568
4.85977
4.85985
4.85984
4.85976
4.85969
4.85973
4.85976
4.85977
4.85867
4.85869
4.8587
4.85868
4.8632
4.86345
4.86349
4.86333
4.89041
4.89156
4.89154
4.89035
5.04851
5.05216
5.05248
5.04895
5.16789
5.16844
5.16846
5.16808
10.1113
9.36614
9.05418
8.94162
8.87701
8.83146
8.80111
8.78405
8.77467
8.76917
103.62
49.0962
35.7283
29.9205
24.5213
19.9191
16.3402
13.6734
11.7707
10.411
160.802
70.8093
51.0618
43.6957
37.1426
31.3835
26.5608
22.6898
19.6529
17.2809
206.166
82.5234
55.9319
46.6645
39.2959
32.7083
27.1828
22.802
19.4206
16.84
241.667
88.8206
58.7609
47.8894
39.9967
32.6638
26.6191
21.9122
18.3386
15.7042
277.652
94.5424
60.8917
48.2144
39.7521
31.7049
25.2887
20.4193
16.8514
14.3132
306.705
98.002
61.5977
47.6833
38.9412
30.43
23.8758
19.0275
15.5646
13.1945
314.892
93.613
56.5424
42.1387
33.8233
25.7116
19.8707
15.7626
13.0256
11.2199
224.257
56.043
30.4951
21.0775
16.2491
12.2014
9.94098
8.60468
7.79923
7.27838
9.56727
9.54193
9.38667
9.36053
9.31406
9.28807
9.26746
9.25652
9.24916
9.24288
9.36562
9.0559
8.9038
8.81818
8.76418
8.72851
8.70534
8.69158
8.68423
8.67967
53.0943
28.6913
22.5764
19.456
16.6674
14.1936
12.1588
10.5978
9.45953
8.6676
89.9386
46.2797
35.8145
31.0206
27.1736
23.5001
20.2842
17.6291
15.5038
13.8851
122.122
58.5751
42.8494
35.61
30.5217
25.7398
21.6752
18.4089
15.8647
13.9822
152.335
68.6872
47.8096
38.4735
32.3351
26.6335
21.9419
18.2728
15.469
13.4663
186.183
78.7618
52.0722
40.4088
33.1915
26.6118
21.4096
17.4648
14.571
12.5802
216.917
86.3341
54.6203
41.1666
33.2723
26.1095
20.6472
16.6264
13.7489
11.8419
232.94
86.6118
51.8253
37.4034
29.502
22.5176
17.5321
14.0568
11.7477
10.2758
167.225
54.6613
29.0084
19.3418
14.6653
11.2074
9.26283
8.12274
7.42964
7.00142
9.81573
9.49922
9.32828
9.26512
9.21037
9.17725
9.15324
9.13859
9.12827
9.1194
8.7364
8.69511
8.66237
8.63509
8.61374
8.59825
8.58793
8.58176
8.5784
8.57606
19.9619
16.598
14.5202
12.6954
11.1211
9.81544
8.80007
8.05111
7.51244
7.13937
35.9314
28.7355
24.9427
21.6992
18.9194
16.5098
14.5151
12.9121
11.6378
10.6755
51.0236
37.9362
31.5353
26.3401
22.2483
18.8303
16.0901
13.9446
12.2884
11.0769
66.0796
45.6591
36.5957
29.5604
24.3488
20.1002
16.7943
14.2778
12.3719
11.0236
83.1437
53.2788
41.0837
32.0305
25.6889
20.6244
16.8148
14.002
11.9631
10.5759
99.0049
59.0958
44.0666
33.3864
26.2759
20.6585
16.5642
13.6325
11.5574
10.1934
108.287
59.6531
42.5111
30.9277
23.7057
18.1753
14.3959
11.8394
10.1605
9.09367
75.8257
36.5756
23.8186
16.2387
12.2026
9.66853
8.28157
7.46699
6.96027
6.64283
9.56856
9.37428
9.24054
9.16087
9.10342
9.06754
9.04258
9.02558
9.01299
9.00223
8.50783
8.49784
8.48679
8.47683
8.46928
8.46414
8.46094
8.45933
8.45898
8.45863
10.95
10.1471
9.29654
8.44899
7.73914
7.19463
6.79483
6.50648
6.29774
6.15226
19.8784
18.0467
16.1922
14.3152
12.6967
11.367
10.3053
9.47008
8.81135
8.31655
28.4786
24.6382
21.1911
17.9868
15.3984
13.327
11.7049
10.4539
9.49736
8.80369
37.2264
30.649
25.4099
20.8436
17.3508
14.6272
12.5543
11.0043
9.84009
9.01907
47.4332
36.9278
29.4803
23.3225
18.8353
15.418
12.9003
11.0771
9.76967
8.883
57.0055
42.0059
32.4864
24.9595
19.7185
15.8018
13.007
11.0491
9.67421
8.76749
62.7185
43.1797
32.0139
23.6551
18.1938
14.2784
11.6621
9.93089
8.79749
8.06845
42.6693
26.1451
17.9314
12.7654
10.0075
8.3821
7.46796
6.91581
6.55849
6.32926
9.32411
9.18571
9.07877
9.00928
8.96121
8.92968
8.90703
8.89078
8.8785
8.86818
8.33184
8.3304
8.32889
8.3277
8.327
8.32671
8.32674
8.32722
8.32836
8.32949
7.00379
6.76601
6.51248
6.27269
6.07311
5.91581
5.79492
5.70311
5.63369
5.58551
11.6182
10.9368
10.1619
9.38217
8.69386
8.12075
7.66133
7.30004
7.01198
6.79408
16.4432
14.9627
13.3785
11.861
10.5732
9.52321
8.69572
8.05859
7.57148
7.21975
21.5309
18.9264
16.347
14.0015
12.1051
10.6092
9.46933
8.62266
7.98453
7.53219
27.7508
23.4181
19.481
16.0644
13.4271
11.4106
9.92623
8.85977
8.09463
7.5733
33.7011
27.3352
22.0202
17.6068
14.3542
11.9383
10.22
9.02807
8.18553
7.62193
37.3451
28.7288
22.2082
17.1149
13.6096
11.1418
9.49883
8.41631
7.69787
7.2254
24.4811
17.2929
12.781
9.93987
8.35346
7.39923
6.82708
6.46585
6.22034
6.05953
9.05023
8.96726
8.89583
8.8449
8.80759
8.78088
8.76074
8.74562
8.73393
8.72424
8.18182
8.18201
8.18238
8.18297
8.1837
8.18449
8.18531
8.18631
8.18782
8.18965
5.61069
5.56846
5.51689
5.46419
5.4165
5.37564
5.34191
5.3149
5.29436
5.28136
7.50868
7.31993
7.07112
6.81086
6.575
6.37646
6.2163
6.0887
5.98246
5.89974
9.98057
9.47588
8.85334
8.22944
7.68063
7.22648
6.86483
6.58303
6.36384
6.2049
12.7352
11.7709
10.6563
9.59497
8.70381
7.99389
7.45001
7.0437
6.72989
6.50337
16.3205
14.5958
12.738
11.0487
9.69003
8.64313
7.86804
7.3076
6.89818
6.61551
19.8473
17.218
14.556
12.2473
10.4736
9.15221
8.20723
7.54804
7.06957
6.74155
22.0904
18.3804
14.9631
12.1998
10.2226
8.83285
7.89659
7.26971
6.84102
6.55162
14.3671
11.5129
9.41075
8.04155
7.20986
6.67679
6.33143
6.10264
5.93897
5.83031
8.79544
8.74942
8.70534
8.66998
8.64174
8.61979
8.60246
8.58892
8.5782
8.56945
8.03111
8.03149
8.03205
8.03281
8.03366
8.03452
8.03534
8.0363
8.03773
8.03955
5.19825
5.19045
5.18068
5.16981
5.15897
5.14876
5.13974
5.13234
5.12736
5.12554
5.8411
5.79616
5.73363
5.66619
5.6036
5.54993
5.50591
5.46966
5.43616
5.40831
6.95234
6.79467
6.58622
6.36984
6.17303
6.00507
5.86656
5.7544
5.6638
5.59756
8.29875
7.96234
7.54229
7.13028
6.77435
6.48477
6.25737
6.0826
5.94043
5.83452
10.219
9.54714
8.76173
8.02568
7.41564
6.93679
6.57365
6.30334
6.09834
5.95426
12.1826
11.1107
9.9101
8.83844
7.9887
7.34592
6.87546
6.53843
6.28186
6.10017
13.5049
11.9275
10.3197
8.98538
7.99611
7.28723
6.79364
6.45104
6.20697
6.03808
9.41198
8.37214
7.49764
6.87885
6.45858
6.1668
5.96278
5.8213
5.71474
5.64363
8.56017
8.53571
8.50907
8.48487
8.46388
8.44643
8.43203
8.42038
8.41093
8.40333
7.87298
7.87327
7.8737
7.87428
7.87493
7.87557
7.87616
7.87687
7.87805
7.87965
5.06391
5.06225
5.0602
5.05776
5.05503
5.05217
5.04952
5.04748
5.04681
5.04785
5.23696
5.22892
5.21712
5.20388
5.1914
5.18084
5.17252
5.1655
5.15682
5.14841
5.69609
5.65314
5.59277
5.52666
5.46311
5.40573
5.3556
5.3127
5.2765
5.25007
6.28854
6.18736
6.05296
5.91532
5.79083
5.68483
5.59763
5.52751
5.46611
5.41849
7.22146
6.98556
6.69603
6.41394
6.16982
5.96976
5.81065
5.68643
5.58766
5.51736
8.22608
7.82882
7.35354
6.91424
6.55105
6.26532
6.04641
5.88258
5.74991
5.65256
8.97791
8.35637
7.68513
7.10641
6.65577
6.31806
6.07054
5.8905
5.75659
5.66231
7.17867
6.81593
6.46395
6.18512
5.97378
5.81517
5.69636
5.61052
5.54244
5.49717
8.33557
8.32227
8.30598
8.28958
8.27435
8.26094
8.24942
8.2398
8.23179
8.22544
7.7051
7.70531
7.70559
7.70597
7.7064
7.70681
7.70716
7.70761
7.70851
7.70986
5.01389
5.01315
5.01235
5.01146
5.01042
5.00925
5.00817
5.00748
5.00778
5.00916
5.02073
5.01983
5.01867
5.01745
5.01664
5.01654
5.01722
5.01796
5.01664
5.01441
5.20697
5.19556
5.17853
5.15857
5.13805
5.11826
5.09985
5.08316
5.06856
5.05809
5.46224
5.43467
5.39566
5.35317
5.31223
5.27524
5.24317
5.21612
5.19012
5.16891
5.89323
5.81656
5.71911
5.61825
5.52526
5.44424
5.37594
5.31973
5.27299
5.2397
6.37928
6.2485
6.0799
5.91466
5.76898
5.64724
5.54846
5.47083
5.40353
5.35227
6.80062
6.57429
6.31833
6.08343
5.8879
5.73229
5.61164
5.51968
5.44857
5.39819
6.17426
6.04286
5.8983
5.77027
5.66354
5.57753
5.509
5.45765
5.41473
5.38654
8.11277
8.1053
8.09529
8.08436