/*--------------------------------*- C++ -*----------------------------------*\
| =========                 |                                                 |
| \\      /  F ield         | foam-extend: Open Source CFD                    |
|  \\    /   O peration     | Version:     4.0                                |
|   \\  /    A nd           | Web:         http://www.foam-extend.org         |
|    \\/     M anipulation  |                                                 |
\*---------------------------------------------------------------------------*/
FoamFile
{
    version     2.0;
    format      ascii;
    class       volScalarField;
    location    "1200";
    object      MaU;
}
// * * * * * * * * * * * * * * * * * * * * * * * * * * * * * * * * * * * * * //

dimensions      [0 0 0 0 0 0 0];

internalField   nonuniform List<scalar> 
34480
(
0.622982
0.623989
0.624537
0.624665
0.624377
0.623598
0.622188
0.619469
0.613406
0.607662
0.62645
0.627293
0.62777
0.627818
0.627274
0.625995
0.624006
0.621058
0.614052
0.608533
0.62871
0.629485
0.629872
0.629791
0.629067
0.627731
0.625971
0.623695
0.616677
0.611602
0.62875
0.629547
0.630004
0.630056
0.629559
0.628632
0.627379
0.625827
0.61921
0.614622
0.629248
0.630152
0.63075
0.631026
0.630856
0.630412
0.62971
0.628935
0.623113
0.61902
0.628869
0.629836
0.630523
0.630934
0.631007
0.630972
0.630809
0.630859
0.626225
0.622959
0.629094
0.630207
0.631007
0.631564
0.631851
0.632159
0.63249
0.633358
0.630173
0.627713
0.628527
0.629685
0.630447
0.630893
0.631067
0.631329
0.63181
0.633213
0.631541
0.630272
0.62832
0.629631
0.630506
0.631086
0.631435
0.631854
0.632578
0.63447
0.634064
0.63271
0.624536
0.625591
0.625662
0.624819
0.623228
0.621265
0.619384
0.61886
0.618097
0.618975
0.613158
0.614625
0.615206
0.61497
0.613839
0.611539
0.607441
0.600189
0.5895
0.57567
0.617811
0.619132
0.61967
0.619422
0.618193
0.615611
0.611082
0.603244
0.59059
0.574443
0.620939
0.622176
0.622661
0.622377
0.621073
0.618444
0.613986
0.606313
0.592821
0.575507
0.621782
0.623032
0.623583
0.623434
0.622341
0.62006
0.616008
0.608775
0.594907
0.57719
0.62295
0.624277
0.624947
0.625009
0.624219
0.622396
0.61887
0.612288
0.598527
0.58098
0.623101
0.624476
0.625231
0.625433
0.624884
0.623479
0.620503
0.614712
0.601509
0.584762
0.623766
0.625253
0.626107
0.626459
0.62613
0.625099
0.62266
0.617724
0.605452
0.589789
0.623515
0.625034
0.625862
0.626134
0.625752
0.624784
0.622634
0.618412
0.607329
0.593361
0.623549
0.625172
0.62609
0.626476
0.626271
0.625534
0.623771
0.62029
0.610461
0.597303
0.619954
0.621394
0.621758
0.621126
0.61955
0.617179
0.61374
0.608957
0.599596
0.589563
0.605587
0.607157
0.607727
0.607415
0.606183
0.603874
0.600189
0.594632
0.586567
0.576384
0.610521
0.612065
0.612632
0.612265
0.610844
0.608104
0.603537
0.596282
0.584885
0.569709
0.613908
0.615453
0.616015
0.615645
0.614159
0.61124
0.606267
0.598109
0.58409
0.564258
0.615236
0.616843
0.617483
0.617228
0.615874
0.6131
0.608128
0.599554
0.583398
0.559479
0.616872
0.61857
0.619322
0.619251
0.618131
0.615669
0.610941
0.602357
0.584714
0.557525
0.617436
0.619193
0.620034
0.620101
0.619187
0.61705
0.61267
0.60437
0.58585
0.556306
0.618457
0.620312
0.621248
0.621463
0.620755
0.618946
0.614975
0.607152
0.588327
0.55713
0.618501
0.620384
0.621308
0.621472
0.620738
0.619016
0.615315
0.608019
0.58941
0.557382
0.618787
0.620732
0.621726
0.621979
0.621374
0.619842
0.616499
0.609864
0.591896
0.558479
0.615431
0.617207
0.61779
0.617285
0.615671
0.612949
0.608458
0.60105
0.583635
0.550634
0.600072
0.601447
0.601922
0.601619
0.600534
0.598608
0.595744
0.591845
0.586888
0.581359
0.604736
0.606208
0.606725
0.606324
0.604932
0.602401
0.598481
0.592826
0.584987
0.576032
0.607961
0.609555
0.610108
0.609676
0.608132
0.605251
0.600605
0.593564
0.582962
0.569997
0.60948
0.611211
0.611853
0.611488
0.609954
0.606978
0.601943
0.593909
0.580661
0.563435
0.611377
0.613237
0.613985
0.613757
0.61235
0.60948
0.604341
0.595725
0.580238
0.559033
0.612225
0.614171
0.615009
0.614894
0.613621
0.610922
0.605843
0.596974
0.579701
0.555032
0.613514
0.61556
0.616484
0.616501
0.615386
0.61291
0.608016
0.59915
0.580605
0.553005
0.61381
0.615884
0.616808
0.616791
0.615658
0.613234
0.608473
0.599778
0.580544
0.550697
0.614313
0.616421
0.617397
0.617455
0.616427
0.614137
0.609561
0.601199
0.581938
0.549566
0.611202
0.613158
0.613847
0.613364
0.611632
0.608527
0.603184
0.594215
0.575145
0.541575
0.596242
0.597324
0.597687
0.597453
0.596642
0.595262
0.593329
0.590911
0.588158
0.58544
0.600348
0.601594
0.60203
0.601679
0.600509
0.598468
0.595485
0.591534
0.58667
0.581851
0.60311
0.60459
0.605102
0.604689
0.603279
0.600748
0.596883
0.591463
0.584206
0.576551
0.604552
0.606253
0.606871
0.606476
0.604957
0.602126
0.597595
0.590903
0.581118
0.570048
0.606484
0.608371
0.609098
0.60879
0.607285
0.604356
0.599421
0.591774
0.579608
0.564965
0.607456
0.609474
0.610297
0.610069
0.608613
0.605682
0.600524
0.592214
0.577911
0.559798
0.60889
0.61103
0.611938
0.611817
0.610457
0.607616
0.602399
0.593691
0.577611
0.556251
0.609359
0.611541
0.612462
0.612318
0.610932
0.608084
0.602827
0.593933
0.576586
0.55239
0.610029
0.612236
0.613197
0.613112
0.6118
0.609038
0.603834
0.594907
0.576929
0.549671
0.607143
0.609211
0.609977
0.609513
0.607714
0.60439
0.598661
0.589209
0.571005
0.541669
0.593622
0.594425
0.594683
0.594523
0.593972
0.593063
0.591845
0.590411
0.588895
0.587446
0.597128
0.59809
0.598431
0.598157
0.597264
0.595752
0.593646
0.591038
0.588128
0.585516
0.599313
0.60057
0.601008
0.600655
0.599475
0.597424
0.594444
0.590551
0.585851
0.58139
0.600512
0.602051
0.602609
0.602234
0.600857
0.598378
0.594613
0.589435
0.582651
0.575789
0.602303
0.604085
0.604757
0.604422
0.60296
0.600223
0.595862
0.589575
0.580658
0.571063
0.603259
0.60522
0.605997
0.605706
0.604208
0.601314
0.596514
0.589322
0.578331
0.565861
0.604725
0.606842
0.607706
0.607492
0.606019
0.603081
0.598012
0.590139
0.57727
0.561903
0.60528
0.607464
0.608354
0.60812
0.6066
0.603582
0.598311
0.589971
0.575599
0.557499
0.606063
0.608277
0.609201
0.60901
0.607531
0.60454
0.599202
0.590563
0.575214
0.554131
0.603369
0.605459
0.606257
0.605806
0.603993
0.600609
0.594882
0.585748
0.569897
0.5466
0.591819
0.592405
0.592582
0.592481
0.592132
0.591571
0.590841
0.59002
0.589189
0.588362
0.594807
0.595499
0.595748
0.595552
0.594918
0.59387
0.592465
0.590814
0.5891
0.587671
0.596417
0.597411
0.597763
0.597486
0.596566
0.595008
0.592838
0.590164
0.587204
0.584608
0.5973
0.598603
0.599079
0.598755
0.597595
0.595564
0.592616
0.588805
0.584267
0.580051
0.598839
0.600421
0.601015
0.600693
0.599378
0.596991
0.593372
0.588472
0.582198
0.576019
0.599674
0.601477
0.602181
0.601872
0.600449
0.597792
0.593609
0.587725
0.57965
0.571278
0.60108
0.603074
0.603869
0.603606
0.602143
0.599329
0.594728
0.58802
0.578209
0.567501
0.601637
0.603726
0.60456
0.604274
0.602736
0.599772
0.594848
0.587501
0.5762
0.563172
0.602482
0.604618
0.605484
0.605228
0.603696
0.600698
0.59561
0.587806
0.575419
0.559853
0.599938
0.601966
0.602758
0.602324
0.600562
0.597278
0.591872
0.583589
0.57056
0.553064
0.590547
0.590982
0.591101
0.591042
0.590831
0.590498
0.590075
0.589612
0.589148
0.588621
0.593135
0.593607
0.593779
0.593648
0.593223
0.592532
0.591632
0.590615
0.589612
0.588808
0.594242
0.594983
0.595249
0.595045
0.594369
0.593247
0.591736
0.589959
0.588117
0.586591
0.594812
0.595854
0.596239
0.595978
0.595057
0.593482
0.591282
0.588579
0.5856
0.583014
0.596045
0.597377
0.597878
0.597596
0.596483
0.594517
0.591659
0.587993
0.583689
0.579743
0.596698
0.598273
0.598886
0.598591
0.597324
0.595025
0.591564
0.586957
0.581199
0.575655
0.597982
0.599775
0.600482
0.600207
0.598847
0.596311
0.592358
0.586902
0.579671
0.572346
0.598469
0.600382
0.601138
0.600835
0.599373
0.596634
0.592285
0.586127
0.577569
0.568417
0.599336
0.601318
0.602107
0.60182
0.600334
0.597507
0.592923
0.586242
0.576645
0.565522
0.5969
0.598791
0.599542
0.599136
0.597485
0.594438
0.589575
0.582437
0.572178
0.559559
0.589613
0.58995
0.590031
0.589999
0.589876
0.589684
0.589443
0.589184
0.588918
0.588545
0.591918
0.592226
0.592341
0.592257
0.591984
0.591546
0.590987
0.590374
0.589786
0.589323
0.592614
0.593139
0.593331
0.593188
0.592714
0.591941
0.590927
0.589777
0.588642
0.587737
0.592922
0.593714
0.594012
0.593814
0.593119
0.591952
0.590372
0.588511
0.586581
0.584992
0.593844
0.594912
0.595316
0.595085
0.594191
0.592648
0.590483
0.58783
0.584927
0.58242
0.59429
0.595605
0.596118
0.595858
0.594788
0.592895
0.590155
0.586676
0.582654
0.579019
0.595421
0.596967
0.597573
0.597313
0.596117
0.593947
0.590702
0.586433
0.581231
0.576291
0.595782
0.597464
0.598126
0.597832
0.596516
0.59411
0.590445
0.585495
0.579195
0.572887
0.596647
0.598419
0.599115
0.598828
0.597461
0.594929
0.590991
0.585517
0.578312
0.570562
0.594281
0.595977
0.596662
0.596292
0.594803
0.592091
0.587901
0.582009
0.574201
0.565381
0.588898
0.589173
0.58923
0.589215
0.589144
0.589036
0.5889
0.588755
0.588597
0.588305
0.591012
0.591207
0.591282
0.591231
0.591061
0.590791
0.590452
0.590086
0.589741
0.589466
0.591387
0.591743
0.591875
0.591779
0.59146
0.590946
0.590286
0.589558
0.588865
0.588323
0.591505
0.592082
0.592303
0.592161
0.591657
0.590826
0.589728
0.588478
0.587241
0.586262
0.59214
0.592961
0.593274
0.593094
0.592408
0.591246
0.589664
0.587798
0.585868
0.58428
0.592387
0.593439
0.593851
0.593635
0.592773
0.591281
0.589192
0.586646
0.583884
0.581519
0.593361
0.594642
0.595143
0.594915
0.593913
0.592137
0.589576
0.586347
0.582678
0.579385
0.593558
0.594979
0.595538
0.595272
0.594141
0.592122
0.589156
0.585322
0.580789
0.576513
0.594414
0.59594
0.596535
0.596269
0.595072
0.592904
0.589658
0.585341
0.580071
0.574783
0.592087
0.593548
0.594148
0.593823
0.59253
0.590211
0.586739
0.582059
0.576284
0.570278
0.588331
0.588567
0.588609
0.588602
0.588562
0.588502
0.588425
0.588344
0.588245
0.587999
0.59032
0.590442
0.59049
0.59046
0.590357
0.590194
0.589992
0.589775
0.589571
0.589401
0.590444
0.590676
0.590763
0.590701
0.590493
0.590161
0.589743
0.589291
0.588872
0.588547
0.590452
0.590857
0.591016
0.590917
0.590567
0.589994
0.589252
0.58843
0.587643
0.58704
0.590839
0.591445
0.591678
0.591544
0.591038
0.590194
0.589074
0.587794
0.586528
0.585528
0.590913
0.591722
0.592041
0.591871
0.591205
0.590073
0.588532
0.58672
0.584853
0.583327
0.591747
0.592769
0.593168
0.59298
0.592177
0.590781
0.58883
0.586461
0.583918
0.581746
0.591757
0.59291
0.593365
0.593138
0.592208
0.590582
0.588269
0.585394
0.582201
0.579346
0.592615
0.593882
0.594373
0.594142
0.593138
0.591359
0.588783
0.585492
0.581723
0.578178
0.590301
0.591509
0.592016
0.591741
0.59066
0.588752
0.585978
0.582387
0.578224
0.574227
0.587868
0.588079
0.58811
0.588109
0.588086
0.588052
0.588009
0.587962
0.587897
0.587681
0.589783
0.589858
0.58989
0.589872
0.589811
0.589714
0.589594
0.589466
0.589343
0.589235
0.5897
0.589846
0.5899
0.58986
0.589729
0.58952
0.589261
0.588986
0.588737
0.588542
0.589675
0.589951
0.590061
0.589996
0.589759
0.589376
0.588886
0.588354
0.587859
0.587488
0.589852
0.590284
0.590451
0.590355
0.589995
0.589402
0.588631
0.587773
0.586954
0.58633
0.589791
0.59039
0.590629
0.5905
0.590005
0.589176
0.588075
0.586817
0.585572
0.584597
0.590515
0.591301
0.591609
0.591461
0.590843
0.589786
0.588348
0.586656
0.584923
0.583504
0.590323
0.591223
0.59158
0.591395
0.590661
0.589401
0.587658
0.585568
0.583362
0.581484
0.591211
0.592226
0.592617
0.592427
0.59162
0.590216
0.588242
0.585812
0.583174
0.580831
0.588888
0.589848
0.59026
0.590036
0.589165
0.587652
0.585513
0.582846
0.579914
0.577312
0.587485
0.587677
0.5877
0.587701
0.587688
0.58767
0.587645
0.587618
0.587573
0.587377
0.589364
0.589411
0.589432
0.589422
0.589386
0.589329
0.589258
0.589181
0.589105
0.589033
0.589092
0.58918
0.589212
0.589186
0.589105
0.588977
0.58882
0.588657
0.588512
0.588399
0.589104
0.589287
0.589363
0.589322
0.589167
0.588916
0.5886
0.588261
0.587951
0.587725
0.589106
0.589403
0.589518
0.589452
0.589204
0.5888
0.588283
0.58772
0.587199
0.586814
0.588951
0.589379
0.589551
0.589458
0.589103
0.588515
0.58775
0.586897
0.58608
0.585464
0.589598
0.590181
0.590411
0.5903
0.589842
0.589069
0.588042
0.586864
0.585703
0.584785
0.589195
0.589871
0.590141
0.589997
0.589439
0.588497
0.587226
0.58575
0.584255
0.583039
0.590155
0.590941
0.591241
0.591092
0.590469
0.589402
0.587941
0.586198
0.584389
0.58286
0.587801
0.588531
0.588854
0.588678
0.588003
0.586847
0.585252
0.583333
0.581315
0.579657
0.587163
0.587338
0.587356
0.587358
0.587351
0.587341
0.587327
0.58731
0.587278
0.5871
0.589045
0.589076
0.589091
0.589086
0.589064
0.58903
0.588988
0.588941
0.588892
0.58884
0.588577
0.588626
0.588643
0.588626
0.588576
0.5885
0.588408
0.588313
0.588233
0.588172
0.588691
0.58881
0.588861
0.588836
0.588738
0.588578
0.588377
0.588164
0.587972
0.587834
0.588543
0.588739
0.588816
0.588771
0.588605
0.588338
0.588
0.58764
0.587313
0.587082
0.588331
0.588627
0.588747
0.588682
0.588436
0.588033
0.587515
0.58695
0.586421
0.586037
0.588932
0.589351
0.589516
0.589436
0.589109
0.588563
0.587851
0.587052
0.586288
0.5857
0.58831
0.588797
0.588994
0.588886
0.588478
0.587799
0.5869
0.585887
0.584893
0.58412
0.589397
0.589986
0.590209
0.590097
0.589634
0.588853
0.587807
0.586592
0.585377
0.584389
0.586983
0.587514
0.587758
0.587625
0.587121
0.58627
0.585119
0.583779
0.582421
0.58139
0.586884
0.587043
0.587056
0.587059
0.587055
0.587049
0.587041
0.587031
0.587008
0.586847
0.588821
0.588844
0.588855
0.588853
0.58884
0.588819
0.588793
0.588762
0.588728
0.588688
0.588122
0.588146
0.588153
0.588141
0.588111
0.588067
0.588014
0.587963
0.587922
0.587896
0.5884
0.588477
0.588511
0.588497
0.588436
0.588336
0.58821
0.588077
0.587959
0.587877
0.58812
0.588246
0.588295
0.588266
0.588158
0.587986
0.587771
0.587545
0.587344
0.587211
0.587886
0.588085
0.588167
0.588124
0.587958
0.587689
0.587348
0.586981
0.586644
0.586409
0.588461
0.588751
0.588866
0.58881
0.588584
0.588212
0.587733
0.587206
0.586714
0.586341
0.587607
0.587946
0.588084
0.588006
0.587718
0.587245
0.586629
0.585951
0.585304
0.584824
0.588892
0.58932
0.589479
0.5894
0.589069
0.588518
0.587792
0.58697
0.586171
0.585537
0.586367
0.586735
0.586914
0.586817
0.586454
0.58585
0.585046
0.58414
0.583245
0.582624
0.58661
0.586753
0.586761
0.586764
0.586761
0.586759
0.586755
0.586749
0.586732
0.586589
0.588701
0.58872
0.58873
0.588729
0.588721
0.588708
0.58869
0.588668
0.588641
0.588606
0.587707
0.587715
0.587715
0.587707
0.587689
0.587663
0.587635
0.587609
0.587593
0.587591
0.588208
0.588257
0.588279
0.588271
0.588234
0.588172
0.588095
0.588014
0.587942
0.587895
0.587816
0.587893
0.587925
0.587906
0.587838
0.58773
0.587596
0.587457
0.587336
0.587263
0.587589
0.58772
0.587774
0.587746
0.587639
0.587464
0.587245
0.587011
0.586799
0.586658
0.588141
0.588334
0.58841
0.588372
0.588221
0.587975
0.587664
0.587326
0.587018
0.586786
0.587045
0.58727
0.587365
0.587312
0.587116
0.586796
0.586385
0.585944
0.585527
0.585239
0.588606
0.588908
0.589019
0.588964
0.588736
0.588361
0.587875
0.587333
0.586821
0.586414
0.585867
0.586111
0.586237
0.58617
0.585919
0.585504
0.58496
0.584365
0.583787
0.583428
0.586246
0.586368
0.586372
0.586374
0.586373
0.586372
0.586371
0.586368
0.586358
0.586237
0.58871
0.58873
0.588739
0.58874
0.588734
0.588725
0.588711
0.588693
0.588669
0.588634
0.587332
0.587331
0.587329
0.587322
0.587312
0.587298
0.587282
0.587271
0.587267
0.587281
0.588097
0.588127
0.58814
0.588135
0.588112
0.588076
0.58803
0.587982
0.587941
0.587916
0.587622
0.587669
0.587689
0.587678
0.587637
0.58757
0.587488
0.587404
0.587331
0.587293
0.587429
0.587513
0.587549
0.587532
0.587464
0.587354
0.587215
0.587069
0.586935
0.58685
0.587943
0.588063
0.588111
0.588085
0.587987
0.58783
0.587634
0.587425
0.58724
0.587101
0.586619
0.586766
0.586831
0.586796
0.586667
0.586457
0.586189
0.585906
0.585638
0.58547
0.588534
0.58874
0.588814
0.588777
0.588626
0.588379
0.588063
0.587717
0.587398
0.587134
0.585348
0.585502
0.58559
0.585545
0.585377
0.585102
0.584744
0.584364
0.583993
0.5838
0.58557
0.585665
0.585667
0.585668
0.585669
0.585669
0.58567
0.58567
0.585668
0.585574
0.588919
0.588942
0.588949
0.588949
0.588945
0.588938
0.588927
0.588912
0.588891
0.58885
0.587044
0.587042
0.587044
0.587042
0.587037
0.587028
0.587018
0.587009
0.587006
0.587024
0.588053
0.588068
0.588073
0.588068
0.588054
0.588033
0.588008
0.587982
0.587963
0.587954
0.587539
0.587569
0.587583
0.587577
0.587553
0.587512
0.587462
0.58741
0.587365
0.587343
0.587398
0.587453
0.587477
0.587467
0.587425
0.587356
0.58727
0.587179
0.587094
0.58704
0.587852
0.587922
0.587949
0.58793
0.587868
0.58777
0.58765
0.587526
0.587421
0.587343
0.586407
0.586506
0.586553
0.586533
0.58645
0.586314
0.586141
0.585957
0.585777
0.585674
0.588728
0.588861
0.588908
0.588882
0.588784
0.588625
0.588427
0.588213
0.588024
0.587851
0.584582
0.584676
0.584738
0.584709
0.584599
0.58442
0.584189
0.58395
0.583706
0.583612
0.584273
0.584338
0.584341
0.584344
0.584345
0.584346
0.584345
0.584344
0.584344
0.584277
0.58947
0.589485
0.589481
0.589476
0.589471
0.589467
0.589464
0.589461
0.589453
0.589415
0.586959
0.586971
0.586983
0.586989
0.586988
0.586981
0.58697
0.586955
0.586939
0.586939
0.588048
0.58805
0.588047
0.588041
0.588032
0.58802
0.588008
0.587998
0.587995
0.588
0.587551
0.587573
0.587583
0.587581
0.587566
0.587541
0.58751
0.587476
0.587445
0.587428
0.587468
0.587505
0.587521
0.587515
0.587489
0.587446
0.587391
0.587333
0.587278
0.587239
0.587847
0.587885
0.587899
0.587885
0.587845
0.587783
0.587709
0.587635
0.587578
0.587542
0.586565
0.586642
0.586678
0.586668
0.586614
0.586525
0.586409
0.586284
0.586151
0.586065
0.589313
0.589388
0.589414
0.589393
0.589327
0.589225
0.589099
0.588971
0.58887
0.588773
0.583292
0.583356
0.583401
0.583382
0.583309
0.58319
0.583038
0.582882
0.582712
0.582665
0.582452
0.582493
0.582505
0.582512
0.582515
0.582512
0.582505
0.582493
0.582476
0.582422
0.590397
0.590367
0.590337
0.590318
0.590309
0.59031
0.590322
0.590346
0.590381
0.590399
0.587144
0.587179
0.587202
0.587214
0.587217
0.587211
0.587196
0.587173
0.587138
0.587101
0.58804
0.588031
0.588023
0.588016
0.588009
0.588002
0.587997
0.587996
0.588004
0.588021
0.587606
0.587624
0.587632
0.587631
0.587621
0.587603
0.587581
0.587557
0.587534
0.587517
0.587564
0.587591
0.587602
0.587598
0.587579
0.587548
0.587509
0.587469
0.58743
0.5874
0.587866
0.587889
0.587897
0.587886
0.587856
0.587812
0.587759
0.587709
0.587674
0.587661
0.587082
0.587153
0.587184
0.587178
0.587138
0.587072
0.586987
0.586891
0.586783
0.586685
0.590267
0.590295
0.590307
0.590288
0.590238
0.590162
0.590073
0.58999
0.589944
0.589942
0.581601
0.581659
0.581692
0.581678
0.581623
0.581534
0.581423
0.581307
0.58118
0.581138
0.438743
0.417988
0.424862
0.465782
0.390971
0.36772
0.378717
0.43592
0.347858
0.320697
0.337983
0.416872
0.309871
0.280459
0.304734
0.406034
0.27846
0.248378
0.279884
0.403694
0.251427
0.221885
0.261689
0.40076
0.229748
0.202078
0.250668
0.398184
0.209391
0.18525
0.242679
0.396144
0.191475
0.173432
0.23913
0.39783
0.17203
0.162144
0.234841
0.393379
0.498735
0.488539
0.488853
0.498548
0.468252
0.455625
0.45675
0.469406
0.437447
0.42071
0.422895
0.440444
0.408513
0.387529
0.391095
0.413791
0.383928
0.358445
0.363671
0.391712
0.36195
0.331581
0.33756
0.370855
0.344119
0.308765
0.314575
0.352966
0.327716
0.287566
0.292926
0.336309
0.314211
0.270032
0.274941
0.322718
0.298878
0.25228
0.254808
0.305117
0.56609
0.563877
0.563342
0.564464
0.548301
0.544598
0.543894
0.546183
0.528364
0.522457
0.521636
0.525961
0.506205
0.497922
0.497108
0.503933
0.485281
0.474543
0.473901
0.483626
0.464267
0.450943
0.450515
0.463245
0.445381
0.429392
0.429138
0.444814
0.42679
0.408255
0.408144
0.426585
0.410578
0.390366
0.390303
0.410666
0.3917
0.37198
0.371197
0.391082
0.578561
0.577482
0.577131
0.577475
0.568892
0.567477
0.566982
0.567338
0.557061
0.554568
0.553843
0.554738
0.54235
0.538546
0.537633
0.539354
0.527973
0.522718
0.521691
0.524544
0.512459
0.505628
0.504543
0.508788
0.497903
0.489425
0.488323
0.49416
0.48263
0.472584
0.471521
0.479027
0.468461
0.457474
0.456461
0.465264
0.450658
0.440722
0.439452
0.447789
0.585441
0.584856
0.584655
0.584838
0.579566
0.579082
0.578848
0.578853
0.572105
0.571155
0.570727
0.570797
0.562047
0.560399
0.559741
0.560009
0.552134
0.549615
0.548736
0.549371
0.540879
0.537348
0.536274
0.537456
0.530186
0.525556
0.52433
0.526245
0.518439
0.512734
0.511428
0.51422
0.507323
0.500972
0.499664
0.503236
0.492607
0.487402
0.485969
0.488982
0.588031
0.58756
0.587414
0.587596
0.584529
0.584312
0.584199
0.58419
0.579454
0.579024
0.578803
0.578787
0.572267
0.571493
0.571111
0.571108
0.565246
0.564
0.563427
0.563489
0.556959
0.555116
0.554338
0.554542
0.54916
0.546628
0.545656
0.546111
0.540294
0.537055
0.535944
0.536768
0.531927
0.528246
0.527098
0.528325
0.520045
0.517489
0.516265
0.516819
0.589164
0.588736
0.588613
0.588798
0.587217
0.587117
0.587063
0.587056
0.583685
0.583479
0.583368
0.583353
0.578345
0.577962
0.577757
0.577726
0.573167
0.572532
0.5722
0.57216
0.566839
0.565866
0.565378
0.565346
0.561019
0.559636
0.55898
0.558999
0.554247
0.552425
0.551627
0.551767
0.548142
0.546015
0.545159
0.545482
0.53849
0.537484
0.536581
0.536137
0.589497
0.589083
0.58897
0.589158
0.588556
0.5885
0.588471
0.588469
0.586095
0.585986
0.585928
0.585923
0.582104
0.5819
0.581788
0.58177
0.578225
0.577883
0.577695
0.577659
0.573282
0.572747
0.572456
0.572401
0.56886
0.568086
0.567676
0.567612
0.563605
0.562568
0.562046
0.562006
0.559245
0.558011
0.557424
0.557446
0.551218
0.551121
0.550521
0.549738
0.589448
0.589039
0.588929
0.589119
0.589166
0.58913
0.589113
0.589115
0.587446
0.587382
0.587351
0.587351
0.58447
0.584354
0.584291
0.584283
0.581565
0.581372
0.581265
0.581244
0.577686
0.577383
0.577212
0.577172
0.574334
0.573889
0.57364
0.573581
0.570206
0.569607
0.569281
0.569217
0.567103
0.566382
0.566001
0.565947
0.560294
0.560718
0.560351
0.559494
0.589214
0.588806
0.588697
0.588888
0.589355
0.589329
0.589318
0.589322
0.588137
0.588097
0.588079
0.588082
0.585939
0.585869
0.585832
0.58583
0.583769
0.583656
0.583594
0.583584
0.580734
0.580556
0.580455
0.58043
0.57824
0.577977
0.577826
0.577785
0.574972
0.574619
0.574419
0.574367
0.572799
0.572372
0.572132
0.572075
0.566926
0.567635
0.567426
0.566591
0.588902
0.588493
0.588384
0.588576
0.589316
0.589296
0.589287
0.589292
0.58842
0.588394
0.588383
0.588389
0.58683
0.586784
0.586762
0.586764
0.58521
0.585141
0.585104
0.585101
0.582847
0.582738
0.582677
0.582664
0.581048
0.580889
0.580796
0.580771
0.578432
0.578221
0.578098
0.578062
0.576989
0.576731
0.576582
0.576539
0.571843
0.572694
0.572584
0.571797
0.58857
0.588158
0.58805
0.588243
0.589164
0.589147
0.589141
0.589146
0.588454
0.588436
0.58843
0.588437
0.587345
0.587315
0.587301
0.587304
0.586128
0.586084
0.586063
0.586063
0.584297
0.584229
0.584192
0.584185
0.583067
0.582967
0.58291
0.582895
0.58093
0.580802
0.580726
0.580703
0.580087
0.579927
0.579835
0.579807
0.575505
0.576409
0.576359
0.575626
0.588246
0.587832
0.587724
0.587919
0.588973
0.588958
0.588953
0.588957
0.588337
0.588325
0.588322
0.58833
0.587626
0.587605
0.587596
0.5876
0.586687
0.586661
0.586648
0.586651
0.585276
0.585234
0.585211
0.585207
0.584506
0.584444
0.584408
0.584399
0.582702
0.582624
0.582577
0.582562
0.582374
0.582274
0.582217
0.5822
0.578223
0.579126
0.579109
0.578434
0.587944
0.587527
0.587419
0.587616
0.588788
0.588775
0.58877
0.588774
0.588132
0.588125
0.588124
0.588131
0.587767
0.587753
0.587747
0.58775
0.587006
0.586991
0.586985
0.586987
0.585922
0.585897
0.585883
0.58588
0.585523
0.585484
0.585461
0.585455
0.583919
0.583872
0.583843
0.583832
0.584059
0.583995
0.58396
0.583951
0.580223
0.581086
0.581087
0.580473
0.587658
0.587239
0.587133
0.587333
0.588644
0.588632
0.588627
0.58863
0.587875
0.587872
0.587874
0.58788
0.587834
0.587825
0.587822
0.587823
0.587171
0.587164
0.587162
0.587163
0.586343
0.586328
0.58632
0.586317
0.586231
0.586209
0.586195
0.58619
0.584709
0.584682
0.584664
0.584656
0.585302
0.58526
0.585238
0.585236
0.581665
0.582461
0.582469
0.581922
0.587358
0.586939
0.586838
0.587041
0.588568
0.588558
0.588553
0.588553
0.587588
0.587589
0.587592
0.587597
0.587873
0.587868
0.587866
0.587866
0.587249
0.587248
0.587247
0.587247
0.586623
0.586615
0.58661
0.586606
0.586723
0.586712
0.586704
0.5867
0.585179
0.585164
0.585153
0.585146
0.586237
0.586208
0.586195
0.586197
0.582651
0.583354
0.583365
0.58289
0.58695
0.586535
0.586442
0.586649
0.588599
0.58859
0.588583
0.588581
0.587295
0.5873
0.587303
0.587306
0.587913
0.587912
0.587912
0.58791
0.587296
0.587298
0.587298
0.587295
0.586834
0.586831
0.586827
0.586822
0.587073
0.587071
0.587067
0.587063
0.585438
0.585429
0.585421
0.585414
0.586993
0.586971
0.586964
0.586971
0.583192
0.583782
0.583791
0.583397
0.586208
0.585809
0.585731
0.585939
0.588816
0.588806
0.588799
0.588795
0.587047
0.587054
0.587056
0.587055
0.587969
0.587973
0.587974
0.587971
0.587353
0.587357
0.587357
0.587352
0.587031
0.58703
0.587027
0.587021
0.587344
0.587347
0.587347
0.587343
0.585639
0.58563
0.585622
0.585616
0.587734
0.587716
0.587712
0.587723
0.583166
0.583622
0.583625
0.583322
0.584789
0.584438
0.584382
0.584576
0.58938
0.58937
0.589365
0.589362
0.58695
0.586953
0.586951
0.586944
0.588032
0.588041
0.588044
0.588041
0.587436
0.58744
0.587439
0.587433
0.587231
0.58723
0.587227
0.587222
0.587563
0.587572
0.587574
0.58757
0.585984
0.585966
0.585957
0.585955
0.588698
0.588685
0.588685
0.5887
0.582347
0.582635
0.582633
0.582439
0.582719
0.5825
0.582475
0.582597
0.590398
0.5904
0.590405
0.590414
0.587063
0.587056
0.587048
0.587036
0.588066
0.588078
0.588082
0.58808
0.587516
0.587518
0.587517
0.587511
0.587387
0.587386
0.587383
0.587381
0.5877
0.58771
0.587713
0.587709
0.586525
0.586489
0.586478
0.586489
0.590013
0.590026
0.590032
0.590036
0.580861
0.580935
0.58093
0.580887
0.594487
0.60289
0.606893
0.610001
0.613129
0.615889
0.618131
0.619883
0.621254
0.622401
0.595342
0.598652
0.6061
0.611168
0.61565
0.619052
0.621529
0.623306
0.624561
0.625509
0.599239
0.595585
0.606597
0.612329
0.617631
0.621244
0.623829
0.625668
0.626935
0.627834
0.602725
0.591797
0.606429
0.612009
0.617879
0.621437
0.624005
0.625795
0.627022
0.627894
0.607293
0.589884
0.607252
0.612552
0.618854
0.622255
0.624786
0.626487
0.627621
0.628412
0.610459
0.587313
0.607067
0.611879
0.618619
0.621824
0.624362
0.626009
0.627147
0.627977
0.614537
0.586128
0.607954
0.612036
0.619167
0.622098
0.624646
0.626233
0.627341
0.628148
0.616169
0.583137
0.607012
0.610315
0.617942
0.620672
0.623377
0.625046
0.626353
0.627397
0.617891
0.581711
0.607517
0.609494
0.61727
0.619537
0.622468
0.624278
0.62578
0.627008
0.60238
0.565882
0.594333
0.596663
0.606312
0.610157
0.614781
0.617877
0.620428
0.622445
0.537191
0.559226
0.575556
0.587171
0.595127
0.600667
0.604672
0.607663
0.609973
0.611891
0.523433
0.553953
0.576032
0.589978
0.598836
0.604833
0.609083
0.612167
0.614418
0.616085
0.513212
0.550863
0.577177
0.592191
0.601651
0.607923
0.612322
0.615475
0.617721
0.619324
0.504896
0.547899
0.577411
0.59274
0.602597
0.608941
0.613345
0.616458
0.618656
0.620214
0.500509
0.54715
0.578733
0.594107
0.604245
0.610532
0.614873
0.617883
0.619976
0.621443
0.497377
0.546141
0.579199
0.594328
0.604696
0.610853
0.61513
0.61805
0.620101
0.621571
0.497032
0.546625
0.58075
0.595343
0.605862
0.611789
0.615985
0.618805
0.620794
0.622224
0.496278
0.54572
0.580742
0.594629
0.605333
0.611041
0.615261
0.618097
0.620208
0.621812
0.496809
0.546085
0.581967
0.594604
0.605109
0.610349
0.614663
0.617613
0.619886
0.621669
0.487745
0.536074
0.57271
0.584866
0.596394
0.60265
0.60815
0.612025
0.615056
0.617322
0.568334
0.574594
0.580663
0.586033
0.590613
0.594443
0.597615
0.600235
0.602427
0.604316
0.555054
0.566442
0.576631
0.584961
0.591632
0.596885
0.600984
0.604172
0.60664
0.608519
0.54201
0.559176
0.573545
0.584435
0.592749
0.599005
0.603718
0.607275
0.609937
0.611888
0.528925
0.551815
0.570159
0.583148
0.592727
0.599639
0.604701
0.608437
0.611191
0.613185
0.519071
0.547021
0.568783
0.583345
0.593835
0.601125
0.606352
0.61013
0.612879
0.614846
0.510282
0.542539
0.567232
0.582909
0.594064
0.601551
0.606853
0.610631
0.613382
0.61537
0.504302
0.540056
0.567194
0.583546
0.595147
0.602662
0.607963
0.611696
0.614417
0.616385
0.498648
0.537056
0.566253
0.582912
0.594825
0.602286
0.607614
0.611373
0.614187
0.616288
0.494981
0.535755
0.566689
0.58302
0.594823
0.602003
0.607387
0.611241
0.614181
0.616427
0.484905
0.526883
0.559026
0.575304
0.587807
0.595708
0.601905
0.606419
0.60989
0.612412
0.578174
0.580576
0.583478
0.586422
0.589197
0.591708
0.593928
0.595869
0.597582
0.599139
0.569354
0.574124
0.579546
0.584694
0.589236
0.593099
0.596325
0.598985
0.601146
0.602854
0.558865
0.566948
0.575363
0.58279
0.589015
0.594088
0.598167
0.601412
0.603953
0.605888
0.546611
0.558713
0.570453
0.580132
0.587885
0.593948
0.598671
0.602331
0.605143
0.60725
0.535978
0.552364
0.567376
0.579052
0.588077
0.594882
0.60004
0.603948
0.606904
0.609084
0.525411
0.546096
0.56422
0.577592
0.587655
0.594998
0.600456
0.604522
0.607582
0.609843
0.51692
0.541721
0.562686
0.577398
0.588256
0.595938
0.601572
0.605713
0.608818
0.611104
0.50858
0.537132
0.560632
0.576324
0.587772
0.595651
0.601419
0.605651
0.608862
0.611268
0.502106
0.534283
0.559983
0.576081
0.587732
0.595593
0.601472
0.605809
0.609124
0.611646
0.49122
0.525997
0.553148
0.569637
0.581926
0.590351
0.596802
0.601607
0.605291
0.607938
0.58469
0.585448
0.58661
0.587974
0.589408
0.590824
0.592169
0.593422
0.594601
0.595751
0.579305
0.581171
0.5837
0.586431
0.589108
0.591595
0.593826
0.595777
0.597438
0.598798
0.57179
0.575205
0.579523
0.583918
0.588013
0.591644
0.594762
0.59738
0.599524
0.601224
0.562025
0.567646
0.574216
0.580473
0.586024
0.590739
0.594649
0.597838
0.600394
0.602381
0.552954
0.561244
0.570296
0.578421
0.585328
0.590974
0.595516
0.599128
0.601971
0.604141
0.543198
0.554484
0.566124
0.576025
0.58415
0.59057
0.595612
0.599546
0.602614
0.604947
0.534784
0.549247
0.56345
0.574937
0.584093
0.591109
0.596515
0.600667
0.603879
0.6063
0.526122
0.543787
0.560431
0.573248
0.583234
0.590685
0.59637
0.600708
0.604071