/*--------------------------------*- C++ -*----------------------------------*\
| =========                 |                                                 |
| \\      /  F ield         | foam-extend: Open Source CFD                    |
|  \\    /   O peration     | Version:     4.0                                |
|   \\  /    A nd           | Web:         http://www.foam-extend.org         |
|    \\/     M anipulation  |                                                 |
\*---------------------------------------------------------------------------*/
FoamFile
{
    version     2.0;
    format      ascii;
    class       volScalarField;
    location    "1200";
    object      mut;
}
// * * * * * * * * * * * * * * * * * * * * * * * * * * * * * * * * * * * * * //

dimensions      [1 -1 -1 0 0 0 0];

internalField   nonuniform List<scalar> 
34480
(
0.00188961
0.00188836
0.00188818
0.00188899
0.00189107
0.00189493
0.00190242
0.00192065
0.00195987
0.00203102
0.0159478
0.0151446
0.0148453
0.0145705
0.0129359
0.00823965
0.00340446
0.00134974
0.000987728
0.0014587
0.0442795
0.0426237
0.0409397
0.0374932
0.0286767
0.014682
0.00512049
0.00183157
0.00124443
0.0018161
0.0484232
0.0462729
0.0443394
0.0403019
0.0297269
0.0141728
0.00479866
0.0017781
0.00128974
0.00198044
0.0477405
0.0453351
0.0435807
0.0397431
0.0288779
0.0132093
0.00441606
0.00168673
0.00130027
0.00209801
0.0459875
0.0435213
0.0418719
0.0380897
0.0268682
0.0116387
0.0038661
0.00155525
0.00130618
0.00222479
0.0438566
0.041553
0.0401043
0.0364958
0.0253058
0.0105772
0.00350266
0.00146299
0.0013134
0.00233389
0.0364035
0.0347266
0.0337054
0.0309623
0.0214526
0.00865826
0.00281875
0.00124122
0.00123658
0.00234094
0.0124233
0.0121072
0.012006
0.0117304
0.0099329
0.00512802
0.00167897
0.00073735
0.000834781
0.0017868
0.00180049
0.00180042
0.00180208
0.00180533
0.00181008
0.00181617
0.00182417
0.00183539
0.00185192
0.00181314
0.00188945
0.00188759
0.00188699
0.00188749
0.00188932
0.00189273
0.0018982
0.00190763
0.00192532
0.00196613
0.0149796
0.0143497
0.0141588
0.0143399
0.0147453
0.0147829
0.0129469
0.00764316
0.0024983
0.00205122
0.0407616
0.0395366
0.0388736
0.0383348
0.0367162
0.0319959
0.0230069
0.0112971
0.00328695
0.00281078
0.0448334
0.0431713
0.0423743
0.041802
0.0399556
0.0344487
0.0242139
0.0114409
0.00330354
0.00317558
0.0446616
0.0427176
0.0419812
0.0416252
0.04014
0.0348617
0.0244674
0.0112866
0.00323874
0.0034539
0.0434422
0.0413909
0.0406736
0.0404531
0.0392384
0.0342378
0.0239758
0.0108526
0.00316509
0.00378315
0.0418349
0.0398677
0.0392411
0.039106
0.0381312
0.0334975
0.0235608
0.0105585
0.00312803
0.00409816
0.03514
0.0336813
0.0332205
0.0332075
0.0327012
0.0293849
0.0211136
0.00938847
0.00285309
0.00417058
0.0123614
0.0120578
0.0119985
0.0120577
0.0121888
0.0120306
0.0106137
0.0054554
0.00170633
0.00280133
0.00179598
0.00179353
0.00179304
0.00179421
0.00179698
0.00180105
0.0018072
0.00181699
0.0018412
0.00188836
0.00188478
0.00188319
0.00188265
0.0018831
0.00188467
0.00188741
0.00189138
0.00189736
0.00190629
0.00191982
0.0140814
0.0136699
0.0135369
0.0136857
0.0141202
0.0147521
0.0151493
0.0142194
0.0101137
0.00584265
0.0372338
0.0362698
0.0359344
0.0360799
0.0363928
0.0359659
0.0330232
0.0253639
0.0133474
0.007112
0.0411006
0.0398031
0.0393783
0.0396047
0.0400987
0.0397392
0.0362073
0.0266137
0.0125362
0.00721351
0.0413239
0.0398191
0.0394109
0.0397528
0.0405559
0.0406797
0.0373749
0.0266871
0.0114106
0.00718052
0.0405775
0.0389825
0.038555
0.0389624
0.0399921
0.0406061
0.0377135
0.0261704
0.0102932
0.00724747
0.0394677
0.0379148
0.0375306
0.0379435
0.0390781
0.0400542
0.0376717
0.0255276
0.00936892
0.00732745
0.0336205
0.0324683
0.0321656
0.0324872
0.0334318
0.0345928
0.0334303
0.0226364
0.0079572
0.00703662
0.0122547
0.0120024
0.0119599
0.0120214
0.0122176
0.0124489
0.0126055
0.0106441
0.0044833
0.00445195
0.00178871
0.00178582
0.00178495
0.00178583
0.00178849
0.00179282
0.00179982
0.0018116
0.00183827
0.00189163
0.00187646
0.00187534
0.00187496
0.00187531
0.00187645
0.0018783
0.00188062
0.00188369
0.00188764
0.00189231
0.0134874
0.0132445
0.013155
0.0132492
0.0135364
0.0139851
0.0144572
0.0148743
0.0146042
0.0128673
0.0340624
0.0333825
0.0331896
0.0333917
0.0339551
0.0346289
0.0346484
0.0324192
0.0256906
0.0173947
0.0376659
0.0367301
0.0364662
0.0367581
0.0375647
0.0385659
0.0386147
0.0352937
0.0257833
0.0167317
0.0382077
0.037124
0.0368617
0.0372201
0.0382326
0.0396087
0.0399915
0.0361397
0.0246131
0.0158834
0.0378819
0.0367157
0.0364204
0.036819
0.0379799
0.0397206
0.0405575
0.0363425
0.0231134
0.0153287
0.0372178
0.0360531
0.0357787
0.036171
0.0373769
0.0393158
0.0405383
0.0360534
0.0214927
0.0148325
0.0322064
0.0313336
0.0311087
0.0313992
0.0323098
0.033941
0.0354215
0.0319901
0.0184966
0.0137041
0.0121889
0.0119812
0.0119503
0.0119974
0.0121463
0.0123352
0.0125431
0.0126692
0.00957629
0.00830487
0.00177986
0.00177683
0.00177582
0.00177662
0.0017793
0.00178394
0.00179151
0.00180417
0.00183025
0.00187748
0.00186527
0.00186459
0.00186436
0.0018646
0.00186534
0.00186644
0.00186762
0.00186905
0.00187062
0.00187209
0.0132011
0.0130691
0.0130105
0.0130685
0.0132445
0.0134984
0.0137285
0.0140194
0.0143037
0.0144254
0.0315275
0.0311298
0.0310257
0.0311506
0.0315322
0.0321432
0.0328274
0.0331069
0.0316531
0.0274742
0.0347941
0.0341963
0.0340307
0.0342268
0.0348211
0.0358025
0.036897
0.0371175
0.0340941
0.0274791
0.0355328
0.0348162
0.0346445
0.0348865
0.0356297
0.0368927
0.0383451
0.0385844
0.034216
0.0263067
0.0355272
0.0347241
0.0345138
0.0347917
0.0356529
0.0371914
0.0390666
0.0394535
0.033797
0.0253863
0.0352141
0.0343784
0.0341754
0.0344545
0.0353597
0.0370307
0.0391742
0.0396352
0.0327833
0.0244235
0.0309631
0.0303224
0.030151
0.0303612
0.0310328
0.0323378
0.0342048
0.0350202
0.0288872
0.0222629
0.0121707
0.0119997
0.0119775
0.0120095
0.0121106
0.0122268
0.0122981
0.0126917
0.0125616
0.0121915
0.00176959
0.00176654
0.00176546
0.0017662
0.00176885
0.00177357
0.00178119
0.00179352
0.00181618
0.00185272
0.00185175
0.00185141
0.0018513
0.00185144
0.00185188
0.00185244
0.00185296
0.00185354
0.00185411
0.0018545
0.0131553
0.0130942
0.0130582
0.0130957
0.0132041
0.013337
0.0134286
0.0135447
0.0136666
0.0137591
0.0297654
0.029575
0.0295295
0.0295893
0.0297812
0.0301072
0.0305611
0.0311123
0.0314381
0.0310768
0.0326251
0.032288
0.0321921
0.0322995
0.032644
0.0332642
0.0341705
0.035205
0.0354878
0.0339591
0.0334049
0.0329727
0.0328686
0.0330083
0.0334622
0.0342922
0.0355286
0.0369123
0.0369145
0.0340702
0.033588
0.0330703
0.0329277
0.0331005
0.0336556
0.0347074
0.0363246
0.0381525
0.0378379
0.0338419
0.0335097
0.0329403
0.0327971
0.0329774
0.0335842
0.0347541
0.0365939
0.0386895
0.0379196
0.0330812
0.0299105
0.0294607
0.0293361
0.0294781
0.0299323
0.0308266
0.0322809
0.0342087
0.0337298
0.0299207
0.0122037
0.0120636
0.0120498
0.0120702
0.012133
0.012184
0.0121366
0.01233
0.0127357
0.0136205
0.00175773
0.00175477
0.00175369
0.00175437
0.00175692
0.00176149
0.00176872
0.00177995
0.00179837
0.00182478
0.00183629
0.00183618
0.00183615
0.00183623
0.00183645
0.00183667
0.00183686
0.00183705
0.00183722
0.00183727
0.013274
0.0132603
0.0132413
0.0132665
0.0133327
0.0133921
0.0134315
0.0134743
0.0135061
0.0134966
0.0287001
0.0286259
0.0286126
0.0286376
0.0287185
0.0288507
0.0290415
0.029306
0.0295899
0.02981
0.0311445
0.0309704
0.0309184
0.0309712
0.0311481
0.0314706
0.031968
0.0326608
0.0333596
0.0337615
0.0318412
0.0315996
0.0315416
0.0316146
0.0318642
0.0323253
0.0330566
0.0341074
0.0350953
0.0353992
0.0320941
0.0317786
0.0316867
0.0317866
0.0321168
0.0327468
0.0337774
0.0353074
0.0366518
0.0367221
0.0321429
0.0317723
0.0316762
0.031785
0.0321655
0.0328999
0.0341193
0.0359739
0.0374625
0.037092
0.0290763
0.0287737
0.0286876
0.0287781
0.0290666
0.0296252
0.0305452
0.0321075
0.0335297
0.03352
0.0122964
0.012181
0.0121746
0.0121861
0.0122195
0.0122165
0.0120953
0.0120973
0.0122799
0.0129706
0.00174414
0.00174139
0.00174035
0.00174098
0.00174333
0.00174756
0.00175408
0.00176378
0.00177815
0.00179667
0.00181911
0.00181914
0.00181916
0.0018192
0.00181929
0.00181933
0.00181937
0.0018194
0.00181941
0.00181933
0.0134995
0.01352
0.0135148
0.0135318
0.0135694
0.0135925
0.0136115
0.0136281
0.0136292
0.0135874
0.0281389
0.0281195
0.0281212
0.0281313
0.028161
0.0282045
0.0282681
0.0283557
0.028454
0.02854
0.0302164
0.0301301
0.0301028
0.0301277
0.0302145
0.0303702
0.0306054
0.0309325
0.0313062
0.0316445
0.0307709
0.030643
0.0306131
0.0306489
0.0307783
0.0310134
0.031381
0.0319228
0.0325601
0.0331394
0.0310134
0.0308294
0.0307728
0.0308279
0.031015
0.0313663
0.0319348
0.032817
0.0338785
0.0348253
0.031109
0.0308768
0.0308152
0.0308775
0.0311057
0.0315383
0.0322475
0.0333913
0.0347644
0.0359066
0.0284651
0.0282699
0.0282135
0.0282681
0.0284408
0.0287637
0.029275
0.0302001
0.0314441
0.0326816
0.012455
0.0123586
0.0123584
0.0123634
0.012375
0.0123305
0.0121734
0.0120653
0.012042
0.0123014
0.00172871
0.00172624
0.00172529
0.00172584
0.00172795
0.00173169
0.00173731
0.00174531
0.00175616
0.00176892
0.00180032
0.00180042
0.00180047
0.00180049
0.00180051
0.00180049
0.00180046
0.00180042
0.00180038
0.00180027
0.0137994
0.0138451
0.0138515
0.0138629
0.013879
0.0138895
0.0139002
0.0139067
0.0138968
0.013844
0.0278966
0.0279006
0.0279084
0.027913
0.0279214
0.0279327
0.0279499
0.0279725
0.0279955
0.0280109
0.0296761
0.029633
0.0296184
0.0296304
0.0296735
0.0297492
0.029859
0.0300026
0.0301614
0.0303
0.0300838
0.030018
0.0300034
0.0300205
0.0300862
0.0302026
0.0303779
0.0306233
0.0309126
0.0311849
0.0302777
0.0301737
0.0301398
0.0301694
0.0302728
0.0304625
0.0307591
0.0312007
0.0317539
0.032313
0.0303722
0.0302305
0.0301924
0.0302267
0.03036
0.0306065
0.0309962
0.0316045
0.0323864
0.0331877
0.0280632
0.0279421
0.0279073
0.0279386
0.0280352
0.0282065
0.0284625
0.028928
0.0296213
0.030481
0.0126845
0.0126018
0.0126068
0.0126074
0.0126031
0.0125296
0.0123631
0.0122081
0.0120795
0.012136
0.00171134
0.0017092
0.00170838
0.00170885
0.00171067
0.00171383
0.00171848
0.00172482
0.00173277
0.00174142
0.00177996
0.00178008
0.00178015
0.00178015
0.00178014
0.0017801
0.00178006
0.00178001
0.00177996
0.00177984
0.0141704
0.0142241
0.014241
0.0142482
0.0142541
0.014261
0.0142676
0.0142694
0.0142545
0.0141962
0.0278433
0.0278542
0.0278641
0.0278666
0.027868
0.0278697
0.0278726
0.0278757
0.0278765
0.0278721
0.0293834
0.0293605
0.0293523
0.0293585
0.0293811
0.0294202
0.0294746
0.029541
0.0296097
0.0296643
0.0296686
0.0296344
0.0296274
0.0296356
0.0296695
0.0297282
0.0298129
0.0299234
0.0300465
0.0301539
0.0298061
0.029748
0.029728
0.029744
0.0298008
0.0299027
0.030056
0.03027
0.0305294
0.0307807
0.0298788
0.0297931
0.0297701
0.0297887
0.029866
0.0300048
0.0302163
0.0305264
0.0309139
0.0312919
0.0278437
0.027771
0.0277511
0.0277679
0.0278175
0.0278967
0.0280106
0.0282187
0.0285405
0.0289586
0.0129891
0.012916
0.0129255
0.012923
0.012907
0.0128171
0.0126579
0.0124949
0.0123279
0.0123249
0.00169196
0.00169019
0.0016895
0.0016899
0.0016914
0.00169396
0.00169767
0.00170251
0.00170819
0.00171394
0.001758
0.00175813
0.00175819
0.00175819
0.00175817
0.00175814
0.0017581
0.00175805
0.001758
0.00175789
0.0146086
0.0146661
0.0146847
0.0146916
0.0146962
0.0147011
0.0147053
0.0147043
0.0146864
0.0146238
0.0278956
0.0279076
0.0279165
0.0279189
0.0279191
0.0279186
0.0279179
0.0279161
0.0279113
0.027902
0.0292372
0.029224
0.029219
0.0292225
0.0292353
0.0292571
0.0292864
0.0293202
0.0293531
0.0293771
0.0294322
0.0294133
0.0294096
0.0294139
0.0294323
0.0294638
0.0295074
0.0295603
0.0296151
0.0296599
0.0295214
0.0294888
0.029477
0.0294857
0.0295174
0.0295729
0.0296534
0.0297588
0.0298802
0.0299936
0.0295696
0.0295173
0.0295033
0.0295137
0.029559
0.0296381
0.0297544
0.0299144
0.0301028
0.030273
0.0277721
0.0277297
0.0277194
0.0277278
0.0277495
0.0277772
0.0278186
0.0278986
0.0280289
0.0282232
0.0133737
0.013307
0.0133205
0.0133159
0.0132906
0.0131968
0.0130547
0.012905
0.0127364
0.0127343
0.00167055
0.00166914
0.00166858
0.0016689
0.00167009
0.0016721
0.00167494
0.00167851
0.00168246
0.00168622
0.00173439
0.0017345
0.00173456
0.00173456
0.00173455
0.00173452
0.00173449
0.00173445
0.00173441
0.0017343
0.0151188
0.0151799
0.0151998
0.0152066
0.0152104
0.0152138
0.0152163
0.0152134
0.0151933
0.0151269
0.0280052
0.0280169
0.0280247
0.028027
0.0280272
0.0280265
0.0280253
0.0280228
0.0280171
0.0280066
0.0291723
0.0291641
0.0291609
0.029163
0.0291706
0.0291835
0.0292004
0.0292192
0.0292367
0.0292484
0.0293055
0.0292941
0.0292917
0.0292942
0.0293051
0.0293235
0.0293482
0.0293763
0.0294034
0.0294246
0.0293598
0.0293411
0.029334
0.029339
0.0293571
0.0293881
0.0294317
0.0294854
0.0295443
0.0295995
0.0293897
0.0293568
0.0293481
0.0293543
0.0293817
0.0294283
0.0294946
0.0295805
0.0296753
0.029757
0.0278125
0.0277884
0.0277842
0.0277878
0.027794
0.0277968
0.0278042
0.0278259
0.0278682
0.0279661
0.0138449
0.0137825
0.0137998
0.0137935
0.0137604
0.0136749
0.0135551
0.0134284
0.0132761
0.0132972
0.00164708
0.001646
0.00164557
0.00164581
0.00164672
0.00164823
0.00165033
0.00165288
0.00165556
0.00165799
0.00170903
0.00170914
0.00170919
0.00170919
0.00170918
0.00170916
0.00170913
0.00170911
0.00170907
0.00170897
0.0157123
0.0157771
0.0157982
0.0158049
0.015808
0.0158104
0.0158116
0.0158074
0.0157856
0.0157153
0.0281457
0.0281567
0.0281635
0.0281657
0.028166
0.0281657
0.0281648
0.0281625
0.0281572
0.0281464
0.0291494
0.0291442
0.0291422
0.0291434
0.029148
0.0291557
0.0291657
0.0291766
0.0291866
0.0291928
0.0292422
0.0292346
0.0292326
0.0292342
0.0292413
0.029253
0.0292684
0.0292852
0.0293004
0.029312
0.0292739
0.0292627
0.0292583
0.0292613
0.029272
0.0292899
0.0293143
0.0293429
0.0293729
0.0294021
0.029294
0.0292724
0.0292668
0.0292709
0.0292882
0.029317
0.0293566
0.0294057
0.0294565
0.0295004
0.0279333
0.0279191
0.0279186
0.0279195
0.0279175
0.0279117
0.0279057
0.027904
0.0279097
0.0279676
0.0144144
0.0143537
0.0143753
0.0143674
0.0143297
0.0142622
0.0141663
0.0140656
0.0139363
0.0139866
0.00162153
0.00162074
0.00162042
0.0016206
0.00162126
0.00162236
0.00162386
0.00162562
0.00162739
0.00162894
0.00168186
0.00168195
0.00168199
0.00168199
0.00168199
0.00168198
0.00168196
0.00168194
0.00168191
0.00168181
0.016407
0.0164758
0.016498
0.0165046
0.0165072
0.0165088
0.0165091
0.0165041
0.0164809
0.0164064
0.028303
0.0283132
0.0283189
0.028321
0.0283215
0.0283214
0.0283209
0.0283192
0.0283146
0.028304
0.0291466
0.0291435
0.0291423
0.029143
0.0291456
0.02915
0.0291557
0.0291621
0.029168
0.0291714
0.0292131
0.0292076
0.0292058
0.0292069
0.0292117
0.0292198
0.02923
0.029241
0.0292506
0.0292577
0.0292311
0.0292242
0.0292214
0.0292232
0.0292297
0.0292404
0.0292545
0.0292704
0.0292865
0.0293032
0.0292488
0.0292339
0.0292301
0.0292331
0.0292445
0.0292633
0.0292883
0.0293181
0.0293476
0.0293748
0.0281089
0.0280975
0.028099
0.0280986
0.0280944
0.0280874
0.0280783
0.0280694
0.0280622
0.0281035
0.015111
0.0150415
0.0150643
0.0150547
0.0150258
0.0149757
0.0149032
0.0148273
0.0147218
0.0147999
0.0015939
0.00159334
0.00159312
0.00159325
0.00159371
0.00159449
0.00159552
0.00159669
0.00159783
0.0015988
0.00165278
0.00165286
0.0016529
0.0016529
0.0016529
0.00165289
0.00165287
0.00165286
0.00165283
0.00165274
0.0172288
0.0173021
0.0173251
0.0173316
0.0173337
0.0173348
0.0173345
0.017329
0.017305
0.0172258
0.0284687
0.028478
0.0284828
0.0284845
0.0284851
0.0284853
0.0284852
0.0284841
0.0284804
0.0284704
0.0291524
0.0291506
0.02915
0.0291503
0.0291517
0.029154
0.029157
0.0291605
0.029164
0.0291662
0.0292009
0.0291969
0.0291953
0.029196
0.0291994
0.029205
0.0292121
0.0292196
0.0292261
0.0292309
0.0292111
0.0292066
0.0292047
0.0292058
0.0292098
0.0292163
0.0292247
0.029234
0.0292431
0.0292532
0.0292307
0.02922
0.0292175
0.0292197
0.0292276
0.0292402
0.0292566
0.0292757
0.0292942
0.0293133
0.0283164
0.0283057
0.0283068
0.0283066
0.0283034
0.0282979
0.0282899
0.028281
0.028271
0.0283046
0.0159611
0.015884
0.0159009
0.0158948
0.0158755
0.0158412
0.0157904
0.0157364
0.0156529
0.0157541
0.0015642
0.00156382
0.00156367
0.00156376
0.00156407
0.00156459
0.00156528
0.00156603
0.00156675
0.00156734
0.00162175
0.00162183
0.00162185
0.00162185
0.00162185
0.00162185
0.00162184
0.00162182
0.0016218
0.00162171
0.0182147
0.018293
0.0183165
0.0183228
0.0183245
0.0183251
0.0183245
0.0183189
0.0182945
0.0182103
0.0286367
0.028645
0.0286488
0.0286503
0.0286508
0.0286512
0.0286515
0.0286509
0.0286482
0.0286393
0.0291608
0.0291598
0.0291596
0.0291597
0.0291603
0.0291613
0.0291627
0.0291644
0.0291664
0.029168
0.0291962
0.0291931
0.0291918
0.0291922
0.0291945
0.0291983
0.0292032
0.0292084
0.029213
0.0292164
0.0292015
0.0291984
0.0291971
0.0291977
0.0292002
0.0292042
0.0292094
0.0292149
0.0292202
0.0292267
0.0292244
0.0292168
0.0292149
0.0292167
0.0292221
0.0292308
0.0292417
0.0292543
0.0292663
0.0292809
0.0285369
0.0285266
0.0285273
0.0285273
0.0285255
0.0285222
0.0285169
0.0285104
0.0285015
0.0285306
0.0170031
0.0169202
0.0169312
0.0169283
0.0169175
0.0168975
0.0168665
0.0168308
0.016767
0.0168848
0.00153245
0.00153219
0.00153209
0.00153215
0.00153236
0.00153269
0.00153313
0.00153359
0.00153403
0.00153439
0.00158883
0.0015889
0.00158892
0.00158892
0.00158892
0.00158891
0.0015889
0.00158889
0.00158887
0.00158879
0.0194188
0.0195027
0.0195262
0.0195319
0.0195333
0.0195337
0.0195329
0.0195276
0.0195036
0.0194137
0.0288009
0.0288078
0.0288106
0.0288116
0.0288122
0.0288127
0.0288132
0.0288131
0.0288116
0.0288044
0.0291686
0.0291681
0.0291681
0.0291682
0.0291683
0.0291685
0.0291689
0.0291696
0.0291708
0.0291723
0.0291933
0.0291911
0.0291899
0.0291901
0.0291916
0.0291941
0.0291974
0.0292009
0.0292042
0.0292068
0.0291955
0.0291934
0.0291925
0.0291928
0.0291943
0.0291967
0.0291998
0.0292031
0.0292063
0.0292105
0.0292202
0.0292148
0.0292135
0.0292147
0.0292185
0.0292242
0.0292314
0.0292394
0.0292473
0.0292586
0.0287525
0.028743
0.0287433
0.0287436
0.028743
0.0287416
0.028739
0.0287352
0.0287286
0.0287536
0.0182937
0.0182078
0.0182125
0.0182123
0.0182092
0.0182022
0.0181896
0.0181689
0.0181237
0.0182497
0.00149872
0.00149856
0.00149849
0.00149852
0.00149865
0.00149886
0.00149913
0.00149941
0.00149967
0.00149988
0.00155424
0.00155429
0.00155431
0.00155431
0.00155431
0.00155431
0.0015543
0.00155429
0.00155427
0.00155419
0.0209237
0.021013
0.0210354
0.0210404
0.0210415
0.0210416
0.0210409
0.0210362
0.0210136
0.0209183
0.0289524
0.0289576
0.0289591
0.0289597
0.0289601
0.0289606
0.0289613
0.0289618
0.0289614
0.0289568
0.0291739
0.0291737
0.0291738
0.0291738
0.0291738
0.0291737
0.0291737
0.0291738
0.0291744
0.0291759
0.0291898
0.0291881
0.0291873
0.0291873
0.0291881
0.0291897
0.0291918
0.029194
0.0291963
0.0291984
0.0291899
0.0291885
0.0291879
0.029188
0.0291888
0.0291902
0.029192
0.0291939
0.0291958
0.0291984
0.0292116
0.0292081
0.0292072
0.029208
0.0292103
0.0292139
0.0292182
0.0292231
0.0292279
0.0292363
0.0289438
0.0289357
0.0289358
0.0289361
0.0289362
0.0289361
0.0289352
0.0289336
0.0289293
0.0289498
0.0199165
0.019831
0.0198284
0.0198304
0.0198344
0.0198399
0.0198453
0.0198381
0.0198127
0.0199356
0.00146321
0.00146311
0.00146306
0.00146308
0.00146316
0.00146329
0.00146345
0.00146362
0.00146378
0.00146389
0.00151817
0.00151821
0.00151821
0.00151821
0.00151821
0.00151821
0.00151821
0.0015182
0.00151819
0.00151814
0.0228625
0.0229543
0.022974
0.0229781
0.0229789
0.0229788
0.0229779
0.022974
0.0229542
0.0228561
0.0290792
0.0290817
0.0290821
0.029082
0.0290822
0.0290828
0.0290836
0.0290846
0.0290852
0.0290838
0.029176
0.0291758
0.0291759
0.0291759
0.0291759
0.0291758
0.0291757
0.0291756
0.0291758
0.0291771
0.0291853
0.0291841
0.0291835
0.0291835
0.0291839
0.0291848
0.029186
0.0291874
0.0291889
0.0291904
0.0291844
0.0291835
0.0291831
0.0291831
0.0291836
0.0291843
0.0291852
0.0291862
0.0291872
0.0291887
0.0291972
0.0291951
0.0291945
0.029195
0.0291963
0.0291982
0.0292006
0.0292031
0.0292058
0.0292112
0.0290895
0.0290834
0.0290833
0.0290836
0.0290838
0.0290839
0.0290837
0.0290833
0.0290812
0.0290966
0.0220173
0.0219388
0.0219368
0.0219385
0.0219416
0.0219458
0.02195
0.021953
0.0219541
0.0220577
0.00142605
0.00142598
0.00142595
0.00142596
0.00142601
0.00142609
0.00142619
0.00142629
0.00142641
0.00142647
0.00147977
0.00147976
0.00147975
0.00147974
0.00147974
0.00147974
0.00147975
0.00147977
0.00147979
0.00147981
0.025473
0.0255534
0.0255671
0.0255699
0.0255705
0.0255703
0.0255692
0.025566
0.0255513
0.0254633
0.0291674
0.0291671
0.0291665
0.029166
0.029166
0.0291664
0.0291673
0.0291685
0.02917
0.0291715
0.0291756
0.0291756
0.0291756
0.0291757
0.0291757
0.0291757
0.0291757
0.0291756
0.0291757
0.0291762
0.0291814
0.0291807
0.0291804
0.0291804
0.0291807
0.0291812
0.0291819
0.0291826
0.0291835
0.0291844
0.0291807
0.0291802
0.02918
0.02918
0.0291803
0.0291807
0.0291813
0.0291819
0.0291824
0.0291831
0.0291832
0.0291821
0.0291818
0.0291821
0.0291828
0.0291838
0.0291851
0.0291864
0.0291877
0.0291902
0.0291777
0.0291739
0.0291735
0.0291735
0.0291734
0.0291734
0.0291733
0.0291734
0.0291735
0.0291832
0.0249143
0.0248554
0.0248543
0.0248554
0.0248575
0.0248602
0.024863
0.0248649
0.0248652
0.0249425
0.00138647
0.00138642
0.0013864
0.00138641
0.00138644
0.00138651
0.00138658
0.00138666
0.00138674
0.00138679
0.00234471
0.00236553
0.00235528
0.00232136
0.00141134
0.00143421
0.00143147
0.0014265
0.00188719
0.00192905
0.00191981
0.00189505
0.00227324
0.00233115
0.00231154
0.00226529
0.00261996
0.00269082
0.00265876
0.00259433
0.00296092
0.00304292
0.00300279
0.0029295
0.0032428
0.00333299
0.00329079
0.00321767
0.00341082
0.00350739
0.00346746
0.00339899
0.00304329
0.0031326
0.00309376
0.00303812
0.00237375
0.00239035
0.00235549
0.00227429
0.00202833
0.00203402
0.00203512
0.00203208
0.00235807
0.00243778
0.0023372
0.00214469
0.00331204
0.00342537
0.00329412
0.00305575
0.00407314
0.00424028
0.004081
0.00378281
0.0048527
0.0050873
0.00489224
0.00451654
0.00582671
0.0061513
0.00590923
0.00542459
0.00679233
0.00720458
0.00690235
0.00630459
0.00749153
0.00798822
0.00762926
0.00693447
0.00591753
0.00635321
0.00599896
0.00540214
0.00218072
0.002213
0.0022061
0.00217036
0.00193387
0.00193592
0.00193607
0.00193481
0.00407231
0.00404738
0.00405712
0.00414823
0.00499821
0.00497808
0.00499722
0.00510212
0.00549994
0.00551816
0.00553721
0.00558801
0.00601171
0.00606449
0.00606707
0.00602662
0.0067526
0.00684816
0.00680722
0.00663001
0.007509
0.00763133
0.00751614
0.0071788
0.00804762
0.00820713
0.00801784
0.00751925
0.00612204
0.00626118
0.00608287
0.00560165
0.00204719
0.00206426
0.00206233
0.00204458
0.00189502
0.00189525
0.00189537
0.00189541
0.0102466
0.00996729
0.0101028
0.0106179
0.0119589
0.0116224
0.0119244
0.0128196
0.011448
0.0112649
0.0116365
0.0125339
0.0110931
0.0110304
0.011427
0.01226
0.0112072
0.0112486
0.011638
0.012367
0.0114
0.0115011
0.0118385
0.0124188
0.0113486
0.0115256
0.0117944
0.0121664
0.00801136
0.00819623
0.00831792
0.00835937
0.00195611
0.00196654
0.0019675
0.00195951
0.001873
0.00187304
0.00187307
0.00187309
0.0144965
0.0144353
0.0144627
0.0145722
0.023856
0.0235301
0.0237169
0.0243448
0.0222579
0.0219637
0.0223159
0.023245
0.020388
0.0202072
0.0206871
0.0217975
0.0193325
0.0193018
0.0198728
0.0210736
0.0185146
0.01859
0.0191829
0.0203763
0.0173233
0.0175369
0.0180919
0.0191051
0.0108702
0.0111066
0.0113476
0.011661
0.00189302
0.00189949
0.00190094
0.00189754
0.0018549
0.00185487
0.00185486
0.00185486
0.0140907
0.014016
0.0140058
0.0140607
0.030416
0.0303065
0.030331
0.0304781
0.0318095
0.0315688
0.0316586
0.0320364
0.030441
0.0301529
0.0303733
0.0310333
0.0290296
0.0288124
0.029202
0.0301325
0.0274479
0.0273221
0.0278375
0.0289657
0.0247671
0.0248355
0.0253933
0.0264693
0.0131627
0.0133962
0.0135715
0.0137311
0.00184522
0.00184913
0.00185041
0.00184905
0.00183755
0.00183751
0.00183748
0.00183748
0.0137872
0.0136959
0.0136778
0.013732
0.0299261
0.0299267
0.0299396
0.0299651
0.0336855
0.0336867
0.033718
0.0337771
0.0348324
0.0347849
0.0348452
0.0350017
0.0353509
0.0352665
0.0354028
0.0357299
0.0347076
0.0345964
0.0348288
0.0353615
0.031091
0.0311264
0.0314386
0.0320006
0.0133066
0.0135846
0.0136452
0.0135359
0.001807
0.00180939
0.00181033
0.00180982
0.00181959
0.00181954
0.00181951
0.0018195
0.0138655
0.013768
0.0137476
0.013803
0.0286325
0.0286243
0.0286262
0.0286389
0.0317684
0.031793
0.0318094
0.0318182
0.033325
0.0333692
0.0334011
0.0334226
0.0350593
0.0351324
0.035193
0.0352436
0.0359214
0.035987
0.0360723
0.0361786
0.0326161
0.032777
0.0329029
0.032998
0.0123851
0.0126423
0.0126822
0.0125419
0.00177428
0.0017758
0.00177643
0.00177619
0.00180053
0.00180047
0.00180044
0.00180043
0.014124
0.0140233
0.014002
0.0140587
0.028073
0.0280593
0.0280573
0.0280675
0.030349
0.0303562
0.0303607
0.030363
0.0312881
0.031309
0.0313213
0.0313258
0.0325658
0.0326231
0.0326541
0.0326607
0.033499
0.0335788
0.0336218
0.0336333
0.0307724
0.0309425
0.0310104
0.0309841
0.0119515
0.0121768
0.0122182
0.0120953
0.00174431
0.00174533
0.00174574
0.00174556
0.00178011
0.00178004
0.00178001
0.00178001
0.0144817
0.0143782
0.0143562
0.0144143
0.0279249
0.0279108
0.0279082
0.0279175
0.0296809
0.0296815
0.0296822
0.0296831
0.0301859
0.0301911
0.0301942
0.0301955
0.0308892
0.0309126
0.0309248
0.0309262
0.0314205
0.0314548
0.0314727
0.0314757
0.0290421
0.0291546
0.0291944
0.0291631
0.0120275
0.0122474
0.0122889
0.0121656
0.00171554
0.00171628
0.00171654
0.00171636
0.00175817
0.0017581
0.00175806
0.00175807
0.0149168
0.0148101
0.0147874
0.014847
0.0279509
0.0279374
0.0279349
0.0279436
0.0293843
0.0293836
0.0293835
0.0293842
0.0296698
0.0296707
0.0296713
0.0296716
0.0300398
0.0300494
0.0300542
0.0300542
0.0303065
0.0303182
0.0303246
0.0303258
0.0281863
0.0282632
0.0282878
0.0282595
0.0123935
0.0126246
0.0126673
0.0125348
0.00168712
0.0016877
0.00168786
0.00168767
0.00173459
0.00173452
0.00173448
0.00173449
0.0154288
0.0153185
0.0152948
0.0153562
0.028052
0.0280393
0.0280369
0.0280449
0.0292526
0.0292518
0.0292516
0.0292522
0.0294285
0.0294285
0.0294286
0.0294287
0.0296233
0.0296282
0.0296304
0.0296301
0.0297612
0.0297657
0.0297681
0.0297684
0.0278908
0.0279515
0.0279692
0.0279432
0.0129358
0.0131857
0.0132311
0.0130867
0.00165848
0.00165896
0.00165907
0.00165886
0.00170928
0.0017092
0.00170916
0.00170917
0.0160279
0.0159132
0.0158884
0.015952
0.028188
0.0281762
0.0281738
0.0281812
0.0291956
0.0291949
0.0291948
0.0291954
0.029314
0.0293139
0.0293139
0.029314
0.0294168
0.0294198
0.0294212
0.0294208
0.029498
0.0295005
0.0295018
0.0295016
0.0278855
0.0279377
0.0279522
0.0279284
0.0136102
0.013883
0.0139322
0.0137743
0.0016292
0.00162961
0.00162967
0.00162947
0.00168213
0.00168204
0.00168201
0.00168202
0.0167318
0.0166118
0.0165856
0.0166517
0.0283414
0.0283303
0.0283281
0.0283348
0.0291735
0.0291729
0.0291728
0.0291734
0.0292589
0.0292589
0.0292589
0.0292589
0.0293133
0.0293154
0.0293163
0.029316
0.0293725
0.0293745
0.0293754
0.0293751
0.0280258
0.0280722
0.0280847
0.0280631
0.0144091
0.0147076
0.0147611
0.0145883
0.00159892
0.00159928
0.00159933
0.00159913
0.00165308
0.00165298
0.00165294
0.00165296
0.0175664
0.0174397
0.0174118
0.017481
0.0285031
0.0284929
0.0284907
0.0284967
0.0291677
0.0291672
0.0291672
0.0291677
0.0292317
0.0292317
0.0292317
0.0292318
0.0292606
0.0292621
0.0292627
0.0292624
0.029313
0.0293149
0.0293157
0.0293152
0.0282362
0.0282777
0.0282887
0.028269
0.0153469
0.0156742
0.0157325
0.0155429
0.00156738
0.0015677
0.00156773
0.00156754
0.00162207
0.00162196
0.00162193
0.00162195
0.0185688
0.0184338
0.0184036
0.0184765
0.0286669
0.0286578
0.0286557
0.028661
0.0291693
0.029169
0.029169
0.0291694
0.0292172
0.0292172
0.0292172
0.0292173
0.0292322
0.0292334
0.0292337
0.0292334
0.0292827
0.0292847
0.0292853
0.0292847
0.0284744
0.0285113
0.0285208
0.0285029
0.0164575
0.0168168
0.0168798
0.0166715
0.00153438
0.00153466
0.00153468
0.00153451
0.00158916
0.00158905
0.00158901
0.00158904
0.0197937
0.0196476
0.0196143
0.0196919
0.0288264
0.0288185
0.0288167
0.0288212
0.0291733
0.0291732
0.0291732
0.0291735
0.0292076
0.0292077
0.0292078
0.0292078
0.0292147
0.0292155
0.0292157
0.0292154
0.0292622
0.029264
0.0292645
0.0292638
0.0287123
0.0287447
0.0287525
0.0287362
0.0177952
0.0181888
0.0182561
0.0180276
0.00149985
0.00150009
0.0015001
0.00149995
0.00155458
0.00155447
0.00155443
0.00155447
0.0213214
0.0211598
0.0211222
0.0212063
0.0289748
0.0289687
0.0289672
0.0289707
0.0291768
0.0291768
0.0291768
0.0291769
0.0291994
0.0291996
0.0291997
0.0291997
0.0292014
0.029202
0.0292021
0.0292019
0.0292406
0.0292422
0.0292427
0.0292419
0.0289251
0.0289528
0.0289589
0.028944
0.0194395
0.019863
0.0199331
0.0196865
0.00146387
0.00146407
0.00146408
0.00146396
0.00151857
0.00151845
0.00151842
0.00151846
0.0232775
0.0230933
0.0230499
0.0231438
0.0290989
0.0290951
0.0290941
0.0290964
0.0291778
0.0291778
0.0291778
0.0291778
0.0291916
0.0291918
0.0291919
0.029192
0.0291906
0.029191
0.0291911
0.0291909
0.029215
0.0292162
0.0292165
0.0292159
0.0290881
0.0291099
0.029114
0.0291014
0.0215294
0.0219823
0.0220494
0.0217813
0.00142657
0.00142672
0.00142674
0.00142664
0.00148027
0.00148018
0.00148016
0.00148022
0.0258562
0.0256474
0.0256017
0.0257089
0.0291817
0.0291802
0.0291798
0.0291809
0.0291762
0.0291762
0.0291761
0.029176
0.0291853
0.0291856
0.0291857
0.0291857
0.0291839
0.0291841
0.0291841
0.029184
0.0291921
0.0291926
0.0291927
0.0291924
0.0291852
0.0291975
0.0291994
0.0291917
0.0244804
0.0249058
0.0249555
0.0246955
0.00138716
0.00138729
0.00138729
0.00138719
0.00215627
0.00203986
0.00197553
0.00194304
0.00192393
0.00191156
0.00190339
0.00189821
0.00189488
0.0018926
0.00174913
0.00158827
0.0047759
0.0094353
0.0139443
0.0171297
0.0186391
0.0187919
0.018165
0.01723
0.00236523
0.00258383
0.00734152
0.0155741
0.0249812
0.0331044
0.0390918
0.0428959
0.0447698
0.0451504
0.00276919
0.00361373
0.00830573
0.0178614
0.0291859
0.0385363
0.0450106
0.0487403
0.0501756
0.0499636
0.00307671
0.00394584
0.00872959
0.0193624
0.032092
0.0419646
0.0481445
0.0509953
0.0513104
0.0501013
0.00338796
0.00407196
0.00894585
0.0204265
0.0342608
0.0442933
0.0498654
0.0516537
0.0508807
0.0488493
0.00362974
0.00408364
0.00897261
0.0211715
0.0358788
0.045724
0.050397
0.0510266
0.049307
0.0467877
0.003709