/*--------------------------------*- C++ -*----------------------------------*\
| =========                 |                                                 |
| \\      /  F ield         | foam-extend: Open Source CFD                    |
|  \\    /   O peration     | Version:     4.0                                |
|   \\  /    A nd           | Web:         http://www.foam-extend.org         |
|    \\/     M anipulation  |                                                 |
\*---------------------------------------------------------------------------*/
FoamFile
{
    version     2.0;
    format      ascii;
    class       volScalarField;
    location    "1200";
    object      p;
}
// * * * * * * * * * * * * * * * * * * * * * * * * * * * * * * * * * * * * * //

dimensions      [1 -1 -2 0 0 0 0];

internalField   nonuniform List<scalar> 
34480
(
108054
107953
107912
107926
108009
108189
108531
109210
110173
110513
107907
107807
107765
107775
107854
108028
108364
109030
110060
110027
107752
107648
107607
107608
107672
107818
108113
108711
109736
109152
107663
107558
107512
107501
107542
107643
107881
108379
109336
108174
107566
107450
107396
107368
107384
107440
107619
108013
108867
107164
107569
107454
107394
107357
107354
107373
107496
107782
108496
106269
107464
107337
107269
107221
107201
107190
107264
107453
108007
105323
107544
107422
107359
107324
107320
107320
107380
107496
107870
104721
107439
107311
107242
107204
107200
107211
107263
107321
107491
103971
107530
107416
107402
107466
107603
107792
108035
108269
108437
104434
108802
108677
108632
108656
108760
108962
109296
109822
110635
111700
108590
108457
108410
108435
108548
108771
109157
109808
110946
112546
108378
108240
108193
108213
108320
108537
108929
109633
111010
112992
108238
108096
108042
108050
108141
108333
108703
109396
110912
113145
108100
107947
107884
107876
107945
108101
108433
109081
110665
113043
108067
107913
107843
107823
107874
107997
108284
108864
110452
112860
107935
107768
107691
107657
107689
107782
108025
108530
110074
112455
107992
107830
107753
107728
107767
107860
108084
108523
109971
112232
107874
107708
107625
107591
107621
107707
107913
108304
109607
111789
107954
107799
107757
107801
107933
108143
108473
108968
110218
112195
109361
109247
109207
109235
109337
109522
109806
110207
110736
111347
109142
109009
108965
108999
109123
109353
109716
110258
111072
112078
108913
108769
108724
108758
108889
109137
109545
110192
111286
112712
108744
108591
108539
108566
108693
108939
109365
110072
111388
113195
108580
108413
108354
108368
108481
108710
109133
109858
111341
113474
108518
108349
108282
108286
108386
108595
109001
109714
111308
113691
108362
108182
108108
108099
108184
108369
108751
109435
111092
113670
108399
108222
108148
108144
108232
108415
108785
109436
111095
113782
108269
108089
108008
107996
108070
108240
108590
109217
110815
113617
108335
108163
108111
108154
108298
108549
108975
109668
111230
114031
109751
109663
109632
109655
109735
109873
110070
110323
110616
110897
109568
109451
109412
109444
109553
109746
110035
110425
110930
111449
109361
109223
109180
109215
109341
109570
109926
110439
111192
112029
109191
109036
108984
109017
109149
109397
109802
110416
111411
112594
109021
108849
108789
108812
108939
109189
109621
110300
111508
113032
108945
108767
108699
108714
108835
109079
109520
110236
111620
113454
108776
108585
108511
108515
108625
108856
109295
110026
111546
113664
108797
108608
108532
108540
108653
108884
109324
110059
111659
114002
108657
108464
108384
108385
108488
108709
109137
109874
111485
114056
108709
108523
108462
108502
108654
108931
109408
110193
111796
114508
110019
109958
109936
109953
110009
110102
110229
110381
110541
110679
109882
109789
109758
109784
109870
110018
110227
110491
110794
111070
109718
109598
109559
109591
109701
109893
110176
110553
111034
111506
109563
109420
109372
109404
109528
109754
110103
110590
111276
111997
109403
109238
109181
109209
109337
109580
109975
110552
111438
112431
109325
109149
109083
109106
109235
109486
109913
110557
111630
112895
109153
108962
108889
108904
109028
109278
109721
110413
111651
113188
109166
108974
108899
108916
109045
109300
109758
110483
111845
113624
109019
108823
108744
108756
108879
109130
109590
110341
111767
113805
109060
108869
108803
108843
108998
109287
109781
110575
112024
114259
110204
110164
110150
110161
110197
110256
110333
110419
110505
110572
110109
110041
110017
110037
110100
110204
110346
110515
110693
110841
109994
109896
109864
109890
109978
110128
110339
110604
110906
111173
109864
109740
109697
109727
109834
110024
110305
110673
111130
111563
109726
109576
109525
109552
109671
109889
110226
110688
111311
111939
109655
109490
109429
109455
109581
109819
110201
110743
111533
112373
109488
109305
109237
109257
109385
109632
110046
110654
111602
112668
109500
109313
109241
109265
109398
109657
110097
110758
111841
113124
109350
109157
109083
109102
109234
109494
109946
110650
111827
113353
109384
109196
109128
109166
109320
109607
110086
110830
112050
113765
110335
110310
110302
110308
110331
110366
110410
110459
110505
110539
110271
110225
110208
110222
110265
110335
110426
110531
110634
110716
110202
110128
110103
110123
110189
110299
110449
110627
110816
110972
110100
109999
109964
109988
110075
110226
110440
110706
111008
111272
109989
109861
109816
109842
109945
110129
110401
110754
111184
111583
109933
109786
109732
109758
109873
110083
110407
110842
111408
111962
109777
109610
109548
109571
109693
109921
110285
110792
111495
112222
109793
109620
109553
109579
109709
109955
110353
110921
111749
112652
109644
109463
109393
109417
109548
109801
110218
110836
111762
112869
109676
109497
109431
109467
109614
109886
110327
110983
111961
113218
110432
110417
110412
110416
110429
110449
110475
110502
110526
110544
110389
110359
110348
110356
110384
110429
110486
110549
110609
110654
110359
110305
110287
110301
110348
110425
110527
110644
110760
110852
110281
110203
110175
110194
110261
110375
110531
110717
110914
111077
110200
110095
110058
110079
110164
110311
110521
110781
111073
111329
110160
110036
109989
110013
110112
110289
110550
110885
111284
111650
110019
109873
109819
109841
109951
110151
110455
110860
111371
111865
110045
109891
109831
109857
109977
110197
110539
111006
111622
112250
109899
109734
109672
109697
109820
110052
110417
110934
111638
112419
109932
109768
109707
109740
109875
110122
110509
111061
111816
112708
110507
110499
110496
110498
110506
110517
110531
110546
110559
110569
110476
110457
110450
110455
110473
110501
110535
110573
110607
110633
110477
110440
110427
110436
110469
110521
110588
110662
110733
110787
110418
110360
110339
110353
110402
110485
110594
110721
110848
110948
110364
110282
110253
110270
110336
110449
110604
110790
110986
111149
110342
110241
110203
110223
110304
110447
110648
110897
111174
111414
110217
110094
110048
110069
110162
110329
110573
110885
111248
111581
110256
110123
110072
110096
110201
110390
110671
111039
111488
111918
110114
109969
109915
109939
110050
110251
110558
110973
111493
112031
110151
110007
109952
109982
110101
110316
110642
111088
111653
112271
110569
110565
110563
110564
110569
110575
110583
110591
110598
110603
110542
110531
110526
110529
110540
110557
110578
110600
110620
110634
110568
110542
110534
110540
110561
110595
110638
110684
110728
110759
110520
110479
110464
110473
110508
110566
110641
110725
110806
110868
110491
110429
110407
110420
110470
110553
110664
110793
110922
111026
110484
110406
110375
110392
110456
110565
110716
110895
111084
111241
110374
110274
110238
110255
110331
110464
110653
110885
111139
111361
110428
110319
110277
110298
110386
110540
110763
111043
111362
111652
110289
110167
110122
110143
110238
110406
110654
110975
111350
111714
110335
110212
110165
110191
110292
110472
110737
111084
111496
111914
110623
110620
110619
110620
110622
110626
110630
110634
110638
110641
110594
110587
110584
110586
110593
110603
110615
110628
110639
110648
110638
110622
110616
110620
110634
110655
110682
110711
110737
110754
110597
110568
110557
110564
110588
110627
110677
110731
110783
110821
110588
110543
110527
110536
110572
110631
110709
110796
110880
110945
110594
110535
110512
110524
110572
110654
110763
110889
111016
111117
110496
110418
110390
110404
110463
110566
110706
110874
111048
111195
110567
110480
110446
110464
110534
110656
110826
111033
111256
111447
110429
110330
110293
110311
110388
110524
110716
110956
111221
111464
110485
110385
110346
110367
110450
110595
110802
111064
111357
111635
110669
110667
110668
110668
110669
110671
110673
110676
110678
110679
110635
110631
110629
110631
110634
110640
110648
110655
110662
110667
110696
110685
110682
110684
110693
110706
110723
110740
110755
110765
110654
110634
110627
110631
110647
110673
110705
110740
110772
110797
110662
110630
110619
110626
110651
110691
110744
110801
110856
110896
110677
110634
110617
110626
110661
110720
110796
110883
110967
111031
110589
110530
110508
110519
110564
110640
110742
110860
110977
111073
110676
110610
110584
110598
110652
110745
110871
111018
111171
111296
110537
110459
110430
110444
110505
110610
110754
110929
111112
111272
110606
110527
110496
110513
110578
110691
110848
111038
111242
111425
110711
110710
110710
110710
110711
110712
110713
110715
110716
110716
110668
110666
110664
110665
110667
110671
110675
110680
110684
110688
110744
110737
110735
110737
110742
110750
110760
110770
110779
110784
110696
110683
110678
110680
110691
110707
110728
110750
110770
110786
110718
110697
110689
110693
110710
110738
110772
110810
110844
110869
110738
110708
110696
110703
110727
110768
110821
110878
110933
110974
110658
110615
110599
110607
110640
110694
110766
110847
110924
110987
110762
110714
110694
110705
110745
110813
110903
111005
111108
111188
110617
110557
110536
110547
110593
110670
110775
110899
111023
111127
110701
110642
110618
110631
110681
110765
110880
111014
111153
111271
110750
110749
110749
110749
110750
110750
110751
110751
110752
110752
110693
110692
110691
110691
110692
110695
110697
110700
110703
110706
110785
110782
110780
110782
110785
110789
110795
110801
110806
110808
110727
110718
110715
110716
110723
110733
110746
110760
110773
110783
110761
110747
110742
110745
110756
110774
110796
110820
110841
110856
110783
110763
110755
110759
110776
110803
110838
110876
110912
110937
110709
110679
110667
110673
110696
110733
110782
110836
110886
110927
110829
110795
110781
110789
110818
110865
110928
110997
111065
111115
110674
110630
110614
110622
110656
110711
110785
110870
110952
111020
110777
110734
110716
110726
110762
110823
110904
110997
111089
111164
110787
110786
110786
110786
110786
110787
110787
110787
110787
110787
110710
110709
110709
110709
110710
110711
110713
110715
110717
110719
110822
110820
110820
110821
110823
110825
110828
110831
110834
110834
110749
110743
110741
110742
110746
110752
110760
110769
110777
110784
110793
110784
110781
110783
110790
110801
110815
110830
110843
110852
110815
110801
110796
110799
110810
110828
110851
110875
110898
110913
110745
110725
110717
110721
110737
110762
110794
110829
110861
110887
110882
110859
110849
110855
110875
110907
110950
110995
111040
111069
110711
110680
110669
110674
110697
110736
110786
110843
110896
110940
110840
110810
110797
110804
110829
110871
110927
110989
111049
111095
110826
110825
110826
110826
110826
110826
110826
110826
110826
110826
110718
110718
110717
110717
110718
110719
110720
110722
110723
110726
110856
110855
110855
110856
110857
110858
110860
110861
110862
110861
110764
110760
110759
110759
110762
110766
110771
110776
110781
110785
110815
110810
110808
110809
110813
110820
110829
110838
110846
110851
110835
110826
110822
110824
110831
110842
110857
110872
110887
110897
110771
110758
110753
110756
110766
110782
110803
110825
110844
110860
110923
110908
110902
110905
110919
110940
110968
110998
111027
111043
110731
110709
110702
110705
110721
110747
110780
110817
110850
110879
110897
110877
110868
110873
110890
110919
110956
110995
111034
111062
110881
110880
110881
110881
110881
110881
110881
110880
110880
110879
110714
110713
110713
110713
110713
110714
110715
110717
110718
110722
110884
110884
110884
110884
110885
110886
110886
110887
110888
110886
110773
110771
110770
110771
110772
110774
110777
110780
110783
110786
110828
110824
110823
110823
110826
110830
110836
110841
110846
110849
110843
110837
110834
110835
110840
110847
110856
110866
110875
110881
110787
110780
110777
110779
110785
110795
110808
110821
110833
110842
110950
110940
110936
110938
110947
110961
110979
110998
111017
111026
110733
110718
110713
110715
110726
110742
110764
110787
110807
110827
110965
110952
110945
110948
110960
110978
111003
111028
111053
111069
110976
110976
110976
110976
110976
110976
110976
110975
110974
110973
110690
110688
110688
110688
110688
110689
110690
110691
110693
110697
110899
110898
110898
110898
110898
110898
110899
110900
110901
110900
110778
110777
110777
110777
110778
110780
110781
110783
110783
110785
110830
110828
110827
110827
110829
110831
110835
110838
110841
110844
110840
110836
110834
110835
110837
110842
110848
110854
110860
110864
110795
110791
110790
110791
110795
110802
110809
110817
110823
110828
110951
110944
110940
110941
110947
110956
110968
110981
110994
111000
110708
110699
110695
110697
110704
110715
110728
110742
110754
110767
111067
111058
111054
111056
111063
111075
111091
111107
111124
111132
111138
111138
111138
111138
111137
111137
111137
111137
111137
111137
110629
110629
110630
110631
110632
110632
110632
110631
110631
110633
110887
110885
110883
110882
110882
110883
110884
110886
110888
110890
110781
110781
110782
110783
110783
110784
110785
110785
110785
110784
110826
110824
110823
110823
110824
110826
110828
110831
110833
110835
110830
110828
110827
110827
110829
110832
110836
110840
110844
110847
110798
110795
110794
110795
110798
110803
110808
110813
110816
110818
110910
110903
110901
110901
110905
110911
110919
110929
110939
110946
110643
110639
110637
110639
110644
110651
110660
110668
110674
110680
111225
111219
111215
111217
111222
111230
111241
111252
111265
111269
111321
111318
111317
111316
111316
111316
111317
111318
111321
111324
110545
110551
110555
110557
110558
110558
110556
110553
110548
110541
110852
110849
110846
110845
110845
110845
110847
110849
110852
110857
110786
110787
110788
110789
110789
110790
110790
110790
110789
110787
110821
110819
110819
110819
110820
110821
110823
110825
110826
110828
110824
110822
110821
110821
110823
110825
110828
110831
110834
110837
110801
110799
110798
110799
110801
110805
110809
110813
110816
110817
110847
110841
110839
110839
110842
110848
110854
110862
110871
110880
110560
110559
110558
110559
110563
110570
110577
110583
110586
110583
111393
111388
111385
111386
111391
111398
111406
111416
111425
111429
122768
123982
123807
122536
125982
127388
126989
125371
128906
130492
129906
127920
131054
132757
131984
129719
132701
134483
133536
131067
134036
135877
134925
132336
134952
136825
136004
133347
135769
137647
136989
134293
135684
137534
137019
134330
135274
137111
136854
134318
113073
113263
113302
113183
115349
115720
115779
115490
117589
118142
118202
117694
119713
120433
120479
119726
121649
122505
122520
121510
123487
124452
124432
123207
125010
126060
126010
124625
126507
127615
127547
126053
127284
128424
128353
126807
127932
129105
129083
127585
111868
111957
111985
111959
113184
113352
113392
113325
114624
114891
114944
114815
116088
116459
116520
116308
117497
117972
118031
117714
118961
119537
119587
119154
120242
120909
120950
120398
121615
122359
122389
121723
122432
123223
123247
122486
123250
124078
124119
123302
111012
111035
111046
111047
111759
111813
111833
111825
112669
112772
112806
112781
113688
113857
113906
113852
114704
114945
115007
114909
115822
116141
116214
116058
116817
117214
117293
117069
117969
118436
118518
118220
118679
119197
119283
118921
119454
120014
120118
119714
110725
110735
110740
110741
111192
111216
111227
111226
111767
111816
111836
111832
112465
112548
112580
112569
113181
113307
113352
113328
114010
114186
114244
114199
114739
114969
115039
114965
115653
115936
116015
115904
116229
116552
116644
116500
116905
117265
117375
117208
110590
110594
110597
110597
110889
110898
110904
110905
111277
111297
111308
111310
111763
111802
111821
111823
112277
112341
112370
112370
112901
112996
113037
113032
113432
113563
113615
113600
114156
114324
114387
114356
114613
114811
114888
114843
115164
115389
115480
115424
110548
110550
110551
110551
110740
110744
110747
110748
111022
111032
111037
111038
111368
111387
111398
111401
111746
111779
111797
111801
112223
112275
112301
112306
112608
112682
112718
112721
113186
113284
113329
113328
113533
113652
113709
113702
113965
114102
114169
114156
110548
110549
110550
110550
110666
110669
110670
110671
110877
110882
110885
110886
111127
111137
111143
111146
111414
111432
111442
111445
111787
111816
111832
111837
112068
112110
112133
112140
112534
112591
112621
112628
112779
112851
112889
112893
113115
113198
113243
113245
110571
110571
110572
110572
110639
110641
110641
110642
110801
110803
110805
110806
110977
110983
110986
110988
111197
111207
111213
111215
111492
111509
111519
111522
111695
111720
111734
111740
112077
112110
112130
112136
112233
112277
112302
112307
112499
112549
112578
112583
110604
110604
110604
110604
110638
110639
110639
110639
110767
110768
110769
110769
110885
110888
110891
110891
111054
111059
111063
111065
111287
111297
111303
111306
111428
111443
111452
111456
111745
111765
111778
111782
111832
111859
111875
111879
112047
112078
112096
112100
110641
110641
110641
110641
110650
110651
110651
110651
110759
110760
110760
110760
110832
110834
110835
110836
110962
110966
110968
110969
111145
111151
111155
111157
111236
111245
111250
111253
111504
111516
111524
111527
111536
111552
111562
111565
111715
111734
111745
111748
110679
110679
110679
110679
110669
110669
110669
110669
110768
110768
110768
110768
110803
110804
110805
110806
110907
110909
110910
110911
111050
111053
111056
111057
111099
111104
111108
111109
111331
111338
111343
111345
111317
111327
111333
111335
111473
111485
111492
111494
110716
110716
110716
110716
110688
110689
110689
110689
110785
110786
110786
110785
110790
110791
110791
110792
110876
110877
110877
110878
110986
110989
110990
110991
111002
111006
111008
111009
111210
111215
111218
111219
111156
111162
111166
111168
111301
111308
111312
111314
110752
110752
110752
110752
110706
110707
110707
110707
110809
110809
110809
110808
110785
110786
110786
110787
110860
110861
110861
110861
110945
110947
110948
110948
110936
110938
110939
110940
111129
111132
111134
111135
111038
111043
111045
111046
111182
111186
111189
111190
110787
110787
110787
110787
110720
110720
110720
110721
110835
110835
110835
110834
110785
110785
110786
110786
110854
110854
110855
110855
110919
110920
110921
110921
110892
110893
110893
110894
111079
111081
111082
111082
110952
110955
110957
110957
111106
111108
111110
111111
110825
110825
110825
110825
110727
110727
110727
110727
110862
110862
110862
110861
110786
110786
110786
110786
110853
110853
110853
110853
110901
110902
110902
110902
110862
110862
110863
110863
111050
111051
111052
111052
110887
110889
110890
110891
111068
111069
111070
111071
110879
110879
110879
110879
110722
110722
110723
110723
110887
110887
110887
110887
110785
110785
110785
110786
110851
110851
110851
110851
110885
110886
110886
110886
110841
110841
110841
110842
111032
111033
111034
111034
110832
110833
110834
110834
111071
111071
111072
111073
110973
110973
110973
110972
110696
110697
110697
110697
110903
110903
110903
110903
110783
110783
110783
110783
110845
110845
110845
110846
110867
110868
110868
110868
110825
110825
110825
110825
111008
111010
111010
111010
110769
110770
110770
110771
111133
111132
111133
111134
111137
111137
111137
111136
110630
110630
110630
110631
110896
110897
110897
110897
110781
110781
110780
110780
110836
110837
110837
110837
110849
110850
110850
110850
110813
110812
110812
110813
110959
110962
110963
110962
110676
110675
110675
110675
111275
111275
111276
111277
111325
111326
111327
111327
110525
110522
110520
110520
110867
110869
110870
110870
110783
110782
110782
110782
110829
110829
110829
110830
110838
110838
110839
110839
110811
110810
110810
110811
110897
110901
110902
110900
110558
110552
110551
110555
111452
111454
111455
111452
116162
113652
111730
110444
109639
109120
108765
108515
108336
108199
117210
114034
111669
110271
109446
108921
108572
108331
108162
108036
117560
114060
111387
110068
109244
108725
108375
108132
107968
107861
117530
113943
111044
109891
109085
108599
108266
108036
107878
107772
117230
113705
110719
109695
108897
108447
108128
107913
107763
107669
116844
113562
110534
109643
108846
108436
108128
107926
107780
107678
116189
113290
110227
109476
108673
108303
108002
107810
107667
107573
115759
113303
110208
109600
108783
108448
108140
107945
107789
107669
115029
112964
109890
109461
108668
108381
108065
107865
107702
107573
115466
113658
110558
110154
109239
108848
108419
108131
107898
107700
112629
111886
111227
110675
110221
109852
109552
109312
109119
108969
114243
112881
111750
110897
110254
109771
109408
109131
108918
108759
115528
113581
112042
110968
110182
109618
109208
108906
108684
108534
116501
114055
112177
110974
110106
109509
109084
108777
108551
108397
117113
114306
112159
110878
109959
109354
108927
108624
108401
108254
117574
114542
112177
110867
109918
109321
108898
108602
108381
108228
117711
114561
112019
110715
109747
109167
108749
108460
108241
108094
117914
114755
112077
110814
109835
109275
108855
108563
108336
108167
117690
114553
111829
110674
109725
109196
108769
108471
108236
108059
118095
115064
112303
111169
110145
109543
109038
108676
108393
108164
111803
111488
111136
110797
110491
110223
109994
109801
109639
109509
112967
112328
111660
111081
110608
110226
109917
109668
109468
109313
114154
113106
112083
111262
110624
110135
109759
109467
109243
109084
115253
113771
112415
111402
110642
110081
109660
109342
109100
108927
116168
114255
112593
111425
110572
109963
109517
109186
108935
108762
117029
114717
112782
111501
110578
109943
109482
109146
108891
108709
117617
114948
112774
111414
110440
109794
109325
108988
108730
108552
118260
115304
112938
111542
110536
109886
109409
109065
108800
108603
118427
115254
112800
111443
110446
109806
109318
108964
108690
108484
118930
115671
113171
111808
110755
110062
109520
109121
108814
108573
111024
110928
110794
110641
110485
110334
110193
110066
109955
109861
111752
111524
111236
110943
110666
110415
110195
110005
109844
109715
112610
112176
111668
111191
110770
110414
110117
109872
109674
109526
113535
112847
112097
111437
110882
110432
110070
109781
109551
109379
114388
113411
112407
111577
110905
110381
109971
109651
109398
109217
115271
113988
112734
111754
110984
110404
109959
109618
109352
109155
115956
114361
112866
111759
110909
110288
109819
109465
109187
108989
116741
114856
113148
111947
111037
110388
109898
109529
109241
109025
117114
114981
113141
111905
110969
110305
109796
109415
109118
108894
117718
115408
113472
112187
111198
110493
109946
109533
109212
108964
110732
110692
110630
110555
110472
110387
110304
110226
110155
110094
111200
111104
110967
110810
110647
110489
110342
110209
110093
109996
111773
111581
111324
111052
110787
110545
110329
110141
109982
109860
112462
112137
111729
111320
110944
110613
110329
110090
109891
109737
113146
112653
112069
111519
111032
110620
110278
109997
109766
109595
113910
113222
112450
111759
111171
110689
110299
109984
109730
109537
114532
113626
112657
111835
111155
110615
110186
109847
109573
109372
115297
114169
113013
112078
111321
110735
110273
109911
109623
109402
115733
114399
113102
112091
111279
110659
110171
109793
109493
109265
116330
114818
113407
112327
111463
110805
110286
109883
109567
109320
110594
110577
110548
110511
110468
110422
110375
110330
110288
110250
110896
110854
110786
110702
110610
110515
110423
110336
110258
110190
111291
111204
111074
110920
110760
110601
110453
110317
110199
110105
111788
111634
111414
111171
110926
110695
110486
110300
110141
110012
112308
112063
111733
111384
111049
110745
110476
110245
110049
109898
112928
112568
112110
111650
111224
110849
110528
110257
110031
109854
113437
112940
112339
111766
111252
110813
110445
110141
109890
109700
114115
113469
112723
112042
111448
110953
110545
110213
109943
109731
114526
113730
112858
112087
111427
110888
110449
110097
109812
109592
115046
114112
113137
112296
111586
111011
110545
110172
109874
109638
110549
110541
110527
110507
110485
110460
110434
110409
110384
110362
110743
110722
110686
110640
110588
110532
110476
110421
110371
110326
111030
110985
110914
110826
110728
110627
110528
110435
110352
110285
111386
111308
111186
111039
110882
110725
110577
110440
110319
110219
111777
111649
111460
111241
111016
110798
110596
110416
110259
110135
112266
112074
111803
111503
111204
110924
110672
110451
110261
110108
112659
112387
112019
111630
111255
110915
110615
110358
110139
109970
113232
112866
112394
111915
111468
111071
110730
110441
110201
110008
113571
113102
112529
111969
111457
111016
110641
110331
110073
109871
113994
113433
112782
112160
111603
111128
110728
110399
110129
109914
110549
110545
110537
110527
110515
110502
110488
110473
110459
110447
110669
110657
110638
110613
110583
110551
110517
110484
110453
110424
110881
110857
110817
110766
110706
110643
110580
110518
110462
110416
111138
111095
111025
110936
110836
110732
110630
110534
110446
110371
111434
111364
111252
111114
110964
110813
110668
110533
110413
110316
111820
111714
111550
111355
111149
110946
110757
110585
110433
110308
112114
111961
111734
111474
111207
110952
110718
110511
110330
110186
112588
112377
112079
111751
111424
111119
110845
110607
110403
110236
112836
112560
112190
111796
111415
111069
110764
110503
110280
110102
113173
112841
112415
111972
111552
111176
110848
110569
110336
110146
110571
110569
110565
110560
110553
110546
110538
110530
110523
110516
110641
110635
110624
110610
110593
110574
110555
110535
110516
110498
110803
110789
110766
110736
110700
110661
110621
110581
110544
110515
110984
110959
110917
110863
110800
110732
110664
110598
110537
110484
111209
111168
111100
111013
110915
110812
110710
110614
110525
110453
111513
111452
111350
111224
111085
110942
110804
110675
110559
110460
111728
111638
111495
111323
111137
110952
110776
110615
110471
110355
112117
111993
111804
111582
111349
111123
110912
110723
110557
110418
112281
112117
111880
111610
111335
111073
110833
110622
110438
110288
112550
112353
112078
111771
111465
111178
110919
110692
110498
110337
110604
110603
110601
110598
110594
110590
110586
110582
110578
110574
110639
110635
110630
110622
110612
110601
110590
110578
110567
110556
110768
110760
110746
110728
110706
110683
110658
110632
110609
110592
110889
110875
110850
110816
110777
110734
110689
110645
110604
110567
111061
111037
110995
110940
110876
110807
110738
110670
110607
110556
111300
111263
111200
111118
111025
110927
110829
110736
110650
110575
111450
111395
111305
111191
111064
110933
110804
110684
110574
110484
111772
111698
111577
111429
111267
111103
110946
110801
110672
110560
111866
111768
111616
111434
111240
111048
110866
110702
110554
110433
112084
111966
111790
111582
111364
111152
110954
110777
110621
110489
110641
110641
110639
110638
110636
110634
110631
110629
110627
110625
110651
110649
110646
110641
110636
110630
110623
110616
110610
110603
110759
110754
110746
110736
110723
110708
110693
110677
110663
110653
110834
110826
110811
110790
110766
110738
110710
110681
110654
110628
110967
110952
110926
110891
110850
110805
110758
110712
110669
110633
111154
111131
111091
111039
110977
110911
110843
110778
110716
110661
111250
111216
111159
111084
110998
110907
110816
110729
110647
110580
111521
111475
111398
111300
111190
111075
110961
110854
110756
110670
111558
111498
111401
111280
111146
111009
110875
110751
110638
110543
111740
111668
111556
111417
111266
111114
110968
110833
110713
110609
110679
110679
110678
110677
110676
110675
110674
110673
110671
110670
110669
110668
110667
110664
110661
110657
110653
110650
110645
110641
110767
110764
110759
110753
110745
110736
110727
110717
110709
110704
110805
110800
110791
110778
110763
110746
110728
110709
110692
110675
110909
110900
110884
110862
110836
110807
110776
110745
110716
110692
111054
111040
111015
110982
110942
110898
110852
110807
110764
110725
111108
111086
111050
111001
110944
110882
110819
110757
110699
110650
111341
111313
111264
111200
111126
111047
110967
110890
110819
110754
111331
111294
111232
111152
111061
110965
110870
110780
110695
110624
111489
111446
111374
111283
111181
111074
110969
110871
110780
110702
110716
110716
110716
110715
110715
110714
110713
110713
110712
110712
110689
110689
110688
110686
110685
110683
110680
110678
110675
110672
110785
110783
110780
110776
110771
110766
110760
110754
110750
110748
110791
110788
110783
110775
110766
110755
110744
110732
110721
110710
110877
110871
110861
110847
110831
110812
110792
110772
110753
110738
110989
110980
110965
110943
110918
110889
110858
110828
110799
110772
111008
110995
110972
110940
110903
110861
110818
110776
110735
110701
111216
111199
111168
111126
111077
111024
110969
110916
110865
110819
111165
111142
111102
111050
110989
110924
110858
110794
110732
110681
111311
111284
111239
111180
111112
111039
110966
110896
110831
110773
110752
110752
110751
110751
110751
110751
110750
110750
110749
110750
110707
110707
110707
110706
110705
110704
110702
110701
110699
110696
110808
110806
110804
110802
110799
110796
110793
110789
110787
110787
110787
110785
110782
110777
110771
110765
110758
110751
110743
110736
110861
110857
110851
110842
110832
110820
110808
110795
110783
110773
110947
110942
110932
110918
110902
110884
110864
110844
110824
110806
110940
110931
110917