/*--------------------------------*- C++ -*----------------------------------*\
| =========                 |                                                 |
| \\      /  F ield         | foam-extend: Open Source CFD                    |
|  \\    /   O peration     | Version:     4.0                                |
|   \\  /    A nd           | Web:         http://www.foam-extend.org         |
|    \\/     M anipulation  |                                                 |
\*---------------------------------------------------------------------------*/
FoamFile
{
    version     2.0;
    format      ascii;
    class       volScalarField;
    location    "1200";
    object      rho;
}
// * * * * * * * * * * * * * * * * * * * * * * * * * * * * * * * * * * * * * //

dimensions      [1 -3 0 0 0 0 0];

internalField   nonuniform List<scalar> 
34480
(
1.34683
1.34611
1.34599
1.34644
1.34764
1.34993
1.35413
1.3622
1.37287
1.37731
1.34768
1.347
1.34694
1.34739
1.34854
1.35071
1.35479
1.36291
1.37471
1.3765
1.3463
1.34564
1.34564
1.34603
1.34701
1.3489
1.35269
1.36044
1.37263
1.36916
1.34501
1.34444
1.34448
1.34484
1.34572
1.34729
1.35068
1.35771
1.36967
1.36064
1.34374
1.34315
1.34324
1.34355
1.3443
1.34559
1.34859
1.35485
1.36631
1.35218
1.34346
1.34299
1.34312
1.34344
1.34413
1.34519
1.34781
1.35328
1.36393
1.34502
1.34202
1.34152
1.34167
1.34197
1.3426
1.34351
1.34583
1.35062
1.3603
1.33743
1.34268
1.34235
1.34262
1.34314
1.344
1.34512
1.34743
1.35173
1.36016
1.33341
1.3411
1.34081
1.34109
1.34164
1.34264
1.34402
1.34642
1.35041
1.3573
1.32748
1.33833
1.33825
1.33907
1.34055
1.34278
1.34573
1.34978
1.35528
1.36233
1.32866
1.3536
1.35249
1.3521
1.35232
1.35327
1.35508
1.35797
1.3623
1.36912
1.37804
1.35412
1.35287
1.35244
1.35268
1.3537
1.35568
1.35907
1.36475
1.37499
1.38977
1.35248
1.35115
1.35071
1.35086
1.35178
1.35365
1.35715
1.36352
1.37647
1.3955
1.351
1.34962
1.34911
1.34916
1.34995
1.35162
1.35495
1.36133
1.37587
1.39778
1.34965
1.34815
1.34757
1.34748
1.34809
1.34946
1.35247
1.35849
1.3739
1.39756
1.34929
1.34779
1.34715
1.34696
1.34741
1.3485
1.35113
1.35653
1.37214
1.39632
1.34784
1.34623
1.34552
1.34521
1.3455
1.34632
1.34857
1.35331
1.36866
1.39273
1.34848
1.34693
1.34623
1.34599
1.34636
1.3472
1.3493
1.35344
1.36795
1.39101
1.34694
1.34537
1.34462
1.34432
1.34462
1.34546
1.34746
1.35123
1.36433
1.38683
1.34425
1.34277
1.34236
1.34271
1.34386
1.34574
1.34879
1.35347
1.36611
1.38734
1.35826
1.35733
1.35701
1.35726
1.35815
1.35975
1.36215
1.36543
1.36957
1.37407
1.35874
1.35757
1.35719
1.3575
1.3586
1.36062
1.36373
1.36824
1.37486
1.38274
1.35697
1.35566
1.35527
1.35559
1.35676
1.35893
1.36246
1.368
1.37729
1.38894
1.35528
1.35387
1.35342
1.35368
1.35484
1.35704
1.3608
1.36694
1.37834
1.39343
1.35374
1.3522
1.35169
1.35184
1.3529
1.35499
1.35877
1.36513
1.37814
1.39624
1.35315
1.3516
1.35102
1.35109
1.35205
1.35398
1.35767
1.36396
1.37806
1.39848
1.35152
1.34985
1.34923
1.34918
1.35001
1.35176
1.35526
1.36134
1.37613
1.39842
1.35199
1.35037
1.34974
1.34974
1.3506
1.35235
1.35579
1.36163
1.37649
1.39983
1.35039
1.34875
1.34805
1.34798
1.34872
1.35035
1.35366
1.3594
1.3737
1.39809
1.34768
1.34608
1.34562
1.34599
1.34728
1.34957
1.35349
1.35983
1.3739
1.3986
1.36147
1.3608
1.36056
1.36075
1.36141
1.36254
1.36413
1.36609
1.36823
1.37005
1.36226
1.36126
1.36093
1.36121
1.36214
1.36377
1.36615
1.36927
1.37315
1.37689
1.36073
1.3595
1.35913
1.35944
1.36053
1.36249
1.36548
1.36969
1.37581
1.38227
1.35907
1.35769
1.35724
1.35753
1.35869
1.36086
1.36435
1.3695
1.37782
1.38728
1.35754
1.35598
1.35547
1.35568
1.35683
1.35905
1.36283
1.36862
1.37888
1.39135
1.35686
1.35524
1.35466
1.35481
1.35592
1.35812
1.36204
1.3682
1.3801
1.39533
1.35515
1.35341
1.35277
1.35283
1.35385
1.35596
1.3599
1.36625
1.37945
1.39729
1.35551
1.3538
1.35314
1.35323
1.35428
1.35641
1.3604
1.36685
1.38082
1.40075
1.35384
1.3521
1.3514
1.35143
1.3524
1.35444
1.35834
1.36492
1.37901
1.40102
1.35111
1.3494
1.34885
1.3492
1.35056
1.35304
1.35734
1.36435
1.37845
1.40196
1.3637
1.36326
1.3631
1.36324
1.36369
1.36443
1.36542
1.36658
1.36774
1.36864
1.36483
1.36406
1.3638
1.36402
1.36473
1.36595
1.36763
1.3697
1.37198
1.37395
1.36368
1.36264
1.36231
1.36258
1.36351
1.36512
1.36746
1.37049
1.37425
1.37779
1.36219
1.36094
1.36053
1.36081
1.36189
1.36382
1.36676
1.37078
1.3763
1.3819
1.3608
1.35933
1.35884
1.35909
1.36023
1.36234
1.36574
1.37056
1.37786
1.38574
1.36013
1.35856
1.358
1.35821
1.35936
1.36158
1.36529
1.37074
1.37971
1.38992
1.35842
1.3567
1.35609
1.35623
1.35736
1.35959
1.36349
1.3694
1.37987
1.39246
1.35873
1.35701
1.35636
1.35654
1.3577
1.36
1.36408
1.37035
1.38196
1.39669
1.35704
1.35527
1.35459
1.35472
1.35584
1.35811
1.36222
1.36881
1.38102
1.39805
1.35432
1.35258
1.35199
1.35234
1.35372
1.35629
1.36068
1.36766
1.38012
1.39903
1.36525
1.365
1.36491
1.36499
1.36527
1.36573
1.36632
1.36696
1.36757
1.36797
1.36666
1.36612
1.36593
1.36609
1.36659
1.36743
1.36855
1.36985
1.37118
1.37223
1.36594
1.36512
1.36485
1.36507
1.3658
1.36703
1.36875
1.37084
1.37317
1.37514
1.3647
1.36363
1.36327
1.36352
1.36444
1.36604
1.36837
1.37136
1.37497
1.37827
1.36353
1.36222
1.36178
1.36202
1.36306
1.36493
1.36778
1.37159
1.37661
1.38151
1.36295
1.3615
1.36098
1.36121
1.36232
1.36438
1.36766
1.37219
1.37866
1.38531
1.36131
1.35969
1.35911
1.3593
1.36043
1.3626
1.36619
1.37133
1.37919
1.38777
1.36163
1.35998
1.35936
1.35958
1.36077
1.36306
1.36691
1.37256
1.38163
1.39207
1.35994
1.35822
1.35758
1.35776
1.35895
1.36127
1.36524
1.37133
1.38126
1.39384
1.35728
1.35558
1.35498
1.35532
1.35667
1.35921
1.36341
1.36986
1.38021
1.39449
1.36639
1.36627
1.36622
1.36627
1.36644
1.3667
1.36704
1.3674
1.36772
1.36789
1.36798
1.36761
1.36748
1.36759
1.36793
1.36848
1.36919
1.36999
1.37075
1.37133
1.36765
1.36703
1.36683
1.36699
1.36753
1.36842
1.36962
1.37103
1.37247
1.37362
1.36665
1.3658
1.3655
1.36571
1.36644
1.36769
1.36944
1.37159
1.37395
1.37596
1.36575
1.36464
1.36427
1.36448
1.36536
1.36691
1.36919
1.37208
1.37551
1.3786
1.3653
1.36403
1.36357
1.3638
1.36479
1.3666
1.36933
1.37294
1.37752
1.38186
1.36379
1.36233
1.36181
1.36201
1.36307
1.36505
1.36816
1.37241
1.37816
1.38395
1.36416
1.36265
1.36208
1.36231
1.36345
1.3656
1.36903
1.37385
1.38069
1.38796
1.3625
1.3609
1.36031
1.36052
1.36168
1.3639
1.36752
1.37282
1.38054
1.38958
1.35995
1.35835
1.35777
1.35809
1.35937
1.36175
1.36557
1.37121
1.3794
1.38975
1.36728
1.36723
1.36721
1.36724
1.36734
1.36749
1.36768
1.36787
1.36804
1.3681
1.36893
1.3687
1.36862
1.36869
1.3689
1.36925
1.36969
1.37016
1.3706
1.37091
1.36894
1.36849
1.36835
1.36846
1.36884
1.36945
1.37026
1.37117
1.37206
1.37273
1.36814
1.36749
1.36726
1.36742
1.36797
1.3689
1.37017
1.37166
1.3732
1.37444
1.36751
1.36661
1.36631
1.36649
1.3672
1.36843
1.37016
1.37227
1.37459
1.37657
1.36722
1.36616
1.36577
1.36597
1.36681
1.36831
1.37049
1.37324
1.37646
1.37932
1.36586
1.36459
1.36413
1.36433
1.36527
1.36698
1.36955
1.37292
1.37706
1.38098
1.36632
1.36499
1.36448
1.36471
1.36575
1.36765
1.37056
1.37449
1.37954
1.38456
1.36471
1.36327
1.36274
1.36296
1.36404
1.36605
1.36919
1.37357
1.37939
1.38572
1.36231
1.36085
1.36032
1.36062
1.36178
1.36392
1.36724
1.37194
1.3782
1.38548
1.36801
1.36801
1.368
1.36802
1.36807
1.36816
1.36826
1.36837
1.36845
1.36846
1.36965
1.36951
1.36945
1.36949
1.36963
1.36984
1.3701
1.37038
1.37063
1.37081
1.36991
1.3696
1.3695
1.36958
1.36983
1.37024
1.37077
1.37134
1.37188
1.37227
1.36927
1.36879
1.36862
1.36873
1.36913
1.3698
1.37068
1.37169
1.37268
1.37345
1.36888
1.36819
1.36795
1.36809
1.36864
1.36957
1.37084
1.37233
1.37388
1.37515
1.36874
1.36789
1.36757
1.36774
1.36843
1.36962
1.37129
1.37332
1.37553
1.37742
1.36753
1.36647
1.3661
1.36627
1.36707
1.36847
1.37052
1.37309
1.37602
1.37866
1.36812
1.36699
1.36656
1.36677
1.36767
1.36927
1.37165
1.37471
1.37837
1.3818
1.36656
1.36531
1.36485
1.36506
1.36602
1.36775
1.37035
1.37384
1.3781
1.38244
1.36435
1.36308
1.36261
1.36286
1.36389
1.36573
1.36851
1.37226
1.37691
1.38191
1.36865
1.36867
1.36867
1.36868
1.36871
1.36876
1.36881
1.36887
1.36891
1.36889
1.3702
1.37011
1.37008
1.37011
1.37019
1.37031
1.37047
1.37063
1.37077
1.37087
1.37066
1.37045
1.37039
1.37043
1.3706
1.37087
1.3712
1.37155
1.37188
1.3721
1.37011
1.36977
1.36965
1.36973
1.37001
1.37047
1.37107
1.37173
1.37236
1.37283
1.36994
1.36942
1.36924
1.36935
1.36975
1.37043
1.37133
1.37236
1.37338
1.37419
1.36993
1.36927
1.36902
1.36916
1.36969
1.3706
1.37183
1.37329
1.37479
1.37602
1.36886
1.36801
1.36771
1.36785
1.36849
1.36961
1.37117
1.37307
1.3751
1.37687
1.36959
1.36867
1.36831
1.36849
1.36923
1.37054
1.3724
1.37471
1.3773
1.3796
1.36807
1.36702
1.36664
1.36682
1.36763
1.36906
1.37114
1.37381
1.37687
1.37979
1.36608
1.36501
1.36461
1.36483
1.36569
1.36722
1.36945
1.37234
1.37571
1.37909
1.36922
1.36925
1.36926
1.36927
1.36928
1.36931
1.36934
1.36937
1.36939
1.36935
1.37063
1.37059
1.37056
1.37058
1.37063
1.3707
1.37079
1.37089
1.37097
1.37102
1.37125
1.37112
1.37107
1.37111
1.37121
1.37138
1.37158
1.3718
1.37199
1.37211
1.37074
1.37051
1.37042
1.37047
1.37066
1.37097
1.37136
1.37179
1.37219
1.37249
1.37074
1.37037
1.37024
1.37032
1.37061
1.37109
1.37171
1.3724
1.37306
1.37357
1.37084
1.37035
1.37016
1.37027
1.37066
1.37133
1.37222
1.37323
1.37424
1.37503
1.36988
1.36923
1.36899
1.36911
1.3696
1.37045
1.37161
1.37297
1.37436
1.37552
1.37076
1.37004
1.36975
1.3699
1.37049
1.37151
1.37292
1.37461
1.37641
1.37792
1.36926
1.36842
1.36811
1.36826
1.36891
1.37005
1.37165
1.37364
1.37578
1.37772
1.36753
1.36666
1.36633
1.36651
1.36721
1.36843
1.37016
1.37232
1.3747
1.37695
1.36975
1.36979
1.3698
1.3698
1.36981
1.36983
1.36984
1.36986
1.36986
1.36981
1.37098
1.37096
1.37095
1.37095
1.37098
1.37103
1.37108
1.37114
1.37118
1.37122
1.37174
1.37165
1.37162
1.37164
1.37171
1.37181
1.37194
1.37206
1.37218
1.37224
1.37121
1.37105
1.37099
1.37102
1.37115
1.37135
1.37161
1.37188
1.37213
1.37232
1.37136
1.3711
1.37101
1.37107
1.37127
1.37159
1.37201
1.37246
1.37289
1.37321
1.37153
1.37118
1.37104
1.37111
1.3714
1.37187
1.37249
1.37318
1.37385
1.37435
1.37066
1.37017
1.36999
1.37008
1.37045
1.37107
1.3719
1.37285
1.37378
1.37455
1.37168
1.37114
1.37092
1.37104
1.37149
1.37225
1.37328
1.37448
1.37571
1.37669
1.37018
1.36952
1.36928
1.3694
1.36991
1.37078
1.37197
1.3734
1.37487
1.37615
1.36874
1.36805
1.36779
1.36794
1.36848
1.36942
1.37072
1.37228
1.37392
1.3754
1.37025
1.37029
1.37031
1.3703
1.37031
1.37032
1.37033
1.37033
1.37033
1.37028
1.37126
1.37125
1.37124
1.37125
1.37127
1.37129
1.37133
1.37136
1.37139
1.37141
1.37215
1.37209
1.37208
1.37209
1.37213
1.37219
1.37227
1.37234
1.3724
1.37243
1.37156
1.37145
1.37141
1.37143
1.37151
1.37164
1.3718
1.37198
1.37213
1.37226
1.37183
1.37166
1.3716
1.37163
1.37177
1.37199
1.37226
1.37255
1.37282
1.37302
1.37204
1.37179
1.3717
1.37175
1.37195
1.37228
1.3727
1.37315
1.37359
1.37391
1.37124
1.37089
1.37076
1.37082
1.37109
1.37153
1.3721
1.37275
1.37336
1.37386
1.3724
1.37201
1.37185
1.37194
1.37227
1.37282
1.37355
1.37438
1.3752
1.37582
1.37086
1.37036
1.37018
1.37027
1.37065
1.37129
1.37215
1.37315
1.37414
1.37497
1.36974
1.36922
1.36903
1.36913
1.36955
1.37024
1.37118
1.37227
1.37338
1.37434
1.37074
1.37078
1.37079
1.37079
1.37079
1.37079
1.3708
1.3708
1.37079
1.37074
1.37148
1.37148
1.37147
1.37147
1.37148
1.3715
1.37152
1.37154
1.37156
1.37158
1.37251
1.37248
1.37247
1.37248
1.3725
1.37253
1.37258
1.37262
1.37265
1.37266
1.37181
1.37175
1.37172
1.37173
1.37178
1.37186
1.37196
1.37207
1.37217
1.37225
1.37219
1.37208
1.37204
1.37207
1.37215
1.37229
1.37247
1.37265
1.37282
1.37294
1.37241
1.37224
1.37218
1.37221
1.37235
1.37257
1.37284
1.37314
1.37342
1.37362
1.37167
1.37142
1.37133
1.37138
1.37156
1.37186
1.37225
1.37268
1.37307
1.37339
1.37296
1.37269
1.37258
1.37264
1.37288
1.37326
1.37377
1.37432
1.37486
1.37524
1.37134
1.37097
1.37085
1.37091
1.37118
1.37164
1.37224
1.37292
1.37357
1.37411
1.37059
1.37021
1.37007
1.37015
1.37044
1.37094
1.3716
1.37234
1.37308
1.37369
1.37122
1.37125
1.37126
1.37126
1.37127
1.37127
1.37127
1.37127
1.37126
1.37121
1.37163
1.37163
1.37163
1.37163
1.37163
1.37164
1.37166
1.37168
1.37169
1.37171
1.37283
1.37281
1.37281
1.37281
1.37283
1.37285
1.37287
1.37289
1.37291
1.37291
1.372
1.37196
1.37194
1.37195
1.37198
1.37203
1.37209
1.37216
1.37222
1.37228
1.37246
1.37239
1.37237
1.37238
1.37244
1.37253
1.37263
1.37275
1.37285
1.37292
1.37267
1.37256
1.37251
1.37254
1.37262
1.37277
1.37295
1.37314
1.37332
1.37344
1.37198
1.37181
1.37175
1.37178
1.37191
1.37211
1.37236
1.37263
1.37288
1.37309
1.37341
1.37323
1.37315
1.37319
1.37335
1.37362
1.37396
1.37432
1.37467
1.37489
1.37166
1.37139
1.37131
1.37135
1.37154
1.37185
1.37225
1.3727
1.37312
1.37348
1.37134
1.37108
1.37097
1.37103
1.37124
1.37158
1.37203
1.37252
1.37299
1.37338
1.37174
1.37177
1.37178
1.37178
1.37178
1.37178
1.37178
1.37178
1.37177
1.37173
1.3717
1.3717
1.3717
1.3717
1.3717
1.37171
1.37172
1.37173
1.37175
1.37177
1.37312
1.37311
1.37311
1.37312
1.37312
1.37313
1.37315
1.37316
1.37317
1.37315
1.37213
1.3721
1.37209
1.37209
1.37211
1.37214
1.37218
1.37222
1.37226
1.3723
1.37265
1.3726
1.37259
1.3726
1.37263
1.37268
1.37275
1.37282
1.37288
1.37293
1.37282
1.37275
1.37272
1.37273
1.37279
1.37288
1.37299
1.37311
1.37323
1.37331
1.3722
1.37209
1.37206
1.37208
1.37216
1.37229
1.37245
1.37262
1.37276
1.37289
1.37375
1.37364
1.37358
1.37361
1.37372
1.37389
1.37411
1.37434
1.37457
1.37469
1.37182
1.37164
1.37158
1.37161
1.37174
1.37194
1.37221
1.3725
1.37276
1.37299
1.37208
1.3719
1.37182
1.37186
1.372
1.37223
1.37253
1.37284
1.37314
1.37338
1.37243
1.37246
1.37247
1.37247
1.37247
1.37247
1.37246
1.37246
1.37245
1.37241
1.37166
1.37165
1.37165
1.37165
1.37165
1.37166
1.37167
1.37168
1.3717
1.37173
1.37335
1.37335
1.37335
1.37335
1.37336
1.37336
1.37337
1.37338
1.37338
1.37336
1.37221
1.37219
1.37219
1.37219
1.3722
1.37222
1.37224
1.37227
1.37228
1.37231
1.37274
1.37272
1.3727
1.37271
1.37273
1.37276
1.3728
1.37285
1.37289
1.37291
1.37287
1.37282
1.3728
1.37281
1.37285
1.3729
1.37297
1.37305
1.37312
1.37317
1.37234
1.37228
1.37226
1.37228
1.37233
1.37241
1.37251
1.37261
1.37269
1.37277
1.37396
1.37388
1.37384
1.37386
1.37393
1.37404
1.37418
1.37433
1.37449
1.37455
1.37183
1.3717
1.37166
1.37169
1.37177
1.3719
1.37207
1.37225
1.37241
1.37257
1.37294
1.37282
1.37277
1.37279
1.37288
1.37303
1.37322
1.37342
1.37362
1.37376
1.37353
1.37356
1.37357
1.37357
1.37357
1.37356
1.37356
1.37355
1.37354
1.3735
1.37142
1.37141
1.37141
1.37141
1.37141
1.37142
1.37142
1.37144
1.37145
1.37148
1.37345
1.37345
1.37344
1.37343
1.37344
1.37344
1.37345
1.37346
1.37347
1.37346
1.37226
1.37225
1.37225
1.37226
1.37226
1.37227
1.37228
1.37229
1.3723
1.37231
1.37275
1.37273
1.37272
1.37272
1.37274
1.37276
1.37278
1.37281
1.37284
1.37286
1.37283
1.37279
1.37278
1.37278
1.37281
1.37284
1.37289
1.37293
1.37298
1.37302
1.37241
1.37238
1.37237
1.37238
1.37242
1.37247
1.37253
1.37259
1.37263
1.37267
1.3739
1.37384
1.37381
1.37382
1.37386
1.37394
1.37403
1.37413
1.37425
1.37429
1.37158
1.37151
1.37148
1.3715
1.37155
1.37164
1.37174
1.37185
1.37194
1.37205
1.37416
1.37408
1.37405
1.37406
1.37412
1.37422
1.37434
1.37447
1.37461
1.37468
1.37529
1.37531
1.37531
1.3753
1.3753
1.3753
1.3753
1.3753
1.3753
1.37528
1.37084
1.37084
1.37086
1.37086
1.37087
1.37087
1.37087
1.37086
1.37086
1.37087
1.37328
1.37326
1.37324
1.37323
1.37323
1.37323
1.37325
1.37326
1.37329
1.37331
1.3723
1.3723
1.37231
1.37231
1.37232
1.37232
1.37233
1.37233
1.37232
1.37232
1.3727
1.37268
1.37268
1.37268
1.37268
1.3727
1.37272
1.37274
1.37276
1.37277
1.37273
1.37271
1.3727
1.3727
1.37272
1.37274
1.37277
1.37281
1.37284
1.37287
1.37244
1.37242
1.37242
1.37242
1.37245
1.37248
1.37252
1.37256
1.37259
1.3726
1.37344
1.37339
1.37336
1.37337
1.3734
1.37345
1.37351
1.37359
1.37368
1.37374
1.37097
1.37093
1.37092
1.37093
1.37097
1.37103
1.3711
1.37117
1.37121
1.37126
1.37593
1.37588
1.37585
1.37586
1.3759
1.37597
1.37606
1.37615
1.37625
1.3763
1.37715
1.37713
1.37712
1.37711
1.37711
1.37711
1.37712
1.37713
1.37716
1.37719
1.37008
1.37014
1.37018
1.3702
1.37021
1.37021
1.37019
1.37016
1.37011
1.37003
1.37291
1.37287
1.37285
1.37284
1.37284
1.37284
1.37285
1.37287
1.3729
1.37295
1.37236
1.37237
1.37238
1.37238
1.37239
1.37239
1.37239
1.37239
1.37238
1.37237
1.37265
1.37264
1.37264
1.37264
1.37264
1.37266
1.37267
1.37269
1.3727
1.37271
1.37268
1.37266
1.37265
1.37265
1.37267
1.37269
1.37271
1.37274
1.37277
1.37279
1.37248
1.37247
1.37246
1.37247
1.37249
1.37252
1.37256
1.37259
1.37261
1.37262
1.37282
1.37277
1.37275
1.37275
1.37278
1.37282
1.37288
1.37295
1.37302
1.3731
1.37022
1.37021
1.37021
1.37022
1.37026
1.37031
1.37037
1.37043
1.37045
1.37041
1.37772
1.37767
1.37765
1.37766
1.3777
1.37776
1.37784
1.37791
1.378
1.37803
1.47401
1.47961
1.47618
1.46901
1.50655
1.51229
1.50544
1.4947
1.53278
1.53784
1.52815
1.51488
1.55156
1.55547
1.54294
1.52766
1.56605
1.56856
1.5533
1.5365
1.57782
1.57888
1.56275
1.544
1.58568
1.5851
1.56952
1.54842
1.59275
1.59042
1.57565
1.55227
1.59061
1.5864
1.57221
1.54678
1.58282
1.5776
1.56507
1.5385
1.3733
1.37299
1.37355
1.37461
1.39463
1.396
1.397
1.39668
1.41385
1.41656
1.41781
1.41591
1.43228
1.43619
1.43758
1.43376
1.44959
1.45435
1.4557
1.44981
1.46638
1.47166
1.47272
1.46515
1.4804
1.48595
1.4866
1.47793
1.49459
1.50021
1.50055
1.49124
1.50155
1.50717
1.50734
1.4978
1.50519
1.51131
1.51149
1.50229
1.37745
1.3779
1.37809
1.3781
1.39007
1.39106
1.39135
1.3912
1.402
1.40358
1.40401
1.40366
1.41361
1.41586
1.4164
1.41569
1.42499
1.4279
1.42846
1.42722
1.43707
1.44059
1.44113
1.43921
1.44758
1.45161
1.4521
1.44939
1.45938
1.46382
1.46422
1.46072
1.46536
1.47013
1.47046
1.46611
1.46887
1.4744
1.47474
1.46936
1.37065
1.37061
1.37065
1.37075
1.37859
1.37884
1.37894
1.37896
1.38634
1.38689
1.38709
1.38705
1.39458
1.39555
1.39589
1.39572
1.40289
1.40436
1.40483
1.40444
1.41216
1.41416
1.41475
1.41404
1.42023
1.42275
1.42343
1.4223
1.43006
1.43306
1.43379
1.43218
1.4349
1.43833
1.43914
1.43703
1.43756
1.44185
1.44279
1.44
1.3692
1.36915
1.36915
1.36921
1.37478
1.37493
1.37499
1.37499
1.37969
1.38001
1.38013
1.3801
1.3853
1.38585
1.38605
1.386
1.3912
1.39202
1.39231
1.39221
1.39811
1.39926
1.39966
1.39945
1.40397
1.40547
1.40598
1.40562
1.41181
1.41367
1.41427
1.4137
1.41568
1.41789
1.41866
1.41789
1.41771
1.42069
1.42166
1.42043
1.36837
1.36828
1.36826
1.36832
1.37253
1.37258
1.37261
1.37262
1.37584
1.37596
1.37602
1.37604
1.3797
1.37995
1.38007
1.38009
1.38395
1.38437
1.38456
1.38458
1.38919
1.38982
1.39009
1.39009
1.39343
1.39431
1.39467
1.39462
1.39976
1.40088
1.40134
1.4012
1.40289
1.40427
1.40489
1.40469
1.4041
1.40613
1.40692
1.40638
1.36825
1.36814
1.36812
1.36818
1.37149
1.37152
1.37153
1.37154
1.37396
1.37401
1.37405
1.37406
1.37664
1.37676
1.37683
1.37686
1.37976
1.37998
1.3801
1.38014
1.38376
1.38411
1.38429
1.38434
1.38679
1.38729
1.38754
1.38759
1.39191
1.39258
1.39291
1.39294
1.39432
1.39518
1.39563
1.39564
1.39472
1.39612
1.39668
1.3964
1.36842
1.36831
1.36828
1.36834
1.37099
1.371
1.37101
1.37102
1.3729
1.37292
1.37294
1.37295
1.37479
1.37485
1.37489
1.37491
1.37717
1.37729
1.37736
1.37739
1.38031
1.3805
1.38061
1.38066
1.38246
1.38274
1.38291
1.38297
1.38664
1.38704
1.38726
1.38733
1.3883
1.38882
1.38913
1.38918
1.38806
1.38905
1.38943
1.38922
1.36876
1.36864
1.36861
1.36867
1.37084
1.37085
1.37085
1.37086
1.37236
1.37237
1.37238
1.37239
1.37364
1.37368
1.3737
1.37372
1.37549
1.37555
1.3756
1.37562
1.37798
1.37809
1.37817
1.3782
1.37949
1.37966
1.37976
1.37981
1.38296
1.3832
1.38335
1.3834
1.38391
1.38423
1.38442
1.38448
1.38324
1.38398
1.38423
1.38404
1.36918
1.36906
1.36902
1.36908
1.37089
1.37089
1.37089
1.37089
1.37214
1.37215
1.37215
1.37216
1.37295
1.37297
1.37298
1.37299
1.37438
1.37442
1.37444
1.37446
1.37636
1.37643
1.37647
1.37649
1.37736
1.37746
1.37752
1.37756
1.38029
1.38044
1.38053
1.38057
1.38066
1.38086
1.38098
1.38102
1.37973
1.38032
1.38048
1.38029
1.36963
1.36951
1.36947
1.36953
1.37103
1.37103
1.37103
1.37103
1.37213
1.37213
1.37214
1.37214
1.37256
1.37257
1.37258
1.37258
1.37369
1.3737
1.37372
1.37373
1.37524
1.37528
1.37531
1.37533
1.37582
1.37588
1.37592
1.37595
1.37834
1.37843
1.37849
1.37852
1.37825
1.37838
1.37845
1.37848
1.37722
1.3777
1.37781
1.37762
1.37009
1.36996
1.36993
1.36999
1.37121
1.37121
1.37121
1.37122
1.37225
1.37225
1.37225
1.37225
1.37236
1.37236
1.37237
1.37238
1.37327
1.37328
1.37329
1.3733
1.37449
1.37452
1.37453
1.37454
1.37473
1.37476
1.37479
1.37481
1.37695
1.37701
1.37705
1.37706
1.37648
1.37656
1.37661
1.37663
1.37546
1.37587
1.37594
1.37575
1.37055
1.37042
1.37039
1.37045
1.3714
1.3714
1.3714
1.37141
1.37244
1.37243
1.37243
1.37243
1.37228
1.37228
1.37229
1.37229
1.37305
1.37306
1.37306
1.37307
1.374
1.37402
1.37403
1.37404
1.37397
1.37399
1.37401
1.37402
1.37599
1.37603
1.37605
1.37606
1.37518
1.37523
1.37527
1.37528
1.37428
1.37464
1.37469
1.37451
1.371
1.37087
1.37084
1.3709
1.37157
1.37157
1.37157
1.37158
1.37266
1.37266
1.37266
1.37266
1.37226
1.37227
1.37227
1.37227
1.37296
1.37296
1.37297
1.37297
1.37369
1.3737
1.37371
1.37371
1.37345
1.37347
1.37348
1.37349
1.37536
1.37538
1.37539
1.3754
1.37424
1.37428
1.3743
1.37431
1.37357
1.37388
1.37391
1.37374
1.37146
1.37133
1.3713
1.37136
1.3717
1.3717
1.3717
1.37171
1.37291
1.37291
1.37291
1.3729
1.37228
1.37228
1.37228
1.37229
1.37294
1.37294
1.37294
1.37294
1.37349
1.3735
1.37351
1.37351
1.37312
1.37312
1.37313
1.37314
1.37497
1.37499
1.375
1.375
1.37356
1.37358
1.3736
1.3736
1.37322
1.37349
1.37352
1.37336
1.37196
1.37183
1.3718
1.37186
1.37177
1.37176
1.37177
1.37177
1.37316
1.37316
1.37316
1.37315
1.3723
1.3723
1.3723
1.37231
1.37294
1.37294
1.37294
1.37294
1.37335
1.37336
1.37336
1.37336
1.3729
1.3729
1.3729
1.37291
1.37476
1.37477
1.37478
1.37478
1.37304
1.37306
1.37307
1.37307
1.37322
1.37344
1.37346
1.37333
1.37262
1.37249
1.37246
1.37252
1.37172
1.37172
1.37172
1.37173
1.37338
1.37338
1.37338
1.37338
1.37231
1.37231
1.37231
1.37231
1.37293
1.37293
1.37293
1.37293
1.37321
1.37322
1.37323
1.37322
1.37275
1.37274
1.37275
1.37275
1.37462
1.37463
1.37463
1.37463
1.37259
1.3726
1.3726
1.37261
1.3736
1.37378
1.37379
1.37368
1.37369
1.37357
1.37354
1.3736
1.37147
1.37147
1.37147
1.37148
1.3735
1.37351
1.3735
1.3735
1.3723
1.37229
1.3723
1.3723
1.37288
1.37288
1.37288
1.37288
1.37306
1.37306
1.37307
1.37307
1.37263
1.37262
1.37262
1.37263
1.37438
1.3744
1.3744
1.3744
1.37204
1.37205
1.37205
1.37206
1.37455
1.37468
1.37469
1.37462
1.37543
1.37532
1.3753
1.37536
1.37083
1.37082
1.37082
1.37082
1.37339
1.3734
1.3734
1.3734
1.37229
1.37229
1.37229
1.37228
1.3728
1.3728
1.3728
1.3728
1.37289
1.3729
1.3729
1.3729
1.37255
1.37254
1.37254
1.37254
1.37388
1.37391
1.37391
1.3739
1.37118
1.37117
1.37117
1.37118
1.37627
1.37636
1.37637
1.37632
1.37728
1.37723
1.37723
1.37727
1.36983
1.36979
1.36978
1.36978
1.37306
1.37308
1.37309
1.37309
1.37233
1.37232
1.37231
1.37231
1.37273
1.37273
1.37273
1.37273
1.3728
1.37281
1.37281
1.37281
1.37257
1.37256
1.37255
1.37256
1.37327
1.37331
1.37332
1.3733
1.37013
1.37006
1.37005
1.37009
1.37823
1.37828
1.37828
1.37824
1.43062
1.40616
1.38506
1.37082
1.36226
1.35698
1.3535
1.35112
1.34947
1.34827
1.44277
1.40985
1.38472
1.36995
1.36173
1.3567
1.35345
1.35127
1.34979
1.34873
1.44416
1.40765
1.38021
1.36698
1.35918
1.3544
1.35127
1.34918
1.34783
1.34705
1.44079
1.40356
1.37467
1.36381
1.35654
1.3523
1.34947
1.3476
1.34639
1.34567
1.43472
1.39841
1.36965
1.36062
1.35374
1.35004
1.34747
1.34584
1.34478
1.34425
1.42726
1.39425
1.36607
1.35887
1.35229
1.34916
1.34684
1.34543
1.34449
1.34394
1.4169
1.38898
1.36134
1.35596
1.34956
1.347
1.34486
1.34365
1.3428
1.3424
1.40887
1.38676
1.35965
1.35612
1.34984
1.3478
1.34571
1.34458
1.34371
1.34314
1.39781
1.38073
1.35472
1.35329
1.34747
1.34603
1.34401
1.34296
1.34214
1.34158
1.39469
1.38081
1.3554
1.35453
1.34785
1.34574
1.34293
1.34128
1.33998
1.33892
1.37837
1.37562
1.37229
1.36894
1.36572
1.36282
1.36033
1.35825
1.35656
1.35528
1.39592
1.38799
1.38057
1.37422
1.36896
1.36481
1.3616
1.35911
1.35716
1.35569
1.40869
1.39567
1.38452
1.3758
1.36896
1.36388
1.36014
1.35736
1.3553
1.35393
1.41815
1.4006
1.38625
1.37603
1.3683
1.36284
1.35892
1.35607
1.35394
1.3525
1.42428
1.40343
1.38639
1.37525
1.36698
1.36141
1.35744
1.35461
1.35247
1.3511
1.42892
1.40598
1.38675
1.37517
1.36661
1.3611
1.35716
1.35438
1.35227
1.35082
1.43037
1.40633
1.38525
1.3736
1.36484
1.35947
1.35557
1.35286
1.35074
1.34935
1.43256
1.40843
1.38596
1.37461
1.36578
1.36059
1.35667
1.35391
1.35174
1.35014
1.43007
1.40602
1.3832
1.37278
1.36424
1.3593
1.35533
1.35253
1.35032
1.34866
1.43045
1.40703
1.38383
1.37346
1.36427
1.3587
1.35412
1.3508
1.34821
1.34606
1.37732
1.37529
1.37274
1.37016
1.36774
1.36558
1.3637
1.36209
1.36076
1.35971
1.38938
1.38486
1.37965
1.375
1.37116
1.36802
1.36545
1.36333
1.3616
1.36025
1.40016
1.3923
1.38396
1.37709
1.37171
1.36757
1.36434
1.36182
1.35985
1.35848
1.40985
1.3983
1.38702
1.37841
1.37191
1.36707
1.36341
1.36061
1.35845
1.35692
1.41819
1.40281
1.38878
1.37875
1.37137
1.36607
1.36213
1.35919
1.35692
1.35539
1.42616
1.40715
1.39063
1.37954
1.37152
1.36594
1.36186
1.35885
1.35653
1.35489
1.4316
1.40924
1.3905
1.37865
1.37014
1.36442
1.36025
1.35722
1.35485
1.35324
1.43782
1.41273
1.39225
1.38004
1.37122
1.36546
1.36119
1.35807
1.35564
1.35385
1.43884
1.4117
1.39063
1.37879
1.37003
1.36431
1.35991
1.3567
1.3542
1.35234
1.43998
1.41192
1.39054
1.37856
1.36929
1.3631
1.35827
1.35469
1.35193
1.34971
1.37068
1.37021
1.36941
1.3684
1.3673
1.36618
1.3651
1.36412
1.36325
1.36256
1.37864
1.37725
1.37531
1.37322
1.37116
1.36923
1.36748
1.36593
1.3646
1.36351
1.38615
1.38318
1.37941
1.37574
1.37242
1.36954
1.3671
1.36505
1.36338
1.36214
1.39393
1.38901
1.38323
1.37797
1.37345
1.36972
1.36667
1.36421
1.36221
1.36072
1.40131
1.39406
1.38613
1.37937
1.37379
1.36936
1.36585
1.36308
1.36086
1.35928
1.40909
1.39931
1.3892
1.3811
1.37463
1.36968
1.36583
1.36285
1.36049
1.35874
1.41504
1.4026
1.39036
1.3811
1.37387
1.36852
1.36443
1.36131
1.35881
1.35705
1.42227
1.40733
1.39322
1.3831
1.37531
1.36968
1.36537
1.36209
1.3595
1.35756
1.42499
1.40799
1.39289
1.38245
1.37439
1.36856
1.36405
1.36065
1.35797
1.35597
1.42712
1.40855
1.3926
1.38164
1.37309
1.36689
1.36207
1.3584
1.35555
1.35327
1.36907
1.3688
1.36838
1.36785
1.36725
1.36663
1.366
1.36541
1.36489
1.36447
1.3748
1.37417
1.37323
1.37211
1.37091
1.3697
1.36855
1.3675
1.36656
1.36577
1.37967
1.37831
1.37643
1.37438
1.37234
1.37044
1.36871
1.36717
1.36586
1.36486
1.38527
1.38292
1.37983
1.37666
1.37368
1.371
1.36868
1.36668
1.365
1.36369
1.39102
1.38738
1.38286
1.37849
1.37455
1.37116
1.3683
1.36591
1.36392
1.36246
1.39756
1.39239
1.3863
1.38074
1.3759
1.37189
1.36859
1.36589
1.36367
1.36199
1.40276
1.39582
1.38806
1.38134
1.37569
1.37114
1.36746
1.36452
1.36211
1.36036
1.40965
1.40089
1.39154
1.38384
1.37748
1.37248
1.36849
1.36532
1.36278
1.36083
1.41291
1.40256
1.39211
1.38371
1.37683
1.37148
1.36722
1.3639
1.36123
1.35922
1.41505
1.40317
1.39171
1.38265
1.37529
1.3696
1.36508
1.36154
1.35876
1.35651
1.36821
1.36808
1.36788
1.36762
1.36732
1.36698
1.36664
1.36631
1.36601
1.3658
1.37257
1.3723
1.37183
1.37124
1.37057
1.36986
1.36915
1.36848
1.36786
1.36732
1.37592
1.37532
1.37439
1.37326
1.37205
1.37082
1.36965
1.36856
1.3676
1.36685
1.37986
1.37876
1.37714
1.3753
1.3734
1.37157
1.36987
1.36835
1.36702
1.36595
1.38418
1.38239
1.3799
1.37719
1.37454
1.37207
1.36986
1.36793
1.36626
1.365
1.38941
1.38675
1.38322
1.3796
1.37617
1.3731
1.37041
1.36812
1.36619
1.36467
1.39354
1.3898
1.38511
1.38051
1.37632
1.37267
1.36957
1.36697
1.36479
1.36316
1.39959
1.39467
1.38878
1.38327
1.37836
1.37421
1.37073
1.36786
1.36551
1.36366
1.4027
1.39666
1.38975
1.38343
1.37791
1.37332
1.36954
1.36649
1.36399
1.36206
1.4042
1.39701
1.38922
1.38226
1.37629
1.37139
1.36737
1.36413
1.36153
1.3594
1.36807
1.36799
1.36788
1.36775
1.36759
1.36741
1.36722
1.36704
1.36688
1.36679
1.37151
1.37136
1.37112
1.37079
1.37041
1.36999
1.36957
1.36915
1.36876
1.36842
1.374
1.37369
1.37318
1.37253
1.37179
1.37101
1.37024
1.3695
1.36883
1.36831
1.37676
1.3762
1.37531
1.3742
1.37299
1.37176
1.37056
1.36946
1.36846
1.36764
1.37998
1.37906
1.37764
1.37596
1.37419
1.37244
1.3708
1.36931
1.36799
1.36697
1.38408
1.38268
1.38061
1.37828
1.3759
1.37362
1.37154
1.3697
1.3681
1.3668
1.38719
1.38515
1.38232
1.37925
1.37623
1.37343
1.37093
1.36876
1.36688
1.36545
1.3923
1.38955
1.38587
1.38205
1.37839
1.3751
1.37222
1.36976
1.36769
1.36603
1.39484
1.39131
1.38681
1.38226
1.37802
1.37431
1.37112
1.36846
1.36622
1.36447
1.39557
1.39129
1.38614
1.38106
1.37643
1.37242
1.36901
1.36618
1.36385
1.36192
1.36823
1.36819
1.36813
1.36806
1.36797
1.36787
1.36777
1.36768
1.3676
1.36758
1.371
1.37093
1.3708
1.37062
1.37041
1.37017
1.36992
1.36967
1.36943
1.36921
1.37292
1.37275
1.37246
1.37208
1.37163
1.37115
1.37065
1.37017
1.36973
1.36938
1.37487
1.37456
1.37404
1.37337
1.3726
1.37179
1.37098
1.3702
1.36949
1.36888
1.37732
1.37681
1.37597
1.37491
1.37374
1.37253
1.37135
1.37026
1.36926
1.36847
1.38055
1.37978
1.37853
1.37702
1.37538
1.37375
1.3722
1.37078
1.36951
1.36846
1.38282
1.38168
1.37994
1.37789
1.37576
1.37368
1.37174
1.37001
1.36847
1.36727
1.38707
1.3855
1.38319
1.38058
1.37793
1.37542
1.37314
1.37113
1.36939
1.36796
1.38884
1.38676
1.38386
1.38069
1.37756
1.37468
1.37211
1.36989
1.36798
1.36646
1.38894
1.38642
1.38307
1.37949
1.37603
1.37289
1.37012
1.36775
1.36575
1.36406
1.36857
1.36854
1.3685
1.36847
1.36842
1.36837
1.36831
1.36826
1.36823
1.36825
1.37085
1.37082
1.37074
1.37065
1.37053
1.37039
1.37025
1.3701
1.36996
1.36982
1.37237
1.37228
1.37211
1.37188
1.37161
1.37131
1.371
1.37069
1.37041
1.3702
1.3737
1.37352
1.37321
1.37279
1.37231
1.37178
1.37125
1.37072
1.37023
1.3698
1.37559
1.37528
1.37477
1.37409
1.37332
1.37251
1.37169
1.37091
1.37018
1.3696
1.37814
1.37769
1.37691
1.37593
1.37483
1.37368
1.37256
1.37151
1.37055
1.36973
1.37974
1.37907
1.37797
1.37661
1.37513
1.37363
1.37219
1.37086
1.36965
1.36869
1.38328
1.38235
1.38089
1.37912
1.37725
1.37539
1.37365
1.37207
1.37068
1.3695
1.38431
1.38308
1.38122
1.37906
1.37682
1.37466
1.37266
1.37088
1.36931
1.36804
1.38399
1.38248
1.38033
1.37787