/*--------------------------------*- C++ -*----------------------------------*\
| =========                 |                                                 |
| \\      /  F ield         | foam-extend: Open Source CFD                    |
|  \\    /   O peration     | Version:     4.0                                |
|   \\  /    A nd           | Web:         http://www.foam-extend.org         |
|    \\/     M anipulation  |                                                 |
\*---------------------------------------------------------------------------*/
FoamFile
{
    version     2.0;
    format      ascii;
    class       volScalarField;
    location    "1200";
    object      T;
}
// * * * * * * * * * * * * * * * * * * * * * * * * * * * * * * * * * * * * * //

dimensions      [0 0 0 1 0 0 0];

internalField   nonuniform List<scalar> 
34480
(
278.862
278.751
278.669
278.614
278.58
278.569
278.583
278.666
278.935
278.899
278.307
278.189
278.094
278.027
277.992
277.995
278.019
278.062
278.278
277.833
278.191
278.059
277.953
277.878
277.839
277.826
277.806
277.752
277.878
277.1
278.23
278.077
277.947
277.844
277.771
277.706
277.621
277.461
277.465
276.337
278.241
278.063
277.905
277.769
277.654
277.533
277.378
277.106
276.954
275.469
278.309
278.107
277.925
277.763
277.613
277.441
277.219
276.833
276.494
274.625
278.334
278.107
277.901
277.713
277.532
277.316
277.031
276.531
275.981
273.724
278.405
278.155
277.936
277.74
277.55
277.319
277
276.416
275.657
272.981
278.459
278.189
277.953
277.737
277.523
277.264
276.903
276.237
275.268
272.237
279.274
278.992
278.786
278.642
278.535
278.413
278.203
277.675
276.667
273.204
279.39
279.297
279.26
279.275
279.347
279.493
279.752
280.207
280.874
281.742
278.737
278.653
278.619
278.636
278.715
278.881
279.172
279.668
280.46
281.48
278.528
278.449
278.419
278.439
278.524
278.695
278.983
279.472
280.322
281.436
278.473
278.393
278.359
278.37
278.442
278.591
278.855
279.318
280.196
281.357
278.398
278.313
278.27
278.267
278.32
278.441
278.672
279.096
279.974
281.149
278.387
278.299
278.251
278.239
278.277
278.37
278.566
278.942
279.791
280.942
278.344
278.249
278.194
278.172
278.195
278.265
278.427
278.75
279.546
280.655
278.361
278.263
278.211
278.194
278.22
278.285
278.428
278.705
279.427
280.445
278.375
278.27
278.211
278.187
278.201
278.25
278.368
278.598
279.24
280.178
279.138
279.046
279.023
279.064
279.166
279.318
279.536
279.84
280.433
281.096
279.859
279.761
279.725
279.744
279.822
279.967
280.197
280.542
281.04
281.663
279.201
279.103
279.067
279.09
279.18
279.354
279.643
280.099
280.806
281.735
278.978
278.879
278.843
278.867
278.962
279.149
279.465
279.98
280.851
282.064
278.892
278.789
278.748
278.765
278.852
279.03
279.348
279.891
280.896
282.36
278.788
278.679
278.63
278.635
278.708
278.867
279.17
279.716
280.818
282.487
278.751
278.638
278.584
278.58
278.64
278.778
279.06
279.59
280.75
282.571
278.686
278.566
278.506
278.493
278.539
278.657
278.914
279.415
280.599
282.534
278.684
278.562
278.503
278.493
278.541
278.652
278.892
279.36
280.533
282.527
278.68
278.555
278.491
278.475
278.515
278.614
278.831
279.258
280.394
282.467
279.411
279.298
279.261
279.294
279.397
279.571
279.855
280.321
281.402
283.394
280.195
280.109
280.079
280.098
280.166
280.286
280.464
280.705
281.01
281.348
279.565
279.472
279.44
279.465
279.553
279.712
279.958
280.311
280.796
281.345
279.353
279.252
279.217
279.245
279.343
279.525
279.818
280.259
280.915
281.708
279.257
279.147
279.106
279.129
279.227
279.416
279.735
280.239
281.058
282.107
279.137
279.018
278.97
278.985
279.075
279.258
279.584
280.127
281.086
282.376
279.083
278.958
278.905
278.912
278.994
279.167
279.49
280.05
281.121
282.62
279.001
278.87
278.811
278.81
278.881
279.04
279.353
279.915
281.067
282.746
278.982
278.85
278.791
278.792
278.865
279.02
279.324
279.876
281.072
282.888
278.965
278.83
278.768
278.764
278.83
278.977
279.27
279.802
281.002
282.967
279.664
279.539
279.496
279.527
279.637
279.834
280.171
280.731
281.903
283.898
280.422
280.355
280.332
280.347
280.397
280.483
280.602
280.751
280.92
281.087
279.84
279.762
279.734
279.756
279.83
279.957
280.144
280.389
280.69
280.987
279.658
279.565
279.533
279.559
279.648
279.807
280.049
280.387
280.835
281.305
279.567
279.46
279.421
279.446
279.542
279.72
280.005
280.422
281.026
281.701
279.445
279.326
279.28
279.299
279.395
279.58
279.891
280.369
281.12
282.01
279.384
279.256
279.204
279.218
279.311
279.497
279.822
280.343
281.225
282.323
279.293
279.158
279.1
279.108
279.194
279.375
279.705
280.252
281.245
282.538
279.265
279.126
279.067
279.076
279.165
279.346
279.679
280.238
281.309
282.769
279.236
279.096
279.035
279.04
279.124
279.3
279.63
280.192
281.304
282.945
279.902
279.772
279.723
279.753
279.867
280.077
280.436
281.023
282.135
283.872
280.573
280.523
280.507
280.517
280.551
280.607
280.682
280.77
280.863
280.951
280.04
279.98
279.959
279.976
280.032
280.126
280.257
280.419
280.599
280.76
279.896
279.817
279.789
279.812
279.886
280.014
280.2
280.442
280.732
281.006
279.82
279.724
279.689
279.712
279.799
279.954
280.189
280.511
280.929
281.349
279.708
279.596
279.554
279.575
279.667
279.839
280.112
280.503
281.053
281.637
279.648
279.524
279.475
279.494
279.588
279.771
280.072
280.519
281.196
281.953
279.556
279.422
279.368
279.381
279.474
279.66
279.978
280.469
281.262
282.192
279.522
279.384
279.327
279.342
279.439
279.629
279.96
280.481
281.365
282.457
279.486
279.346
279.288
279.3
279.394
279.583
279.919
280.459
281.404
282.672
280.121
279.99
279.939
279.968
280.082
280.295
280.652
281.217
282.183
283.565
280.671
280.635
280.624
280.63
280.651
280.686
280.731
280.781
280.832
280.882
280.184
280.141
280.126
280.138
280.177
280.243
280.33
280.432
280.538
280.627
280.076
280.014
279.992
280.009
280.067
280.164
280.299
280.465
280.648
280.808
280.021
279.939
279.909
279.93
280.002
280.129
280.313
280.549
280.829
281.087
279.925
279.826
279.788
279.809
279.891
280.04
280.266
280.57
280.956
281.334
279.873
279.759
279.715
279.735
279.824
279.99
280.251
280.616
281.113
281.623
279.785
279.659
279.609
279.626
279.718
279.895
280.182
280.599
281.202
281.852
279.75
279.619
279.567
279.585
279.681
279.868
280.176
280.632
281.325
282.113
279.711
279.576
279.522
279.538
279.634
279.823
280.142
280.628
281.388
282.327
280.316
280.189
280.139
280.166
280.277
280.483
280.819
281.329
282.122
283.166
280.735
280.708
280.701
280.705
280.717
280.738
280.764
280.792
280.82
280.852
280.288
280.258
280.248
280.256
280.282
280.325
280.381
280.444
280.506
280.556
280.211
280.165
280.149
280.161
280.203
280.273
280.367
280.477
280.591
280.685
280.176
280.111
280.087
280.103
280.16
280.258
280.395
280.562
280.746
280.905
280.099
280.016
279.984
280.002
280.072
280.194
280.372
280.599
280.864
281.106
280.058
279.96
279.921
279.94
280.019
280.163
280.378
280.663
281.017
281.355
279.978
279.866
279.822
279.839
279.924
280.083
280.329
280.667
281.111
281.557
279.949
279.829
279.781
279.8
279.892
280.063
280.334
280.715
281.24
281.795
279.907
279.783
279.733
279.751
279.845
280.022
280.308
280.722
281.311
281.985
280.484
280.366
280.319
280.344
280.448
280.638
280.939
281.378
282.002
282.759
280.777
280.757
280.752
280.753
280.761
280.773
280.787
280.803
280.819
280.842
280.363
280.343
280.336
280.341
280.358
280.386
280.42
280.458
280.495
280.523
280.312
280.28
280.268
280.277
280.306
280.354
280.417
280.488
280.558
280.614
280.293
280.244
280.225
280.237
280.281
280.353
280.451
280.566
280.685
280.783
280.236
280.169
280.144
280.158
280.214
280.31
280.444
280.608
280.787
280.941
280.208
280.126
280.094
280.11
280.177
280.295
280.465
280.68
280.927
281.149
280.138
280.041
280.003
280.02
280.094
280.23
280.431
280.695
281.014
281.316
280.116
280.011
279.97
279.988
280.07
280.22
280.448
280.753
281.14
281.524
280.074
279.963
279.92
279.938
280.023
280.181
280.427
280.765
281.208
281.679
280.624
280.518
280.475
280.499
280.591
280.76
281.019
281.381
281.857
282.388
280.805
280.788
280.784
280.785
280.79
280.796
280.804
280.813
280.823
280.841
280.418
280.406
280.401
280.404
280.415
280.432
280.453
280.475
280.497
280.514
280.388
280.366
280.358
280.364
280.384
280.416
280.457
280.502
280.544
280.578
280.381
280.345
280.331
280.34
280.371
280.423
280.491
280.568
280.644
280.705
280.341
280.29
280.271
280.282
280.325
280.397
280.495
280.61
280.729
280.827
280.326
280.261
280.235
280.249
280.302
280.395
280.524
280.681
280.851
280.996
280.266
280.186
280.155
280.169
280.231
280.342
280.5
280.7
280.925
281.127
280.254
280.166
280.131
280.148
280.218
280.343
280.527
280.764
281.042
281.303
280.212
280.117
280.08
280.096
280.171
280.306
280.508
280.775
281.098
281.421
280.735
280.644
280.607
280.627
280.708
280.851
281.066
281.353
281.705
282.069
280.822
280.808
280.805
280.806
280.808
280.812
280.816
280.821
280.827
280.842
280.46
280.453
280.45
280.452
280.458
280.468
280.481
280.494
280.507
280.517
280.447
280.432
280.427
280.431
280.444
280.464
280.49
280.518
280.544
280.564
280.446
280.421
280.411
280.417
280.439
280.474
280.52
280.571
280.62
280.657
280.422
280.384
280.37
280.378
280.41
280.462
280.531
280.61
280.688
280.75
280.417
280.367
280.347
280.358
280.399
280.469
280.565
280.676
280.791
280.885
280.366
280.302
280.278
280.289
280.339
280.426
280.546
280.693
280.849
280.982
280.366
280.294
280.266
280.28
280.338
280.439
280.582
280.759
280.955
281.13
280.323
280.244
280.213
280.228
280.29
280.401
280.561
280.764
280.996
281.213
280.819
280.744
280.713
280.73
280.797
280.915
281.086
281.306
281.561
281.803
280.832
280.819
280.817
280.817
280.819
280.821
280.823
280.826
280.83
280.843
280.493
280.488
280.486
280.487
280.491
280.497
280.504
280.512
280.52
280.527
280.493
280.484
280.48
280.483
280.491
280.504
280.52
280.537
280.552
280.564
280.494
280.477
280.47
280.474
280.489
280.512
280.543
280.576
280.606
280.629
280.483
280.456
280.446
280.452
280.474
280.511
280.558
280.611
280.662
280.7
280.487
280.45
280.435
280.443
280.474
280.525
280.593
280.67
280.747
280.807
280.442
280.393
280.374
280.383
280.422
280.487
280.576
280.68
280.787
280.874
280.454
280.399
280.377
280.388
280.434
280.512
280.619
280.748
280.884
280.999
280.408
280.346
280.321
280.333
280.383
280.47
280.593
280.743
280.905
281.049
280.878
280.819
280.794
280.808
280.861
280.955
281.086
281.25
281.429
281.588
280.836
280.824
280.823
280.823
280.823
280.824
280.826
280.828
280.83
280.842
280.518
280.515
280.514
280.514
280.517
280.52
280.525
280.529
280.534
280.539
280.53
280.525
280.523
280.524
280.529
280.537
280.547
280.557
280.566
280.573
280.529
280.518
280.513
280.516
280.525
280.541
280.56
280.581
280.6
280.614
280.529
280.511
280.504
280.508
280.523
280.548
280.58
280.615
280.647
280.671
280.539
280.512
280.502
280.507
280.529
280.566
280.613
280.665
280.716
280.754
280.499
280.463
280.448
280.455
280.484
280.531
280.595
280.668
280.739
280.796
280.524
280.482
280.466
280.475
280.509
280.567
280.646
280.737
280.829
280.903
280.473
280.424
280.405
280.415
280.453
280.519
280.61
280.717
280.829
280.923
280.916
280.871
280.851
280.862
280.903
280.974
281.073
281.19
281.314
281.415
280.835
280.824
280.823
280.823
280.823
280.824
280.825
280.825
280.827
280.838
280.537
280.535
280.534
280.534
280.536
280.538
280.541
280.543
280.546
280.55
280.562
280.559
280.558
280.559
280.562
280.567
280.572
280.578
280.583
280.587
280.555
280.547
280.544
280.546
280.552
280.562
280.574
280.587
280.599
280.608
280.564
280.552
280.547
280.55
280.56
280.577
280.597
280.62
280.64
280.654
280.577
280.559
280.551
280.555
280.57
280.595
280.627
280.662
280.695
280.718
280.54
280.514
280.504
280.509
280.529
280.563
280.607
280.656
280.703
280.739
280.579
280.549
280.536
280.543
280.568
280.61
280.666
280.728
280.789
280.837
280.518
280.482
280.468
280.475
280.504
280.552
280.617
280.692
280.767
280.827
280.934
280.902
280.887
280.895
280.926
280.978
281.049
281.131
281.215
281.278
280.829
280.82
280.819
280.819
280.819
280.819
280.82
280.82
280.822
280.832
280.55
280.549
280.548
280.548
280.549
280.55
280.552
280.554
280.556
280.558
280.59
280.589
280.588
280.589
280.591
280.593
280.597
280.6
280.602
280.604
280.573
280.568
280.566
280.567
280.571
280.577
280.584
280.593
280.6
280.605
280.59
280.582
280.579
280.581
280.588
280.598
280.612
280.626
280.638
280.646
280.604
280.592
280.587
280.59
280.6
280.617
280.638
280.66
280.681
280.695
280.569
280.551
280.544
280.547
280.561
280.584
280.614
280.646
280.677
280.7
280.622
280.601
280.593
280.597
280.615
280.644
280.682
280.724
280.764
280.793
280.548
280.522
280.512
280.517
280.537
280.572
280.616
280.667
280.717
280.755
280.939
280.916
280.905
280.911
280.933
280.971
281.02
281.076
281.131
281.168
280.822
280.814
280.813
280.813
280.813
280.813
280.814
280.814
280.815
280.824
280.557
280.556
280.555
280.555
280.556
280.556
280.558
280.559
280.561
280.563
280.616
280.615
280.615
280.616
280.617
280.618
280.62
280.622
280.623
280.623
280.585
280.582
280.58
280.581
280.583
280.587
280.592
280.597
280.601
280.604
280.609
280.604
280.602
280.603
280.607
280.614
280.622
280.631
280.638
280.643
280.623
280.615
280.611
280.613
280.62
280.63
280.644
280.658
280.671
280.68
280.589
280.577
280.572
280.574
280.584
280.599
280.618
280.639
280.658
280.672
280.657
280.643
280.637
280.64
280.652
280.672
280.697
280.724
280.75
280.768
280.565
280.546
280.539
280.543
280.557
280.58
280.61
280.644
280.675
280.7
280.934
280.919
280.911
280.915
280.931
280.956
280.99
281.026
281.062
281.084
280.82
280.812
280.812
280.812
280.812
280.812
280.812
280.812
280.813
280.82
280.556
280.554
280.554
280.554
280.554
280.555
280.556
280.557
280.558
280.56
280.639
280.639
280.639
280.639
280.64
280.641
280.642
280.642
280.643
280.642
280.591
280.59
280.589
280.589
280.59
280.593
280.596
280.599
280.601
280.603
280.621
280.618
280.617
280.617
280.62
280.624
280.629
280.634
280.639
280.641
280.633
280.627
280.625
280.626
280.63
280.637
280.646
280.655
280.663
280.668
280.601
280.594
280.591
280.592
280.598
280.608
280.62
280.633
280.644
280.653
280.683
280.674
280.67
280.672
280.68
280.693
280.709
280.727
280.743
280.753
280.568
280.555
280.551
280.553
280.562
280.578
280.597
280.619
280.638
280.654
280.928
280.919
280.914
280.916
280.927
280.944
280.966
280.989
281.012
281.024
280.835
280.829
280.829
280.829
280.829
280.829
280.829
280.829
280.829
280.834
280.542
280.541
280.54
280.54
280.54
280.541
280.541
280.542
280.544
280.546
280.656
280.657
280.656
280.657
280.657
280.657
280.658
280.659
280.659
280.658
280.594
280.593
280.593
280.593
280.594
280.595
280.597
280.599
280.6
280.6
280.626
280.624
280.623
280.623
280.625
280.627
280.631
280.634
280.637
280.638
280.635
280.631
280.63
280.63
280.633
280.637
280.642
280.648
280.653
280.657
280.607
280.602
280.601
280.602
280.606
280.612
280.619
280.627
280.633
280.638
280.696
280.69
280.687
280.688
280.693
280.701
280.712
280.723
280.735
280.741
280.555
280.547
280.544
280.545
280.552
280.561
280.574
280.587
280.598
280.609
280.936
280.93
280.926
280.928
280.935
280.946
280.96
280.975
280.99
280.996
280.886
280.882
280.882
280.882
280.882
280.882
280.882
280.882
280.882
280.886
280.507
280.506
280.507
280.507
280.507
280.508
280.508
280.508
280.508
280.511
280.662
280.661
280.66
280.66
280.66
280.66
280.661
280.662
280.663
280.663
280.594
280.594
280.595
280.595
280.595
280.596
280.597
280.598
280.598
280.597
280.625
280.624
280.623
280.623
280.624
280.626
280.628
280.63
280.632
280.633
280.63
280.628
280.627
280.627
280.629
280.632
280.635
280.639
280.642
280.644
280.607
280.605
280.604
280.605
280.607
280.611
280.615
280.62
280.623
280.626
280.686
280.681
280.679
280.68
280.683
280.688
280.696
280.703
280.711
280.717
280.518
280.513
280.512
280.513
280.517
280.523
280.531
280.539
280.545
280.551
280.973
280.97
280.967
280.968
280.972
280.98
280.989
280.999
281.009
281.012
280.968
280.965
280.964
280.964
280.964
280.964
280.964
280.965
280.966
280.97
280.45
280.451
280.453
280.454
280.455
280.455
280.454
280.453
280.451
280.449
280.65
280.648
280.647
280.646
280.646
280.646
280.647
280.648
280.651
280.653
280.595
280.596
280.596
280.596
280.597
280.597
280.598
280.598
280.597
280.596
280.622
280.621
280.62
280.62
280.621
280.622
280.623
280.625
280.626
280.627
280.624
280.623
280.622
280.622
280.623
280.625
280.628
280.63
280.633
280.634
280.606
280.604
280.604
280.604
280.606
280.609
280.612
280.615
280.618
280.618
280.654
280.65
280.648
280.648
280.651
280.655
280.66
280.666
280.672
280.679
280.458
280.456
280.455
280.457
280.46
280.464
280.47
280.475
280.478
280.478
281.033
281.029
281.027
281.028
281.032
281.037
281.044
281.051
281.059
281.061
289.497
291.254
291.519
289.934
290.662
292.79
293.2
291.544
292.317
294.941
295.477
293.509
293.592
296.657
297.326
295.148
294.531
298.007
298.817
296.498
295.274
299.129
300.099
297.914
295.817
300.033
301.194
299.333
296.287
300.826
302.194
300.709
296.501
301.341
302.922
301.86
297.059
302.089
303.937
303.459
286.19
286.736
286.718
286.195
287.486
288.128
288.068
287.416
289.085
289.889
289.778
288.922
290.52
291.47
291.3
290.251
291.692
292.782
292.547
291.314
292.709
293.938
293.68
292.288
293.513
294.872
294.625
293.099
294.207
295.671
295.447
293.81
294.643
296.172
295.975
294.273
295.427
296.929
296.842
295.194
282.286
282.42
282.451
282.383
283.016
283.234
283.275
283.139
284.179
284.517
284.562
284.313
285.442
285.9
285.941
285.562
286.6
287.174
287.202
286.68
287.731
288.418
288.431
287.772
288.719
289.514
289.515
288.731
289.655
290.543
290.534
289.645
290.411
291.34
291.33
290.39
291.653
292.51
292.539
291.676
281.518
281.584
281.605
281.584
281.778
281.864
281.894
281.872
282.485
282.633
282.676
282.623
283.358
283.579
283.632
283.531
284.195
284.495
284.552
284.389
285.082
285.462
285.521
285.283
285.897
286.358
286.415
286.096
286.731
287.264
287.316
286.916
287.483
288.049
288.097
287.642
288.824
289.316
289.377
288.965
281.086
281.122
281.134
281.123
281.127
281.156
281.171
281.17
281.576
281.633
281.659
281.655
282.184
282.283
282.322
282.306
282.777
282.926
282.977
282.94
283.441
283.647
283.709
283.639
284.064
284.329
284.398
284.288
284.737
285.058
285.129
284.971
285.37
285.72
285.79
285.593
286.62
286.898
286.974
286.813
280.915
280.944
280.953
280.942
280.821
280.834
280.841
280.842
281.125
281.151
281.165
281.166
281.564
281.611
281.634
281.634
281.989
282.064
282.098
282.094
282.486
282.596
282.642
282.63
282.95
283.099
283.156
283.129
283.471
283.659
283.723
283.675
283.97
284.18
284.245
284.175
285.089
285.231
285.3
285.269
280.832
280.859
280.866
280.855
280.654
280.661
280.664
280.664
280.864
280.877
280.884
280.885
281.192
281.215
281.228
281.229
281.507
281.546
281.566
281.569
281.891
281.949
281.979
281.981
282.241
282.324
282.363
282.362
282.646
282.754
282.801
282.792
283.022
283.146
283.196
283.177
284.016
284.074
284.126
284.152
280.798
280.823
280.83
280.819
280.571
280.575
280.576
280.576
280.716
280.722
280.726
280.726
280.961
280.973
280.98
280.981
281.198
281.219
281.231
281.233
281.5
281.532
281.55
281.553
281.768
281.814
281.839
281.843
282.085
282.147
282.178
282.181
282.361
282.434
282.469
282.468
283.253
283.258
283.293
283.339
280.786
280.811
280.818
280.806
280.533
280.535
280.536
280.536
280.632
280.636
280.638
280.638
280.815
280.822
280.826
280.827
280.994
281.005
281.012
281.013
281.231
281.249
281.26
281.262
281.435
281.462
281.477
281.481
281.686
281.722
281.742
281.746
281.888
281.931
281.954
281.957
282.692
282.666
282.688
282.74
280.784
280.809
280.816
280.804
280.52
280.522
280.523
280.522
280.589
280.592
280.593
280.593
280.725
280.729
280.731
280.731
280.858
280.865
280.869
280.87
281.044
281.055
281.061
281.063
281.197
281.213
281.222
281.225
281.397
281.418
281.43
281.433
281.542
281.568
281.582
281.586
282.271
282.228
282.24
282.291
280.786
280.811
280.818
280.806
280.522
280.524
280.524
280.524
280.572
280.574
280.574
280.574
280.67
280.673
280.674
280.674
280.769
280.774
280.776
280.776
280.915
280.921
280.925
280.926
281.025
281.035
281.04
281.042
281.186
281.199
281.206
281.208
281.286
281.301
281.31
281.313
281.948
281.896
281.903
281.951
280.788
280.814
280.82
280.808
280.531
280.532
280.532
280.532
280.57
280.571
280.571
280.571
280.638
280.64
280.641
280.64
280.713
280.716
280.717
280.717
280.826
280.83
280.832
280.832
280.901
280.907
280.911
280.912
281.033
281.041
281.045
281.047
281.095
281.104
281.11
281.112
281.698
281.643
281.646
281.69
280.788
280.814
280.821
280.809
280.542
280.543
280.543
280.543
280.577
280.578
280.578
280.577
280.621
280.622
280.622
280.622
280.678
280.68
280.681
280.681
280.765
280.768
280.769
280.77
280.813
280.817
280.819
280.819
280.924
280.929
280.932
280.933
280.953
280.959
280.962
280.964
281.503
281.447
281.448
281.49
280.786
280.812
280.818
280.806
280.553
280.554
280.554
280.554
280.59
280.59
280.59
280.59
280.612
280.613
280.613
280.613
280.659
280.66
280.66
280.66
280.726
280.727
280.728
280.728
280.75
280.753
280.754
280.754
280.849
280.852
280.854
280.855
280.848
280.852
280.854
280.855
281.349
281.296
281.296
281.334
280.781
280.807
280.814
280.801
280.561
280.562
280.562
280.562
280.605
280.606
280.605
280.605
280.608
280.608
280.608
280.608
280.649
280.649
280.649
280.649
280.7
280.701
280.701
280.701
280.707
280.708
280.709
280.709
280.801
280.802
280.803
280.804
280.77
280.773
280.774
280.774
281.227
281.178
281.178
281.212
280.776
280.802
280.808
280.796
280.565
280.566
280.566
280.566
280.623
280.623
280.623
280.622
280.605
280.606
280.606
280.606
280.644
280.644
280.644
280.644
280.682
280.683
280.683
280.683
280.676
280.677
280.677
280.678
280.772
280.772
280.773
280.774
280.711
280.713
280.714
280.714
281.132
281.088
281.088
281.117
280.776
280.802
280.807
280.795
280.562
280.563
280.563
280.564
280.641
280.641
280.641
280.64
280.603
280.603
280.603
280.603
280.641
280.641
280.641
280.641
280.669
280.67
280.67
280.67
280.655
280.655
280.655
280.655
280.755
280.756
280.757
280.757
280.663
280.665
280.665
280.665
281.061
281.025
281.024
281.048
280.795
280.82
280.825
280.812
280.548
280.549
280.549
280.55
280.656
280.656
280.656
280.656
280.599
280.599
280.599
280.599
280.637
280.637
280.637
280.637
280.657
280.657
280.657
280.658
280.638
280.638
280.638
280.638
280.743
280.744
280.744
280.744
280.617
280.617
280.618
280.617
281.023
280.995
280.995
281.013
280.854
280.876
280.879
280.867
280.513
280.514
280.514
280.514
280.662
280.662
280.662
280.663
280.595
280.595
280.595
280.595
280.632
280.632
280.632
280.632
280.645
280.645
280.645
280.645
280.624
280.624
280.624
280.624
280.722
280.723
280.723
280.724
280.556
280.557
280.557
280.556
281.031
281.014
281.014
281.026
280.951
280.965
280.966
280.959
280.449
280.449
280.449
280.449
280.655
280.656
280.656
280.657
280.593
280.593
280.592
280.592
280.627
280.627
280.627
280.628
280.635
280.635
280.635
280.636
280.616
280.615
280.615
280.615
280.688
280.691
280.691
280.691
280.474
280.473
280.472
280.472
281.078
281.074
281.074
281.077
282.228
280.932
280.39
280.043
279.748
279.507
279.315
279.163
279.041
278.937
282.377
281.14
280.306
279.781
279.364
279.056
278.828
278.657
278.527
278.422
282.947
281.643
280.513
279.873
279.372
279.025
278.77
278.578
278.434
278.32
283.537
282.173
280.775
280.072
279.506
279.135
278.861
278.656
278.5
278.374
284.008
282.622
280.979
280.226
279.602
279.212
278.919
278.702
278.536
278.402
284.552
283.108
281.244
280.455
279.772
279.365
279.052
278.821
278.64
278.489
285.029
283.502
281.439
280.629
279.89
279.47
279.137
278.891
278.697
278.536
285.591
283.988
281.739
280.913
280.116
279.679
279.317
279.047
278.825
278.633
286.036
284.376
281.948
281.146
280.314
279.872
279.474
279.176
278.925
278.708
287.766
286.105
283.521
282.665
281.707
281.14
280.618
280.216
279.883
279.59
284.016
282.71
281.724
281.012
280.52
280.175
279.924
279.736
279.591
279.47
284.465
282.681
281.352
280.493
279.94
279.562
279.293
279.097
278.953
278.847
285.058
282.867
281.282
280.352
279.758
279.36
279.08
278.878
278.735
278.632
285.542
283.05
281.272
280.32
279.699
279.296
279.014
278.815
278.674
278.574
285.805
283.102
281.195
280.237
279.595
279.195
278.917
278.724
278.589
278.495
286
283.168
281.169
280.224
279.567
279.174
278.9
278.713
278.581
278.486
286.042
283.147
281.077
280.162
279.493
279.114
278.845
278.664
278.536
278.444
286.096
283.202
281.078
280.206
279.526
279.162
278.891
278.709
278.574
278.471
286.052
283.189
281.017
280.225
279.56
279.225
278.949
278.758
278.612
278.497
286.959
284.248
282.08
281.339
280.625
280.234
279.888
279.643
279.451
279.307
282.149
281.77
281.401
281.072
280.79
280.554
280.357
280.194
280.057
279.939
282.612
281.931
281.313
280.802
280.389
280.061
279.804
279.603
279.446
279.327
283.382
282.367
281.5
280.833
280.316
279.924
279.626
279.401
279.231
279.107
284.147
282.81
281.711
280.915
280.32
279.886
279.565
279.327
279.152
279.024
284.718
283.098
281.798
280.906
280.253
279.793
279.462
279.22
279.044
278.918
285.223
283.366
281.896
280.935
280.24
279.767
279.43
279.188
279.012
278.884
285.568
283.516
281.901
280.897
280.173
279.697
279.36
279.121
278.946
278.819
285.888
283.692
281.958
280.936
280.193
279.721
279.382
279.141
278.961
278.826
286.09
283.776
281.943
280.942
280.206
279.753
279.411
279.165
278.976
278.832
287.076
284.758
282.887
281.909
281.143
280.654
280.267
279.983
279.764
279.604
281.542
281.395
281.218
281.038
280.868
280.713
280.576
280.456
280.349
280.253
281.75
281.461
281.131
280.814
280.534
280.294
280.093
279.926
279.791
279.683
282.377
281.892
281.382
280.927
280.543
280.227
279.972
279.768
279.607
279.485
283.106
282.39
281.684
281.093
280.614
280.237
279.941
279.71
279.532
279.399
283.73
282.771
281.873
281.161
280.604
280.18
279.856
279.609
279.421
279.283
284.343
283.144
282.066
281.253
280.632
280.173
279.83
279.573
279.379
279.235
284.83
283.403
282.161
281.266
280.596
280.115
279.76
279.498
279.3
279.155
285.301
283.672
282.285
281.332
280.626
280.133
279.77
279.502
279.298
279.145
285.667
283.847
282.336
281.36
280.642
280.152
279.782
279.507
279.296
279.136
286.712
284.789
283.218
282.235
281.488
280.97
280.569
280.269
280.038
279.871
281.132
281.086
281.015
280.931
280.843
280.756
280.673
280.596
280.523
280.452
281.143
281.028
280.873
280.705
280.54
280.386
280.247
280.125
280.022
279.937
281.595
281.387
281.123
280.854
280.601
280.376
280.181
280.018
279.884
279.777
282.185
281.847
281.449
281.066
280.725
280.433
280.189
279.99
279.829
279.704
282.727
282.234
281.689
281.194
280.769
280.419
280.136
279.909
279.73
279.594
283.304
282.639
281.942
281.341
280.843
280.445
280.13
279.883
279.69
279.543
283.796
282.951
282.105
281.409
280.847
280.412
280.074
279.813
279.611
279.458
284.295
283.273
282.287
281.513
280.901
280.439
280.084
279.812
279.599
279.438
284.71
283.507
282.395
281.57
280.928
280.453
280.086
279.805
279.586
279.417
285.746
284.421
283.238
282.38
281.708
281.208
280.818
280.518
280.285
280.116
280.958
280.94
280.908
280.867
280.821
280.772
280.724
280.677
280.629
280.579
280.831
280.778
280.701
280.611
280.515
280.42
280.33
280.247
280.174
280.112
281.144
281.046
280.907
280.75
280.591
280.44
280.303
280.182
280.079
279.993
281.593
281.428
281.205
280.967
280.737
280.526
280.341
280.182
280.049
279.941
282.022
281.768
281.446
281.119
280.815
280.548
280.319
280.127
279.97
279.846
282.509
282.149
281.717
281.299
280.924
280.604
280.337
280.118
279.941
279.802
282.942
282.46
281.91
281.403
280.963
280.598
280.3
280.06
279.868
279.719
283.402
282.79
282.123
281.537
281.04
280.64
280.317
280.06
279.855
279.695
283.793
283.039
282.264
281.616
281.08
280.656
280.316
280.048
279.834
279.668
284.775
283.917
283.072
282.381
281.812
281.364
281.005
280.721
280.496
280.333
280.873
280.867
280.853
280.832
280.808
280.782
280.754
280.726
280.696
280.66
280.66
280.634
280.595
280.546
280.491
280.434
280.378
280.325
280.276
280.234
280.875
280.826
280.751
280.661
280.564
280.467
280.375
280.29
280.215
280.151
281.213
281.128
281.003
280.858
280.708
280.564
280.43
280.31
280.207
280.121
281.54
281.407
281.218
281.009
280.801
280.607
280.432
280.28
280.15
280.045
281.935
281.739
281.476
281.197
280.928
280.684
280.471
280.288
280.135
280.012
282.289
282.018
281.671
281.318
280.99
280.701
280.453
280.245
280.073
279.937
282.681
282.325
281.89
281.467
281.084
280.756
280.48
280.251
280.064
279.916
283.012
282.559
282.04
281.558
281.134
280.777
280.481
280.238
280.041
279.884
283.917
283.389
282.81
282.285
281.828
281.447
281.133
280.877
280.67
280.518
280.838
280.837
280.83
280.819
280.806
280.792
280.777
280.76
280.74
280.714
280.573
280.56
280.538
280.511
280.48
280.446
280.412
280.379
280.348
280.32
280.721
280.694
280.652
280.6
280.541
280.48
280.42
280.362
280.311
280.266
280.972
280.926
280.854
280.767
280.671
280.575
280.482
280.396
280.319
280.253
281.219
281.145
281.034
280.903
280.764
280.627
280.499
280.383
280.282
280.198
281.532
281.423
281.263
281.08
280.894
280.715
280.552
280.407
280.282
280.178
281.811
281.657
281.44
281.202
280.965
280.745
280.548
280.377
280.232
280.113
282.133
281.925
281.646
281.352
281.068
280.811
280.586
280.392
280.23
280.098
282.396
282.128
281.788
281.444
281.122
280.836
280.589
280.38
280.206
280.066
283.218
282.901
282.515
282.133
281.781
281.473
281.209
280.988
280.806
280.67
280.825
280.826
280.823
280.818
280.811
280.803
280.794
280.784
280.771
280.75
280.534
280.526
280.514
280.498
280.48
280.46
280.44
280.419
280.4
280.383
280.634
280.619
280.595
280.564
280.528
280.49
280.452
280.415
280.38
280.35
280.821
280.795
280.753
280.699
280.639
280.576
280.513
280.453
280.398
280.351
281.005
280.963
280.897
280.814
280.723
280.629
280.538
280.454
280.378
280.313
281.251
281.188
281.091
280.973
280.845
280.718
280.598
280.487
280.389
280.306
281.465
281.376
281.24
281.082
280.916
280.754
280.603
280.468
280.35
280.252
281.723
281.601
281.424
281.224
281.02
280.826
280.649
280.492
280.357
280.245
281.924
281.766
281.547
281.308
281.071
280.851
280.653
280.481
280.334
280.213
282.667
282.479
282.227
281.958
281.696