/*--------------------------------*- C++ -*----------------------------------*\
| =========                 |                                                 |
| \\      /  F ield         | foam-extend: Open Source CFD                    |
|  \\    /   O peration     | Version:     4.0                                |
|   \\  /    A nd           | Web:         http://www.foam-extend.org         |
|    \\/     M anipulation  |                                                 |
\*---------------------------------------------------------------------------*/
FoamFile
{
    version     2.0;
    format      ascii;
    class       volVectorField;
    location    "1200";
    object      Urel;
}
// * * * * * * * * * * * * * * * * * * * * * * * * * * * * * * * * * * * * * //

dimensions      [0 1 -1 0 0 0 0];

internalField   nonuniform List<vector> 
34480
(
(208.748 -9.78943 -19.0837)
(209.072 -9.28775 -21.5429)
(209.233 -8.56195 -23.9671)
(209.245 -7.63734 -26.3988)
(209.101 -6.55276 -28.9762)
(208.765 -5.31077 -31.875)
(208.157 -3.89149 -35.4956)
(206.999 -2.17838 -40.1822)
(204.338 0.0574408 -48.1046)
(197.415 4.26301 -75.2716)
(209.696 -12.7972 -26.8035)
(209.961 -11.6688 -29.5839)
(210.093 -10.3865 -32.2414)
(210.071 -8.964 -34.8426)
(209.841 -7.43797 -37.5047)
(209.343 -5.82794 -40.4348)
(208.541 -4.15259 -44.0924)
(207.254 -2.35733 -49.2193)
(204.123 -0.280334 -58.0362)
(195.974 3.67688 -88.6001)
(210.408 -17.1015 -33.736)
(210.648 -15.5491 -36.8184)
(210.746 -13.8198 -39.7645)
(210.68 -11.9068 -42.5864)
(210.388 -9.86619 -45.4113)
(209.865 -7.73203 -48.4954)
(209.118 -5.53196 -52.367)
(207.981 -3.19605 -58.0552)
(204.687 -0.556897 -67.7489)
(195.491 4.15175 -101.257)
(210.429 -20.502 -41.1422)
(210.67 -18.4178 -44.5186)
(210.784 -16.1584 -47.7048)
(210.751 -13.7045 -50.7295)
(210.522 -11.1132 -53.7273)
(210.113 -8.42172 -56.9835)
(209.504 -5.66296 -61.029)
(208.534 -2.75751 -67.1133)
(205.218 0.468184 -77.4326)
(195.223 5.86375 -112.851)
(210.599 -24.9801 -47.9998)
(210.87 -22.4853 -51.6528)
(211.023 -19.7779 -55.1256)
(211.053 -16.8382 -58.4003)
(210.917 -13.7426 -61.6368)
(210.645 -10.5282 -65.1321)
(210.186 -7.22213 -69.414)
(209.401 -3.73448 -75.9189)
(206.187 0.115417 -86.908)
(195.551 6.21359 -123.848)
(210.491 -28.2332 -55.5928)
(210.775 -25.2376 -59.482)
(210.949 -22.0157 -63.1231)
(211.016 -18.5452 -66.5417)
(210.948 -14.8936 -69.89)
(210.795 -11.1037 -73.4895)
(210.489 -7.20439 -77.8518)
(209.92 -3.10781 -84.5851)
(206.955 1.38691 -96.0609)
(195.922 8.12242 -134.15)
(210.579 -33.0099 -62.4504)
(210.904 -29.6251 -66.5791)
(211.109 -25.9791 -70.4695)
(211.215 -22.0596 -74.0949)
(211.208 -17.9416 -77.6363)
(211.152 -13.6616 -81.4166)
(210.987 -9.22372 -85.9506)
(210.634 -4.52425 -92.9684)
(208.001 0.708699 -105.023)
(196.674 8.27469 -144.106)
(210.413 -36.1724 -70.2995)
(210.744 -32.3169 -74.6346)
(210.93 -28.1543 -78.6523)
(210.996 -23.6986 -82.3867)
(210.949 -19.0028 -85.9815)
(210.875 -14.124 -89.7644)
(210.754 -9.05913 -94.2332)
(210.557 -3.69991 -101.207)
(208.331 2.3768 -113.45)
(197.04 10.8462 -153.038)
(210.371 -41.4317 -77.1341)
(210.745 -37.2095 -81.6544)
(210.961 -32.672 -85.8542)
(211.066 -27.8573 -89.7394)
(211.069 -22.8199 -93.4943)
(211.038 -17.5894 -97.4227)
(210.984 -12.1089 -102.057)
(210.925 -6.22546 -109.185)
(209.026 0.779997 -121.799)
(197.622 10.7385 -161.327)
(209.411 -44.6345 -85.0972)
(209.696 -40.03 -89.8985)
(209.654 -34.9912 -94.3006)
(209.306 -29.6374 -98.3703)
(208.697 -23.9814 -102.233)
(207.919 -18.0634 -106.167)
(207.055 -11.8176 -110.642)
(206.276 -5.05328 -117.259)
(204.35 2.96203 -129.021)
(194.192 14.3078 -166.617)
(205.656 1.91444 3.00565)
(206.136 1.11328 1.55174)
(206.326 0.430781 -0.000277991)
(206.246 -0.112922 -1.59907)
(205.872 -0.542136 -3.30818)
(205.115 -0.857193 -5.14003)
(203.773 -1.06208 -7.14853)
(201.412 -1.16805 -9.30889)
(197.952 -1.25273 -11.2403)
(193.384 -1.15295 -14.3973)
(206.967 2.87172 2.80312)
(207.402 2.1686 1.17019)
(207.578 1.52437 -0.482098)
(207.494 0.949427 -2.17768)
(207.086 0.422304 -3.98416)
(206.236 -0.0628342 -5.95933)
(204.746 -0.520829 -8.19649)
(202.163 -0.985957 -10.947)
(197.995 -1.57376 -13.9973)
(192.313 -1.80928 -20.5812)
(207.933 2.57506 3.31656)
(208.347 1.77026 1.55697)
(208.509 1.04441 -0.243549)
(208.413 0.423416 -2.07652)
(207.98 -0.131604 -4.01593)
(207.11 -0.633022 -6.14534)
(205.63 -1.10997 -8.65366)
(203.056 -1.57868 -12.0733)
(198.515 -2.14536 -16.3208)
(191.901 -2.05336 -26.713)
(208.187 3.17057 3.31847)
(208.607 2.39812 1.47442)
(208.79 1.69057 -0.384603)
(208.737 1.08625 -2.27824)
(208.368 0.546176 -4.29173)
(207.601 0.0587517 -6.55123)
(206.236 -0.409025 -9.28247)
(203.759 -0.849306 -13.2433)
(198.993 -1.35315 -18.4637)
(191.571 -0.916809 -32.4509)
(208.548 2.65974 3.85704)
(208.996 1.80324 1.95857)
(209.218 1.03842 0.00307548)
(209.231 0.407023 -1.98537)
(208.955 -0.146595 -4.12371)
(208.326 -0.633561 -6.56555)
(207.113 -1.08854 -9.55275)
(204.801 -1.48218 -14.0457)
(199.96 -1.89195 -20.2174)
(191.835 -1.05683 -37.69)
(208.588 3.38564 3.65569)
(209.052 2.53733 1.74619)
(209.301 1.78194 -0.179635)
(209.358 1.16397 -2.1487)
(209.158 0.636521 -4.27206)
(208.658 0.185341 -6.74938)
(207.611 -0.220524 -9.82184)
(205.521 -0.542646 -14.6439)
(200.771 -0.821484 -21.5339)
(192.123 0.378782 -42.2074)
(208.796 2.56429 4.18176)
(209.297 1.61722 2.26475)
(209.579 0.789607 0.287702)
(209.683 0.118623 -1.7212)
(209.552 -0.445769 -3.9089)
(209.167 -0.914874 -6.49116)
(208.283 -1.30471 -9.72212)
(206.438 -1.56202 -14.8987)
(201.896 -1.64771 -22.5531)
(192.828 0.0143963 -46.2418)
(208.715 3.37838 3.71533)
(209.226 2.41696 1.82942)
(209.499 1.60647 -0.0601957)
(209.578 0.958933 -1.99641)
(209.431 0.448417 -4.09393)
(209.068 0.0431833 -6.59892)
(208.277 -0.259212 -9.75969)
(206.652 -0.41393 -14.9867)
(202.438 -0.202546 -23.0376)
(193.245 1.84396 -49.214)
(208.739 2.06404 4.25975)
(209.28 0.988434 2.42368)
(209.581 0.0778375 0.550807)
(209.696 -0.678074 -1.35258)
(209.606 -1.30904 -3.45675)
(209.316 -1.82717 -6.0089)
(208.645 -2.18399 -9.31583)
(207.245 -2.31662 -14.7766)
(203.37 -1.73673 -23.4732)
(193.928 1.01088 -51.495)
(207.821 2.87109 3.65045)
(208.306 1.70302 1.8102)
(208.433 0.806482 -0.0107102)
(208.23 0.0767001 -1.88129)
(207.71 -0.467066 -3.90717)
(206.91 -0.850416 -6.33361)
(205.717 -1.00958 -9.45133)
(203.922 -0.829502 -14.5473)
(200.193 0.224523 -23.0213)
(191.574 4.04107 -51.3397)
(203.299 1.42856 2.33803)
(203.804 0.83533 1.22185)
(203.987 0.304826 -0.00655905)
(203.886 -0.129154 -1.25595)
(203.488 -0.479753 -2.54709)
(202.744 -0.744218 -3.82549)
(201.562 -0.932265 -5.04344)
(199.789 -1.06926 -6.0514)
(197.236 -1.24043 -6.49836)
(194.021 -1.42875 -6.52179)
(204.706 2.41542 2.31803)
(205.204 1.87406 0.95336)
(205.387 1.34831 -0.440477)
(205.267 0.858225 -1.85683)
(204.807 0.39341 -3.3224)
(203.921 -0.0513659 -4.83975)
(202.45 -0.48922 -6.37253)
(200.123 -0.951246 -7.85781)
(196.496 -1.54824 -8.79999)
(191.649 -2.12703 -9.81456)
(205.754 2.20859 2.95672)
(206.257 1.5265 1.40644)
(206.441 0.888957 -0.197137)
(206.319 0.32643 -1.82641)
(205.835 -0.193457 -3.52761)
(204.885 -0.680534 -5.31735)
(203.272 -1.15937 -7.2055)
(200.629 -1.65969 -9.28495)
(196.126 -2.325 -10.9985)
(189.679 -2.89902 -13.5869)
(206.158 2.88916 3.00779)
(206.684 2.21427 1.33455)
(206.893 1.57469 -0.364121)
(206.807 1.01108 -2.09595)
(206.361 0.489448 -3.92485)
(205.45 0.000155267 -5.90901)
(203.823 -0.488532 -8.09439)
(201.015 -0.993353 -10.7316)
(195.779 -1.67486 -13.1958)
(187.843 -2.15442 -17.5628)
(206.665 2.41753 3.58568)
(207.223 1.64348 1.82592)
(207.47 0.935932 0.00135604)
(207.441 0.33752 -1.85688)
(207.066 -0.202629 -3.85013)
(206.245 -0.692854 -6.06883)
(204.679 -1.1684 -8.58759)
(201.829 -1.63484 -11.8205)
(196.05 -2.27942 -15.1244)
(186.799 -2.56546 -21.5763)
(206.832 3.1923 3.40892)
(207.411 2.4125 1.61732)
(207.686 1.70482 -0.198259)
(207.701 1.11354 -2.06056)
(207.39 0.593843 -4.0698)
(206.668 0.133571 -6.36734)
(205.202 -0.302414 -9.04567)
(202.412 -0.712793 -12.7017)
(196.29 -1.27069 -16.7084)
(185.952 -1.3287 -25.3382)
(207.151 2.38707 3.95798)
(207.763 1.50262 2.14077)
(208.069 0.721736 0.256724)
(208.131 0.0812124 -1.66426)
(207.883 -0.467267 -3.76154)
(207.261 -0.931749 -6.19971)
(205.915 -1.33421 -9.10314)
(203.245 -1.66486 -13.2177)
(196.95 -2.06188 -18.0194)
(185.687 -1.78759 -28.9606)
(207.162 3.23846 3.49595)
(207.782 2.33786 1.70635)
(208.084 1.57217 -0.0927674)
(208.13 0.954945 -1.94524)
(207.875 0.459986 -3.96119)
(207.28 0.0612896 -6.34628)
(206.019 -0.253533 -9.24212)
(203.502 -0.484227 -13.5397)
(197.224 -0.615549 -18.8631)
(185.302 -0.0605521 -31.8763)
(207.263 1.9104 4.04536)
(207.902 0.896484 2.29399)
(208.225 0.0446421 0.494642)
(208.299 -0.651536 -1.3392)
(208.085 -1.22322 -3.36642)
(207.552 -1.68035 -5.79597)
(206.401 -1.98715 -8.85946)
(204.076 -2.12191 -13.5011)
(197.931 -1.85546 -19.632)
(185.229 -0.790722 -34.2671)
(206.411 2.77552 3.4038)
(206.998 1.685 1.68166)
(207.191 0.85929 -0.0315666)
(207.028 0.194986 -1.80307)
(206.499 -0.28752 -3.72816)
(205.594 -0.610867 -6.02)
(204.085 -0.723272 -8.90607)
(201.522 -0.544794 -13.2918)
(195.513 0.21989 -19.535)
(182.753 2.30428 -34.6947)
(201.577 0.948641 1.70462)
(202.015 0.548101 0.915445)
(202.167 0.16644 0.0125267)
(202.07 -0.156784 -0.891461)
(201.723 -0.42745 -1.79536)
(201.11 -0.640064 -2.61749)
(200.2 -0.80683 -3.29289)
(198.967 -0.951139 -3.6862)
(197.409 -1.12832 -3.5817)
(195.678 -1.36343 -2.75678)
(202.909 1.90701 1.79603)
(203.379 1.53224 0.724503)
(203.544 1.13546 -0.380855)
(203.415 0.742907 -1.49016)
(202.97 0.355473 -2.59524)
(202.162 -0.0295763 -3.66552)
(200.914 -0.422756 -4.62494)
(199.12 -0.846145 -5.34518)
(196.651 -1.36747 -5.40353)
(193.843 -1.93289 -4.62352)
(203.907 1.75583 2.51158)
(204.421 1.21678 1.21595)
(204.599 0.687433 -0.140732)
(204.46 0.202601 -1.50829)
(203.963 -0.261508 -2.9034)
(203.037 -0.713193 -4.30609)
(201.548 -1.17176 -5.64988)
(199.299 -1.66314 -6.84347)
(195.941 -2.29233 -7.30002)
(191.852 -2.98484 -6.92841)
(204.372 2.5187 2.59949)
(204.932 1.96564 1.14646)
(205.14 1.41515 -0.339905)
(205.021 0.911633 -1.84718)
(204.524 0.429389 -3.41107)
(203.561 -0.040814 -5.04572)
(201.937 -0.527936 -6.70534)
(199.354 -1.05384 -8.37505)
(195.137 -1.75705 -9.29353)
(189.667 -2.51905 -9.5467)
(204.96 2.09221 3.21793)
(205.565 1.42505 1.64348)
(205.808 0.794622 -0.00163233)
(205.732 0.245791 -1.66971)
(205.271 -0.264355 -3.43546)
(204.334 -0.743639 -5.34241)
(202.662 -1.22486 -7.37109)
(199.864 -1.72695 -9.60493)
(194.901 -2.43865 -11.1394)
(188.097 -3.17336 -12.3754)
(205.217 2.92133 3.06976)
(205.851 2.23367 1.43906)
(206.123 1.59218 -0.222586)
(206.081 1.04297 -1.9231)
(205.662 0.547022 -3.73951)
(204.774 0.0919816 -5.76352)
(203.112 -0.359605 -7.99792)
(200.209 -0.825587 -10.6602)
(194.643 -1.50349 -12.7395)
(186.636 -2.15863 -15.1432)
(205.619 2.14208 3.6477)
(206.287 1.34178 1.96866)
(206.587 0.623502 0.216661)
(206.588 0.0253667 -1.56703)
(206.216 -0.496579 -3.50057)
(205.394 -0.949898 -5.69977)
(203.779 -1.36077 -8.20701)
(200.848 -1.74175 -11.3576)
(194.826 -2.29544 -14.1202)
(185.733 -2.76476 -17.957)
(205.708 3.04335 3.19669)
(206.384 2.223 1.5378)
(206.684 1.51545 -0.13764)
(206.674 0.938483 -1.8649)
(206.297 0.467485 -3.73544)
(205.491 0.0804551 -5.90816)
(203.916 -0.244181 -8.45248)
(201.024 -0.533024 -11.8458)
(194.745 -0.876377 -15.1053)
(184.769 -1.18582 -20.3252)
(205.876 1.71363 3.77528)
(206.562 0.778067 2.13998)
(206.878 -0.00854484 0.44303)
(206.891 -0.645347 -1.28831)
(206.548 -1.16305 -3.19146)
(205.786 -1.56852 -5.42132)
(204.267 -1.8409 -8.12892)
(201.464 -1.99091 -11.8785)
(195.114 -1.94229 -15.9802)
(184.166 -1.8907 -22.387)
(205.09 2.65274 3.11237)
(205.73 1.65205 1.53009)
(205.955 0.900277 -0.0575915)
(205.799 0.300065 -1.70785)
(205.236 -0.126552 -3.49843)
(204.219 -0.399321 -5.59668)
(202.459 -0.479004 -8.15293)
(199.466 -0.314563 -11.7144)
(193.135 0.230409 -16.0498)
(181.697 1.20567 -22.8666)
(200.377 0.549852 1.1963)
(200.72 0.294292 0.669161)
(200.835 0.0337232 0.0390109)
(200.761 -0.195379 -0.579786)
(200.503 -0.396687 -1.18449)
(200.066 -0.562437 -1.69525)
(199.455 -0.702198 -2.06532)
(198.692 -0.831018 -2.20476)
(197.827 -0.975354 -2.02166)
(196.976 -1.1417 -1.43184)
(201.542 1.43276 1.316)
(201.938 1.19872 0.516028)
(202.076 0.919662 -0.315459)
(201.964 0.621445 -1.14014)
(201.593 0.312971 -1.93125)
(200.946 -0.00448908 -2.64551)
(200.002 -0.335329 -3.20872)
(198.755 -0.689082 -3.51242)
(197.228 -1.09362 -3.32909)
(195.72 -1.50959 -2.52045)
(202.399 1.28829 2.05798)
(202.872 0.886714 1.02453)
(203.036 0.467158 -0.0745668)
(202.904 0.065869 -1.17238)
(202.453 -0.332231 -2.26086)
(201.646 -0.731801 -3.29845)
(200.416 -1.14602 -4.20052)
(198.698 -1.59211 -4.8371)
(196.41 -2.12479 -4.81548)
(194.01 -2.69176 -3.93123)
(202.842 2.1096 2.15962)
(203.387 1.68427 0.948489)
(203.585 1.23131 -0.30279)
(203.458 0.797903 -1.56244)
(202.971 0.368298 -2.83698)
(202.064 -0.0639973 -4.10666)
(200.616 -0.523041 -5.28928)
(198.486 -1.02762 -6.26953)
(195.395 -1.66519 -6.46928)
(191.918 -2.36666 -5.61444)
(203.442 1.72029 2.80781)
(204.049 1.17179 1.44684)
(204.284 0.629608 0.00926725)
(204.184 0.140947 -1.43889)
(203.697 -0.32685 -2.94032)
(202.752 -0.779666 -4.49591)
(201.165 -1.24594 -6.03741)
(198.712 -1.74779 -7.48963)
(194.851 -2.42551 -8.08861)
(190.231 -3.18973 -7.54298)
(203.738 2.59918 2.68467)
(204.388 2.01844 1.24489)
(204.654 1.45527 -0.233514)
(204.578 0.958537 -1.74005)
(204.106 0.497889 -3.32074)
(203.156 0.062279 -5.01657)
(201.49 -0.385514 -6.77451)
(198.812 -0.871189 -8.6013)
(194.257 -1.55806 -9.56136)
(188.518 -2.3483 -9.46911)
(204.185 1.84905 3.29024)
(204.877 1.14879 1.77931)
(205.17 0.504799 0.188231)
(205.128 -0.0420621 -1.42605)
(204.684 -0.528661 -3.15106)
(203.758 -0.961753 -5.04846)
(202.062 -1.36988 -7.10069)
(199.234 -1.77777 -9.39066)
(194.086 -2.37619 -10.8782)
(187.266 -3.09259 -11.5115)
(204.327 2.8063 2.85208)
(205.033 2.0819 1.35099)
(205.33 1.44362 -0.174851)
(205.281 0.915302 -1.74773)
(204.828 0.476396 -3.43156)
(203.899 0.108528 -5.32937)
(202.189 -0.216554 -7.44646)
(199.289 -0.540807 -9.98343)
(193.716 -0.987536 -11.865)
(185.94 -1.64958 -13.2542)
(204.546 1.47847 3.46646)
(205.259 0.636038 1.97268)
(205.569 -0.0780772 0.402915)
(205.538 -0.653557 -1.19806)
(205.11 -1.11873 -2.94122)
(204.207 -1.47793 -4.92282)
(202.511 -1.72297 -7.21323)
(199.588 -1.88617 -10.0666)
(193.771 -1.97678 -12.6808)
(184.951 -2.38663 -14.8263)
(203.822 2.50512 2.78297)
(204.492 1.60484 1.35778)
(204.74 0.931048 -0.088015)
(204.59 0.395176 -1.59689)
(204.009 0.0217409 -3.22461)
(202.931 -0.206192 -5.08806)
(201.068 -0.261767 -7.26076)
(197.978 -0.117254 -9.99169)
(192.058 0.261997 -12.8061)
(182.53 0.644002 -15.136)
(199.553 0.249851 0.826973)
(199.806 0.0917687 0.49085)
(199.888 -0.0807126 0.0659945)
(199.837 -0.237476 -0.340432)
(199.663 -0.383008 -0.733507)
(199.375 -0.508267 -1.0452)
(198.991 -0.619518 -1.2503)
(198.539 -0.724167 -1.29441)
(198.063 -0.832952 -1.14497)
(197.608 -0.944549 -0.7794)
(200.538 1.03769 0.915579)
(200.842 0.908581 0.342086)
(200.949 0.725797 -0.255151)
(200.863 0.510264 -0.840755)
(200.58 0.275116 -1.38305)
(200.103 0.0245771 -1.84112)
(199.438 -0.239996 -2.1575)
(198.618 -0.518983 -2.25936)
(197.705 -0.816949 -2.03969)
(196.887 -1.10431 -1.43322)
(201.216 0.856975 1.64317)
(201.616 0.570666 0.85024)
(201.755 0.250485 -0.00773235)
(201.643 -0.0700595 -0.857201)
(201.268 -0.39942 -1.67576)
(200.617 -0.738134 -2.4147)
(199.673 -1.0928 -2.99751)
(198.443 -1.47185 -3.31579)
(196.964 -1.89687 -3.14717)
(195.566 -2.32556 -2.35055)
(201.585 1.70458 1.73061)
(202.075 1.39693 0.757677)
(202.253 1.03962 -0.258369)
(202.134 0.679466 -1.27341)
(201.695 0.309703 -2.27238)
(200.906 -0.0720286 -3.21553)
(199.71 -0.482329 -4.01589)
(198.071 -0.933405 -4.54629)
(195.935 -1.47113 -4.44173)
(193.786 -2.04124 -3.44606)
(202.142 1.33511 2.38955)
(202.712 0.903724 1.25044)
(202.928 0.452955 0.0314746)
(202.82 0.0304157 -1.18771)
(202.351 -0.386288 -2.42206)
(201.475 -0.799729 -3.64154)
(200.083 -1.23165 -4.7592)
(198.082 -1.70139 -5.6469)
(195.264 -2.29823 -5.77896)
(192.253 -2.96072 -4.77477)
(202.434 2.25054 2.28108)
(203.063 1.7809 1.04741)
(203.311 1.3022 -0.230944)
(203.217 0.86496 -1.52708)
(202.736 0.448269 -2.85779)
(201.807 0.0440258 -4.2222)
(200.271 -0.38044 -5.53704)
(197.975 -0.85116 -6.71044)
(194.497 -1.48358 -7.05031)
(190.579 -2.22406 -6.10574)
(202.892 1.5262 2.90717)
(203.572 0.9338 1.58331)
(203.849 0.371455 0.173079)
(203.779 -0.117458 -1.25133)
(203.303 -0.561451 -2.7463)
(202.356 -0.965391 -4.32524)
(200.725 -1.35679 -5.92952)
(198.198 -1.76509 -7.50142)
(194.107 -2.34093 -8.22739)
(189.26 -3.06965 -7.56904)
(203.061 2.53997 2.47925)
(203.762 1.92106 1.15476)
(204.048 1.36001 -0.202023)
(203.971 0.886982 -1.59943)
(203.481 0.486889 -3.07241)
(202.507 0.145423 -4.67202)
(200.811 -0.167596 -6.3522)
(198.127 -0.499518 -8.13603)
(193.551 -0.970327 -9.1356)
(187.826 -1.71108 -8.80317)
(203.314 1.21313 3.1309)
(204.025 0.47386 1.79748)
(204.322 -0.162253 0.374845)
(204.259 -0.67475 -1.07352)
(203.781 -1.08824 -2.63095)
(202.815 -1.40455 -4.34051)
(201.093 -1.6249 -6.20942)
(198.306 -1.79117 -8.27335)
(193.393 -1.95348 -9.83149)
(186.694 -2.50669 -9.92279)
(202.64 2.33891 2.4254)
(203.313 1.54652 1.1698)
(203.569 0.953795 -0.120667)
(203.425 0.482502 -1.4715)
(202.843 0.159922 -2.91496)
(201.753 -0.0283309 -4.52029)
(199.907 -0.0662914 -6.29698)
(196.959 0.0569852 -8.29038)
(191.868 0.315401 -9.98113)
(184.449 0.415714 -10.0882)
(198.983 0.0399115 0.578302)
(199.167 -0.0584482 0.37182)
(199.223 -0.172162 0.089504)
(199.191 -0.277429 -0.170777)
(199.081 -0.380857 -0.424255)
(198.903 -0.473027 -0.615674)
(198.673 -0.557807 -0.736171)
(198.415 -0.637423 -0.753107)
(198.153 -0.714905 -0.65918)
(197.893 -0.786326 -0.453019)
(199.812 0.73725 0.603811)
(200.03 0.679008 0.205265)
(200.109 0.568638 -0.206786)
(200.047 0.42023 -0.606168)
(199.847 0.24835 -0.964225)
(199.517 0.0586773 -1.24894)
(199.074 -0.143353 -1.42126)
(198.555 -0.353254 -1.43812)
(198.018 -0.565546 -1.25443)
(197.57 -0.75672 -0.853022)
(200.312 0.490895 1.29097)
(200.627 0.291762 0.701533)
(200.738 0.054274 0.0522633)
(200.651 -0.194001 -0.585675)
(200.359 -0.457551 -1.18503)
(199.866 -0.733709 -1.70017)
(199.18 -1.02379 -2.07144)
(198.337 -1.32875 -2.22466)
(197.406 -1.65168 -2.04666)
(196.591 -1.95962 -1.47722)
(200.584 1.33496 1.33989)
(200.998 1.1256 0.583975)
(201.149 0.854681 -0.213475)
(201.046 0.565382 -1.00433)
(200.678 0.257572 -1.76166)
(200.034 -0.06717 -2.43902)
(199.102 -0.417341 -2.96058)
(197.899 -0.797738 -3.22258)
(196.472 -1.22622 -3.01893)
(195.152 -1.6603 -2.19984)
(201.063 0.965189 1.9888)
(201.567 0.639381 1.06364)
(201.757 0.276404 0.0594481)
(201.654 -0.0785401 -0.937813)
(201.235 -0.439063 -1.92358)
(200.475 -0.804045 -2.85147)
(199.325 -1.18763 -3.63564)
(197.772 -1.60298 -4.15017)
(195.794 -2.09935 -4.07161)
(193.857 -2.62834 -3.1275)
(201.32 1.89886 1.88147)
(201.894 1.53527 0.855264)
(202.119 1.14135 -0.218579)
(202.02 0.767119 -1.30166)
(201.565 0.400358 -2.38815)
(200.718 0.0366436 -3.44972)
(199.387 -0.349105 -4.3942)
(197.52 -0.777948 -5.10009)
(194.974 -1.32164 -5.11045)
(192.35 -1.94516 -4.0415)
(201.758 1.19242 2.51723)
(202.396 0.707687 1.38796)
(202.65 0.229638 0.168751)
(202.565 -0.197276 -1.05654)
(202.096 -0.593205 -2.31753)
(201.195 -0.960368 -3.5926)
(199.725 -1.32228 -4.80265)
(197.587 -1.70677 -5.82617)
(194.483 -2.22055 -6.10337)
(191.119 -2.86107 -5.08418)
(201.929 2.25858 2.09392)
(202.596 1.74795 0.955679)
(202.863 1.26819 -0.220305)
(202.77 0.854813 -1.42998)
(202.278 0.498529 -2.68226)
(201.329 0.189142 -3.98768)
(199.756 -0.101444 -5.26916)
(197.412 -0.416576 -6.45097)
(193.833 -0.855558 -6.88592)
(189.738 -1.53432 -5.93346)
(202.2 0.928135 2.78171)
(202.883 0.296381 1.61959)
(203.16 -0.258808 0.35766)
(203.077 -0.70766 -0.923292)
(202.586 -1.0704 -2.28097)
(201.625 -1.34645 -3.71591)
(199.996 -1.54315 -5.19358)
(197.5 -1.70288 -6.62529)
(193.563 -1.88551 -7.46447)
(188.656 -2.41225 -6.70814)
(201.563 2.16224 2.05104)
(202.213 1.48125 0.971498)
(202.467 0.971107 -0.154536)
(202.328 0.564108 -1.33591)
(201.765 0.290098 -2.58262)
(200.713 0.13688 -3.92413)
(198.982 0.111622 -5.32346)
(196.331 0.214133 -6.70981)
(192.18 0.386176 -7.61466)
(186.654 0.374887 -6.78692)
(198.578 -0.100946 0.419625)
(198.715 -0.164928 0.29737)
(198.752 -0.241814 0.108585)
(198.734 -0.312376 -0.0565438)
(198.667 -0.385529 -0.222053)
(198.562 -0.452118 -0.342831)
(198.428 -0.5147 -0.420282)
(198.283 -0.572839 -0.43335)
(198.136 -0.626373 -0.384)
(197.971 -0.67123 -0.274424)
(199.289 0.526798 0.372066)
(199.437 0.512976 0.101464)
(199.491 0.453734 -0.172598)
(199.45 0.356647 -0.434898)
(199.316 0.236121 -0.662914)
(199.098 0.0981561 -0.834324)
(198.815 -0.0500009 -0.924741)
(198.496 -0.201915 -0.910276)
(198.181 -0.349259 -0.774204)
(197.929 -0.474377 -0.515737)
(199.632 0.200381 1.00837)
(199.866 0.0619458 0.581016)
(199.95 -0.111088 0.101723)
(199.886 -0.298534 -0.366349)
(199.672 -0.503143 -0.797255)
(199.317 -0.720645 -1.15347)
(198.841 -0.948939 -1.39226)
(198.28 -1.1843 -1.46788)
(197.701 -1.42126 -1.32581)
(197.221 -1.63521 -0.950329)
(199.808 1.01973 1.00288)
(200.137 0.886092 0.433161)
(200.259 0.688177 -0.172841)
(200.177 0.463271 -0.769753)
(199.885 0.215271 -1.327)
(199.388 -0.0514459 -1.80066)
(198.693 -0.338631 -2.13147)
(197.842 -0.645283 -2.24551)
(196.906 -0.972771 -2.03494)
(196.095 -1.28902 -1.42995)
(200.192 0.63223 1.62431)
(200.615 0.394707 0.893373)
(200.774 0.11091 0.0884398)
(200.685 -0.17897 -0.705581)
(200.331 -0.481935 -1.47304)
(199.707 -0.793716 -2.16338)
(198.802 -1.12181 -2.7026)
(197.643 -1.4723 -2.98898)
(196.288 -1.8674 -2.83724)
(195.05 -2.26849 -2.09294)
(200.393 1.56466 1.50512)
(200.893 1.29517 0.675928)
(201.088 0.981267 -0.200133)
(200.994 0.670065 -1.07918)
(200.591 0.356292 -1.94075)
(199.861 0.0390424 -2.74303)
(198.764 -0.298272 -3.39971)
(197.308 -0.669645 -3.797)
(195.496 -1.11267 -3.65256)
(193.759 -1.60408 -2.72202)
(200.794 0.866201 2.13822)
(201.365 0.482047 1.20014)
(201.59 0.0863923 0.172254)
(201.502 -0.277377 -0.855305)
(201.068 -0.621989 -1.89197)
(200.26 -0.946825 -2.89557)
(199.003 -1.27 -3.78361)
(197.272 -1.61357 -4.42137)
(194.99 -2.04632 -4.45222)
(192.691 -2.56531 -3.46711)
(200.943 1.9772 1.71232)
(201.552 1.57114 0.76051)
(201.793 1.17266 -0.231359)
(201.695 0.820724 -1.25026)
(201.23 0.511315 -2.28459)
(200.357 0.238046 -3.31784)
(198.975 -0.0226453 -4.26095)
(197.021 -0.305444 -5.00087)
(194.321 -0.682113 -5.09327)
(191.451 -1.23793 -4.03899)
(201.22 0.635333 2.43336)
(201.852 0.109661 1.44497)
(202.103 -0.364689 0.349999)
(202.011 -0.750651 -0.757054)
(201.537 -1.06399 -1.91241)
(200.635 -1.30198 -3.08682)
(199.175 -1.4752 -4.22336)
(197.051 -1.62156 -5.18169)
(194.014 -1.795 -5.56664)
(190.518 -2.22679 -4.57976)
(200.608 1.98463 1.6726)
(201.211 1.41425 0.768947)
(201.451 0.986095 -0.188943)
(201.321 0.642126 -1.19578)
(200.796 0.414103 -2.24258)
(199.824 0.291652 -3.32947)
(198.275 0.275486 -4.39091)
(196.003 0.358985 -5.30721)
(192.751 0.469927 -5.6953)
(188.779 0.426185 -4.59662)
(198.279 -0.194298 0.323044)
(198.385 -0.239351 0.253846)
(198.41 -0.294293 0.123834)
(198.4 -0.342428 0.018092)
(198.361 -0.394694 -0.0938411)
(198.301 -0.442493 -0.174055)
(198.225 -0.487859 -0.229688)
(198.143 -0.529309 -0.245698)
(198.059 -0.565647 -0.226934)
(197.942 -0.593446 -0.17452)
(198.907 0.392203 0.204175)
(199.003 0.40469 0.0235105)
(199.04 0.379865 -0.152198)
(199.013 0.320223 -0.317748)
(198.927 0.239333 -0.457048)
(198.789 0.142878 -0.555812)
(198.614 0.0381184 -0.599745)
(198.421 -0.0683188 -0.575929)
(198.237 -0.168408 -0.479936)
(198.092 -0.249089 -0.314232)
(199.122 -0.0172263 0.791311)
(199.287 -0.116238 0.487127)
(199.348 -0.241586 0.139589)
(199.303 -0.380387 -0.198453)
(199.153 -0.535061 -0.505195)
(198.909 -0.70124 -0.752321)
(198.589 -0.875039 -0.91097)
(198.227 -1.05071 -0.954934)
(197.87 -1.22016 -0.858464)
(197.585 -1.36546 -0.625917)
(199.217 0.766463 0.724512)
(199.467 0.687236 0.307129)
(199.561 0.547699 -0.139326)
(199.499 0.378306 -0.576317)
(199.279 0.184812 -0.974983)
(198.911 -0.026848 -1.29859)
(198.413 -0.25412 -1.50418)
(197.827 -0.49248 -1.54326)
(197.221 -0.73543 -1.36295)
(196.723 -0.959001 -0.937571)
(199.505 0.34976 1.30692)
(199.843 0.18148 0.743722)
(199.971 -0.0346104 0.114748)
(199.898 -0.265052 -0.501926)
(199.615 -0.512423 -1.0862)
(199.126 -0.7704 -1.59129)
(198.442 -1.04161 -1.95869)
(197.604 -1.32624 -2.11522)
(196.69 -1.63076 -1.95976)
(195.903 -1.92345 -1.4188)
(199.642 1.26322 1.16624)
(200.058 1.07197 0.515079)
(200.221 0.829642 -0.178887)
(200.138 0.578313 -0.871805)
(199.799 0.317651 -1.53589)
(199.2 0.0494828 -2.12637)
(198.334 -0.234932 -2.57049)
(197.237 -0.543301 -2.77757)
(195.972 -0.890046 -2.58008)
(194.833 -1.25881 -1.84999)
(199.995 0.563448 1.78499)
(200.486 0.267919 1.02562)
(200.679 -0.051063 0.180461)
(200.596 -0.35339 -0.659945)
(200.216 -0.645839 -1.49167)
(199.527 -0.925264 -2.26421)
(198.498 -1.20451 -2.90254)
(197.148 -1.49834 -3.28637)
(195.508 -1.84753 -3.20132)
(193.957 -2.24419 -2.3851)
(200.106 1.70986 1.34933)
(200.639 1.39933 0.575539)
(200.849 1.07842 -0.2371)
(200.756 0.787045 -1.07094)
(200.338 0.525511 -1.90029)
(199.575 0.290627 -2.69391)
(198.414 0.0645167 -3.36441)
(196.849 -0.178352 -3.80032)
(194.865 -0.484636 -3.70667)
(192.888 -0.907765 -2.765)
(200.382 0.346432 2.09987)
(200.944 -0.0797701 1.27955)
(201.166 -0.476413 0.350303)
(201.074 -0.801904 -0.58466)
(200.64 -1.06793 -1.54527)
(199.835 -1.27 -2.4848)
(198.585 -1.41975 -3.33882)
(196.852 -1.54834 -3.96122)
(194.577 -1.69893 -4.08398)
(192.144 -2.02614 -3.15333)
(199.782 1.81601 1.30268)
(200.321 1.35134 0.568225)
(200.539 1.00224 -0.223677)
(200.421 0.718786 -1.05756)
(199.948 0.533671 -1.91012)
(199.086 0.438024 -2.76274)
(197.756 0.428323 -3.53681)
(195.889 0.49524 -4.10749)
(193.421 0.563557 -4.18022)
(190.648 0.520499 -3.12028)
(198.048 -0.258315 0.267514)
(198.135 -0.293135 0.231016)
(198.153 -0.335583 0.136653)
(198.148 -0.369718 0.0666993)
(198.125 -0.4081 -0.0134265)
(198.091 -0.442697 -0.0708798)
(198.048 -0.475475 -0.115525)
(198.003 -0.504728 -0.135592)
(197.953 -0.52913 -0.136523)
(197.861 -0.545998 -0.117715)
(198.622 0.316834 0.0828067)
(198.683 0.344384 -0.036149)
(198.707 0.341995 -0.143862)
(198.691 0.308753 -0.24299)
(198.637 0.257312 -0.322975)
(198.552 0.192622 -0.375268)
(198.446 0.12106 -0.392015)
(198.331 0.0485546 -0.366058)
(198.223 -0.0182866 -0.298071)
(198.136 -0.0697555 -0.188801)
(198.737 -0.171968 0.630312)
(198.849 -0.246774 0.416149)
(198.891 -0.338266 0.166622)
(198.861 -0.439817 -0.0757968)
(198.76 -0.554213 -0.294035)
(198.598 -0.67791 -0.467954)
(198.389 -0.806433 -0.578823)
(198.16 -0.933876 -0.612523)
(197.942 -1.05242 -0.556381)
(197.771 -1.14941 -0.421877)
(198.773 0.574072 0.502399)
(198.955 0.53156 0.204888)
(199.025 0.436567 -0.114128)
(198.98 0.3129 -0.424517)
(198.821 0.166652 -0.701898)
(198.559 0.00429933 -0.917942)
(198.214 -0.169641 -1.04319)
(197.821 -0.349117 -1.04745)
(197.432 -0.525158 -0.906988)
(197.125 -0.680335 -0.615325)
(198.972 0.123665 1.04044)
(199.231 0.00677889 0.616025)
(199.33 -0.153997 0.135846)
(199.273 -0.332591 -0.332487)
(199.056 -0.528962 -0.768783)
(198.689 -0.736061 -1.13393)
(198.189 -0.953226 -1.3845)
(197.601 -1.17692 -1.47196)
(196.993 -1.40598 -1.34331)
(196.494 -1.61413 -0.970348)
(199.047 1.00364 0.873424)
(199.38 0.8737 0.376264)
(199.51 0.69233 -0.157364)
(199.442 0.495257 -0.687783)
(199.169 0.285163 -1.18549)
(198.698 0.0657039 -1.60934)
(198.039 -0.165808 -1.90225)
(197.237 -0.412488 -1.99926)
(196.369 -0.675369 -1.80344)
(195.627 -0.942847 -1.26175)
(199.352 0.296099 1.4681)
(199.758 0.0747023 0.868499)
(199.917 -0.176039 0.190446)
(199.844 -0.42108 -0.480347)
(199.527 -0.662868 -1.13252)
(198.964 -0.896389 -1.71587)
(198.154 -1.13024 -2.16801)
(197.134 -1.37222 -2.39376)
(195.979 -1.64529 -2.27169)
(194.944 -1.93617 -1.64629)
(199.412 1.46803 1.01698)
(199.861 1.24041 0.405994)
(200.038 0.990287 -0.239425)
(199.954 0.756205 -0.901278)
(199.596 0.541503 -1.546)
(198.957 0.345411 -2.13719)
(198.02 0.155994 -2.59713)
(196.811 -0.0446852 -2.83471)
(195.385 -0.284711 -2.65767)
(194.045 -0.593263 -1.89575)
(199.684 0.0716118 1.79343)
(200.168 -0.265699 1.1287)
(200.356 -0.590475 0.357021)
(200.272 -0.859587 -0.415098)
(199.892 -1.08129 -1.19655)
(199.205 -1.24985 -1.93343)
(198.178 -1.3766 -2.56383)
(196.814 -1.48515 -2.95948)
(195.153 -1.60813 -2.95011)
(193.492 -1.84471 -2.1828)
(199.087 1.66582 0.952416)
(199.55 1.29852 0.374814)
(199.741 1.02329 -0.258916)
(199.638 0.796509 -0.927741)
(199.228 0.650666 -1.59906)
(198.493 0.578139 -2.2449)
(197.393 0.573022 -2.78514)
(195.913 0.625953 -3.11346)
(194.092 0.664823 -3.01221)
(192.205 0.633934 -2.11105)
(197.863 -0.306761 0.239099)
(197.938 -0.33607 0.222317)
(197.951 -0.371775 0.148765)
(197.949 -0.397508 0.0995121)
(197.936 -0.426972 0.0377438)
(197.917 -0.452662 -0.0075076)
(197.893 -0.476638 -0.0469675)
(197.867 -0.497313 -0.0708348)
(197.836 -0.513563 -0.0844619)
(197.759 -0.523353 -0.085812)
(198.405 0.285496 -0.00694556)
(198.443 0.321831 -0.0840574)
(198.458 0.333783 -0.145484)
(198.448 0.31879 -0.199565)
(198.416 0.288587 -0.240077)
(198.365 0.247276 -0.26218)
(198.301 0.200088 -0.261978)
(198.233 0.151938 -0.23519)
(198.169 0.107857 -0.184665)
(198.116 0.0752633 -0.108218)
(198.441 -0.276757 0.514302)
(198.514 -0.337346 0.363761)
(198.541 -0.405513 0.18464)
(198.522 -0.479594 0.010178)
(198.456 -0.562962 -0.146677)
(198.352 -0.653024 -0.27234)
(198.22 -0.745679 -0.354844)
(198.077 -0.835771 -0.387086)
(197.945 -0.916878 -0.361796)
(197.843 -0.980275 -0.29249)
(198.443 0.435873 0.329769)
(198.571 0.416681 0.123705)
(198.621 0.354354 -0.097169)
(198.59 0.266895 -0.310754)
(198.479 0.159894 -0.498109)
(198.299 0.0394999 -0.63849)
(198.066 -0.0893834 -0.712593)
(197.807 -0.220574 -0.702128)
(197.56 -0.345378 -0.59825)
(197.371 -0.451593 -0.400296)