/*--------------------------------*- C++ -*----------------------------------*\
| =========                 |                                                 |
| \\      /  F ield         | foam-extend: Open Source CFD                    |
|  \\    /   O peration     | Version:     4.0                                |
|   \\  /    A nd           | Web:         http://www.foam-extend.org         |
|    \\/     M anipulation  |                                                 |
\*---------------------------------------------------------------------------*/
FoamFile
{
    version     2.0;
    format      ascii;
    class       volScalarField;
    location    "2250";
    object      divFlux;
}
// * * * * * * * * * * * * * * * * * * * * * * * * * * * * * * * * * * * * * //

dimensions      [1 -3 -1 0 0 0 0];

internalField   nonuniform List<scalar> 
34480
(
3.04916e-05
1.47114e-05
1.26773e-05
1.15966e-05
1.07891e-05
1.00759e-05
9.52247e-06
0.000301879
0.000818273
8.47611e-06
9.53629e-06
5.44969e-06
5.0281e-06
4.68623e-06
4.41057e-06
4.27471e-06
4.25747e-06
4.25976e-06
0.00334592
4.12351e-06
2.40528e-06
1.75204e-06
1.564e-06
1.52395e-06
1.48812e-06
1.53838e-06
1.62196e-06
1.67882e-06
0.00351529
1.66223e-06
8.64391e-07
6.20241e-07
5.879e-07
5.68007e-07
5.67358e-07
5.98171e-07
6.35819e-07
6.59531e-07
0.000918733
6.54987e-07
3.23672e-07
2.54101e-07
2.35577e-07
2.30275e-07
2.30406e-07
2.43301e-07
2.57832e-07
2.6693e-07
2.70268e-07
2.65359e-07
1.3453e-07
1.08191e-07
9.99434e-08
9.91415e-08
9.93134e-08
1.05098e-07
1.10024e-07
1.1346e-07
1.15064e-07
1.12257e-07
5.56832e-08
4.98412e-08
4.36811e-08
4.52593e-08
4.38338e-08
4.66848e-08
4.87721e-08
5.02994e-08
5.10631e-08
5.01976e-08
2.57046e-08
2.52464e-08
2.10311e-08
2.29555e-08
2.21765e-08
2.2314e-08
2.34595e-08
2.41468e-08
2.42842e-08
2.44675e-08
2.01188e-08
1.4079e-08
1.38291e-08
1.23712e-08
1.21629e-08
1.33293e-08
1.33709e-08
1.32876e-08
1.34959e-08
1.33709e-08
1.76786e-08
1.00802e-08
1.07675e-08
8.01838e-09
8.47657e-09
8.66749e-09
8.01838e-09
7.9802e-09
8.82022e-09
9.54569e-09
3.84707e-05
1.90629e-05
1.62091e-05
1.47454e-05
1.38969e-05
1.32174e-05
1.27374e-05
1.24871e-05
1.24724e-05
0.00105716
1.39726e-05
7.94822e-06
7.29917e-06
6.84069e-06
6.52682e-06
6.38071e-06
6.37715e-06
6.49812e-06
6.72153e-06
0.00348764
3.98949e-06
2.91675e-06
2.56236e-06
2.5285e-06
2.50507e-06
2.59499e-06
2.73031e-06
2.88783e-06
3.0534e-06
0.00442897
1.7343e-06
1.15987e-06
1.09505e-06
1.07187e-06
1.08146e-06
1.13889e-06
1.2086e-06
1.28428e-06
1.36134e-06
0.00158714
8.23605e-07
5.40108e-07
4.81691e-07
4.82787e-07
4.9021e-07
5.16254e-07
5.47471e-07
5.81973e-07
6.16597e-07
6.33833e-07
4.62472e-07
2.69468e-07
2.1452e-07
2.30494e-07
2.33475e-07
2.42846e-07
2.57701e-07
2.72876e-07
2.89488e-07
2.9451e-07
3.27338e-07
1.58454e-07
9.2763e-08
1.10842e-07
1.1903e-07
1.17421e-07
1.26271e-07
1.33323e-07
1.417e-07
1.44285e-07
2.46335e-07
1.28936e-07
2.06161e-08
6.9984e-08
6.16779e-08
6.16779e-08
6.75561e-08
7.03674e-08
7.48825e-08
7.61443e-08
2.2273e-08
1.00254e-07
3.89166e-08
3.0746e-08
4.71258e-08
3.79485e-08
4.15885e-08
4.35633e-08
4.68161e-08
4.75954e-08
1.7539e-07
4.70323e-08
6.08047e-08
1.92389e-08
3.69514e-08
3.01006e-08
3.23724e-08
3.41472e-08
3.6277e-08
3.77101e-08
3.07209e-05
1.55767e-05
1.2933e-05
1.14259e-05
1.07374e-05
1.02953e-05
1.00408e-05
1.00034e-05
8.81614e-06
0.000909225
1.19879e-05
5.76152e-06
5.3145e-06
4.94134e-06
4.67099e-06
4.4874e-06
4.42528e-06
4.52447e-06
0.000102065
0.00140521
3.12694e-06
2.06975e-06
1.75938e-06
1.72394e-06
1.64225e-06
1.61057e-06
1.63821e-06
1.74386e-06
0.000139631
0.00132851
1.23121e-06
7.39988e-07
7.03162e-07
6.73398e-07
6.45415e-07
6.36935e-07
6.51685e-07
7.01512e-07
7.89057e-07
9.8871e-07
4.72818e-07
3.14804e-07
2.88783e-07
2.78374e-07
2.68475e-07
2.63836e-07
2.69776e-07
2.91385e-07
3.31521e-07
4.21224e-07
2.01133e-07
1.39187e-07
1.22704e-07
1.21813e-07
1.16567e-07
1.1429e-07
1.17012e-07
1.26466e-07
1.45473e-07
1.87914e-07
8.90736e-08
6.65687e-08
5.20054e-08
5.65812e-08
5.37654e-08
5.14775e-08
5.35894e-08
5.75052e-08
6.68767e-08
8.71322e-08
4.68655e-08
3.7539e-08
2.0591e-08
3.13617e-08
2.55803e-08
2.56595e-08
2.67287e-08
2.84314e-08
3.38167e-08
4.51715e-08
2.93031e-08
1.84671e-08
1.78191e-08
1.67392e-08
1.61992e-08
1.57312e-08
1.58752e-08
1.70272e-08
1.9619e-08
2.74127e-08
2.7796e-09
1.20114e-08
1.58722e-08
8.67857e-09
1.16154e-08
1.00645e-08
1.06585e-08
1.15494e-08
1.25394e-08
1.92566e-08
2.4952e-05
1.44891e-05
1.21792e-05
1.05036e-05
9.73229e-06
9.33079e-06
9.13732e-06
9.13882e-06
2.6864e-06
0.000426458
1.17167e-05
5.33361e-06
4.98882e-06
4.60409e-06
4.34047e-06
4.16111e-06
4.07078e-06
4.10184e-06
6.28128e-05
0.00123522
3.08129e-06
2.03554e-06
1.69952e-06
1.65958e-06
1.56903e-06
1.51282e-06
1.50277e-06
1.5564e-06
0.000151411
0.00242455
1.24537e-06
7.3102e-07
6.95374e-07
6.63317e-07
6.27855e-07
6.08038e-07
6.06044e-07
6.34021e-07
0.000150444
0.00228249
4.6821e-07
3.1616e-07
2.91865e-07
2.77508e-07
2.63993e-07
2.56105e-07
2.54737e-07
2.67937e-07
6.62137e-05
0.00175293
1.91314e-07
1.45222e-07
1.25022e-07
1.22583e-07
1.16509e-07
1.12322e-07
1.11586e-07
1.17475e-07
1.83351e-05
0.00115797
7.59664e-08
7.40325e-08
5.42769e-08
5.67719e-08
5.35406e-08
5.10456e-08
5.01458e-08
5.43587e-08
6.1721e-08
0.000517949
3.08764e-08
4.53889e-08
2.13508e-08
3.00752e-08
2.70566e-08
2.58787e-08
2.55842e-08
2.76456e-08
3.13268e-08
0.000210537
3.06118e-08
1.93764e-08
1.79708e-08
1.74354e-08
1.77366e-08
1.59964e-08
1.6398e-08
1.6833e-08
1.94098e-08
2.58435e-08
1.73931e-08
8.52805e-09
1.58904e-08
9.57105e-09
1.08595e-08
1.05527e-08
1.07674e-08
1.08595e-08
1.30375e-08
1.91076e-08
1.99658e-05
1.25887e-05
1.11577e-05
9.59998e-06
8.75412e-06
8.32506e-06
8.13645e-06
8.13379e-06
1.71048e-06
0.000189922
1.12928e-05
4.77771e-06
4.59783e-06
4.2243e-06
3.96991e-06
3.80633e-06
3.71496e-06
3.70251e-06
2.84078e-05
0.00066246
2.95944e-06
1.97362e-06
1.60803e-06
1.56594e-06
1.48189e-06
1.42177e-06
1.39199e-06
1.40103e-06
0.000108645
0.00144272
1.25844e-06
7.0348e-07
6.68203e-07
6.4037e-07
6.05236e-07
5.81708e-07
5.70358e-07
5.7572e-07
0.000118115
0.00156315
4.72997e-07
3.04816e-07
2.87021e-07
2.72745e-07
2.57883e-07
2.47959e-07
2.43217e-07
2.46835e-07
8.52828e-05
0.00143871
1.87442e-07
1.41805e-07
1.26876e-07
1.20289e-07
1.14471e-07
1.09979e-07
1.08012e-07
1.1015e-07
7.32808e-05
0.00119009
6.80045e-08
7.41466e-08
5.47924e-08
5.65795e-08
5.2587e-08
5.10281e-08
5.05338e-08
5.12562e-08
1.21003e-05
0.000822389
2.01447e-08
4.8047e-08
2.35786e-08
3.00123e-08
2.64874e-08
2.55635e-08
2.53239e-08
2.66243e-08
1.93868e-05
0.00065703
2.98412e-08
2.03773e-08
1.82307e-08
1.65819e-08
1.62085e-08
1.61463e-08
1.63641e-08
1.69552e-08
1.85729e-08
0.0004188
2.73719e-08
6.21691e-09
1.54282e-08
1.07513e-08
1.10935e-08
1.05801e-08
1.12646e-08
1.16638e-08
1.28045e-08
0.000563857
1.89194e-05
9.79991e-06
9.61704e-06
8.58689e-06
7.81788e-06
7.36361e-06
7.13908e-06
7.08874e-06
7.19187e-06
5.00972e-05
1.08854e-05
4.08537e-06
4.13512e-06
3.81508e-06
3.56956e-06
3.4182e-06
3.33203e-06
3.30348e-06
5.04407e-06
0.000273514
2.69654e-06
1.89364e-06
1.49024e-06
1.44815e-06
1.37333e-06
1.31574e-06
1.28072e-06
1.26818e-06
6.08999e-05
0.000788505
1.24827e-06
6.69993e-07
6.27442e-07
6.06047e-07
5.73174e-07
5.49738e-07
5.34069e-07
5.30278e-07
7.50542e-05
0.000942146
4.80804e-07
2.87185e-07
2.75232e-07
2.61598e-07
2.47918e-07
2.38374e-07
2.31693e-07
2.30057e-07
6.82968e-05
0.000970942
1.90805e-07
1.33378e-07
1.23993e-07
1.17034e-07
1.11387e-07
1.06814e-07
1.0407e-07
1.03116e-07
7.17226e-05
0.000904824
6.7496e-08
7.21106e-08
5.56737e-08
5.45072e-08
5.21388e-08
4.99826e-08
4.83212e-08
4.88868e-08
4.18298e-05
0.000717054
1.24013e-08
4.76885e-08
2.38601e-08
2.86004e-08
2.65961e-08
2.55463e-08
2.50691e-08
2.50372e-08
5.82509e-05
0.000664983
2.84998e-08
1.97822e-08
1.83072e-08
1.69479e-08
1.6543e-08
1.60514e-08
1.5444e-08
1.59646e-08
2.0299e-05
0.000582026
3.184e-08
5.69992e-09
1.46077e-08
1.04719e-08
1.0631e-08
1.07106e-08
1.01538e-08
1.10552e-08
5.41582e-05
0.000693158
2.44465e-05
6.47864e-06
7.39916e-06
7.1528e-06
6.71086e-06
6.36835e-06
6.16337e-06
6.09266e-06
6.14326e-06
1.18924e-05
1.06919e-05
3.27631e-06
3.58545e-06
3.36578e-06
3.14641e-06
3.00737e-06
2.927e-06
2.89391e-06
1.95343e-07
9.65945e-05
2.28726e-06
1.79689e-06
1.35054e-06
1.31082e-06
1.24478e-06
1.19252e-06
1.15839e-06
1.13967e-06
2.86668e-05
0.000415942
1.19267e-06
6.29922e-07
5.77328e-07
5.60791e-07
5.29392e-07
5.08689e-07
4.93311e-07
4.84167e-07
3.79329e-05
0.000542681
4.81484e-07
2.67696e-07
2.56161e-07
2.46106e-07
2.33642e-07
2.24178e-07
2.17418e-07
2.13489e-07
3.89801e-05
0.000602314
1.95348e-07
1.22699e-07
1.17967e-07
1.11719e-07
1.061e-07
1.02071e-07
9.83737e-08
9.76344e-08
4.68744e-05
0.000607512
6.94036e-08
6.56893e-08
5.43194e-08
5.27092e-08
5.03103e-08
4.78129e-08
4.70899e-08
4.62027e-08
3.54468e-05
0.000512566
1.02621e-08
4.54567e-08
2.56119e-08
2.62034e-08
2.54641e-08
2.48726e-08
2.3867e-08
2.366e-08
5.36646e-05
0.000519933
2.6416e-08
1.88742e-08
1.84709e-08
1.59167e-08
1.58898e-08
1.51101e-08
1.52714e-08
1.56747e-08
3.67089e-05
0.000498575
3.35714e-08
5.91499e-09
1.2939e-08
1.04745e-08
1.06716e-08
9.56257e-09
1.00801e-08
9.88297e-09
6.05006e-05
0.000578801
3.69567e-05
4.18096e-06
5.44845e-06
5.62996e-06
5.45865e-06
5.27017e-06
5.14407e-06
5.10054e-06
5.14082e-06
5.48184e-06
1.08615e-05
2.43562e-06
2.98801e-06
2.89315e-06
2.71025e-06
2.58639e-06
2.51649e-06
2.48356e-06
1.80199e-06
2.53047e-05
1.74657e-06
1.69904e-06
1.19238e-06
1.15741e-06
1.10157e-06
1.05467e-06
1.0233e-06
1.00358e-06
1.15815e-05
0.000196806
1.08857e-06
5.8656e-07
5.17986e-07
5.05751e-07
4.7993e-07
4.60088e-07
4.45975e-07
4.35939e-07
1.52259e-05
0.000289589
4.62506e-07
2.47917e-07
2.33816e-07
2.271e-07
2.14688e-07
2.05498e-07
1.9992e-07
1.94853e-07
1.56814e-05
0.000346591
1.9834e-07
1.10732e-07
1.09632e-07
1.04099e-07
9.86689e-08
9.49916e-08
9.2414e-08
9.01458e-08
2.0791e-05
0.000379226
7.35186e-08
5.86843e-08
5.15664e-08
4.92752e-08
4.74118e-08
4.56399e-08
4.42041e-08
4.31044e-08
1.80796e-05
0.000330644
1.00484e-08
4.04711e-08
2.4992e-08
2.53219e-08
2.4772e-08
2.29574e-08
2.24351e-08
2.30949e-08
3.30161e-05
0.000361695
2.6284e-08
1.69213e-08
1.71962e-08
1.51966e-08
1.46718e-08
1.43968e-08
1.47218e-08
1.47717e-08
2.77453e-05
0.000349479
3.30063e-08
6.36943e-09
1.12038e-08
1.01269e-08
9.21047e-09
9.62288e-09
9.69161e-09
1.03561e-08
4.52015e-05
0.000415093
4.42949e-05
3.19204e-06
4.41327e-06
4.63864e-06
4.47733e-06
4.28918e-06
4.16841e-06
4.128e-06
4.15465e-06
4.39167e-06
1.13026e-05
1.61033e-06
2.38702e-06
2.43328e-06
2.28472e-06
2.17411e-06
2.10973e-06
2.08149e-06
2.07424e-06
3.93293e-06
1.07251e-06
1.629e-06
1.02539e-06
9.98578e-07
9.53108e-07
9.09759e-07
8.8126e-07
8.63854e-07
4.15618e-06
8.50162e-05
9.49618e-07
5.39387e-07
4.53103e-07
4.47416e-07
4.23752e-07
4.05584e-07
3.92762e-07
3.83369e-07
4.59736e-06
0.00014189
4.22737e-07
2.28172e-07
2.08199e-07
2.03087e-07
1.93448e-07
1.85123e-07
1.79427e-07
1.75008e-07
3.21942e-06
0.000181809
1.93544e-07
1.00225e-07
9.96814e-08
9.46973e-08
9.04162e-08
8.62628e-08
8.4218e-08
1.19075e-05
3.1606e-06
0.000217971
7.75189e-08
5.14027e-08
4.79096e-08
4.56092e-08
4.35361e-08
4.20877e-08
4.06393e-08
3.97306e-08
3.79096e-06
0.000190584
1.2941e-08
3.49141e-08
2.46392e-08
2.35146e-08
2.22111e-08
2.20577e-08
2.15465e-08
1.01926e-05
1.21101e-05
0.000227314
2.78154e-08
1.36162e-08
1.76127e-08
1.429e-08
1.43829e-08
1.41273e-08
1.29656e-08
1.31282e-08
1.36709e-05
0.000215916
3.01241e-08
7.02882e-09
1.07136e-08
9.90424e-09
9.09486e-09
8.64758e-09
9.07357e-09
4.81902e-06
2.51137e-05
0.00026906
3.93308e-05
1.95225e-06
3.38862e-06
3.93167e-06
3.92585e-06
3.75032e-06
3.58207e-06
3.49332e-06
3.50134e-06
3.7279e-06
1.20886e-05
8.02107e-07
1.77018e-06
2.00565e-06
1.91878e-06
1.81013e-06
1.74524e-06
1.71307e-06
1.70006e-06
1.59189e-06
1.81346e-07
1.62382e-06
8.60001e-07
8.36382e-07
8.0977e-07
7.6826e-07
7.41885e-07
7.26061e-07
1.32163e-06
3.28413e-05
7.84345e-07
4.96265e-07
3.84411e-07
3.85579e-07
3.66036e-07
3.48671e-07
3.37741e-07
3.28514e-07
5.98437e-07
6.36448e-05
3.65809e-07
2.07195e-07
1.80956e-07
1.78716e-07
1.69008e-07
1.62287e-07
1.56788e-07
1.52647e-07
1.62779e-06
8.73351e-05
1.8055e-07
8.8925e-08
8.74103e-08
8.48263e-08
8.00147e-08
7.77277e-08
7.46091e-08
1.86794e-05
6.18296e-06
0.000116041
7.79921e-08
4.49344e-08
4.27432e-08
4.11063e-08
3.94166e-08
3.74366e-08
3.64861e-08
3.58261e-08
3.46697e-06
9.70236e-05
1.65515e-08
2.88219e-08
2.31431e-08
2.10759e-08
2.11234e-08
1.98403e-08
1.87473e-08
2.20946e-05
2.99682e-06
0.000130496
3.07011e-08
1.06492e-08
1.52718e-08
1.32413e-08
1.24421e-08
1.22908e-08
1.24637e-08
1.22476e-08
2.53995e-06
0.000120077
2.59389e-08
7.95989e-09
8.59351e-09
8.98953e-09
8.1183e-09
8.1777e-09
7.90049e-09
1.25358e-05
8.17532e-06
0.000160641
3.59913e-05
5.05929e-07
6.47832e-07
1.59085e-06
2.11636e-06
2.29869e-06
2.28584e-06
2.18912e-06
2.0842e-06
2.03966e-06
1.36134e-05
5.35657e-08
1.04381e-06
1.4947e-06
1.52361e-06
1.44964e-06
1.38318e-06
1.34762e-06
1.33649e-06
1.2593e-06
1.07731e-06
1.74777e-06
6.99557e-07
6.66467e-07
6.67196e-07
6.34969e-07
6.06054e-07
5.89907e-07
5.77007e-07
1.10249e-05
5.91164e-07
4.70218e-07
3.12154e-07
3.21228e-07
3.09061e-07
2.93083e-07
2.81763e-07
2.73829e-07
1.62906e-07
2.50567e-05
2.9831e-07
1.87788e-07
1.51688e-07
1.52287e-07
1.45187e-07
1.38845e-07
1.33575e-07
1.29441e-07
2.49305e-06
3.8154e-05
1.60856e-07
7.78911e-08
7.50196e-08
7.31696e-08
6.98839e-08
6.64325e-08
6.4196e-08
1.96463e-05
1.0236e-05
5.73366e-05
7.4422e-08
3.88274e-08
3.77966e-08
3.58823e-08
3.40415e-08
3.34525e-08
3.19799e-08
3.14399e-08
4.89589e-06
4.24066e-05
2.08318e-08
2.30609e-08
2.17797e-08
1.85105e-08
1.80467e-08
1.7627e-08
9.84261e-07
2.82567e-05
1.23289e-05
6.8533e-05
3.41232e-08
7.49016e-09
1.37755e-08
1.18477e-08
1.13658e-08
1.1165e-08
1.06228e-08
1.10445e-08
3.32794e-06
5.8706e-05
2.06504e-08
8.94602e-09
7.63909e-09
8.08087e-09
7.71272e-09
7.54705e-09
6.9212e-09
1.65279e-05
3.17403e-06
8.84421e-05
6.15317e-05
4.70149e-06
3.77877e-06
3.36021e-06
3.66781e-06
4.09791e-06
4.37958e-06
4.49255e-06
4.5025e-06
4.57938e-06
1.50962e-05
2.60893e-07
4.12695e-07
1.00491e-06
1.22525e-06
1.25862e-06
1.23311e-06
1.19093e-06
1.14175e-06
9.98753e-07
3.04751e-06
2.10649e-06
5.90022e-07
4.8661e-07
5.3002e-07
5.21252e-07
5.00881e-07
4.83263e-07
4.69094e-07
3.54267e-06
3.40277e-07
4.79091e-07
2.41145e-07
2.54356e-07
2.53244e-07
2.41676e-07
2.30279e-07
2.23297e-07
2.16521e-07
7.38866e-06
2.21749e-07
1.71523e-07
1.23296e-07
1.25584e-07
1.21096e-07
1.14935e-07
1.10506e-07
1.07162e-07
1.74061e-06
1.46855e-05
1.36517e-07
6.75077e-08
6.24767e-08
6.16553e-08
5.85238e-08
5.6496e-08
1.24684e-06
1.84389e-05
1.14495e-05
2.54886e-05
6.63401e-08
3.3038e-08
3.22622e-08
3.07792e-08
2.97981e-08
2.84519e-08
2.69004e-08
2.63528e-08
2.48807e-06
1.42766e-05
2.34264e-08
1.72696e-08
1.84812e-08
1.60992e-08
1.56885e-08
1.4826e-08
2.02845e-05
3.10874e-05
1.76286e-05
3.15796e-05
3.60269e-08
6.2724e-09
1.11447e-08
1.06407e-08
9.72596e-09
9.70729e-09
9.31527e-09
9.50195e-09
4.15838e-06
2.34388e-05
1.44971e-08
9.17215e-09
6.22885e-09
6.94756e-09
6.45131e-09
6.09195e-09
6.50264e-09
1.7574e-05
9.31195e-06
4.41743e-05
3.70916e-05
8.12968e-07
3.78131e-06
7.61988e-06
9.03438e-06
8.82218e-06
7.81532e-06
6.53369e-06
5.24801e-06
4.02178e-06
1.68082e-05
7.53496e-07
1.82259e-07
2.96798e-07
4.38324e-07
5.19002e-07
5.78968e-07
6.4089e-07
7.01429e-07
7.02928e-07
6.30455e-06
2.87448e-06
6.42293e-07
3.12346e-07
3.54878e-07
3.71315e-07
3.61083e-07
3.48846e-07
3.2821e-07
2.16511e-06
1.18628e-08
5.58725e-07
1.87923e-07
1.82864e-07
1.95606e-07
1.90213e-07
1.80239e-07
1.73446e-07
1.66892e-07
2.53724e-07
1.31428e-07
1.64308e-07
9.56123e-08
9.84758e-08
9.72759e-08
9.22853e-08
8.85764e-08
8.53857e-08
8.10714e-07
4.76768e-06
1.09876e-07
5.89634e-08
4.95617e-08
5.03253e-08
4.813e-08
4.55052e-08
1.07077e-05
1.68996e-05
1.14627e-05
9.07293e-06
5.61754e-08
2.71074e-08
2.59621e-08
2.54318e-08
2.39046e-08
2.33743e-08
2.2632e-08
2.1635e-08
2.11048e-08
2.48027e-06
3.43113e-06
1.26565e-08
1.55391e-08
1.43173e-08
1.29619e-08
1.88052e-05
3.25374e-05
3.25392e-05
2.07619e-05
1.04318e-05
3.57885e-08
5.6228e-09
8.45155e-09
8.93747e-09
8.69451e-09
7.70532e-09
8.31272e-09
7.61854e-09
1.11772e-06
6.07647e-06
6.72845e-09
9.22671e-09
5.4883e-09
5.34513e-09
5.8701e-09
5.2974e-09
2.73064e-06
1.6815e-05
1.17065e-05
1.89279e-05
7.46608e-05
5.54666e-05
5.36144e-05
4.49712e-05
3.62969e-05
2.89119e-05
2.28981e-05
1.79503e-05
1.36786e-05
9.64795e-06
4.27555e-06
2.2105e-06
1.01108e-06
7.53317e-07
7.52563e-07
7.46018e-07
7.34395e-07
7.41848e-07
8.10594e-07
9.22875e-07
7.02676e-05
2.42344e-06
8.39633e-06
6.9865e-06
5.94783e-06
5.27818e-06
4.5135e-06
2.49148e-06
7.04004e-08
2.98285e-06
5.91463e-07
7.31008e-07
1.79358e-07
1.20957e-07
1.38837e-07
1.44323e-07
1.40375e-07
1.34548e-07
1.28263e-07
1.09192e-07
2.09005e-08
1.72014e-07
7.26592e-08
7.17973e-08
7.41804e-08
7.24564e-08
6.90846e-08
6.58395e-08
5.19415e-07
1.22673e-06
9.92102e-06
5.25962e-08
3.80219e-08
3.84434e-08
3.84877e-08
8.66313e-06
1.56115e-05
1.57838e-05
1.12615e-05
8.82274e-07
4.55358e-08
2.1631e-08
2.11183e-08
2.0093e-08
1.93634e-08
1.84564e-08
1.79437e-08
1.68986e-08
1.66226e-08
1.52674e-08
4.32739e-05
5.06049e-05
4.49178e-05
4.09149e-05
4.08872e-05
4.1342e-05
4.08027e-05
3.40619e-05
2.33422e-05
1.74195e-06
3.01741e-08
5.95314e-09
6.42101e-09
7.21153e-09
6.74367e-09
6.63074e-09
6.08221e-09
6.09834e-09
6.16288e-09
2.14456e-07
4.01318e-10
8.59226e-09
4.80634e-09
4.67325e-09
4.20001e-09
4.51057e-09
7.8239e-06
1.50388e-05
1.18347e-05
5.47062e-06
0.00113811
0.00010329
9.45012e-05
7.53879e-05
5.96785e-05
4.70874e-05
3.65089e-05
2.71161e-05
1.82457e-05
9.17208e-06
1.08393e-05
6.94608e-06
3.75945e-06
2.25601e-06
1.52986e-06
1.05064e-06
6.37618e-07
1.75557e-07
5.03058e-07
1.54869e-06
0.000224405
0.000125699
7.1615e-05
4.31001e-05
2.60392e-05
1.64044e-05
1.05213e-05
5.53172e-06
9.72577e-07
4.23813e-06
1.54114e-06
9.96919e-07
2.48621e-07
8.89093e-08
8.74245e-08
9.72131e-08
9.86017e-08
9.6457e-08
9.25938e-08
7.39121e-08
1.25677e-07
1.96135e-07
6.42706e-08
4.82442e-08
5.18266e-08
5.18737e-08
5.09546e-08
1.75961e-07
1.21249e-06
1.42192e-08
4.24594e-05
3.19171e-05
2.12075e-05
1.74976e-05
1.75762e-05
1.80998e-05
1.78538e-05
1.51483e-05
1.12739e-05
3.35116e-06
3.40613e-08
1.80376e-08
1.57279e-08
1.4958e-08
1.46647e-08
1.42981e-08
1.34365e-08
1.31982e-08
1.23367e-08
1.17431e-08
0.000204958
5.64992e-05
9.19266e-05
8.25616e-05
6.83613e-05
5.65538e-05
4.76365e-05
3.69236e-05
2.681e-05
9.75321e-06
2.0335e-08
8.23389e-09
4.52939e-09
5.33928e-09
5.74423e-09
5.02432e-09
5.29429e-09
4.78436e-09
4.97933e-09
5.01577e-09
3.61222e-09
6.24166e-09
4.27567e-09
3.58827e-09
3.3133e-09
3.3133e-09
9.0045e-06
1.21567e-05
1.04579e-05
1.11668e-06
0.00232815
0.000135251
0.000139148
0.000123901
0.00010264
8.05502e-05
5.99154e-05
4.11997e-05
2.37264e-05
6.27608e-06
4.16184e-05
6.13526e-06
4.96768e-06
3.75007e-06
2.62263e-06
1.59993e-06
5.12042e-07
8.46828e-07
2.73915e-06
5.2294e-06
0.000379882
0.000243665
0.000123451
6.90815e-05
3.92257e-05
2.36216e-05
1.49645e-05
8.63637e-06
2.86751e-06
4.72459e-06
2.8538e-06
1.25159e-06
3.77582e-07
1.02975e-07
5.73984e-08
5.79224e-08
6.21017e-08
6.24212e-08
6.08748e-08
5.80961e-08
1.89323e-05
2.29616e-07
7.13386e-08
1.01662e-07
1.8098e-06
3.09968e-06
3.73658e-06
3.42916e-06
2.71198e-06
9.21269e-07
4.53095e-05
4.96967e-05
3.95928e-05
3.08223e-05
2.50095e-05
2.09919e-05
1.7902e-05
1.44161e-05
1.12982e-05
5.79133e-06
2.1874e-08
1.48086e-08
1.1622e-08
1.05654e-08
1.06847e-08
1.01735e-08
9.62817e-09
9.06582e-09
9.04878e-09
7.74694e-09
0.000463672
6.02828e-06
0.000105666
0.000104972
8.62914e-05
6.86156e-05
5.5167e-05
4.23753e-05
3.26131e-05
1.71964e-05
4.96756e-09
8.50502e-09
3.7924e-09
3.86211e-09
3.40201e-09
3.80634e-09
3.72269e-09
3.40201e-09
3.51355e-09
3.55432e-09
1.72233e-09
3.13129e-09
3.39968e-09
2.54337e-09
2.50503e-09
2.36828e-08
5.63508e-06
7.28088e-06
7.37281e-06
3.30819e-06
0.00315171
0.000335306
0.000300207
0.000222456
0.000156501
0.000106252
6.81714e-05
3.80208e-05
1.19031e-05
1.3495e-05
2.95841e-05
1.55635e-05
1.23004e-05
9.83167e-06
7.41983e-06
4.79744e-06
1.8896e-06
1.45932e-06
5.57838e-06
1.04131e-05
0.00054214
0.000374118
0.000171246
8.86879e-05
4.73801e-05
2.77027e-05
1.78623e-05
1.12075e-05
4.57601e-06
5.73457e-06
4.26609e-06
1.33435e-06
5.06934e-07
1.69144e-07
6.96609e-08
4.7704e-08
4.49238e-08
4.47099e-08
4.00405e-08
8.50404e-09
6.19856e-05
3.74495e-05
2.26542e-05
1.5529e-05
1.14697e-05
8.95323e-06
7.1606e-06
5.50856e-06
4.15827e-06
2.09423e-06
3.58567e-05
4.31899e-05
3.6536e-05
2.87464e-05
2.27664e-05
1.84423e-05
1.52817e-05
1.24647e-05
1.04297e-05
6.89588e-06
9.76479e-09
1.18656e-08
8.09523e-09
7.31897e-09
6.79619e-09
6.40014e-09
6.28925e-09
6.0833e-09
6.17835e-09
5.22483e-09
0.000800494
8.55093e-05
9.47579e-05
0.000112812
9.6852e-05
7.82268e-05
6.33667e-05
5.03447e-05
4.13008e-05
2.65496e-05
9.75078e-09
7.43995e-09
3.8107e-09
2.57935e-09
2.52751e-09
2.2942e-09
2.48862e-09
2.39789e-09
2.59232e-09
2.13457e-09
3.50375e-09
6.5348e-10
1.94856e-09
1.63964e-09
2.20995e-09
1.85351e-09
1.21191e-09
1.07849e-06
2.96326e-06
2.11633e-06
0.00854583
0.000186005
0.000164571
0.000121373
8.37205e-05
5.38225e-05
2.98255e-05
9.27874e-06
1.02955e-05
3.08465e-05
8.023e-05
3.98794e-05
2.9562e-05
2.03982e-05
1.27598e-05
6.38342e-06
7.08652e-07
4.91092e-06
1.11854e-05
1.78666e-05
0.000614528
0.000477151
0.000197177
9.47822e-05
4.82523e-05
2.8538e-05
2.02526e-05
1.5541e-05
1.0443e-05
6.6291e-07
4.76115e-06
1.06593e-06
4.86296e-07
2.09023e-07
1.03772e-07
6.93542e-08
6.3975e-08
7.06133e-08
8.32051e-08
1.12835e-07
5.45835e-05
3.73517e-05
2.24712e-05
1.52119e-05
1.09747e-05
8.35692e-06
6.60767e-06
5.24263e-06
4.27743e-06
2.78932e-06
2.22132e-05
2.52291e-05
2.20695e-05
1.77931e-05
1.43363e-05
1.17916e-05
9.96428e-06
8.4958e-06
7.65169e-06
6.02735e-06
6.84909e-10
9.85251e-09
5.83198e-09
5.11035e-09
4.28562e-09
3.71126e-09
4.09417e-09
3.74071e-09
3.04853e-09
3.02813e-09
0.00102463
0.000172121
6.33392e-05
0.000100442
9.26892e-05
7.82998e-05
6.58986e-05
5.53713e-05
4.85505e-05
3.6109e-05
1.78629e-08
4.0607e-09
2.5304e-09
1.95203e-09
1.60259e-09
1.69899e-09
1.45799e-09
1.39775e-09
1.42185e-09
1.36858e-09
1.28304e-06
8.29168e-07
9.83042e-10
1.215e-09
7.9527e-10
9.77e-07
2.30852e-06
2.15134e-06
3.87298e-06
2.41771e-06
0.00537297
0.000837393
0.000614279
0.000424527
0.000295863
0.000202521
0.000130766
7.42156e-05
1.53082e-05
3.65201e-05
2.67389e-05
2.30346e-05
1.57757e-05
9.54788e-06
4.62975e-06
5.38788e-07
3.2225e-06
7.08554e-06
1.14042e-05
1.5273e-05
0.000332513
0.000390845
0.000143446
6.48283e-05
3.19355e-05
1.93109e-05
1.45882e-05
1.2045e-05
8.92683e-06
1.28175e-06
3.57644e-06
4.96642e-07
2.21023e-07
7.99893e-08
1.07816e-08
2.43357e-08
4.62583e-08
6.27901e-08
7.59437e-08
9.96966e-08
2.35301e-05
1.74609e-05
1.0522e-05
7.19587e-06
5.29058e-06
4.1456e-06
3.41796e-06
2.89951e-06
2.60554e-06
2.08633e-06
9.20316e-06
8.52678e-06
7.58838e-06
6.3346e-06
5.30734e-06
4.54641e-06
4.01241e-06
3.61959e-06
3.51165e-06
3.21007e-06
6.64651e-09
5.47638e-09
3.39535e-09
2.03995e-09
2.39592e-09
1.73875e-09
1.79351e-09
1.60184e-09
1.41017e-09
1.68785e-09
0.000675205
0.000139265
3.04933e-05
6.25265e-05
6.21894e-05
5.57711e-05
4.95827e-05
4.43118e-05
4.12943e-05
3.45101e-05
1.37804e-08
1.04176e-09
1.00815e-09
9.07336e-10
8.06521e-10
6.72101e-10
1.10897e-09
6.60899e-10
7.95319e-10
4.19336e-10
0.000119139
0.00015727
0.000112974
7.81801e-05
5.65667e-05
4.40497e-05
3.68165e-05
3.14384e-05
2.92787e-05
2.25209e-05
1.30279e-05
0.000694937
0.000527701
0.000408138
0.000317935
0.00024795
0.000192497
0.000148
0.000110994
8.41667e-05
5.30447e-06
1.71629e-06
8.29773e-07
4.72798e-08
9.00722e-07
1.77213e-06
2.71591e-06
3.77636e-06
4.95325e-06
5.53762e-06
8.53866e-05
9.13651e-05
2.75743e-05
1.33809e-05
8.12485e-06
6.63221e-06
6.37499e-06
6.3219e-06
5.99819e-06
4.36593e-06
7.20501e-07
1.41878e-07
7.51055e-08
4.38529e-08
3.19208e-08
2.76252e-08
2.65084e-08
2.77016e-08
3.1749e-08
3.75146e-08
2.54252e-06
2.39808e-06
1.53449e-06
1.13622e-06
9.11002e-07
7.78552e-07
7.00463e-07
6.52205e-07
6.53792e-07
6.62498e-07
1.43424e-06
9.96942e-07
9.05862e-07
8.06549e-07
7.24733e-07
6.61846e-07
6.19534e-07
5.93417e-07
6.29285e-07
6.89452e-07
2.77077e-09
1.76913e-09
8.01838e-10
8.40021e-10
2.92734e-10
7.8911e-10
5.98197e-10
3.30917e-10
8.14566e-10
3.1819e-10
3.82219e-05
1.33746e-05
1.23842e-05
1.75346e-05
1.77983e-05
1.69974e-05
1.61358e-05
1.53569e-05
1.50887e-05
1.39715e-05
3.92509e-09
3.12404e-11
5.20674e-11
1.04135e-11
4.7902e-10
5.10261e-10
1.56202e-10
4.06126e-10
2.0827e-10
6.45636e-10
0.000345701
0.000241792
0.000176652
0.000136
0.000112222
9.84833e-05
9.01796e-05
8.43135e-05
8.02171e-05
7.10377e-05
0.499623
0.400764
0.509609
0.88809
0.67518
0.615108
0.729549
1.10208
0.854348
0.795491
0.942062
1.44681
0.632843
0.606928
0.717667
1.12104
0.475519
0.470951
0.557195
0.899214
0.329016
0.321659
0.396303
0.671031
0.23184
0.217799
0.287856
0.513665
0.161556
0.145889
0.206116
0.381086
0.120315
0.107389
0.159658
0.300055
0.0957175
0.0863461
0.137509
0.25899
0.0352779
0.00180582
2.46209e-05
0.0188086
0.07861
0.00654902
1.79522e-05
0.0409605
0.138539
0.0153984
9.41001e-06
0.071086
0.12912
0.0175184
4.69964e-06
0.0617691
0.116873
0.0178821
2.36186e-06
0.0509776
0.0941911
0.0155398
1.18522e-06
0.0403753
0.0750391
0.0126764
6.14065e-07
0.0341937
0.0582462
0.0102289
3.49216e-07
0.0276449
0.0480785
0.00937707
0.00134457
0.0234668
0.0425192
0.0113647
0.00519068
0.0207925
0.0173106
0.0135625
0.0142272
0.0197901
0.0393553
0.0270291
0.0264826
0.0412209
0.0765751
0.0495919
0.0500482
0.0807902
0.0738478
0.0445364
0.0460139
0.0769668
0.0691705
0.0390713
0.0414504
0.0729046
0.0573083
0.0305403
0.0330964
0.060665
0.0467726
0.0235003
0.0260753
0.0501355
0.0370867
0.0176131
0.0198615
0.0394501
0.0309813
0.0134564
0.0156474
0.032232
0.0276719
0.0114463
0.0139715
0.0279787
0.00207734
0.00147028
0.00140866
0.00203187
0.00634029
0.00430988
0.00396886
0.0064574
0.0167363
0.0112903
0.0107019
0.0168979
0.0199247
0.0130453
0.0128063
0.0195156
0.022062
0.0138973
0.0142462
0.0215812
0.020833
0.0126218
0.0133626
0.0202624
0.0188228
0.0108932
0.0118624
0.0183457
0.0162836
0.00904471
0.0100427
0.015692
0.0143339
0.00729942
0.0084743
0.0135183
0.013226
0.00660803
0.00826969
0.012623
0.000725256
0.000636785
0.000660727
0.000885196
0.00242272
0.00221246
0.00246249
0.0035229
0.00633372
0.00592214
0.00656403
0.0090784
0.00767316
0.00682718
0.00730567
0.00988454
0.00892763
0.00752106
0.00797602
0.0107446
0.00889578
0.00707395
0.00750571
0.0100528
0.00843131
0.00631384
0.00676228
0.00909535
0.00770833
0.00545618
0.00590232
0.00791428
0.00721704
0.00468444
0.0052865
0.00704431
0.00713131
0.00461116
0.00559573
0.00702589
0.000179414
0.000136729
0.000133668
0.000196525
0.000845057
0.000774243
0.000894008
0.0012915
0.00256419
0.00257345
0.00306566
0.00419841
0.00318227
0.00318369
0.00366388
0.00485132
0.00380346
0.00372554
0.00419908
0.00548966
0.00391045
0.00368096
0.0040818
0.00526916
0.00379841
0.00341441
0.00375575
0.00480645
0.00363412
0.00309204
0.00338118
0.00426609
0.00362264
0.00283722
0.00319163
0.00390631
0.00368572
0.00284509
0.00339972
0.00390079
5.51936e-05
2.72911e-05
2.1124e-05
4.2007e-05
0.000311362
0.000276135
0.000323777
0.000487305
0.00122523
0.00123713
0.00151767
0.00211075
0.00156508
0.00163095
0.00195298
0.00258991
0.00189006
0.00198981
0.00234774
0.00305435
0.00195886
0.00202939
0.00235232
0.00301361
0.0018872
0.00191151
0.00218764
0.00276231
0.00184915
0.00179035
0.0020145
0.00250113
0.00191549
0.00173021
0.00196296
0.00232099
0.00195322
0.00174135
0.00205244
0.00228098
1.92493e-05
7.0036e-06
6.78378e-06
6.9735e-06
9.47361e-05
7.28768e-05
8.43731e-05
0.00014044
0.000557536
0.000543942
0.000673978
0.000963656
0.000784003
0.000818522
0.000994301
0.00132859
0.000986944
0.00106233
0.00128079
0.00167445
0.00105833
0.00113993
0.00135657
0.00174546
0.00101155
0.00108921
0.0012839
0.00162036
0.00101175
0.0010559
0.00122006
0.00151434
0.00102749
0.00102282
0.00117004
0.00136879
0.0010583
0.00105241
0.0012306
0.00136042
1.47947e-05
5.10606e-06
4.95595e-06
5.11681e-06
2.21036e-05
9.8777e-06
9.42563e-06
2.44778e-05
0.000240335
0.000214553
0.00026615
0.000405999
0.00038498
0.000396897
0.000485147
0.000655614
0.000509233
0.000552764
0.000674409
0.000888195
0.000580106
0.000637
0.000769413
0.000997504
0.000552676
0.000617154
0.000741013
0.000937317
0.000571895
0.000624757
0.000735881
0.000918512
0.000549343
0.000584958
0.000673741
0.00078987
0.000585803
0.000630034
0.000733782
0.000815242
1.32149e-05
4.60542e-06
4.40333e-06
4.53424e-06
4.09194e-06
1.40398e-06
1.36311e-06
1.51639e-06
9.0153e-05
6.15405e-05
7.46102e-05
0.000139399
0.000181261
0.000181305
0.000221991
0.000305094
0.000251757
0.000272723
0.000335906
0.00044757
0.000310058
0.000343733
0.000420057
0.000550943
0.000290613
0.000333842
0.000406695
0.000515886
0.000319276
0.000359824
0.000430768
0.000543507
0.000291705
0.000325517
0.00037823
0.000447175
0.000326364
0.000370195
0.000431409
0.000483466
4.65041e-06
1.53337e-06
1.67802e-06
1.94305e-06
2.82439e-06
9.89452e-07
9.70217e-07
1.07417e-06
2.3517e-05
4.27777e-07
4.13042e-07
2.22254e-05
8.05766e-05
7.63301e-05
9.30334e-05
0.000130903
0.000118355
0.00012664
0.000157525
0.000213939
0.000161595
0.000179754
0.000222457
0.000297054
0.000144228
0.000170327
0.000210794
0.00026808
0.000174431
0.000201133
0.000245203
0.000314811
0.000150657
0.000174033
0.000204692
0.000244703
0.000179753
0.000211588
0.000248275
0.000280901
1.8031e-05
4.86788e-06
4.14105e-06
3.73772e-06
2.36894e-06
8.433e-07
8.458e-07
9.67826e-07
8.51868e-07
3.17589e-07
3.03866e-07
3.37126e-07
3.23819e-05
2.7738e-05
3.31022e-05
4.78816e-05
5.14788e-05
5.36082e-05
6.74485e-05
9.4531e-05
8.14722e-05
9.07087e-05
0.000114064
0.000156381
6.53046e-05
7.99978e-05
0.000101043
0.000128394
9.2614e-05
0.00010899
0.000136064
0.000179397
7.25403e-05
8.64452e-05
0.000103379
0.000125104
9.59858e-05
0.000116401
0.000138612
0.00015833
1.43987e-05
1.38145e-06
1.9837e-07
9.86531e-07
7.86257e-07
3.55283e-08
1.83011e-08
8.79377e-08
5.59908e-07
2.04196e-07