/*--------------------------------*- C++ -*----------------------------------*\
| =========                 |                                                 |
| \\      /  F ield         | foam-extend: Open Source CFD                    |
|  \\    /   O peration     | Version:     4.0                                |
|   \\  /    A nd           | Web:         http://www.foam-extend.org         |
|    \\/     M anipulation  |                                                 |
\*---------------------------------------------------------------------------*/
FoamFile
{
    version     2.0;
    format      ascii;
    class       volScalarField;
    location    "2250";
    object      epsilon;
}
// * * * * * * * * * * * * * * * * * * * * * * * * * * * * * * * * * * * * * //

dimensions      [0 2 -3 0 0 0 0];

internalField   nonuniform List<scalar> 
34480
(
4930.67
4928.64
4928.53
4930.03
4933.24
4938.41
4951.03
5004.67
5194.52
5725.82
655.424
602.128
601.211
653.184
838.728
1576.04
5099.53
22850
103710
382387
618.821
523.163
509.515
569.151
809.949
1829.11
7041.67
35119.2
172536
699244
524.85
439.442
427.405
485.107
733.825
1883.42
8219.36
44412.4
232218
1.01097e+06
456.695
384.817
377.382
433.148
684.845
1927.57
9177.96
52591.1
289183
1.33361e+06
392.524
332.844
326.612
378.483
628.388
1956.28
10121.3
61045.2
350631
1.69869e+06
353.288
302.795
298.399
346.423
591.502
1962.79
10725.7
67199.2
400349
2.02274e+06
321.38
282.121
277.72
317.515
534.213
1820.51
10350.4
66983.4
412649
2.16763e+06
460.063
435.981
433.372
458.781
597.106
1410.15
6840.93
43695.9
275987
1.49852e+06
5709.11
5709.35
5714.8
5726.75
5743.58
5763.65
5787.86
5823.81
5890.21
5958.87
4856.09
4853.57
4853.08
4854.57
4858.58
4865.59
4876.72
4902.84
4965.48
5186.01
512.059
479.191
473.556
487.677
532.082
648.523
1002.85
2354.53
11801.4
103648
447.058
383.986
370.287
389.694
458.486
645.76
1229.68
3567.12
21358.3
197645
399.657
338.717
325.259
344.967
416.435
620.181
1294.47
4289.54
30234.7
294759
365.884
311.153
300.616
319.826
390.779
598.921
1321.83
4812.19
38716.9
396503
326.359
278.978
269.171
286.458
352.241
554.148
1294.13
5180.4
47348.4
508563
302.555
260.86
252.683
267.947
328.942
521.471
1256.19
5361.06
54215.8
607809
283.121
249.974
242.298
253.918
301.574
456.657
1074.66
4827.97
54991.6
652016
432.858
410.969
405.867
413.331
443.453
531.693
848.144
2980.66
36399.4
467542
5591.64
5587.33
5587.84
5594.48
5606.16
5620.74
5640.1
5673.11
5740.78
5913.67
4770.95
4768.55
4767.8
4768.62
4771.24
4775.38
4780.2
4791
4815.06
4870.12
399.885
386.441
383.778
388.536
403.67
439.037
527.087
758.599
1516.85
5758.49
308.146
276.915
270.08
279.259
309.67
379.287
550.403
1030.16
2859.55
14988.6
290.281
256.458
248.785
259.361
294.52
378.439
597.224
1279.79
4409.22
28919.9
280.876
247.917
241.47
252.426
289.537
380.324
629.034
1481.33
6140.44
47809.9
261.35
231.096
224.606
235.005
270.704
361.672
625.237
1625.61
8150.75
73152.6
250.557
222.536
216.946
226.437
260.529
349.193
617.199
1724.53
10165.2
101597
243.08
220.112
214.7
222.327
249.664
322.194
549.954
1594.45
11043.1
122895
402.728
386.387
382.636
388.285
408.72
461.629
607.138
1235.56
7680.82
92095.2
5481.97
5474.87
5472.58
5476.16
5484.96
5496.94
5513.45
5544.23
5616.71
5802.11
4674.93
4673.43
4673
4673.63
4675.43
4677.72
4678.72
4681.53
4688.93
4705.05
328.459
324.338
323.518
324.613
328.695
339.049
365.059
421.604
541.217
940.368
219.315
206.061
203.211
207.253
220.646
248.937
309.073
445.239
772.147
2085.86
214.444
197.724
193.791
199.313
217.27
256.76
345.545
565.534
1169.55
4141.71
217.578
199.541
195.954
202.154
222.758
269.304
379.535
675.973
1611.21
7155.42
210.718
192.772
188.735
195.126
216.354
266.434
392.103
761.671
2117.68
11599.9
208.514
190.733
187.088
193.24
214.637
266.169
401.083
827.409
2633.53
17123.9
209.987
194.711
190.989
196.283
214.353
258.905
379.803
795.214
2860.86
21850.8
375.694
363.71
360.876
365.068
380.032
417.007
508.762
782.71
2181.13
16545.1
5359.98
5352.9
5350.34
5353.4
5361.67
5374.05
5391.18
5422.05
5488.86
5632.07
4569.53
4568.84
4568.7
4569.1
4570.06
4570.78
4569.46
4568.33
4568.27
4570.03
285.508
284.768
284.669
284.438
284.433
286.168
293.405
307.38
329.718
375.958
167.904
162.887
161.846
163.265
168.298
178.518
198.301
237.435
308.121
484.238
166.471
158.747
156.787
159.284
167.54
184.775
219.572
294.213
443.14
889.776
173.918
164.61
162.677
165.768
176.217
198.555
246.037
356.47
601.424
1498.02
173.618
163.426
160.935
164.48
176.215
202.444
261.464
410.918
783.881
2435
176.095
165.195
162.824
166.449
179.083
207.887
275.364
457.577
966.523
3640.76
183.356
173.477
170.908
174.288
185.615
212.183
276.686
463.598
1058.67
4746.6
351.364
342.763
340.58
343.468
354.012
379.264
438.188
581.553
1009.5
3814.3
5230.31
5223.38
5220.66
5223.24
5230.86
5242.94
5259.6
5287.99
5343.67
5446.02
4455.71
4455.65
4455.73
4455.95
4456.32
4455.98
4453.96
4451.87
4450.1
4449.03
259.798
259.88
259.963
259.443
258.45
258.049
259.946
263.3
268.033
275.305
139.444
137.798
137.529
137.914
139.529
142.772
148.674
159.187
175.184
203.05
137.538
134.158
133.234
134.28
137.832
144.9
157.838
182.367
222.508
303.008
145.047
140.515
139.565
140.993
145.962
156.016
175.325
215.178
286.34
458.047
147.362
141.843
140.39
142.254
148.413
161.442
187.869
247.285
364.051
701.817
151.783
145.383
143.936
145.962
153.089
168.453
200.812
278.311
444.169
1014.09
162.272
156.172
154.496
156.575
163.403
178.664
212.139
297.466
500.446
1320.58
329.485
323.589
321.982
323.934
331.275
348.554
387.06
467.618
639.995
1290.58
5092.35
5085.82
5083.12
5085.33
5092.24
5103.52
5119.01
5143.93
5187
5254.26
4334.19
4334.55
4334.78
4334.88
4334.86
4333.9
4332.03
4330.03
4328.21
4326.87
243.797
243.752
243.776
243.302
242.373
241.927
242.289
243.018
244.122
245.926
123.985
123.572
123.579
123.618
124.004
124.851
126.394
128.976
132.497
137.197
120.667
119.232
118.809
119.223
120.696
123.518
128.269
136.263
147.554
163.749
126.667
124.564
124.142
124.754
127.008
131.347
138.963
152.942
174.379
210.56
129.508
126.63
125.819
126.753
129.86
136.117
147.662
170.702
209.282
285.813
134.273
130.646
129.808
130.88
134.753
142.689
157.84
190.044
247.841
381.557
146.171
142.57
141.527
142.754
146.715
155.224
172.353
210.934
286.962
489.909
310.152
306.303
305.145
306.437
311.518
323.508
349.145
396.334
479.998
667.543
4945.88
4939.95
4937.41
4939.28
4945.4
4955.44
4969.19
4990.19
5022.64
5066.49
4205.5
4206.11
4206.43
4206.45
4206.21
4205.13
4203.63
4202.04
4200.61
4199.54
232.908
232.484
232.38
232.028
231.435
231.251
231.268
231.417
231.804
232.795
115.601
115.579
115.658
115.608
115.615
115.728
116
116.503
117.192
117.985
111.053
110.449
110.256
110.416
111.022
112.154
113.944
116.656
120.073
123.798
115.293
114.365
114.202
114.446
115.432
117.258
120.25
125.185
131.928
140.367
117.755
116.308
115.873
116.324
117.848
120.798
125.852
134.85
148.238
167.559
122.086
120.092
119.634
120.173
122.223
126.252
133.356
146.775
167.937
202.423
134.23
132.212
131.596
132.295
134.518
139.16
147.946
165.5
195.87
252.185
293.171
290.81
289.98
290.836
294.388
302.961
320.356
349.002
394.123
462.63
4790.74
4785.56
4783.28
4784.85
4790.09
4798.61
4810.3
4827.29
4851.16
4880.09
4069.94
4070.7
4071.07
4071.05
4070.68
4069.8
4068.7
4067.54
4066.52
4065.73
224.503
223.703
223.468
223.232
222.984
222.932
222.911
222.974
223.259
224.151
111.007
111.069
111.145
111.089
111.014
110.94
110.888
110.889
110.952
111.06
105.704
105.442
105.35
105.412
105.667
106.138
106.847
107.834
108.975
109.979
108.446
108.058
108.011
108.099
108.519
109.274
110.455
112.241
114.482
116.708
110.263
109.561
109.338
109.549
110.279
111.653
113.89
117.508
122.459
128.095
113.88
112.811
112.574
112.834
113.9
115.93
119.311
125.064
133.298
143.384
125.602
124.542
124.198
124.586
125.797
128.288
132.824
140.975
153.815
171.849
278.198
276.875
276.267
276.85
279.405
285.768
297.757
315.705
341.524
371.319
4626.9
4622.57
4620.63
4621.91
4626.25
4633.15
4642.67
4655.89
4672.97
4691.95
3927.95
3928.6
3929
3928.96
3928.61
3927.99
3927.22
3926.43
3925.73
3925.16
216.926
216.032
215.686
215.537
215.483
215.461
215.462
215.538
215.834
216.725
108.393
108.455
108.507
108.466
108.394
108.3
108.2
108.116
108.073
108.078
102.811
102.686
102.638
102.664
102.779
102.988
103.292
103.688
104.115
104.434
104.449
104.294
104.29
104.318
104.495
104.808
105.281
105.948
106.728
107.391
105.649
105.323
105.211
105.308
105.652
106.284
107.281
108.777
110.71
112.634
108.537
107.973
107.857
107.979
108.531
109.557
111.197
113.759
117.16
120.569
119.493
118.986
118.808
119.02
119.663
120.986
123.326
127.18
132.823
139.52
264.786
264.16
263.692
264.114
266.039
270.906
279.256
290.782
306.139
320.301
4454.51
4451.06
4449.48
4450.49
4453.93
4459.27
4466.73
4476.62
4488.51
4500.76
3779.62
3780.14
3780.47
3780.44
3780.21
3779.79
3779.28
3778.75
3778.29
3777.87
209.481
208.6
208.259
208.151
208.117
208.112
208.134
208.228
208.539
209.427
106.794
106.836
106.869
106.841
106.787
106.715
106.636
106.566
106.529
106.536
101.296
101.227
101.2
101.212
101.269
101.371
101.516
101.695
101.88
101.999
102.197
102.134
102.14
102.148
102.226
102.362
102.563
102.828
103.116
103.338
102.916
102.771
102.717
102.762
102.921
103.21
103.654
104.284
105.065
105.813
105.178
104.879
104.825
104.883
105.174
105.704
106.521
107.712
109.189
110.496
115.215
115.01
114.927
115.044
115.378
116.079
117.268
119.1
121.601
124.389
252.454
252.278
251.887
252.22
253.76
257.511
263.349
270.864
280.268
287.088
4273.84
4271.22
4270.01
4270.79
4273.37
4277.36
4282.96
4290.09
4298.13
4305.88
3625.1
3625.51
3625.77
3625.76
3625.61
3625.34
3625.01
3624.67
3624.37
3624.04
201.821
200.966
200.655
200.561
200.535
200.539
200.57
200.671
200.985
201.857
105.699
105.721
105.739
105.721
105.686
105.639
105.589
105.546
105.533
105.553
100.53
100.488
100.472
100.478
100.509
100.563
100.638
100.728
100.821
100.874
100.979
100.947
100.951
100.954
100.993
101.062
101.161
101.283
101.403
101.494
101.368
101.306
101.281
101.301
101.375
101.506
101.704
101.973
102.294
102.619
103.14
102.975
102.95
102.982
103.142
103.429
103.854
104.44
105.118
105.68
112.204
112.15
112.12
112.186
112.36
112.726
113.312
114.17
115.245
116.502
240.737
240.838
240.481
240.768
242.081
244.89
248.949
253.874
259.757
262.811
4085.32
4083.45
4082.58
4083.14
4084.98
4087.87
4091.91
4096.85
4102.12
4106.93
3464.58
3464.93
3465.13
3465.13
3465.04
3464.87
3464.66
3464.44
3464.25
3463.98
193.768
192.947
192.664
192.581
192.559
192.565
192.597
192.695
193.002
193.847
104.848
104.856
104.864
104.852
104.831
104.804
104.776
104.755
104.76
104.79
100.159
100.133
100.124
100.127
100.143
100.172
100.211
100.259
100.311
100.338
100.35
100.328
100.326
100.328
100.353
100.397
100.457
100.527
100.591
100.641
100.535
100.509
100.497
100.507
100.541
100.601
100.69
100.806
100.94
101.098
101.943
101.844
101.832
101.852
101.949
102.115
102.352
102.663
103
103.28
110.018
110.036
110.032
110.072
110.166
110.347
110.619
111.002
111.418
112.027
229.211
229.477
229.125
229.391
230.528
232.497
235.28
238.491
242.217
243.257
3889.53
3888.27
3887.7
3888.08
3889.31
3891.35
3894.15
3897.45
3900.78
3903.71
3298.38
3298.67
3298.82
3298.83
3298.78
3298.67
3298.54
3298.4
3298.28
3298.04
185.211
184.43
184.175
184.103
184.082
184.087
184.115
184.204
184.498
185.309
104.114
104.114
104.114
104.107
104.096
104.082
104.07
104.063
104.079
104.114
99.9895
99.9743
99.9703
99.9718
99.9792
99.9922
100.011
100.034
100.064
100.08
100.045
100.025
100.02
100.022
100.04
100.073
100.117
100.167
100.21
100.245
100.114
100.102
100.096
100.101
100.118
100.146
100.187
100.238
100.296
100.381
101.253
101.188
101.181
101.197
101.261
101.366
101.509
101.69
101.876
102.044
108.33
108.384
108.394
108.42
108.468
108.549
108.66
108.813
108.923
109.246
217.325
217.839
217.515
217.775
218.587
219.933
221.794
223.858
226.22
226.179
3687.21
3686.36
3686.01
3686.25
3687.08
3688.47
3690.32
3692.42
3694.44
3696.19
3126.88
3127.13
3127.24
3127.25
3127.22
3127.16
3127.08
3126.99
3126.9
3126.69
176.069
175.332
175.106
175.044
175.023
175.025
175.048
175.125
175.401
176.174
103.439
103.433
103.429
103.425
103.42
103.415
103.412
103.414
103.437
103.476
99.9213
99.9141
99.9136
99.9141
99.9159
99.9191
99.9248
99.934
99.9504
99.9612
99.9114
99.8931
99.8851
99.8867
99.9015
99.9279
99.9624
100
100.033
100.062
99.9195
99.9129
99.9091
99.9115
99.9203
99.9351
99.9549
99.9791
100.004
100.056
100.853
100.807
100.801
100.815
100.86
100.931
101.025
101.14
101.253
101.373
106.922
106.99
107.009
107.026
107.046
107.076
107.108
107.153
107.128
107.32
204.843
205.496
205.299
205.481
206.025
206.909
208.106
209.402
210.877
210.286
3479.12
3478.57
3478.35
3478.51
3479.06
3479.94
3481.11
3482.38
3483.53
3484.56
2950.62
2950.82
2950.91
2950.92
2950.91
2950.87
2950.82
2950.76
2950.7
2950.5
166.262
165.572
165.376
165.327
165.304
165.304
165.319
165.383
165.637
166.371
102.797
102.789
102.783
102.78
102.779
102.779
102.783
102.79
102.815
102.856
99.9046
99.9025
99.904
99.9038
99.9023
99.9001
99.8984
99.8993
99.9072
99.9166
99.8648
99.8484
99.8401
99.8411
99.8525
99.8729
99.8994
99.9285
99.9547
99.9785
99.845
99.8398
99.8367
99.8378
99.8429
99.8514
99.8621
99.8746
99.8865
99.9197
100.607
100.572
100.567
100.578
100.61
100.66
100.724
100.8
100.875
100.969
105.657
105.722
105.745
105.756
105.764
105.77
105.767
105.765
105.687
105.818
191.595
192.299
192.204
192.326
192.669
193.216
193.937
194.721
195.604
194.784
3266.15
3265.82
3265.69
3265.79
3266.12
3266.66
3267.35
3268.06
3268.67
3269.26
2770.32
2770.49
2770.55
2770.56
2770.56
2770.54
2770.5
2770.46
2770.42
2770.24
155.694
155.055
154.886
154.85
154.833
154.831
154.84
154.888
155.115
155.807
102.185
102.174
102.167
102.165
102.166
102.17
102.176
102.186
102.211
102.254
99.9137
99.9139
99.9159
99.9153
99.9125
99.908
99.9032
99.9002
99.9032
99.9129
99.861
99.8474
99.84
99.8403
99.8484
99.8629
99.8819
99.903
99.9229
99.9423
99.8324
99.8276
99.8249
99.8252
99.8282
99.8333
99.8395
99.8463
99.8523
99.8736
100.43
100.403
100.398
100.407
100.429
100.463
100.506
100.556
100.606
100.683
104.458
104.51
104.532
104.54
104.542
104.539
104.524
104.506
104.416
104.516
177.436
178.119
178.104
178.182
178.378
178.68
179.06
179.501
179.975
179.134
3049.37
3049.18
3049.11
3049.17
3049.36
3049.65
3050.03
3050.39
3050.68
3051
2586.97
2587.12
2587.16
2587.17
2587.17
2587.16
2587.13
2587.1
2587.06
2586.9
144.231
143.653
143.513
143.489
143.484
143.481
143.484
143.516
143.706
144.352
101.609
101.596
101.588
101.586
101.588
101.593
101.601
101.611
101.633
101.677
99.9327
99.9325
99.9339
99.9331
99.9303
99.9259
99.9211
99.9176
99.9184
99.929
99.8783
99.8679
99.8623
99.8622
99.8672
99.8764
99.8887
99.9026
99.9166
99.9315
99.852
99.8482
99.8461
99.8459
99.8474
99.85
99.853
99.8563
99.8591
99.8715
100.273
100.253
100.249
100.254
100.268
100.289
100.315
100.345
100.377
100.436
103.291
103.328
103.345
103.35
103.35
103.343
103.325
103.304
103.224
103.304
162.208
162.816
162.864
162.911
162.998
163.119
163.249
163.454
163.628
162.904
2830.08
2829.99
2829.95
2829.98
2830.07
2830.22
2830.4
2830.56
2830.67
2830.83
2401.73
2401.84
2401.87
2401.88
2401.88
2401.87
2401.85
2401.83
2401.8
2401.68
131.646
131.153
131.061
131.051
131.05
131.046
131.042
131.056
131.188
131.768
101.087
101.072
101.065
101.062
101.064
101.069
101.076
101.085
101.102
101.142
99.9495
99.9477
99.9478
99.9469
99.9449
99.9421
99.9391
99.937
99.9374
99.9479
99.9083
99.9014
99.8978
99.8975
99.9002
99.9053
99.9121
99.9202
99.929
99.9392
99.89
99.8876
99.8862
99.8858
99.8862
99.887
99.8878
99.8885
99.8893
99.8949
100.119
100.106
100.103
100.105
100.112
100.123
100.136
100.151
100.168
100.208
102.169
102.188
102.198
102.2
102.196
102.187
102.17
102.151
102.097
102.156
145.451
145.927
145.962
145.998
146.058
146.138
146.22
146.279
146.211
145.692
2609.7
2609.66
2609.65
2609.66
2609.69
2609.73
2609.79
2609.83
2609.87
2609.94
2215.02
2215.09
2215.1
2215.1
2215.1
2215.1
2215.09
2215.09
2215.09
2215.03
117.389
117.051
117.02
117.025
117.027
117.022
117.012
117.005
117.05
117.478
100.625
100.609
100.602
100.598
100.599
100.602
100.608
100.617
100.63
100.662
99.9659
99.9636
99.963
99.9623
99.9614
99.9602
99.9592
99.9586
99.9593
99.9663
99.9506
99.9469
99.9451
99.9449
99.9461
99.9485
99.9517
99.9556
99.9602
99.9658
99.9405
99.9395
99.9389
99.9386
99.9384
99.9383
99.938
99.9376
99.9373
99.9386
100.009
100.004
100.002
100.003
100.006
100.01
100.014
100.019
100.026
100.045
101.125
101.127
101.129
101.128
101.122
101.113
101.1
101.087
101.069
101.111
125.762
126.044
126.062
126.082
126.115
126.157
126.2
126.223
126.174
125.833
2388.98
2388.96
2388.97
2388.97
2388.97
2388.97
2388.97
2388.97
2388.95
2388.99
7183.96
7294.26
7250.52
7044.06
658919
683867
689430
697309
1.49738e+06
1.58409e+06
1.5916e+06
1.57171e+06
2.52524e+06
2.70353e+06
2.701e+06
2.61948e+06
3.76091e+06
4.05603e+06
4.0297e+06
3.86814e+06
5.30798e+06
5.7513e+06
5.69977e+06
5.48691e+06
6.86848e+06
7.46744e+06
7.40364e+06
7.20694e+06
7.88291e+06
8.61084e+06
8.55616e+06
8.42815e+06
5.61976e+06
6.17922e+06
6.11515e+06
6.08135e+06
7903.64
8151.38
7989.01
7569.78
5749.33
5802.12
5804.64
5765.5
308553
324674
345347
377324
689323
780865
824926
861806
1.17797e+06
1.40288e+06
1.46609e+06
1.49202e+06
1.76355e+06
2.17757e+06
2.25148e+06
2.26496e+06
2.45883e+06
3.11243e+06
3.21168e+06
3.24758e+06
3.13174e+06
4.04028e+06
4.20107e+06
4.31991e+06
3.57331e+06
4.70406e+06
4.94534e+06
5.18025e+06
2.80679e+06
3.81861e+06
4.00719e+06
4.32036e+06
7126.35
7357.94
7286.98
7066.63
4937.9
4948.86
4948.01
4938.29
21661.2
25960.6
24597.4
19966.6
61570.4
73410.4
68679.3
55731.4
128749
152839
140888
114033
228360
270535
246269
199439
372377
441929
401379
326404
545325
648535
591603
485404
702800
839395
769568
636846
584453
696867
629351
524654
6344.34
6431.64
6409.32
6314
4716.01
4718.13
4718.69
4717.89
1594.32
1711.31
1679.89
1545.01
4698.2
5172.5
5012.67
4434.66
11230.7
12505.1
11926.4
10213.7
22554.7
25253.7
23699.5
19746.1
41691.3
46922.7
43527.7
35537
68294.8
76984.9
70796.1
57129.3
97159.6
109913
100443
80429.5
83357.2
93764.7
84198.6
67266
5904.01
5945.71
5942.82
5904.9
4568.01
4568.92
4569.13
4568.59
423.284
436.215
438.469
431.555
710.117
757.056
761.57
731.384
1595.04
1736.83
1729.31
1610.3
3203.62
3529.3
3458.51
3118.64
6140.09
6823.31
6583.05
5758.22
10498.2
11693.6
11109.1
9472.63
15692
17555.4
16463.6
13724.6
13860.1
15397
14113.7
11586.3
5578.71
5600.74
5602.23
5586.62
4444.96
4445.71
4445.79
4445.16
275.585
278.458
279.17
277.911
226.359
231.458
233.286
232.247
385.584
403.073
407.311
400.544
674.05
717.855
722.106
696.117
1215.15
1316.47
1312.63
1233.51
2023.63
2211.42
2175.73
1991.38
3046.94
3360.44
3261.9
2904.51
2928.94
3183.26
3023.39
2664.12
5318.16
5328.95
5331.08
5325.52
4322.62
4323.34
4323.4
4322.77
241.775
243.68
244.08
243.023
140.135
140.888
141.241
141.228
175.866
178.564
179.692
179.438
243.2
250.226
252.462
250.762
368.97
386.593
390.321
383.18
549.222
582.681
585.322
565.804
795.516
854.975
852.129
807.122
984.675
1029.71
1010.25
962.485
5095.77
5100.66
5102.51
5101.25
4195.51
4196.2
4196.26
4195.66
228.094
229.812
230.151
229.141
118.189
118.327
118.381
118.358
125.853
126.302
126.527
126.554
146.029
147.259
147.802
147.781
183.406
186.916
188.183
187.622
233.787
240.341
242.096
240.308
314.611
327.183
329.122
323.565
543.027
548.69
546.174
542.484
4893.66
4895.67
4896.95
4897.14
4061.96
4062.62
4062.67
4062.11
219.49
221.145
221.473
220.498
110.888
110.945
110.954
110.915
110.347
110.42
110.457
110.466
117.765
117.976
118.086
118.118
131.711
132.522
132.875
132.842
149.878
151.235
151.775
151.734
187.358
190.299
191.145
190.484
400.183
397.207
396.461
399.12
4698.45
4699.14
4699.91
4700.4
3921.66
3922.27
3922.32
3921.81
212.195
213.794
214.115
213.177
107.868
107.917
107.921
107.881
104.484
104.491
104.494
104.494
107.574
107.596
107.61
107.622
113.656
113.877
113.977
113.969
121.96
122.212
122.351
122.428
144.579
145.282
145.545
145.483
335.329
330.248
329.468
332.883
4503.8
4503.9
4504.33
4504.78
3774.64
3775.19
3775.24
3774.77
205.055
206.595
206.907
206.007
106.338
106.386
106.391
106.353
101.988
101.986
101.984
101.983
103.358
103.35
103.347
103.349
106.198
106.277
106.31
106.296
110.765
110.778
110.804
110.857
126.728
126.859
126.912
126.906
297.591
292.081
291.176
294.491
4307.1
4306.96
4307.19
4307.53
3621.09
3621.59
3621.62
3621.2
197.657
199.136
199.437
198.575
105.37
105.417
105.423
105.388
100.853
100.851
100.849
100.848
101.489
101.481
101.476
101.476
102.817
102.856
102.869
102.856
105.715
105.685
105.683
105.713
117.997
117.975
117.957
117.945
271.428
265.974
265.021
268.135
4107.11
4106.93
4107.04
4107.27
3461.3
3461.74
3461.76
3461.39
189.834
191.247
191.537
190.716
104.624
104.668
104.674
104.641
100.318
100.317
100.316
100.316
100.637
100.632
100.629
100.628
101.224
101.249
101.256
101.244
103.288
103.261
103.254
103.27
113.192
113.133
113.092
113.07
250.82
245.573
244.626
247.549
3903.26
3903.13
3903.18
3903.29
3295.66
3296.02
3296.04
3295.71
181.495
182.842
183.12
182.341
103.966
104.007
104.013
103.983
100.064
100.064
100.064
100.064
100.245
100.243
100.241
100.239
100.469
100.488
100.492
100.482
102.072
102.055
102.049
102.055
110.241
110.18
110.134
110.103
232.986
227.997
227.087
229.832
3695.34
3695.31
3695.33
3695.33
3124.61
3124.91
3124.92
3124.64
172.573
173.852
174.119
173.385
103.349
103.387
103.392
103.365
99.9513
99.9524
99.9525
99.9516
100.065
100.064
100.063
100.061
100.119
100.132
100.135
100.127
101.425
101.419
101.416
101.415
108.201
108.151
108.107
108.067
216.462
211.761
210.904
213.475
3483.45
3483.54
3483.55
3483.46
2948.76
2948.98
2948.97
2948.74
163
164.211
164.468
163.78
102.757
102.793
102.798
102.772
99.9134
99.9155
99.9158
99.9142
99.9828
99.9829
99.9821
99.9809
99.9645
99.9737
99.975
99.9684
101.04
101.044
101.042
101.035
106.605
106.573
106.534
106.483
200.395
196.013
195.224
197.615
3267.99
3268.19
3268.19
3268.03
2768.85
2769.01
2768.98
2768.8
152.691
153.837
154.086
153.445
102.191
102.224
102.229
102.205
99.9167
99.9199
99.9203
99.918
99.9477
99.9483
99.948
99.9471
99.9034
99.9095
99.9099
99.9049
100.761
100.771
100.771
100.761
105.208
105.199
105.166
105.106
184.225
180.218
179.515
181.7
3049.65
3049.93
3049.94
3049.73
2585.93
2586
2585.95
2585.83
141.542
142.634
142.878
142.282
101.648
101.68
101.685
101.662
99.9387
99.9428
99.9432
99.9401
99.9375
99.9385
99.9387
99.9381
99.8889
99.8924
99.8923
99.889
100.511
100.524
100.525
100.514
103.876
103.891
103.866
103.8
167.524
164.01
163.416
165.336
2829.46
2829.79
2829.81
2829.58
2401.16
2401.14
2401.08
2401.02
129.373
130.425
130.665
130.103
101.141
101.169
101.172
101.151
99.9598
99.9642
99.9646
99.9613
99.9448
99.946
99.9464
99.9463
99.9026
99.9039
99.9038
99.9023
100.268
100.28
100.281
100.272
102.554
102.58
102.565
102.506
149.615
146.67
146.228
147.865
2608.73
2609.1
2609.12
2608.88
2215.02
2214.86
2214.8
2214.85
115.752
116.733
116.939
116.406
100.666
100.683
100.684
100.67
99.9739
99.9765
99.9767
99.9747
99.9697
99.9707
99.9711
99.9712
99.9403
99.9405
99.9404
99.9402
100.077
100.084
100.085
100.08
101.287
101.296
101.288
101.264
128.33
126.309
126.073
127.23
2388.2
2388.59
2388.6
2388.34
6105.82
5442.9
5173.16
5077.02
5022.21
4983.69
4958.09
4943.71
4935.73
4930.99
798384
193280
33403.1
11732.2
5300.68
2836.31
1749.33
1212.52
928.3
765.111
1.42405e+06
247044
44253.7
15129.2
6776.41
3637.43
2200.55
1460.48
1048.29
803.042
1.99546e+06
239532
46768
15018
6483.2
3391.18
2000.57
1297.53
912.951
688.608
2.45863e+06
252611
48934.8
14561.1
6098.31
3102.26
1792.08
1144.47
795.524
596.731
2.93038e+06
276399
51143.2
13974.8
5638.65
2768.65
1561.58
981.23
677.415
508.303
3.31262e+06
294976
52002.5
13162.6
5158.79
2467.92
1375.82
861.572
595.654
450.424
3.39662e+06
287393
47702.3
11002.4
4164.33
1946.79
1093.07
700.339
502.961
394.816
2.34169e+06
182158
27372.5
5711.44
2275.29
1237.95
858.045
671.634
568.203
506.594
6016.16
5992.94
5847.17
5822.76
5779.36
5755.07
5735.79
5725.54
5718.62
5712.67
5443.28
5175.2
5045.28
4972.7
4927.15
4897.14
4877.69
4866.14
4859.93
4855.99
180235
44894.4
13613.4
5322.74
2635.46
1567.19
1065.11
802.477
656.246
572.289
375673
86408.7
23467.2
8290.87
3889.09
2187.8
1383.89
956.218
710.803
565.759
595030
126244
30701.4
9651.58
4228.05
2261.58
1372.61
915.866
661.609
515.508
830498
165012
36427.5
10417.5
4317.59
2219.96
1310.38
857.645
610.416
472.02
1.10979e+06
207212
41753.4
10864
4247.17
2091.46
1198.76
768.911
542.099
418.492
1.38891e+06
244454
45356.1
10850.8
4055.84
1939.28
1095.72
699.608
493.246
382.962
1.56429e+06
258686
43999.1
9553.37
3395.85
1585.34
900.751
587.81
429.95
345.828
1.18226e+06
178733
26853.7
5249.92
1966.86
1091.44
771.679
615.222
526.615
476.301
6252.82
5952.88
5792.76
5733.93
5683.06
5652.29
5630
5616.4
5606.82
5598.52
4904.01
4869.18
4841.71
4818.91
4801.09
4788.17
4779.56
4774.4
4771.54
4769.49
9199.52
4175.84
2298.87
1432.79
985.41
735.867
591.22
504.964
452.25
420.438
23997.9
9564.74
4650.26
2546.88
1542.08
1010.25
712.69
538.357
431.123
364.762
45437.9
15962
6938.09
3411.14
1898.33
1159.04
771.54
555.7
428.542
352.748
73593.8
22902.5
9011.75
4056.06
2119.71
1232.35
791.808
556.666
421.55
343.29
112049
31041.5
11040.6
4548.36
2235.27
1237.03
767.195
526.296
393.525
318.997
156046
38869.2
12577.4
4795.05
2251.77
1206.01
734.781
500.599
373.481
303.547
191503
42871.3
12521.3
4385.58
1974.92
1036.74
636.277
443.069
341.776
286.19
141665
27755.8
7304.4
2547.38
1307.86
842.963
642.728
536.586
473.013
436.305
6018.31
5835.83
5711.21
5637.36
5584.26
5551.14
5528.12
5512.45
5500.87
5490.9
4712.99
4704.62
4695.45
4687.21
4680.96
4676.71
4674.05
4672.7
4672.37
4671.98
1208.05
906.504
708.884
570.485
479.268
420.778
383.195
358.482
341.798
331.523
3028.79
1919.55
1270.42
860.781
612.403
460.961
367.188
307.62
268.175
242.307
6221.03
3481.26
2057.55
1252.19
812.894
564.712
420.257
333.145
278.342
243.988
10747.1
5351.27
2878.31
1610.55
978.845
644.287
460.27
354.609
289.924
250.462
17346.5
7666.75
3761.48
1939.08
1105.22
689.168
472.657
353.784
284.445
243.626
25222.1
9947.72
4496.83
2165.88
1178.87
709.699
476.409
352.874
281.943
240.951
32103.8
11242.3
4659.25
2095.14
1100.67
652.775
441.611
333.007
272.802
238.108
23544.1
7367.15
2961.78
1443.4
906.143
663.595
542.633
472.681
427.922
401.461
5789.05
5660.52
5561.77
5497.88
5453.79
5424.91
5404.19
5389.33
5378.13
5368.65
4567.58
4566.35
4565.1
4564.14
4563.56
4563.32
4563.34
4563.71
4564.63
4565.47
412.732
382.972
356.676
334.89
318.461
306.415
297.566
290.936
285.856
282.608
637.777
512.564
411.74
334.525
279.766
241.964
216.08
198.177
185.239
176.182
1287.31
926.107
666.286
486.307
369.855
294.973
246.642
214.943
193.47
179.269
2276.16
1481.75
973.404
652.89
462.864
348.842
279.641
236.708
208.352
189.981
3814.33
2240.99
1346.89
830.637
548.851
390.258
299.438
245.7
212.123
191.243
5703.68
3044.32
1696.29
978.307
614.781
420.82
314.958
254.782
217.684
194.946
7460.5
3599.77
1861.15
1012.32
616.757
417.068
313.392
255.927
221.79
201.024
5662.24
2636.98
1436.15
904.136
665.889
539.387
466.867
421.218
389.979
371.11
5535.67
5459.61
5394.34
5347.94
5314.03
5289.77
5271.51
5257.81
5247.23
5238.41
4444.78
4444.91
4445.2
4445.68
4446.27
4446.91
4447.56
4448.37
4449.58
4451.01
277.888
274.891
271.42
267.994
264.975
262.415
260.261
258.414
256.79
255.486
225.929
210.882
194.967
180.656
169.149
160.379
153.854
148.965
145.037
142.076
373.143
321.838
273.243
233.346
203.639
182.284
167.102
156.245
148.28
142.754
613.203
488.041
382.072
302.909
248.818
212.619
188.487
172.25
160.537
152.457
1013.14
737.744
529.276
386.591
296.642
240.22
204.682
181.852
166.427
156.308
1522.11
1022.68
681.286
465.928
339.916
265.197
220.359
192.772
174.285
162.242
2045.47
1266.96
790.175
514.283
364.928
280.918
232.639
203.528
184.884
172.961
1814.34
1182.34
824.893
628.727
519.807
452.694
409.129
379.523
357.941
344.663
5303.32
5261.67
5221.84
5189.95
5164.52
5144.78
5129.21
5117.06
5107.45
5099.57
4322.51
4322.78
4323.23
4323.84
4324.53
4325.21
4325.87
4326.63
4327.76
4329.22
244.176
244.015
243.668
243.199
242.684
242.15
241.601
241.016
240.375
239.617
140.672
138.605
136.043
133.466
131.203
129.35
127.884
126.701
125.585
124.655
176.558
168.273
158.71
149.715
142.178
136.161
131.445
127.754
124.826
122.728
241.579
220.116
197.592
178.251
163.322
152.233
144.105
138.162
133.437
129.974
355.625
303.662
254.57
215.793
187.997
168.57
155.051
145.574
138.636
133.884
503.846
404.336
318.107
255.344
213.449
185.771
167.408
155.119
146.114
139.902
681.111
513.381
382.52
294.833
240.14
205.643
183.589
169.092
159.113
152.474
826.646
675.184
559.124
481.195
428.729
391.951
365.448
346.197
331.334
322.03
5091.77
5069.89
5046.09
5024.5
5005.8
4990.27
4977.46
4967.11
4958.73
4951.96
4195.42
4195.63
4195.96
4196.42
4196.93
4197.44
4197.91
4198.46
4199.39
4200.66
230.442
230.67
230.775
230.787
230.728
230.604
230.41
230.124
229.721
229.085
118.34
118.072
117.707
117.306
116.937
116.635
116.405
116.208
115.927
115.639
126.159
124.613
122.561
120.39
118.365
116.582
115.051
113.751
112.652
111.858
146.603
142.548
137.534
132.671
128.477
125.037
122.287
120.124
118.22
116.742
183.561
172.775
160.741
149.911
141.151
134.337
129.115
125.144
122.025
119.834
231.57
210.498
188.322
169.878
155.899
145.593
138.049
132.589
128.226
125.061
302.853
263.97
227.24
198.856
178.533
164.158
153.998
146.779
141.495
137.892
515.481
472.588
430.21
396.138
369.328
348.455
332.071
319.472
309.237
302.748
4892.52
4880.76
4866.38
4851.92
4838.5
4826.7
4816.57
4808.11
4801.09
4795.5
4061.87
4062.01
4062.23
4062.53
4062.87
4063.18
4063.45
4063.8
4064.5
4065.56
221.791
222.057
222.206
222.276
222.282
222.225
222.094
221.865
221.499
220.867
110.951
110.94
110.928
110.914
110.91
110.929
110.97
111.005
110.953
110.857
110.388
110.046
109.542
108.952
108.349
107.773
107.239
106.755
106.327
106.022
117.934
117.077
115.87
114.564
113.324
112.221
111.277
110.493
109.72
109.081
132.022
129.422
126.185
122.905
119.952
117.43
115.336
113.635
112.222
111.226
150.421
145.527
139.431
133.684
128.787
124.8
121.627
119.179
117.057
115.446