/*--------------------------------*- C++ -*----------------------------------*\
| =========                 |                                                 |
| \\      /  F ield         | foam-extend: Open Source CFD                    |
|  \\    /   O peration     | Version:     4.0                                |
|   \\  /    A nd           | Web:         http://www.foam-extend.org         |
|    \\/     M anipulation  |                                                 |
\*---------------------------------------------------------------------------*/
FoamFile
{
    version     2.0;
    format      ascii;
    class       volScalarField;
    location    "2250";
    object      k;
}
// * * * * * * * * * * * * * * * * * * * * * * * * * * * * * * * * * * * * * //

dimensions      [0 2 -2 0 0 0 0];

internalField   nonuniform List<scalar> 
34480
(
8.76722
8.76481
8.76468
8.76646
8.77027
8.77639
8.79133
8.85472
9.07726
9.68611
9.27966
8.66798
8.57531
8.85495
9.45404
10.3409
11.9396
15.8518
28.7377
67.024
15.0396
13.5703
13.1242
13.2725
13.8429
14.8759
17.2094
22.9052
41.6358
101.407
14.4913
12.9638
12.5137
12.708
13.4185
14.833
18.0051
25.4062
49.2501
127.782
13.4283
12.0126
11.6617
11.9287
12.7802
14.4903
18.2597
26.9559
55.27
151.575
12.2196
10.9462
10.6338
10.9156
11.8073
13.7007
17.9422
27.9024
61.0601
176.656
11.3267
10.2066
9.95203
10.2271
11.1222
13.0879
17.5898
28.4199
65.5176
198.014
9.83984
9.0036
8.7988
9.01456
9.72715
11.3974
15.4916
26.1247
64.5435
205.593
6.88246
6.61392
6.56528
6.67532
7.00476
7.72937
9.72994
16.2734
43.411
149.666
9.23847
9.23872
9.2446
9.25749
9.27561
9.29721
9.32322
9.36179
9.43282
9.50598
8.67858
8.67558
8.675
8.67678
8.68155
8.6899
8.70315
8.7342
8.80843
9.06734
7.92979
7.50995
7.41662
7.57433
8.02134
8.86371
10.3052
12.1077
15.4274
41.1732
12.2351
11.1725
10.8802
11.0835
11.7621
13.0233
15.221
18.1221
23.7877
66.4133
12.1392
10.971
10.6522
10.8955
11.7005
13.2511
16.0317
20.014
28.3902
86.1799
11.5987
10.4649
10.1981
10.4742
11.3669
13.1083
16.2969
21.0751
31.8417
104.295
10.8052
9.75491
9.49956
9.77341
10.6718
12.4985
15.9681
21.4558
34.8373
123.7
10.2148
9.26275
9.0456
9.29921
10.1727
12.001
15.6081
21.5521
37.1088
140.951
9.05422
8.33237
8.14826
8.33984
9.01761
10.5153
13.6624
19.285
35.7038
147.362
6.6449
6.39757
6.34338
6.41757
6.68229
7.26729
8.61415
11.5618
22.4913
102.416
9.11131
9.10662
9.10717
9.11439
9.12706
9.14288
9.16387
9.19959
9.2726
9.45785
8.57685
8.57397
8.57307
8.57405
8.5772
8.58216
8.58793
8.60085
8.62964
8.69529
6.78255
6.57095
6.51692
6.59283
6.82424
7.27124
8.06578
9.35976
11.1353
16.4367
9.69129
9.07119
8.91787
9.08548
9.60515
10.5601
12.1751
14.5697
17.5472
29.1791
9.88895
9.15099
8.96566
9.17956
9.83895
11.0947
13.2871
16.6417
21.1137
40.7612
9.7596
9.00445
8.84167
9.07842
9.81693
11.2606
13.8637
17.9405
23.7779
52.2524
9.33103
8.60365
8.43617
8.6741
9.42848
10.9743
13.8889
18.6187
26.0236
64.9006
9.01606
8.33171
8.18551
8.40815
9.14968
10.7178
13.8026
18.9563
27.7474
76.9242
8.19533
7.66703
7.53779
7.70821
8.28326
9.56574
12.2714
17.1624
26.6516
82.877
6.37363
6.18141
6.14159
6.20254
6.41349
6.87623
7.92512
10.3685
16.6984
57.105
8.99177
8.98401
8.9815
8.98542
8.99504
9.00814
9.02617
9.05973
9.13851
9.33853
8.46138
8.45957
8.45905
8.45982
8.46198
8.46475
8.46596
8.46934
8.47827
8.49768
6.00859
5.91779
5.89069
5.92154
6.02176
6.21437
6.55109
7.13253
7.99605
9.88097
7.80865
7.49601
7.42315
7.51859
7.82008
8.38292
9.33399
10.821
12.6578
17.0738
8.12475
7.70732
7.60358
7.74107
8.1672
8.98951
10.4231
12.7266
15.5982
23.5541
8.24745
7.78886
7.69202
7.84985
8.34809
9.33566
11.1224
14.0846
17.8845
30.125
8.08394
7.61553
7.50594
7.67291
8.2025
9.30164
11.3876
14.9952
19.8639
37.6354
7.97594
7.51166
7.41222
7.57374
8.11072
9.25636
11.5228
15.577
21.3674
44.9591
7.44536
7.07509
6.98307
7.11152
7.53544
8.48148
10.48
14.3819
20.6521
48.7676
6.13166
5.9847
5.95481
6.00079
6.15819
6.49618
7.22484
8.98539
12.9804
33.0369
8.85788
8.85007
8.84726
8.85063
8.85974
8.87337
8.89222
8.92613
8.9993
9.15517
8.33371
8.33288
8.33271
8.33319
8.33437
8.33523
8.33364
8.33226
8.33219
8.33433
5.53761
5.50317
5.49008
5.49996
5.53615
5.6049
5.72018
5.91164
6.17869
6.62116
6.56601
6.42834
6.39755
6.43783
6.5742
6.8325
7.27152
7.98208
8.87912
10.3567
6.87205
6.6554
6.59879
6.66954
6.89677
7.3394
8.1141
9.40816
11.0453
14.0197
7.10209
6.84237
6.78603
6.87334
7.15884
7.72697
8.75923
10.5599
12.8857
17.7759
7.09735
6.81076
6.73906
6.83956
7.16336
7.83581
9.11554
11.4644
14.6135
22.2338
7.12089
6.81812
6.75004
6.85199
7.19689
7.92886
9.3734
12.1313
15.9824
26.6474
6.81349
6.56189
6.49581
6.58189
6.86399
7.48528
8.77854
11.4746
15.6915
29.0128
5.91847
5.8076
5.78485
5.81667
5.92768
6.15999
6.63032
7.74137
10.1053
19.2389
8.71443
8.70673
8.70371
8.70658
8.71505
8.72846
8.74694
8.77839
8.8399
8.95242
8.19475
8.19468
8.19477
8.19504
8.1955
8.19509
8.19261
8.19005
8.18787
8.18655
5.27034
5.25894
5.25261
5.25487
5.26617
5.28801
5.32348
5.37807
5.44752
5.53734
5.80942
5.75798
5.74828
5.7617
5.81271
5.90956
6.07212
6.33472
6.67425
7.13897
6.04301
5.93933
5.91055
5.94304
6.05126
6.25974
6.61645
7.21167
7.98785
9.10674
6.28234
6.14569
6.11585
6.15949
6.30775
6.5975
7.11205
8.02109
9.23787
11.203
6.35112
6.18555
6.14136
6.19757
6.38059
6.75308
7.4444
8.74044
10.5396
13.8038
6.44219
6.25424
6.21047
6.27062
6.47795
6.90722
7.72906
9.34055
11.6532
16.3938
6.29326
6.13037
6.08558
6.14054
6.31831
6.69925
7.46014
9.077
11.6572
17.7684
5.73297
5.65182
5.6356
5.65694
5.73319
5.88846
6.18402
6.83621
8.10055
11.8447
8.56052
8.55319
8.55017
8.55264
8.56039
8.57303
8.59037
8.61822
8.66626
8.74101
8.04507
8.04552
8.0458
8.04592
8.0459
8.04471
8.0424
8.03992
8.03767
8.03601
5.12661
5.12321
5.11975
5.11968
5.12257
5.12897
5.13907
5.15344
5.16959
5.18567
5.37594
5.361
5.36014
5.363
5.37802
5.40722
5.45622
5.53389
5.63285
5.75056
5.52656
5.47964
5.46571
5.47948
5.52759
5.61834
5.76706
6.00379
6.30876
6.6804
5.72721
5.65979
5.64551
5.6655
5.73719
5.87331
6.1045
6.49905
7.03137
7.75018
5.81509
5.72403
5.69816
5.72775
5.82548
6.0186
6.36062
6.98388
7.86719
9.18695
5.92902
5.81726
5.79067
5.82399
5.94249
6.18004
6.61216
7.43965
8.65423
10.6616
5.88361
5.78316
5.75433
5.78773
5.89436
6.11622
6.53638
7.40177
8.80313
11.4703
5.57816
5.5202
5.50923
5.52297
5.57401
5.67525
5.85872
6.23085
6.89034
8.32508
8.39557
8.38885
8.38597
8.38809
8.39502
8.40638
8.42192
8.44563
8.48221
8.53151
7.88502
7.88578
7.88618
7.88621
7.8859
7.88456
7.88269
7.8807
7.87891
7.87757
5.05199
5.05077
5.04852
5.04801
5.04863
5.05067
5.05363
5.05744
5.061
5.06341
5.13788
5.13623
5.13827
5.13787
5.14012
5.14558
5.15602
5.17355
5.19604
5.22004
5.21962
5.19898
5.19237
5.19797
5.21876
5.25717
5.31721
5.40614
5.51475
5.62681
5.36811
5.33679
5.33081
5.33925
5.3722
5.43289
5.53109
5.68806
5.89268
6.12698
5.44711
5.39926
5.38482
5.39969
5.44979
5.54587
5.70755
5.98374
6.36782
6.8561
5.55776
5.49383
5.4786
5.49605
5.56129
5.68795
5.90593
6.29789
6.86476
7.64807
5.5743
5.5156
5.49811
5.51751
5.57857
5.70235
5.92566
6.35726
7.0456
8.13527
5.45384
5.41325
5.40627
5.41487
5.44845
5.51345
5.62684
5.83777
6.18538
6.75849
8.21907
8.21314
8.21053
8.21233
8.21833
8.22807
8.24143
8.26082
8.28803
8.32094
7.71466
7.71561
7.71608
7.71606
7.71559
7.71448
7.71309
7.71162
7.71033
7.70933
5.01365
5.01275
5.01108
5.01065
5.01094
5.01193
5.01317
5.01455
5.0155
5.01565
5.01146
5.01362
5.0161
5.01509
5.01376
5.01244
5.01195
5.01303
5.01554
5.01857
5.04477
5.03555
5.03233
5.03461
5.0437
5.06024
5.08501
5.11905
5.15789
5.19175
5.14542
5.13166
5.12961
5.1329
5.14751
5.17375
5.21452
5.27515
5.34995
5.42254
5.20534
5.18124
5.17352
5.18074
5.20564
5.25219
5.32729
5.44634
5.605
5.77831
5.30065
5.26521
5.25697
5.26568
5.30066
5.3667
5.47511
5.6555
5.90506
6.19338
5.35058
5.31839
5.30846
5.31929
5.35261
5.41881
5.5342
5.74202
6.06221
6.49179
5.3579
5.32982
5.32568
5.33098
5.35296
5.39453
5.46461
5.5846
5.76936
6.02086
8.03059
8.02559
8.02333
8.02482
8.02984
8.03782
8.04883
8.0641
8.08382
8.10569
7.53416
7.535
7.53551
7.53546
7.53501
7.53421
7.53324
7.53222
7.53132
7.53059
4.99322
4.9924
4.99109
4.99082
4.99116
4.99192
4.99283
4.99375
4.99433
4.99423
4.94617
4.9488
4.95089
4.95007
4.94829
4.94587
4.94333
4.94113
4.93966
4.93898
4.94929
4.94483
4.94314
4.94413
4.94835
4.95593
4.96687
4.98092
4.99592
5.00714
5.01296
5.00713
5.00666
5.00785
5.01427
5.02558
5.04258
5.06623
5.09363
5.11683
5.05338
5.04171
5.03773
5.04116
5.05327
5.07544
5.1101
5.16145
5.22689
5.2911
5.13024
5.11098
5.10674
5.11096
5.12949
5.16364
5.21765
5.3011
5.41035
5.51825
5.19571
5.17945
5.1743
5.18013
5.19736
5.23112
5.28882
5.38655
5.5315
5.70576
5.2867
5.2673
5.26506
5.26839
5.28294
5.30979
5.35334
5.4223
5.52052
5.64043
7.82986
7.82581
7.82396
7.82515
7.82918
7.83544
7.84417
7.85575
7.86966
7.88397
7.34328
7.34395
7.34437
7.34433
7.34403
7.3435
7.34283
7.34215
7.34155
7.341
4.98135
4.98063
4.97968
4.97952
4.97987
4.98054
4.98135
4.98216
4.98272
4.98262
4.91317
4.91533
4.91689
4.91637
4.91499
4.91302
4.91083
4.90874
4.9072
4.90636
4.89945
4.89701
4.89604
4.89652
4.89867
4.90247
4.90779
4.91428
4.92088
4.92515
4.93749
4.93493
4.93493
4.93535
4.93829
4.94343
4.95091
4.96067
4.97117
4.97929
4.96219
4.95672
4.95472
4.95636
4.96218
4.97264
4.98862
5.01098
5.03835
5.06424
5.02227
5.01177
5.00966
5.01174
5.02166
5.03953
5.06687
5.10648
5.15532
5.19847
5.09318
5.08593
5.08363
5.08669
5.09502
5.11122
5.13865
5.18312
5.24647
5.32167
5.23575
5.22223
5.22117
5.2234
5.23333
5.25108
5.27851
5.31881
5.37091
5.43178
7.61669
7.61358
7.61214
7.61306
7.61614
7.62087
7.62752
7.63598
7.64552
7.65471
7.14174
7.14229
7.14262
7.14261
7.14242
7.14207
7.14163
7.14118
7.14079
7.14036
4.97347
4.97292
4.97226
4.97218
4.97249
4.97307
4.97376
4.97446
4.975
4.97486
4.89667
4.89828
4.89938
4.89912
4.89821
4.89691
4.89546
4.89408
4.89314
4.89263
4.87472
4.87324
4.87265
4.87291
4.87409
4.87614
4.87896
4.8823
4.88564
4.88753
4.89637
4.89504
4.89505
4.89523
4.89676
4.89944
4.9032
4.9078
4.91235
4.91573
4.91009
4.90757
4.90658
4.90737
4.91018
4.91514
4.92253
4.93242
4.94408
4.95557
4.9569
4.95096
4.94992
4.95104
4.95657
4.96631
4.98068
5.00039
5.02317
5.04214
5.02817
5.02568
5.02498
5.02656
5.03022
5.03731
5.04926
5.06826
5.09392
5.1288
5.20038
5.19076
5.19041
5.19208
5.19917
5.2113
5.22897
5.25308
5.28068
5.31353
7.39104
7.38878
7.38773
7.38841
7.39062
7.3941
7.39898
7.40493
7.41128
7.41708
6.92934
6.9298
6.93006
6.93006
6.92995
6.92972
6.92944
6.92915
6.92889
6.92853
4.96746
4.9671
4.9667
4.96667
4.96693
4.96737
4.96792
4.96848
4.96899
4.96874
4.88843
4.8896
4.89035
4.89025
4.88973
4.88897
4.88814
4.88736
4.88696
4.88674
4.86323
4.86231
4.86198
4.86212
4.86277
4.86388
4.8654
4.8672
4.86907
4.87002
4.87504
4.87413
4.87402
4.87413
4.8751
4.87678
4.87907
4.88172
4.88415
4.88599
4.88185
4.88068
4.88018
4.88058
4.88196
4.88436
4.88783
4.89229
4.89738
4.90305
4.91902
4.91541
4.91485
4.91558
4.9189
4.92458
4.93263
4.94317
4.9546
4.96417
4.98843
4.98822
4.98836
4.98918
4.99053
4.99313
4.99747
5.00456
5.01308
5.03086
5.17623
5.16923
5.16927
5.17066
5.176
5.18458
5.19633
5.21123
5.22579
5.24493
7.15295
7.15141
7.15071
7.15118
7.15268
7.15519
7.15862
7.16266
7.16674
7.17033
6.70592
6.70631
6.70651
6.70652
6.70646
6.70632
6.70614
6.70595
6.70578
6.70546
4.96235
4.96222
4.96202
4.96203
4.96222
4.96253
4.96293
4.96335
4.96382
4.96345
4.88423
4.8851
4.8856
4.8856
4.88534
4.88496
4.88456
4.88421
4.88419
4.88417
4.85845
4.85792
4.85776
4.85783
4.85815
4.85869
4.85945
4.86038
4.86146
4.86199
4.8646
4.86384
4.86362
4.86371
4.86442
4.86565
4.86728
4.8691
4.87071
4.87198
4.86744
4.86685
4.86658
4.86679
4.8675
4.86871
4.87039
4.87248
4.87477
4.87789
4.89783
4.89543
4.89509
4.89565
4.89783
4.90142
4.90631
4.91247
4.91881
4.92461
4.96448
4.96519
4.96574
4.96618
4.96649
4.96704
4.96787
4.96965
4.97064
4.98098
5.15953
5.1544
5.15466
5.15593
5.16005
5.16639
5.17451
5.18408
5.19162
5.20391
6.90271
6.90164
6.90121
6.90151
6.90255
6.90427
6.90659
6.90921
6.91172
6.91391
6.47141
6.47174
6.4719
6.47191
6.47188
6.47179
6.47168
6.47155
6.47144
6.47114
4.95775
4.95783
4.95779
4.95784
4.95797
4.95817
4.95842
4.95871
4.95917
4.95871
4.88199
4.88265
4.88297
4.88301
4.88292
4.88279
4.88268
4.88261
4.88284
4.88298
4.85696
4.8567
4.85667
4.8567
4.8568
4.85699
4.85727
4.85767
4.85827
4.85862
4.85988
4.85922
4.85894
4.85901
4.85955
4.86051
4.86175
4.86311
4.86431
4.86531
4.86061
4.86026
4.86009
4.8602
4.86059
4.86124
4.86211
4.86315
4.86424
4.86612
4.88611
4.88438
4.88413
4.8846
4.88613
4.88857
4.89176
4.89567
4.89956
4.90373
4.94944
4.95038
4.95108
4.95135
4.95126
4.951
4.95044
4.95007
4.94803
4.95503
5.14739
5.14359
5.14401
5.1452
5.14849
5.15336
5.15921
5.16561
5.16927
5.17802
6.64049
6.6398
6.63952
6.63973
6.64041
6.64154
6.64303
6.64464
6.64611
6.64742
6.22586
6.22616
6.22627
6.22628
6.22627
6.22622
6.22614
6.22606
6.22598
6.2257
4.95346
4.95377
4.95384
4.95393
4.95401
4.95411
4.95424
4.95442
4.95492
4.95441
4.88063
4.88113
4.8813
4.88136
4.88136
4.8814
4.88148
4.88159
4.88198
4.88229
4.85702
4.85695
4.85698
4.85698
4.85696
4.85693
4.85694
4.85704
4.85734
4.85764
4.85804
4.85747
4.85719
4.85723
4.85764
4.85836
4.85929
4.86032
4.86124
4.86205
4.85774
4.85749
4.85736
4.85741
4.85764
4.85802
4.85851
4.85906
4.85961
4.86082
4.87923
4.87793
4.87772
4.8781
4.8792
4.88091
4.88308
4.88568
4.88825
4.89155
4.93854
4.93936
4.94005
4.94025
4.94009
4.93964
4.93871
4.93771
4.93472
4.9401
5.13759
5.13481
5.13529
5.13643
5.13912
5.14298
5.14735
5.15181
5.15323
5.15999
6.36666
6.36623
6.36606
6.36619
6.36662
6.36732
6.36822
6.36914
6.36994
6.3707
5.96958
5.96983
5.96992
5.96993
5.96993
5.9699
5.96985
5.96979
5.96973
5.96947
4.94938
4.94989
4.95003
4.95017
4.95022
4.95024
4.95027
4.95035
4.95091
4.95046
4.87957
4.8799
4.87995
4.87999
4.88005
4.88018
4.88036
4.88059
4.88107
4.88157
4.85775
4.85776
4.85782
4.8578
4.85772
4.8576
4.85747
4.85742
4.85755
4.85786
4.85756
4.85709
4.85684
4.85686
4.85714
4.85765
4.85831
4.85904
4.85972
4.86037
4.85686
4.85666
4.85655
4.85657
4.85671
4.85693
4.85721
4.85751
4.8578
4.85858
4.87434
4.87335
4.87317
4.87344
4.87421
4.87538
4.87684
4.87855
4.88027
4.88293
4.92852
4.92907
4.92969
4.92986
4.92974
4.92935
4.92849
4.9275
4.92454
4.92896
5.12815
5.12618
5.12668
5.12775
5.12998
5.13308
5.13644
5.13958
5.13967
5.1451
6.08173
6.08149
6.08139
6.08148
6.08172
6.08211
6.08262
6.0831
6.08348
6.08391
5.70321
5.70342
5.70348
5.7035
5.7035
5.70348
5.70344
5.7034
5.70334
5.7031
4.94521
4.94585
4.94607
4.94625
4.94629
4.94625
4.94619
4.94617
4.94676
4.94657
4.87839
4.87852
4.87849
4.87849
4.87856
4.87873
4.87895
4.87924
4.87971
4.88042
4.85858
4.85858
4.85862
4.85859
4.85851
4.85838
4.85823
4.85814
4.85819
4.85853
4.85769
4.85734
4.85715
4.85714
4.85731
4.85763
4.85805
4.85853
4.859
4.8595
4.85697
4.85681
4.85673
4.85673
4.8568
4.85691
4.85705
4.85719
4.85734
4.85779
4.8697
4.86898
4.86883
4.86899
4.86947
4.87019
4.87107
4.8721
4.8732
4.87524
4.91724
4.91752
4.918
4.91814
4.91805
4.91774
4.91707
4.91626
4.9138
4.91738
5.11633
5.11505
5.11551
5.11648
5.11828
5.12072
5.12326
5.12541
5.12469
5.12892
5.78655
5.78643
5.78638
5.78642
5.78654
5.78674
5.78699
5.78721
5.78736
5.78758
5.42759
5.42776
5.4278
5.42781
5.42781
5.4278
5.42778
5.42774
5.42769
5.42751
4.93953
4.94018
4.94055
4.94078
4.94084
4.94075
4.94057
4.94042
4.94078
4.94108
4.87679
4.87667
4.87656
4.87651
4.87657
4.87672
4.87695
4.87723
4.87765
4.87849
4.8591
4.85904
4.85904
4.85901
4.85895
4.85886
4.85877
4.85871
4.85874
4.85908
4.85814
4.85791
4.85779
4.85778
4.85787
4.85804
4.85827
4.85855
4.85884
4.85918
4.8576
4.85751
4.85746
4.85745
4.85746
4.8575
4.85754
4.85758
4.85762
4.85783
4.86472
4.86427
4.86416
4.86424
4.86448
4.86484
4.86527
4.86577
4.86637
4.86774
4.90353
4.90357
4.90385
4.90391
4.90378
4.90347
4.90293
4.90229
4.90068
4.9033
5.09504
5.09434
5.09473
5.09553
5.09687
5.09864
5.10043
5.10168
5.10053
5.10333
5.48212
5.48206
5.48204
5.48206
5.4821
5.48216
5.48224
5.4823
5.48235
5.48245
5.14253
5.14263
5.14264
5.14264
5.14264
5.14264
5.14264
5.14263
5.14263
5.14254
4.9247
4.92527
4.92589
4.92622
4.9263
4.92618
4.92589
4.92549
4.92508
4.92571
4.87368
4.87333
4.87313
4.87303
4.87304
4.87316
4.87336
4.87364
4.87404
4.87487
4.85937
4.8593
4.85928
4.85925
4.85922
4.85919
4.85915
4.85913
4.85916
4.85939
4.85895
4.85883
4.85877
4.85876
4.8588
4.85888
4.85899
4.85912
4.85927
4.85945
4.85863
4.85859
4.85857
4.85856
4.85856
4.85855
4.85854
4.85853
4.85852
4.85857
4.86083
4.86064
4.86058
4.86061
4.8607
4.86083
4.86098
4.86115
4.86138
4.86202
4.88685
4.88669
4.88674
4.88669
4.88651
4.8862
4.88578
4.88536
4.88479
4.88649
5.04091
5.04061
5.04086
5.04137
5.04216
5.04319
5.04421
5.04477
5.04377
5.04481
5.16848
5.16845
5.16846
5.16846
5.16846
5.16847
5.16846
5.16846
5.16843
5.16849
11.269
11.3841
11.3385
11.1222
82.8106
84.8878
85.3476
85.9966
143.137
148.611
149.081
147.836
202.799
212.236
212.103
207.814
264.48
278.141
276.936
269.484
332.775
351.055
348.955
340.212
395.158
417.81
415.427
408.036
433.167
459.439
457.492
452.917
345.681
368.259
365.708
364.36
11.4769
11.7155
11.5594
11.1514
9.71376
9.77313
9.77596
9.73197
76.078
79.3219
80.0813
80.2022
133.885
144.805
145.906
143.741
192.905
214.534
215.069
209.173
256.138
290.981
290.034
280.084
329.509
380.271
378.497
365.622
399.598
466.619
465.652
452.622
446.085
527.573
528.614
517.424
350.52
422.88
420.97
416.136
10.7115
10.9423
10.8719
10.6516
8.77684
8.78981
8.7888
8.77729
26.5382
28.955
28.2178
25.7086
49.3571
53.7633
52.0992
47.4255
74.5827
81.342
78.2227
70.7073
103.456
112.996
107.817
96.7357
139.441
152.804
145.177
129.284
177.309
194.673
184.514
163.492
207.527
228.704
216.444
190.909
164.727
181.62
170.138
149.302
9.91281
10.0035
9.98039
9.88118
8.51189
8.51445
8.51511
8.51415
11.473
11.7226
11.6931
11.496
21.2128
21.9401
21.8767
21.3346
31.9972
33.484
33.2321
31.9165
44.5105
46.9439
46.2797
43.7578
60.6337
64.4021
63.0825
58.7665
78.0551
83.1678
80.9012
74.4575
92.5746
99.1251
95.8386
87.1468
71.934
77.0744
73.5627
65.9617
9.44867
9.49311
9.49004
9.44962
8.33286
8.33396
8.33422
8.33357
7.04187
7.13344
7.15865
7.1288
11.6779
11.9742
12.0572
11.9712
16.8711
17.4856
17.5861
17.3195
22.8366
23.8564
23.8923
23.2885
30.7128
32.3379
32.2252
31.0365
39.2229
41.4576
41.04
39.0608
46.261
49.1971
48.3803
45.4003
34.4005
36.6192
35.429
32.5491
9.09834
9.12227
9.12388
9.10693
8.18254
8.18346
8.18356
8.18279
5.6067
5.62098
5.6262
5.62448
7.45588
7.52581
7.55853
7.55991
9.93741
10.1212
10.1884
10.1633
12.8336
13.1794
13.2657
13.1652
16.796
17.4125
17.5024
17.2347
21.0456
21.9423
21.9657
21.4366
24.478
25.73
25.6285
24.6923
17.4806
18.3747
18.0203
17.0166
8.8128
8.82471
8.82707
8.82092
8.0317
8.03259
8.03266
8.03188
5.19692
5.20012
5.20099
5.20001
5.82312
5.83892
5.84757
5.84978
6.91426
6.96715
6.99233
6.99343
8.25893
8.37117
8.41551
8.40581
10.2336
10.4612
10.5312
10.4824
12.3585
12.7063
12.7766
12.6575
14.053
14.5726
14.6193
14.3551
10.2217
10.5579
10.4794
10.1882
8.56537
8.57084
8.57291
8.57151
7.87346
7.87434
7.8744
7.87365
5.06322
5.06438
5.06439
5.06346
5.23313
5.23551
5.23695
5.2376
5.68405
5.69641
5.70295
5.70433
6.26558
6.29593
6.31048
6.31201
7.19409
7.26969
7.30035
7.29464
8.21559
8.33657
8.37642
8.35776
9.06864
9.26914
9.31372
9.24832
7.33887
7.4516
7.44554
7.37945
8.33736
8.33964
8.3411
8.34132
7.70548
7.70631
7.70638
7.70567
5.01329
5.01422
5.01416
5.01324
5.02033
5.02044
5.0205
5.02054
5.20442
5.20675
5.20804
5.20841
5.45536
5.46197
5.46556
5.46668
5.88058
5.90357
5.91412
5.91398
6.359
6.39483
6.41015
6.41043
6.80636
6.87766
6.90017
6.88549
6.19849
6.23242
6.23675
6.22623
8.11413
8.11493
8.11582
8.11638
7.52701
7.5278
7.52786
7.5272
4.99134
4.99219
4.99214
4.99126
4.93893
4.93883
4.93873
4.93864
5.00959
5.00982
5.00995
5.01
5.12348
5.12438
5.12496
5.12534
5.32339
5.33041
5.33373
5.33365
5.55976
5.56822
5.57285
5.5749
5.81405
5.83892
5.848
5.84375
5.69864
5.7062
5.70886
5.70963
7.88846
7.88857
7.88908
7.8896
7.3377
7.33842
7.33848
7.33787
4.97959
4.98038
4.98032
4.97949
4.90614
4.9061
4.90602
4.9059
4.92538
4.92528
4.92522
4.92523
4.9803
4.98016
4.9801
4.98018
5.07668
5.07925
5.08036
5.08005
5.20666
5.20776
5.20883
5.21019
5.3663
5.37601
5.37934
5.37664
5.45414
5.45321
5.45379
5.45608
7.65707
7.65691
7.65717
7.65758
7.13733
7.13798
7.13803
7.13748
4.97183
4.97253
4.97246
4.97167
4.89242
4.89243
4.89237
4.89225
4.8873
4.88718
4.88713
4.88714
4.91575
4.91554
4.91541
4.9154
4.96187
4.96314
4.9636
4.96324
5.04266
5.0422
5.04229
5.04304
5.15354
5.15839
5.15954
5.15696
5.32495
5.32164
5.32114
5.32308
7.41817
7.41796
7.41809
7.41836
6.92579
6.92637
6.9264
6.92591
4.9658
4.9664
4.9663
4.96555
4.88654
4.88656
4.88651
4.88638
4.86973
4.86964
4.86961
4.86964
4.88596
4.88583
4.88574
4.8857
4.90699
4.9078
4.90804
4.90773
4.96376
4.96322
4.96311
4.96348
5.04877
5.05199
5.05233
5.04976
5.25295
5.24941
5.2485
5.2498
7.17063
7.17047
7.17053
7.17067
6.70302
6.70352
6.70354
6.7031
4.96066
4.96114
4.96102
4.96031
4.88397
4.884
4.88395
4.88382
4.86175
4.8617
4.86169
4.86171
4.87203
4.87197
4.87191
4.87186
4.88063
4.8812
4.88136
4.88109
4.92485
4.92456
4.92446
4.92458
4.99616
4.99879
4.99883
4.99625
5.21089
5.20785
5.20687
5.20752
6.91367
6.91363
6.91366
6.91366
6.46905
6.46946
6.46946
6.46908
4.9561
4.95647
4.95631
4.95566
4.88285
4.88289
4.88284
4.88271
4.85849
4.85848
4.85847
4.85848
4.86542
4.8654
4.86536
4.86532
4.86809
4.8685
4.8686
4.86838
4.90484
4.90483
4.90478
4.90471
4.96893
4.97135
4.97127
4.96866
5.18476
5.1825
5.18159
5.1816
6.6468
6.64691
6.64692
6.64681
6.22399
6.22431
6.22429
6.22397
4.95205
4.95231
4.95212
4.95151
4.88233
4.88241
4.88237
4.88221
4.85766
4.85768
4.85768
4.85767
4.86219
4.86219
4.86217
4.86214
4.86222
4.86251
4.86256
4.86238
4.89336
4.89359
4.89358
4.89337
4.95328
4.95569
4.95557
4.95288
5.16679
5.16545
5.16468
5.16406
6.36981
6.37006
6.37007
6.36987
5.96819
5.96841
5.96837
5.96811
4.94847
4.94864
4.94844
4.94788
4.88193
4.88208
4.88205
4.88185
4.85805
4.85811
4.85812
4.85808
4.86054
4.86056
4.86055
4.86053
4.85952
4.85971
4.85973
4.85959
4.88513
4.88551
4.88554
4.88523
4.94147
4.944
4.94389
4.94109
5.15202
5.1517
5.15114
5.14988
6.08283
6.0832
6.08322
6.08294
5.70234
5.70245
5.70239
5.7022
4.94521
4.94538
4.9452
4.94467
4.88123
4.88148
4.88147
4.8812
4.85888
4.85898
4.85899
4.85892
4.85969
4.85972
4.85973
4.85971
4.85835
4.85846
4.85846
4.85837
4.87745
4.8779
4.87795
4.87762
4.92867
4.93133
4.93126
4.92842
5.13572
5.13661
5.13633
5.13437
5.7864
5.78685
5.78687
5.78656
5.42738
5.42735
5.42726
5.42716
4.941
4.94139
4.94128
4.94066
4.8796
4.87994
4.87994
4.8796
4.85947
4.85959
4.8596
4.85952
4.85936
4.8594
4.85941
4.85941
4.85808
4.85813
4.85812
4.85808
4.86956
4.86996
4.87001
4.86974
4.91187
4.91428
4.91426
4.91178
5.10925
5.11164
5.11172
5.10891
5.48141
5.48193
5.48196
5.48162
5.14313
5.14289
5.1428
5.14287
4.92733
4.92822
4.92819
4.92724
4.87564
4.87587
4.87584
4.87558
4.85963
4.8597
4.85971
4.85965
4.85958
4.85961
4.85963
4.85963
4.85863
4.85863
4.85863
4.85863
4.86301
4.86323
4.86327
4.86313
4.89063
4.8918
4.89177
4.89056
5.04764
5.05117
5.05148
5.04805
5.16797
5.16853
5.16854
5.16817
10.1125
9.36666
9.05458
8.94205
8.87758
8.83213
8.80185
8.78483
8.77538
8.76975
103.674
49.1181
35.7478
29.9535
24.5564
19.9489
16.3629
13.6891
11.7812
10.4191
160.952
70.8606
51.0936
43.743
37.1916
31.4256
26.593
22.7122
19.6686
17.294
206.426
82.5938
55.9825
46.7285
39.3623
32.7668
27.2288
22.8353
19.4438
16.856
242.064
88.9521
58.8264
47.9657
40.0776
32.7366
26.677
21.9546
18.368
15.7226
278.037
94.6913
60.9744
48.3026
39.8457
31.7873
25.3527
20.465
16.8822
14.331
307.096
98.1593
61.6906
47.7812
39.0461
30.5199
23.9436
19.0743
15.5947
13.2106
315.21
93.7527
56.628
42.2279
33.9176
25.787
19.9243
15.797
13.046
11.2292
224.474
56.1342
30.5432
21.1161
16.2834
12.2241
9.95517
8.61308
7.80412
7.27996
9.56916
9.54452
9.38912
9.36297
9.31639
9.29026
9.2695
9.25846
9.251
9.24458
9.3671
9.05697
8.90474
8.81914
8.7652
8.72958
8.70645
8.6927
8.68529
8.6806
53.1031
28.671
22.5568
19.4497
16.6688
14.1979
12.1631
10.6006
9.4608
8.66865
89.9995
46.2751
35.8012
31.0214
27.1816
23.5093
20.2907
17.6318
15.5036
13.8847
122.266
58.6127
42.8654
35.6347
30.5508
25.7669
21.6964
18.4232
15.8731
13.9866
152.565
68.7684
47.8569
38.5207
32.385
26.6786
21.9777
18.2984
15.4859
13.4757
186.439
78.8762
52.1453
40.4759
33.2583
26.6699
21.4544
17.4961
14.5916
12.5915
217.207
86.4752
54.7135
41.2502
33.3537
26.1779
20.6983
16.6612
13.771
11.8536
233.198
86.7504
51.9179
37.4843
29.5784
22.5776
17.5744
14.0835
11.7635
10.2832
167.408
54.7557
29.0622
19.3795
14.6948
11.2266
9.27458
8.12954
7.43362
7.00277
9.8185
9.50195
9.33078
9.2675
9.21261
9.17933
9.15517
9.14042
9.13003
9.12102
8.73773
8.69631
8.66358
8.63635
8.61505
8.59959
8.58928
8.58309
8.57966
8.5772
19.9484
16.5767
14.503
12.6847
11.115
9.81189
8.79758
8.04866
7.5099
7.13728
35.9211
28.7128
24.9259
21.6899
18.9142
16.5059
14.5107
12.9064
11.631
10.6691
51.0383
37.9369
31.5413
26.3508
22.2597
18.8401
16.0968
13.9476
12.2882
11.0744
66.1294
45.693
36.6304
29.594
24.3794
20.1257
16.8137
14.2906
12.3792
11.026
83.2269
53.3443
41.1443
32.0845
25.7355
20.6617
16.8422
14.0203
11.9743
10.5808
99.1251
59.1909
44.1504
33.4583
26.3364
20.7055
16.5978
13.6544
11.5707
10.1995
108.42
59.7581
42.5994
31.0004
23.7644
18.2179
14.4246
11.8569
10.1704
9.09759
75.9438
36.6491
23.8682
16.2727
12.2255
9.68238
8.2897
7.47148
6.96269
6.6433
9.57145
9.37698
9.24301
9.16315
9.10552
9.06948
9.04439
9.02729
9.01464
9.00375
8.50933
8.49926
8.48821
8.47828
8.47074
8.46561
8.4624
8.46077
8.46037
8.4599
10.9416
10.1336
9.28445
8.44001
7.73281
7.19008
6.79126
6.50322
6.29465
6.14957
19.8682
18.029
16.1771
14.3041
12.6883
11.36
10.2986
9.46279
8.80353
8.30896
28.4784
24.6337
21.1907
17.9888
15.4007
13.3286
11.705
10.4521
9.4936
8.7984
37.2438
30.6672
25.4315
20.8637
17.3676
14.6401
12.5634
11.0095
9.8418
9.01751
47.4707
36.9714
29.5246
23.3599
18.8648
15.4399
12.9154
11.0863
9.77445
8.88361
57.0694
42.0769
32.553
25.0133
19.7597
15.8314
13.0269
11.0613
9.68095
8.76941
62.7989
43.2647
32.0886
23.7122
18.2353
14.3063
11.6797
9.94102
8.8028
8.06977
42.7456
26.2038
17.9723
12.7914
10.0235
8.39131
7.4731
6.9184
6.55963
6.329
9.3268
9.18823
9.08106
9.01137
8.96313
8.93146
8.90871
8.89238
8.88004
8.86961
8.33339
8.3319
8.33039
8.32921
8.32851
8.32821
8.32824
8.3287
8.32981
8.33083
6.99885
6.75867
6.5057
6.26729
6.06895
5.91254
5.79217
5.70051
5.63116
5.58319
11.6113
10.9254
10.1516
9.3739
8.68709
8.11478
7.65556
7.29396
7.00548
6.78754
16.4403
14.9576
13.3757
11.8596
10.5721
9.52173
8.69354
8.05534
7.56707
7.21426
21.5366
18.9349
16.3583
14.0119
12.1132
10.6148
9.47264
8.62376
7.98361
7.52914
27.768
23.4442
19.5086
16.087
13.4437
11.4219
9.93334
8.86347
8.09576
7.57181
33.7358
27.3829
22.0656
17.642
14.3793
11.955
10.2305
9.03389
8.18814
7.62148
37.3942
28.7906
22.2621
17.1541
13.6361
11.1585
9.5087
8.42152
7.70019
7.22517
24.5285
17.3345
12.8092
9.95707
8.3636
7.4049
6.83001
6.46703
6.22052
6.05876
9.05262
8.96952
8.89788
8.84679
8.80934
8.78252
8.7623
8.7471
8.73536
8.72558
8.18336
8.18351
8.18387
8.18446
8.18519
8.18597
8.18677
8.18776
8.18925
8.19101
5.60803
5.56482
5.51346
5.46128
5.41407
5.3736
5.3401
5.31314
5.29256
5.27959
7.50464
7.31359
7.06518
6.80578
6.57054
6.37235
6.21226
6.08443
5.97781
5.89484
9.97781
9.47202
8.85073
8.22745
7.67865
7.22431
6.86233
6.57997
6.36006
6.20033
12.7362
11.7743
10.6615
9.59959
8.70696
7.99562
7.45053
7.04306
6.72811
6.5002
16.3274
14.6097
12.7533
11.0608
9.69828
8.64817
7.87068
7.30842
6.89762
6.61334
19.8648
17.2464
14.5833
12.2677
10.4872
9.16061
8.21194
7.55015
7.06994
6.74004
22.1184
18.4201
14.9976
12.2239
10.2381
8.84201
7.90156
7.27196
6.84165
6.55064
14.394
11.5382
9.42781
8.0519
7.21586
6.67997
6.33281
6.10284
5.9385
5.8292
8.79751
8.75139
8.70716
8.67168
8.64333
8.62129
8.60389
8.59029
8.57954
8.57071
8.03259
8.03292
8.03348
8.03423
8.03508
8.03593
8.03674
8.03768
8.03909
8.04089
5.19672
5.18856
5.17889
5.16822
5.15758
5.14755
5.13864
5.13124
5.12618
5.12429
5.83878
5.79284
5.73045
5.6633
5.60093
5.54739
5.50339
5.46696
5.43313
5.40495
6.95009
6.79207
6.58426
6.36811
6.17123
6.00317
5.86452
5.75207
5.66101
5.59417
8.29793
7.96325
7.54436
7.13198
6.7752
6.48486
6.25685
6.08149
5.93869
5.83184
10.2207
9.55372
8.76936
8.03152
7.41925
6.93862
6.57421
6.30297
6.09725
5.95216
12.1904
11.126
9.92498
8.84921
7.99545
7.34966
6.87714
6.53873
6.28124
6.09837
13.5195
11.9505
10.3397
8.99903
8.00452
7.29193
6.79589
6.45175
6.20677
6.03688
9.42617
8.38622
7.50723
6.88471
6.46187
6.16833
5.96312
5.82084
5.71384
5.64231
8.56196
8.53742
8.51068
8.48639
8.46532
8.4478
8.43334
8.42165
8.41217
8.40451
7.87435
7.87461
7.87503
7.8756
7.87625
7.87688
7.87747
7.87816
7.87932
7.88091
5.06296
5.0612
5.05922
5.05688
5.05425
5.05149
5.04889
5.04684
5.04609
5.047
5.23565
5.22719
5.21545
5.2023
5.18989
5.17939
5.17106
5.16393
5.15498
5.14624
5.69443
5.65147
5.59145
5.5254
5.46178
5.40433
5.35414
5.3111
5.27462
5.24775
6.28733
6.1874
6.05369
5.91582
5.79084
5.6844
5.59688
5.52647
5.46471
5.41644
7.22112
6.98845
6.6997
6.41665
6.17128
5.97023
5.81043
5.68574
5.58661
5.51566
8.22901
7.83663
7.36126
6.91967
6.55421
6.26678
6.04672
5.88214
5.74899
5.6509
8.98498
8.3689
7.69609
7.11387
6.66025
6.3204
6.07144
5.8905
5.75609
5.66119
7.18604
6.8235
6.46913
6.18822
5.97533
5.81562
5.69602
5.60963
5.54127
5.49573
8.33712
8.32376
8.3074
8.29094
8.27564
8.26218
8.25062
8.24096
8.23292
8.22654
7.70635
7.70653
7.7068
7.70718
7.70761
7.70801
7.70835
7.70879
7.70968
7.71101
5.0133
5.01254
5.01181
5.01097
5.00997
5.00886
5.00782
5.00712
5.00735
5.0086
5.02003
5.01896
5.01783
5.01664
5.01585
5.01578
5.01646
5.01712
5.01561
5.01307
5.20583
5.19451
5.17767
5.15771
5.13712
5.11729
5.09886
5.08212
5.06736
5.05658
5.46129
5.43456
5.39594
5.35326
5.31199
5.27472
5.24247
5.21528
5.18908
5.16743
5.8925
5.81793
5.72098
5.61957
5.52583
5.44422
5.37552
5.31907
5.27214
5.23844
6.38038
6.2526
6.08398
5.91744
5.77042
5.64769
5.54822
5.47018
5.40262
5.35089
6.80405
6.58112
6.32439
6.08755
5.89031
5.73343
5.61192
5.51943
5.44804
5.39728
6.17807
6.04679
5.90088
5.77164
5.66397
5.57725
5.5082
5.45649
5.4134
5.38505