/*--------------------------------*- C++ -*----------------------------------*\
| =========                 |                                                 |
| \\      /  F ield         | foam-extend: Open Source CFD                    |
|  \\    /   O peration     | Version:     4.0                                |
|   \\  /    A nd           | Web:         http://www.foam-extend.org         |
|    \\/     M anipulation  |                                                 |
\*---------------------------------------------------------------------------*/
FoamFile
{
    version     2.0;
    format      ascii;
    class       volScalarField;
    location    "2250";
    object      MaU;
}
// * * * * * * * * * * * * * * * * * * * * * * * * * * * * * * * * * * * * * //

dimensions      [0 0 0 0 0 0 0];

internalField   nonuniform List<scalar> 
34480
(
0.623803
0.6248
0.625335
0.625447
0.625141
0.624342
0.622909
0.620162
0.614066
0.60827
0.627226
0.628052
0.628513
0.628544
0.627985
0.62669
0.624685
0.62172
0.614701
0.609146
0.629415
0.630173
0.630545
0.630452
0.629716
0.628367
0.626592
0.624297
0.61726
0.612139
0.629412
0.630191
0.630632
0.63067
0.630158
0.629213
0.627938
0.626356
0.619707
0.61506
0.629875
0.630759
0.63134
0.631597
0.631408
0.630941
0.630212
0.629401
0.623537
0.619375
0.629474
0.630415
0.631081
0.631468
0.631516
0.631455
0.631261
0.631273
0.626591
0.623248
0.629681
0.630764
0.631537
0.632065
0.632323
0.632602
0.632904
0.633734
0.630499
0.627958
0.629093
0.630217
0.630947
0.63136
0.631503
0.631737
0.632191
0.63356
0.631841
0.630486
0.628844
0.630126
0.630969
0.631517
0.631836
0.632231
0.632933
0.634799
0.634351
0.632903
0.625042
0.626066
0.626103
0.625226
0.623605
0.621618
0.619718
0.619172
0.618371
0.619156
0.613904
0.615366
0.615939
0.61569
0.614546
0.61223
0.608116
0.600846
0.590135
0.576279
0.618521
0.61983
0.620354
0.620092
0.61885
0.616254
0.611712
0.603863
0.591204
0.575045
0.621594
0.622817
0.62329
0.622994
0.621677
0.619036
0.614564
0.606878
0.593373
0.576035
0.622405
0.62364
0.624177
0.624015
0.622907
0.620608
0.616536
0.609278
0.595383
0.577624
0.623551
0.62486
0.625515
0.625559
0.62475
0.622905
0.619354
0.612739
0.598939
0.581335
0.623689
0.625042
0.625777
0.625957
0.625384
0.623954
0.620948
0.615121
0.601871
0.585056
0.624344
0.625805
0.626635
0.62696
0.626604
0.625545
0.623076
0.618104
0.60578
0.590039
0.624079
0.625568
0.626367
0.626608
0.626197
0.625202
0.623025
0.618769
0.607634
0.593582
0.624077
0.625674
0.626564
0.62692
0.626688
0.625926
0.62414
0.620631
0.610755
0.597503
0.620467
0.621879
0.622213
0.62155
0.619946
0.617552
0.614093
0.609284
0.599883
0.589754
0.606276
0.607843
0.608407
0.608087
0.606845
0.604525
0.60083
0.595263
0.58719
0.577
0.611178
0.612712
0.613269
0.612892
0.61146
0.60871
0.604134
0.596876
0.585487
0.57033
0.614525
0.616057
0.616609
0.616228
0.614733
0.611803
0.606819
0.598654
0.584637
0.564815
0.615829
0.617423
0.618052
0.617785
0.616417
0.613628
0.608639
0.600047
0.583877
0.55995
0.617451
0.619135
0.619874
0.619787
0.61865
0.616167
0.611416
0.602806
0.585137
0.557921
0.618009
0.61975
0.620574
0.62062
0.619684
0.617523
0.613116
0.604785
0.586228
0.556643
0.619027
0.620861
0.621776
0.621967
0.621233
0.619398
0.615399
0.607543
0.588674
0.557423
0.619062
0.620921
0.62182
0.621956
0.621195
0.619447
0.61572
0.608392
0.589736
0.557643
0.619319
0.621242
0.622211
0.622437
0.621807
0.620252
0.616886
0.610222
0.59221
0.558716
0.61595
0.617704
0.618261
0.617727
0.616088
0.613344
0.608831
0.601397
0.583941
0.550861
0.600716
0.60209
0.602562
0.602254
0.601162
0.59923
0.59636
0.592455
0.587496
0.581966
0.605353
0.606817
0.607327
0.606918
0.605518
0.60298
0.599057
0.593403
0.585577
0.576653
0.608548
0.610132
0.610677
0.610236
0.608684
0.605795
0.601142
0.594099
0.583505
0.570569
0.61005
0.611772
0.612406
0.61203
0.610484
0.607495
0.602446
0.5944
0.581147
0.563934
0.61194
0.61379
0.614528
0.614286
0.612863
0.609975
0.604817
0.596181
0.580677
0.559466
0.612789
0.614722
0.615546
0.615412
0.614119
0.611399
0.606297
0.597402
0.580102
0.555413
0.61408
0.616109
0.617015
0.61701
0.615873
0.613373
0.608454
0.599559
0.58098
0.553346
0.614371
0.616426
0.617328
0.617287
0.61613
0.613681
0.608895
0.600171
0.580899
0.551006
0.614851
0.616942
0.617896
0.61793
0.616879
0.614566
0.609968
0.601578
0.58228
0.549849
0.61173
0.613667
0.614333
0.613825
0.61207
0.608944
0.60358
0.594584
0.575478
0.541848
0.596854
0.597937
0.598297
0.59806
0.597245
0.595862
0.593925
0.591505
0.588751
0.586033
0.600935
0.602175
0.602606
0.60225
0.601075
0.59903
0.596045
0.592098
0.58725
0.582464
0.603676
0.605149
0.605654
0.605235
0.603819
0.601282
0.597412
0.591993
0.584748
0.577128
0.605108
0.606802
0.607413
0.60701
0.605481
0.60264
0.598098
0.591398
0.581614
0.570565
0.607039
0.608919
0.609637
0.609317
0.607799
0.604855
0.599905
0.592242
0.580065
0.565429
0.608016
0.610024
0.610835
0.610591
0.609118
0.606168
0.600991
0.59266
0.578338
0.560218
0.609455
0.611582
0.612474
0.612335
0.610954
0.608093
0.602854
0.594122
0.578017
0.556636
0.609922
0.61209
0.612992
0.612827
0.611419
0.608549
0.60327
0.594351
0.576973
0.552747
0.610575
0.612768
0.61371
0.613604
0.612271
0.609488
0.604264
0.595311
0.577303
0.550002
0.607682
0.609734
0.61048
0.609995
0.608175
0.60483
0.599081
0.589604
0.571371
0.54199
0.594212
0.595017
0.595274
0.595111
0.594558
0.593647
0.592427
0.590993
0.589476
0.588025
0.597696
0.598653
0.59899
0.598713
0.597816
0.596303
0.594196
0.591593
0.588698
0.58612
0.599867
0.601118
0.601552
0.601194
0.600009
0.597954
0.594972
0.591081
0.586394
0.581968
0.60106
0.602595
0.603148
0.602766
0.601381
0.598894
0.595122
0.589939
0.583158
0.57632
0.602855
0.604631
0.605297
0.604952
0.603479
0.60073
0.596358
0.590059
0.581136
0.571552
0.603819
0.605773
0.60654
0.606236
0.604723
0.601813
0.596998
0.58979
0.578785
0.566315
0.605292
0.6074
0.608251
0.608021
0.606531
0.603575
0.598488
0.590596
0.577708
0.562329
0.605849
0.608021
0.608896
0.608644
0.607105
0.604068
0.598778
0.590416
0.576021
0.557901
0.606619
0.608822
0.60973
0.609521
0.608023
0.605013
0.599657
0.590996
0.575624
0.554509
0.60392
0.605997
0.606778
0.606308
0.604477
0.601074
0.595328
0.586173
0.570298
0.54697
0.592397
0.592984
0.59316
0.593059
0.592708
0.592145
0.591415
0.590594
0.589763
0.588932
0.595363
0.596052
0.596299
0.596102
0.595465
0.594416
0.593012
0.591365
0.589665
0.588268
0.596966
0.597956
0.598305
0.598024
0.597101
0.595541
0.59337
0.590699
0.587751
0.585188
0.597847
0.599148
0.59962
0.599291
0.598125
0.596088
0.593136
0.589322
0.584787
0.580594
0.599393
0.600972
0.601561
0.601232
0.599907
0.597511
0.593883
0.588975
0.582697
0.57653
0.600238
0.602036
0.602732
0.602412
0.600978
0.598308
0.594113
0.588217
0.580133
0.571763
0.601653
0.60364
0.604425
0.604149
0.602671
0.599842
0.595227
0.588503
0.578679
0.567965
0.602214
0.604294
0.605116
0.604814
0.60326
0.60028
0.59534
0.587975
0.576658
0.563616
0.603049
0.605177
0.60603
0.605758
0.60421
0.601196
0.596091
0.58827
0.575865
0.560277
0.600502
0.60252
0.603298
0.602848
0.60107
0.597769
0.592346
0.584045
0.570999
0.553482
0.591119
0.591556
0.591675
0.591615
0.591404
0.59107
0.590646
0.590183
0.589719
0.589187
0.593687
0.594158
0.59433
0.594198
0.593771
0.59308
0.592181
0.591168
0.590176
0.589402
0.594791
0.59553
0.595795
0.595589
0.594911
0.593787
0.592276
0.590502
0.58867
0.587175
0.595364
0.596405
0.596788
0.596524
0.595599
0.594019
0.591815
0.58911
0.586134
0.583569
0.596606
0.597936
0.598434
0.598146
0.597026
0.595053
0.592189
0.588517
0.58421
0.580275
0.597269
0.598842
0.599449
0.599146
0.597869
0.59556
0.59209
0.587475
0.58171
0.576168
0.598563
0.600353
0.601051
0.600765
0.599394
0.596846
0.592881
0.587414
0.580173
0.572844
0.599056
0.600962
0.601709
0.601392
0.599918
0.597165
0.592803
0.586631
0.578062
0.568899
0.599916
0.601892
0.602671
0.602371
0.60087
0.59803
0.593432
0.586737
0.577128
0.565988
0.597478
0.599361
0.600101
0.599681
0.598017
0.594954
0.590078
0.582925
0.572654
0.560022
0.590187
0.590526
0.590607
0.590575
0.590451
0.590259
0.590018
0.589759
0.589492
0.589114
0.592473
0.592781
0.592897
0.592813
0.592539
0.592101
0.591543
0.590933
0.590355
0.589919
0.59317
0.593695
0.593886
0.593743
0.593268
0.592493
0.591479
0.590331
0.589205
0.588327
0.593483
0.594276
0.594573
0.594373
0.593674
0.592504
0.590922
0.58906
0.587132
0.585559
0.594415
0.595484
0.595886
0.59565
0.594751
0.593203
0.591034
0.588377
0.585471
0.582971
0.594873
0.596187
0.596695
0.596428
0.595351
0.593451
0.590704
0.587219
0.583192
0.579557
0.596014
0.597558
0.598157
0.597889
0.596684
0.594504
0.59125
0.586973
0.581764
0.57682
0.596381
0.598058
0.598713
0.598408
0.597081
0.594665
0.590989
0.58603
0.579721
0.573404
0.597242
0.599009
0.599697
0.599399
0.598021
0.595477
0.591528
0.586044
0.57883
0.571067
0.594875
0.596564
0.59724
0.596858
0.595358
0.592634
0.588432
0.582529
0.574712
0.565885
0.58948
0.589757
0.589814
0.589799
0.589728
0.589619
0.589483
0.589338
0.589179
0.588882
0.591575
0.591772
0.591849
0.591798
0.591628
0.591358
0.59102
0.590656
0.590318
0.590067
0.591954
0.592311
0.592444
0.592348
0.592028
0.591513
0.590853
0.590127
0.589439
0.588921
0.592079
0.592658
0.59288
0.592736
0.592231
0.591397
0.590298
0.589047
0.587809
0.586843
0.592726
0.593548
0.59386
0.593676
0.592987
0.591821
0.590236
0.588367
0.586434
0.58485
0.592984
0.594036
0.594445
0.594224
0.593357
0.591858
0.589765
0.587215
0.584449
0.582081
0.593968
0.595248
0.595743
0.595509
0.5945
0.592717
0.59015
0.586915
0.583241
0.579942
0.594171
0.595588
0.596141
0.595867
0.594728
0.592701
0.589728
0.585886
0.581348
0.577062
0.595025
0.596547
0.597135
0.596861
0.595654
0.593478
0.590223
0.585899
0.580622
0.575324
0.592697
0.594153
0.594746
0.594412
0.593109
0.59078
0.587299
0.58261
0.57683
0.570821
0.588926
0.589164
0.589206
0.589199
0.589159
0.589098
0.589022
0.58894
0.58884
0.588589
0.590898
0.591022
0.591073
0.591042
0.59094
0.590777
0.590575
0.59036
0.59016
0.590011
0.591026
0.591261
0.591349
0.591288
0.591079
0.590747
0.590329
0.589878
0.589462
0.589156
0.591043
0.591451
0.591611
0.591512
0.59116
0.590585
0.589842
0.589019
0.588231
0.587636
0.591441
0.59205
0.592282
0.592146
0.591637
0.590791
0.589669
0.588387
0.587117
0.586117
0.591526
0.592336
0.592653
0.592479
0.591809
0.590673
0.589129
0.587315
0.585443
0.583912
0.59237
0.593391
0.593787
0.593593
0.592785
0.591384
0.589429
0.587056
0.584509
0.582329
0.592385
0.593536
0.593986
0.593753
0.592817
0.591184
0.588866
0.585987
0.582789
0.579925
0.593242
0.594507
0.594992
0.594754
0.593743
0.591957
0.589375
0.586079
0.582306
0.578753
0.590927
0.592132
0.592633
0.592351
0.591262
0.589346
0.586566
0.582969
0.578802
0.574804
0.58848
0.588692
0.588723
0.588722
0.588699
0.588665
0.588622
0.588575
0.588509
0.588287
0.590378
0.590457
0.590491
0.590474
0.590413
0.590316
0.590196
0.590069
0.589949
0.589856
0.5903
0.59045
0.590506
0.590467
0.590335
0.590127
0.589867
0.589592
0.589344
0.589163
0.590285
0.590564
0.590676
0.590611
0.590373
0.589988
0.589498
0.588966
0.588468
0.5881
0.590473
0.590907
0.591074
0.590977
0.590615
0.59002
0.589248
0.588389
0.587566
0.586937
0.590422
0.591022
0.591259
0.591128
0.59063
0.589799
0.588695
0.587436
0.586188
0.585204
0.591155
0.59194
0.592246
0.592094
0.591472
0.590411
0.588971
0.587276
0.58554
0.584112
0.590967
0.591866
0.59222
0.59203
0.591291
0.590026
0.58828
0.586187
0.583978
0.58209
0.591855
0.592868
0.593255
0.59306
0.592247
0.590838
0.58886
0.586427
0.583786
0.581436
0.589532
0.590488
0.590895
0.590666
0.589789
0.588271
0.586127
0.583456
0.580523
0.57792
0.588115
0.588308
0.588332
0.588333
0.58832
0.588301
0.588277
0.588249
0.588204
0.588003
0.589978
0.59003
0.590054
0.590045
0.590009
0.589952
0.589881
0.589804
0.589729
0.589667
0.589713
0.589805
0.589839
0.589814
0.589733
0.589605
0.589448
0.589284
0.589138
0.589033
0.589736
0.589922
0.589999
0.589958
0.589802
0.589551
0.589234
0.588894
0.588582
0.588353
0.589747
0.590046
0.590161
0.590094
0.589845
0.58944
0.588923
0.588359
0.587833
0.587441
0.5896
0.590029
0.5902
0.590106
0.589749
0.58916
0.588393
0.587539
0.586719
0.586092
0.590255
0.590838
0.591066
0.590953
0.590492
0.589717
0.588688
0.587509
0.586345
0.585417
0.589856
0.590531
0.590798
0.590651
0.59009
0.589145
0.587871
0.586393
0.584896
0.583671
0.590816
0.5916
0.591898
0.591745
0.591117
0.590047
0.588583
0.586838
0.585028
0.583493
0.588461
0.589189
0.589508
0.589329
0.588649
0.587489
0.585891
0.583969
0.58195
0.580293
0.587813
0.58799
0.588007
0.58801
0.588003
0.587992
0.587978
0.587962
0.587929
0.587746
0.58968
0.589717
0.589735
0.58973
0.589709
0.589675
0.589633
0.589585
0.589535
0.589488
0.589219
0.589272
0.589291
0.589276
0.589226
0.58915
0.589057
0.588962
0.588879
0.58882
0.589344
0.589466
0.589518
0.589494
0.589395
0.589235
0.589034
0.588819
0.588623
0.58848
0.589203
0.589402
0.589479
0.589434
0.589267
0.588999
0.588662
0.5883
0.58797
0.587729
0.588999
0.589296
0.589416
0.58935
0.589102
0.588698
0.588179
0.587614
0.587082
0.586687
0.589606
0.590025
0.590189
0.590107
0.589778
0.589231
0.588518
0.587719
0.586953
0.586354
0.588986
0.589474
0.589669
0.589558
0.589148
0.588466
0.587567
0.586552
0.585557
0.584775
0.590075
0.590662
0.590883
0.590769
0.590303
0.58952
0.588471
0.587256
0.58604
0.585047
0.587659
0.588189
0.58843
0.588294
0.587787
0.586933
0.58578
0.584439
0.58308
0.582051
0.587554
0.587715
0.587727
0.58773
0.587726
0.58772
0.587713
0.587703
0.587679
0.587513
0.589478
0.589506
0.589521
0.589519
0.589507
0.589486
0.589459
0.589428
0.589391
0.58935
0.588785
0.588813
0.588822
0.588811
0.588782
0.588737
0.588684
0.588632
0.588588
0.588558
0.589073
0.589153
0.589188
0.589174
0.589113
0.589013
0.588887
0.588753
0.588631
0.588539
0.5888
0.588927
0.588977
0.588947
0.588839
0.588667
0.588452
0.588225
0.588022
0.587876
0.588572
0.588771
0.588853
0.588809
0.588643
0.588373
0.588032
0.587665
0.587325
0.587079
0.589152
0.589442
0.589556
0.589499
0.589272
0.588898
0.588419
0.587892
0.587398
0.587016
0.5883
0.588637
0.588775
0.588695
0.588406
0.587931
0.587314
0.586636
0.585988
0.5855
0.589586
0.590012
0.59017
0.590089
0.589756
0.589203
0.588477
0.587653
0.586855
0.586217
0.587059
0.587426
0.587602
0.587504
0.587139
0.586532
0.585727
0.58482
0.583925
0.583305
0.587299
0.587442
0.58745
0.587453
0.587451
0.587448
0.587444
0.587438
0.587421
0.587275
0.589378
0.589403
0.589415
0.589415
0.589407
0.589394
0.589376
0.589353
0.589322
0.589282
0.588389
0.588401
0.588404
0.588395
0.588378
0.588353
0.588324
0.588298
0.588277
0.588266
0.588899
0.588951
0.588974
0.588966
0.588929
0.588868
0.588791
0.588709
0.588633
0.588574
0.588513
0.588592
0.588623
0.588604
0.588536
0.588428
0.588294
0.588155
0.588032
0.587947
0.588291
0.588422
0.588476
0.588448
0.58834
0.588165
0.587946
0.587712
0.587498
0.587346
0.588847
0.589039
0.589115
0.589076
0.588924
0.588678
0.588366
0.588029
0.58772
0.587479
0.587751
0.587976
0.58807
0.588016
0.587819
0.587498
0.587087
0.586646
0.586229
0.585935
0.589314
0.589615
0.589724
0.589668
0.589439
0.589063
0.588576
0.588034
0.587522
0.587113
0.586573
0.586815
0.586941
0.586872
0.586619
0.586203
0.585659
0.585064
0.584485
0.584128
0.586949
0.587071
0.587075
0.587077
0.587076
0.587075
0.587074
0.587071
0.587062
0.586938
0.589404
0.589429
0.58944
0.589441
0.589436
0.589427
0.589413
0.589394
0.589366
0.58932
0.588031
0.588033
0.588032
0.588027
0.588016
0.588002
0.587987
0.587975
0.587967
0.587968
0.588804
0.588836
0.588849
0.588844
0.588822
0.588786
0.58874
0.588692
0.588648
0.588609
0.588334
0.588382
0.588402
0.588391
0.588349
0.588283
0.588201
0.588117
0.588043
0.587993
0.588144
0.588229
0.588264
0.588247
0.588179
0.588068
0.58793
0.587784
0.58765
0.587555
0.588661
0.588782
0.588829
0.588802
0.588704
0.588547
0.588351
0.588142
0.587957
0.58781
0.587338
0.587484
0.587548
0.587513
0.587384
0.587173
0.586905
0.586622
0.586354
0.586182
0.589254
0.589459
0.589532
0.589494
0.589342
0.589095
0.588779
0.588433
0.588115
0.587849
0.586066
0.586218
0.586306
0.586259
0.586091
0.585815
0.585457
0.585077
0.584706
0.584514
0.586282
0.586377
0.586379
0.58638
0.586381
0.586381
0.586382
0.586382
0.58638
0.586284
0.589626
0.589652
0.58966
0.589661
0.589658
0.589651
0.58964
0.589624
0.589599
0.589545
0.587755
0.587756
0.587758
0.587757
0.587751
0.587743
0.587733
0.587724
0.587718
0.587722
0.588771
0.588787
0.588792
0.588787
0.588773
0.588752
0.588728
0.588702
0.588681
0.58866
0.588261
0.588292
0.588306
0.5883
0.588275
0.588235
0.588185
0.588133
0.588087
0.588056
0.588124
0.588179
0.588202
0.588192
0.58815
0.588081
0.587995
0.587904
0.587819
0.587758
0.58858
0.58865
0.588676
0.588658
0.588595
0.588497
0.588377
0.588253
0.588148
0.588066
0.587136
0.587235
0.587281
0.58726
0.587177
0.587041
0.586868
0.586684
0.586504
0.586399
0.589458
0.589591
0.589637
0.589611
0.589512
0.589353
0.589155
0.588941
0.588752
0.588578
0.585308
0.585402
0.585464
0.585434
0.585324
0.585144
0.584912
0.584673
0.58443
0.584337
0.584987
0.585052
0.585056
0.585058
0.585059
0.58506
0.58506
0.585059
0.585058
0.58499
0.590182
0.5902
0.590197
0.590192
0.590187
0.590183
0.59018
0.590177
0.590166
0.590115
0.587676
0.58769
0.587702
0.587708
0.587707
0.5877
0.587689
0.587673
0.587655
0.587644
0.588771
0.588773
0.588771
0.588765
0.588755
0.588744
0.588732
0.588722
0.588717
0.588714
0.588278
0.5883
0.588311
0.588308
0.588294
0.588268
0.588237
0.588203
0.588172
0.588149
0.5882
0.588237
0.588253
0.588246
0.58822
0.588176
0.588122
0.588063
0.588008
0.587966
0.588581
0.588619
0.588633
0.588619
0.588578
0.588516
0.588442
0.588368
0.588311
0.588272
0.587301
0.587378
0.587414
0.587403
0.587349
0.587259
0.587143
0.587018
0.586885
0.586798
0.59005
0.590125
0.590151
0.59013
0.590063
0.58996
0.589835
0.589706
0.589606
0.589509
0.584025
0.584089
0.584133
0.584114
0.584041
0.583921
0.583769
0.583613
0.583442
0.583396
0.583164
0.583205
0.583217
0.583224
0.583227
0.583224
0.583217
0.583204
0.583188
0.583133
0.591108
0.591079
0.59105
0.59103
0.591022
0.591022
0.591034
0.591057
0.59109
0.5911
0.58786
0.587896
0.58792
0.587932
0.587934
0.587927
0.587912
0.587888
0.587852
0.587807
0.588761
0.588753
0.588746
0.588739
0.588731
0.588724
0.588718
0.588717
0.588723
0.588736
0.588334
0.588351
0.58836
0.588359
0.588348
0.58833
0.588307
0.588283
0.588259
0.588239
0.588296
0.588323
0.588335
0.58833
0.588311
0.58828
0.588241
0.588199
0.58816
0.588128
0.588602
0.588625
0.588633
0.588622
0.588593
0.588547
0.588494
0.588443
0.588407
0.588394
0.587821
0.587892
0.587923
0.587916
0.587877
0.58781
0.587725
0.587628
0.58752
0.587421
0.591008
0.591036
0.591047
0.591028
0.590978
0.590902
0.590813
0.590729
0.590682
0.59068
0.582339
0.582396
0.58243
0.582415
0.58236
0.582271
0.582159
0.582043
0.581915
0.581874
0.439203
0.41845
0.425356
0.466314
0.391428
0.368189
0.37923
0.436466
0.348239
0.321092
0.338429
0.417353
0.310169
0.280771
0.305106
0.406433
0.27869
0.248625
0.280193
0.404021
0.251586
0.22207
0.261906
0.401215
0.22987
0.202226
0.250852
0.398581
0.209484
0.185368
0.242832
0.396487
0.191542
0.17352
0.239249
0.39812
0.17208
0.16221
0.234937
0.393624
0.499283
0.489085
0.48941
0.499125
0.468794
0.456178
0.457323
0.470002
0.437917
0.421196
0.423406
0.440979
0.408896
0.387929
0.391524
0.414245
0.384235
0.35877
0.364028
0.392094
0.362189
0.33184
0.337892
0.371222
0.344307
0.308971
0.314857
0.353284
0.327865
0.28773
0.293169
0.336587
0.314322
0.270153
0.275139
0.32295
0.29896
0.252367
0.254967
0.305309
0.566686
0.564471
0.563941
0.565074
0.548928
0.545231
0.544537
0.546838
0.528941
0.523046
0.522238
0.526573
0.506703
0.498435
0.497635
0.50447
0.485705
0.474983
0.474356
0.48409
0.464629
0.451322
0.450914
0.463659
0.445691
0.429718
0.429486
0.445178
0.427056
0.408537
0.408449
0.426907
0.410795
0.390595
0.390553
0.410935
0.391879
0.372167
0.371403
0.391312
0.579152
0.578069
0.57772
0.57807
0.569523
0.568112
0.567622
0.567985
0.557663
0.555179
0.554462
0.555362
0.542891
0.5391
0.538195
0.53992
0.528455
0.523215
0.522197
0.525052
0.512891
0.506077
0.505002
0.509248
0.498289
0.489828
0.488736
0.494576
0.482976
0.472944
0.471892
0.479402
0.468753
0.457775
0.456772
0.465583
0.450911
0.440981
0.439719
0.448069
0.586021
0.58543
0.58523
0.585418
0.580194
0.579714
0.579484
0.579494
0.572715
0.571775
0.571352
0.571424
0.562612
0.560976
0.560324
0.560591
0.552654
0.55015
0.549277
0.549909
0.54136
0.537845
0.536778
0.537957
0.530629
0.526016
0.524797
0.526709
0.518846
0.513157
0.511858
0.514648
0.507676
0.501334
0.500032
0.503606
0.492924
0.487724
0.486294
0.489316
0.5886
0.588124
0.587978
0.588163
0.585156
0.584944
0.584835
0.584827
0.580071
0.57965
0.579434
0.579416
0.572848
0.572086
0.571709
0.571701
0.565794
0.564562
0.563994
0.564049
0.557477
0.55565
0.554876
0.555074
0.549649
0.547133
0.546167
0.546615
0.540752
0.537529
0.536422
0.537241
0.532329
0.528658
0.527513
0.52874
0.520417
0.517866
0.516644
0.517203
0.589725
0.589294
0.589171
0.589358
0.587845
0.587752
0.587701
0.587692
0.584308
0.584113
0.584006
0.583986
0.578939
0.578569
0.578367
0.57833
0.573736
0.573115
0.572786
0.572738
0.567385
0.566428
0.565943
0.565903
0.561544
0.560177
0.559524
0.559535
0.554746
0.552939
0.552144
0.552277
0.548587
0.546469
0.545615
0.545937
0.538912
0.53791
0.537011
0.536569
0.590057
0.58964
0.589526
0.589715
0.589187
0.58914
0.589114
0.589108
0.586726
0.586629
0.586574
0.586563
0.58271
0.582519
0.58241
0.582383
0.578812
0.578483
0.578297
0.578252
0.573851
0.573331
0.573042
0.572978
0.569414
0.568654
0.568246
0.568173
0.564136
0.563113
0.562594
0.562546
0.559728
0.558501
0.557917
0.557937
0.551685
0.551592
0.550995
0.550214
0.590012
0.589601
0.589491
0.589681
0.589803
0.589778
0.589763
0.589759
0.588085
0.588034
0.588004
0.587998
0.585088
0.584984
0.584923
0.584906
0.582167
0.581986
0.581881
0.58185
0.578275
0.577984
0.577814
0.577764
0.57491
0.574478
0.57423
0.574162
0.570765
0.570177
0.569853
0.569781
0.567621
0.566906
0.566527
0.56647
0.560802
0.56123
0.560865
0.56001
0.589786
0.589377
0.589267
0.589458
0.59
0.589985
0.589975
0.589972
0.588785
0.588756
0.58874
0.588736
0.586569
0.586509
0.586474
0.586463
0.584385
0.584282
0.584221
0.584201
0.58134
0.581172
0.581071
0.581037
0.578836
0.578583
0.578433
0.578384
0.575554
0.575211
0.575012
0.574953
0.573349
0.572926
0.572688
0.572629
0.567472
0.568185
0.567977
0.567142
0.589487
0.589077
0.588968
0.58916
0.58997
0.58996
0.589953
0.589951
0.589077
0.589061
0.589052
0.58905
0.58747
0.587434
0.587412
0.587405
0.585839
0.585778
0.585742
0.58573
0.583467
0.583367
0.583306
0.583284
0.581662
0.58151
0.581418
0.581385
0.579036
0.578831
0.578709
0.578668
0.577568
0.577314
0.577166
0.577122
0.572423
0.573276
0.573168
0.572381
0.589171
0.588759
0.58865
0.588843
0.589828
0.58982
0.589815
0.589812
0.589119
0.58911
0.589105
0.589104
0.587995
0.587973
0.587959
0.587954
0.586768
0.586732
0.58671
0.586702
0.584931
0.58487
0.584832
0.584818
0.583696
0.583602
0.583545
0.583523
0.581553
0.58143
0.581354
0.581327
0.580693
0.580537
0.580445
0.580416
0.576115
0.577022
0.576972
0.57624
0.588867
0.588451
0.588342
0.588538
0.589645
0.589639
0.589634
0.589631
0.589009
0.589005
0.589003
0.589002
0.588285
0.58827
0.588261
0.588257
0.587338
0.587316
0.587303
0.587299
0.585922
0.585884
0.58586
0.585851
0.585151
0.585092
0.585055
0.585042
0.583343
0.583267
0.58322
0.583203
0.583006
0.582907
0.582851
0.582834
0.578861
0.579766
0.579749
0.579075
0.588583
0.588165
0.588057
0.588255
0.589468
0.589461
0.589457
0.589454
0.588809
0.588808
0.588808
0.588808
0.588433
0.588423
0.588417
0.588414
0.587666
0.587654
0.587647
0.587644
0.58658
0.586556
0.586542
0.586535
0.586181
0.586143
0.58612
0.586112
0.584576
0.58453
0.584501
0.584489
0.584714
0.58465
0.584615
0.584607
0.580885
0.58175
0.581751
0.581137
0.588317
0.587896
0.58779
0.587992
0.589328
0.589322
0.589316
0.589313
0.588556
0.588557
0.588558
0.588558
0.588507
0.5885
0.588495
0.588492
0.58784
0.587833
0.587829
0.587828
0.587012
0.586997
0.586987
0.586983
0.586903
0.586879
0.586865
0.58686
0.585382
0.585354
0.585336
0.585328
0.585977
0.585935
0.585913
0.585912
0.582348
0.583145
0.583154
0.582606
0.588036
0.587614
0.587512
0.587718
0.589255
0.589247
0.589241
0.589237
0.588271
0.588273
0.588275
0.588276
0.58855
0.588545
0.588541
0.58854
0.587926
0.587922
0.58792
0.58792
0.587302
0.587292
0.587286
0.587283
0.587407
0.587393
0.587385
0.587383
0.585866
0.585849
0.585838
0.585832
0.586931
0.586901
0.586888
0.586892
0.583351
0.584056
0.584067
0.583592
0.587642
0.587224
0.587131
0.587342
0.589286
0.589275
0.589268
0.589263
0.587977
0.58798
0.587982
0.587983
0.588594
0.588591
0.588588
0.588588
0.58798
0.587978
0.587977
0.587976
0.587524
0.587516
0.587512
0.58751
0.58777
0.587763
0.58776
0.587759
0.586139
0.586127
0.586119
0.586115
0.587703
0.58768
0.587673
0.587681
0.583907
0.584498
0.584507
0.584113
0.586911
0.586509
0.586431
0.586642
0.589499
0.589486
0.589477
0.589473
0.587728
0.58773
0.587731
0.587731
0.588654
0.588653
0.588652
0.588653
0.588045
0.588043
0.588042
0.588041
0.587731
0.587725
0.587721
0.58772
0.588052
0.588051
0.588051
0.588051
0.586353
0.586341
0.586333
0.586331
0.588457
0.588438
0.588434
0.588447
0.583892
0.584348
0.584352
0.584048
0.585497
0.585144
0.585088
0.585284
0.590058
0.590043
0.590036
0.590036
0.587629
0.587626
0.587623
0.58762
0.588722
0.588723
0.588725
0.588728
0.588135
0.588133
0.588132
0.588131
0.58794
0.587934
0.587931
0.587931
0.588282
0.588287
0.588289
0.588289
0.58671
0.586688
0.586679
0.586681
0.589431
0.589418
0.589418
0.589434
0.583079
0.583368
0.583365
0.583171
0.583427
0.583207
0.583181
0.583305
0.591074
0.591069
0.591073
0.591086
0.587745
0.587732
0.587723
0.587716
0.58876
0.588766
0.58877
0.588773
0.588222
0.588219
0.588217
0.588216
0.588104
0.588098
0.588096
0.588097
0.588425
0.588433
0.588435
0.588434
0.587257
0.587219
0.587208
0.587221
0.590751
0.590763
0.590769
0.590774
0.581597
0.58167
0.581666
0.581622
0.595275
0.603731
0.607733
0.610837
0.613961
0.616718
0.618956
0.620704
0.622071
0.623217
0.596206
0.599542
0.606965
0.612015
0.61648
0.619868
0.622332
0.624097
0.625342
0.626284
0.600067
0.596424
0.607409
0.613125
0.618408
0.622005
0.624574
0.626397
0.62765
0.628541
0.603482
0.592551
0.607165
0.612738
0.618599
0.622148
0.624704
0.626482
0.627699
0.628563
0.607975
0.590541
0.607914
0.613213
0.619518
0.622919
0.625445
0.62714
0.628267
0.629051
0.611063
0.587886
0.607656
0.612482
0.619239
0.622454
0.624995
0.62664
0.627773
0.628597
0.615065
0.586624
0.608481
0.612591
0.619752
0.622703
0.62526
0.626848
0.627954
0.628754
0.616634
0.583573
0.607487
0.610828
0.618498
0.621251
0.623969
0.625642
0.626947
0.627984
0.618299
0.58209
0.607937
0.609943
0.617756
0.620042
0.622989
0.62481
0.626318
0.627546
0.602754
0.566224
0.594717
0.597069
0.606755
0.610623
0.61527
0.618382
0.620943
0.622963
0.537856
0.559924
0.57627
0.587897
0.595861
0.601405
0.605412
0.608404
0.610712
0.612631
0.524146
0.554691
0.576777
0.590726
0.599579
0.60557
0.609813
0.612889
0.615132
0.616795
0.513882
0.551562
0.577884
0.592901
0.602355
0.608619
0.613008
0.61615
0.618387
0.619982
0.505496
0.548531
0.578058
0.593397
0.603256
0.609597
0.613995
0.617101
0.619292
0.620844
0.501039
0.547714
0.579324
0.594714
0.604862
0.611154
0.615495
0.618503
0.620591
0.622054
0.497843
0.546643
0.579738
0.594893
0.605282
0.611452
0.615736
0.618658
0.620707
0.622172
0.497446
0.547075
0.581243
0.595874
0.606426
0.612375
0.616582
0.619405
0.621394
0.622819
0.496651
0.546128
0.581198
0.59513
0.605874
0.611608
0.615842
0.618683
0.620795
0.622393
0.497142
0.546449
0.582377
0.595052
0.605593
0.610854
0.615184
0.618144
0.620424
0.622207
0.488059
0.536414
0.573093
0.585281
0.596843
0.603123
0.608645
0.612535
0.615576
0.617843
0.568975
0.575249
0.581326
0.586702
0.591286
0.595119
0.598293
0.600914
0.603107
0.604998
0.55574
0.567133
0.577319
0.585646
0.592313
0.597562
0.601657
0.60484
0.607301
0.609176
0.542655
0.55983
0.574199
0.585089
0.593399
0.59965
0.604358
0.607907
0.610562
0.612507
0.529499
0.552406
0.57076
0.583757
0.59334
0.600252
0.605312
0.609044
0.611794
0.613784
0.519576
0.547552
0.569337
0.583916
0.594417
0.601715
0.606944
0.610723
0.61347
0.615433
0.510732
0.543022
0.567747
0.583451
0.594627
0.602128
0.607437
0.611219
0.61397
0.615954
0.504705
0.540499
0.567677
0.584066
0.595697
0.603232
0.608545
0.612283
0.615005
0.616969
0.499014
0.537465
0.566708
0.58341
0.595359
0.602844
0.608186
0.611951
0.614766
0.616863
0.495307
0.536126
0.567105
0.583474
0.595309
0.60251
0.60791
0.611775
0.61472
0.616967
0.485216
0.527233
0.55942
0.575732
0.588266
0.596192
0.602408
0.606936
0.610414
0.612939
0.578789
0.581197
0.584102
0.58705
0.589828
0.592341
0.594562
0.596504
0.598218
0.599778
0.570017
0.574782
0.580197
0.58534
0.589876
0.593736
0.596957
0.599612
0.601768
0.603471
0.559497
0.567575
0.575986
0.583409
0.589631
0.5947
0.598774
0.602014
0.604549
0.606479
0.547182
0.559285
0.571029
0.580713
0.588468
0.594533
0.599255
0.602913
0.605723
0.607825
0.53649
0.552885
0.567913
0.579603
0.588638
0.59545
0.600612
0.604521
0.607477
0.609655
0.525874
0.546578
0.564728
0.578123
0.588204
0.59556
0.601025
0.605096
0.608157
0.610416
0.517342
0.542171
0.563171
0.577914
0.588797
0.596498
0.602143
0.60629
0.609397
0.61168
0.508967
0.537554
0.561095
0.576824
0.588302
0.596203
0.601985
0.606223
0.609437
0.611841
0.502453
0.53467
0.560411
0.576544
0.588223
0.596105
0.601999
0.606346
0.609666
0.612189
0.491553
0.526368
0.553559
0.57008
0.582398
0.590845
0.597314
0.602132
0.605823
0.608471
0.585284
0.586045
0.587209
0.588574
0.590009
0.591426
0.592772
0.594026
0.595205
0.596358
0.579952
0.581807
0.584325
0.587049
0.58972
0.592201
0.594429
0.596375
0.59803
0.599387
0.572415
0.575817
0.580127
0.584515
0.588606
0.592232
0.595347
0.59796
0.6001
0.601795
0.562599
0.568211
0.574779
0.581037
0.586589
0.591305
0.595215
0.598403
0.600958
0.602941
0.553479
0.561768
0.570828
0.578962
0.585877
0.591529
0.596075
0.599689
0.602533
0.604702
0.543683
0.554976
0.566634
0.576552
0.584692
0.591123
0.596173
0.600111
0.603181
0.605513
0.535234
0.549713
0.563944
0.575456
0.584633
0.591664
0.597081
0.601238
0.604454
0.606874
0.52654
0.544231
0.560908
0.573755
0.583766
0.591236
0.596933
0.601278
0.604645
0.6072