/*--------------------------------*- C++ -*----------------------------------*\
| =========                 |                                                 |
| \\      /  F ield         | foam-extend: Open Source CFD                    |
|  \\    /   O peration     | Version:     4.0                                |
|   \\  /    A nd           | Web:         http://www.foam-extend.org         |
|    \\/     M anipulation  |                                                 |
\*---------------------------------------------------------------------------*/
FoamFile
{
    version     2.0;
    format      ascii;
    class       volScalarField;
    location    "2250";
    object      mut;
}
// * * * * * * * * * * * * * * * * * * * * * * * * * * * * * * * * * * * * * //

dimensions      [1 -1 -1 0 0 0 0];

internalField   nonuniform List<scalar> 
34480
(
0.00188849
0.00188723
0.00188707
0.0018879
0.00189001
0.00189392
0.00190145
0.00191971
0.00195897
0.00203022
0.0159269
0.0151189
0.0148194
0.0145494
0.0129269
0.00824392
0.00340686
0.00134831
0.000984837
0.00145489
0.044269
0.042611
0.0409237
0.0374792
0.0286704
0.0146816
0.0051184
0.00182851
0.00124087
0.00181179
0.0484184
0.0462607
0.0443198
0.0402809
0.0297087
0.0141611
0.00479334
0.00177552
0.00128736
0.00197762
0.0477414
0.0453216
0.0435568
0.039716
0.0288501
0.0131896
0.00440863
0.00168454
0.00129889
0.00209659
0.0459923
0.043508
0.0418474
0.0380613
0.0268366
0.0116161
0.0038581
0.00155332
0.00130532
0.00222414
0.0438627
0.0415396
0.0400797
0.0364663
0.0252713
0.0105528
0.00349424
0.00146115
0.00131282
0.00233371
0.0364096
0.0347174
0.0336879
0.0309407
0.0214261
0.00863917
0.00281218
0.00123975
0.00123604
0.00234066
0.012429
0.0121092
0.0120061
0.0117294
0.00993112
0.00512553
0.00167726
0.000736721
0.000834287
0.00178635
0.00180094
0.00180085
0.00180252
0.00180579
0.00181058
0.00181669
0.00182472
0.00183597
0.00185253
0.00181383
0.00188852
0.00188666
0.00188606
0.00188657
0.00188843
0.00189188
0.00189738
0.00190684
0.00192454
0.00196536
0.0149589
0.0143239
0.0141319
0.0143152
0.014726
0.0147746
0.0129474
0.00764436
0.0024948
0.00204504
0.0407438
0.0395156
0.0388491
0.0383113
0.0366978
0.0319866
0.0230051
0.0112947
0.00328118
0.00280219
0.0448204
0.0431511
0.0423473
0.0417742
0.0399314
0.0344329
0.0242068
0.0114387
0.00330051
0.00316941
0.0446548
0.0426975
0.0419516
0.041593
0.0401096
0.0348388
0.0244542
0.0112838
0.00323792
0.00345055
0.0434403
0.0413727
0.0406449
0.0404204
0.0392059
0.034211
0.0239585
0.0108492
0.0031655
0.0037815
0.0418358
0.039851
0.0392136
0.0390733
0.0380968
0.0334665
0.0235386
0.0105535
0.00312905
0.00409786
0.0351441
0.0336714
0.0332024
0.0331847
0.0326759
0.0293607
0.021095
0.00938456
0.0028544
0.00417043
0.0123672
0.0120601
0.0119989
0.0120568
0.0121869
0.0120296
0.0106114
0.00545475
0.00170677
0.00280084
0.00179637
0.00179391
0.00179341
0.0017946
0.0017974
0.00180151
0.00180768
0.00181751
0.00184179
0.0018891
0.00188401
0.00188241
0.00188187
0.00188234
0.00188393
0.0018867
0.00189068
0.00189668
0.00190561
0.00191914
0.0140623
0.013646
0.0135118
0.0136623
0.014101
0.0147411
0.0151433
0.0142156
0.0101115
0.00583662
0.0372118
0.036244
0.0359055
0.0360514
0.0363681
0.0359483
0.0330148
0.0253634
0.0133438
0.00709922
0.0410821
0.0397778
0.0393474
0.039573
0.0400698
0.0397174
0.0361974
0.0266179
0.01254
0.00720397
0.041311
0.039795
0.0393789
0.0397184
0.0405225
0.0406529
0.0373616
0.0266929
0.0114197
0.00717606
0.0405695
0.0389613
0.0385253
0.0389289
0.0399576
0.0405765
0.0376977
0.0261771
0.0103053
0.00724763
0.0394634
0.0378962
0.0375032
0.0379112
0.0390428
0.0400215
0.0376512
0.0255312
0.0093814
0.0073313
0.033622
0.0324585
0.032149
0.0324662
0.0334074
0.0345686
0.0334145
0.0226409
0.00796954
0.00704253
0.0122603
0.0120049
0.0119607
0.0120212
0.012217
0.0124491
0.0126045
0.0106467
0.00448895
0.00445634
0.00178905
0.00178615
0.00178527
0.00178617
0.00178886
0.00179322
0.00180025
0.00181207
0.00183881
0.00189232
0.00187583
0.00187469
0.00187431
0.00187467
0.00187583
0.00187769
0.00188002
0.0018831
0.00188705
0.00189173
0.0134715
0.0132237
0.0131329
0.0132288
0.0135198
0.0139756
0.0144498
0.0148653
0.0145951
0.0128621
0.0340391
0.0333555
0.0331599
0.0333622
0.0339282
0.0346068
0.034633
0.0324115
0.025687
0.0173826
0.0376445
0.0367028
0.0364344
0.0367256
0.0375341
0.0385405
0.0385994
0.0352939
0.025793
0.0167225
0.0381911
0.0370983
0.0368298
0.0371863
0.0381994
0.03958
0.0399749
0.0361449
0.0246342
0.015881
0.0378697
0.0366932
0.0363914
0.0367873
0.037947
0.0396906
0.0405398
0.0363516
0.0231432
0.0153345
0.0372094
0.0360338
0.0357527
0.0361412
0.0373444
0.039284
0.0405174
0.036061
0.0215249
0.0148458
0.032206
0.0313242
0.0310941
0.0313813
0.0322891
0.03392
0.0354077
0.0319998
0.0185292
0.0137233
0.0121943
0.011984
0.0119515
0.0119978
0.0121467
0.0123368
0.0125438
0.0126726
0.00958869
0.00831921
0.00178014
0.0017771
0.00177609
0.0017769
0.00177961
0.00178428
0.00179187
0.00180458
0.00183073
0.00187808
0.00186474
0.00186405
0.00186382
0.00186406
0.00186481
0.00186592
0.00186711
0.00186854
0.00187012
0.00187159
0.013189
0.013052
0.012992
0.0130516
0.0132311
0.0134915
0.0137226
0.0140115
0.0142929
0.0144153
0.0315056
0.0311047
0.0309982
0.0311232
0.0315067
0.0321209
0.0328082
0.0330907
0.0316398
0.0274615
0.0347723
0.0341698
0.0340006
0.0341963
0.0347919
0.0357769
0.0368781
0.0371097
0.0340961
0.0274699
0.0355148
0.034791
0.0346146
0.0348554
0.0355991
0.0368652
0.0383262
0.038583
0.0342334
0.0263051
0.0355129
0.0347021
0.034487
0.0347631
0.0356236
0.0371641
0.0390482
0.0394574
0.0338285
0.0253957
0.0352034
0.0343594
0.0341515
0.034428
0.0353315
0.037003
0.0391543
0.0396396
0.0328221
0.0244437
0.0309614
0.0303139
0.0301385
0.0303464
0.0310165
0.0323218
0.0341942
0.0350291
0.0289292
0.0222936
0.012176
0.0120026
0.0119791
0.0120105
0.012112
0.0122296
0.0123004
0.0126958
0.012574
0.0122112
0.0017698
0.00176674
0.00176567
0.00176642
0.00176909
0.00177384
0.00178149
0.00179386
0.00181658
0.0018532
0.0018513
0.00185095
0.00185084
0.00185098
0.00185142
0.00185199
0.00185251
0.0018531
0.00185367
0.00185407
0.013147
0.0130808
0.0130433
0.0130822
0.013194
0.0133325
0.0134244
0.0135395
0.0136594
0.0137514
0.0297469
0.0295536
0.029506
0.0295659
0.0297593
0.0300879
0.0305434
0.0310947
0.0314185
0.0310579
0.0326051
0.0322642
0.0321654
0.0322726
0.0326184
0.0332413
0.0341517
0.0351926
0.03548
0.033946
0.0333874
0.0329496
0.032842
0.032981
0.0334356
0.034268
0.0355102
0.0369055
0.0369209
0.0340656
0.0335734
0.0330499
0.0329038
0.0330756
0.0336307
0.0346843
0.0363074
0.0381508
0.0378584
0.0338491
0.0334981
0.0329225
0.0327757
0.0329544
0.0335605
0.0347314
0.0365766
0.0386896
0.0379495
0.0331013
0.0299085
0.0294533
0.0293258
0.0294662
0.02992
0.0308155
0.0322743
0.034216
0.0337662
0.0299541
0.012209
0.0120668
0.0120517
0.0120717
0.0121352
0.0121877
0.0121401
0.012335
0.0127465
0.0136378
0.00175788
0.00175492
0.00175384
0.00175453
0.0017571
0.00176169
0.00176894
0.00178022
0.00179869
0.00182516
0.00183589
0.00183577
0.00183574
0.00183582
0.00183605
0.00183627
0.00183646
0.00183666
0.00183683
0.00183688
0.0132691
0.0132504
0.0132299
0.0132565
0.0133256
0.0133889
0.0134287
0.0134712
0.0135021
0.0134923
0.0286856
0.0286087
0.0285936
0.0286186
0.0287009
0.0288352
0.0290274
0.0292922
0.0295738
0.0297921
0.0311274
0.0309502
0.0308959
0.0309486
0.0311268
0.0314516
0.0319521
0.0326489
0.033349
0.0337451
0.0318254
0.0315795
0.0315187
0.0315914
0.0318419
0.0323052
0.0330408
0.0340991
0.0350946
0.03539
0.0320804
0.0317605
0.0316661
0.0317655
0.0320962
0.032728
0.0337631
0.0353031
0.0366618
0.036723
0.0321314
0.0317562
0.0316575
0.0317655
0.032146
0.0328817
0.0341053
0.0359715
0.0374809
0.0371052
0.0290744
0.0287675
0.0286792
0.0287689
0.0290575
0.0296179
0.0305418
0.0321141
0.0335572
0.0335471
0.0123017
0.0121844
0.0121768
0.012188
0.0122223
0.0122207
0.0120995
0.0121028
0.0122896
0.0129846
0.00174423
0.00174147
0.00174044
0.00174107
0.00174344
0.00174769
0.00175423
0.00176397
0.00177837
0.00179694
0.00181875
0.00181877
0.00181878
0.00181883
0.00181892
0.00181897
0.00181901
0.00181904
0.00181905
0.00181898
0.0134976
0.0135134
0.0135066
0.013525
0.0135652
0.0135904
0.0136097
0.0136262
0.013627
0.0135851
0.0281279
0.028106
0.0281062
0.0281163
0.0281471
0.0281922
0.0282571
0.0283455
0.0284429
0.0285276
0.0302023
0.0301134
0.0300844
0.0301093
0.0301972
0.0303547
0.0305925
0.0309227
0.0312973
0.0316306
0.0307571
0.0306259
0.0305938
0.0306296
0.0307599
0.0309969
0.0313679
0.0319151
0.0325573
0.0331294
0.0310011
0.0308138
0.0307553
0.0308103
0.0309981
0.0313511
0.0319232
0.0328123
0.0338828
0.0348216
0.0310981
0.0308624
0.030799
0.0308609
0.0310896
0.0315237
0.0322364
0.0333882
0.0347751
0.0359125
0.0284635
0.0282649
0.0282068
0.0282611
0.0284343
0.0287592
0.0292739
0.0302063
0.0314646
0.0327008
0.0124604
0.0123622
0.0123608
0.0123657
0.0123783
0.012335
0.012178
0.0120708
0.0120507
0.0123131
0.00172873
0.00172625
0.00172531
0.00172587
0.00172799
0.00173174
0.00173739
0.00174542
0.00175629
0.00176909
0.00179997
0.00180007
0.00180012
0.00180013
0.00180016
0.00180014
0.00180011
0.00180008
0.00180004
0.00179993
0.0137984
0.0138414
0.0138461
0.0138589
0.0138772
0.0138881
0.013899
0.0139055
0.0138956
0.013843
0.027888
0.02789
0.0278966
0.027901
0.0279103
0.0279225
0.0279408
0.0279644
0.0279876
0.0280025
0.0296644
0.0296192
0.0296033
0.0296153
0.0296593
0.0297364
0.0298482
0.0299942
0.0301541
0.0302895
0.0300718
0.0300034
0.0299873
0.0300044
0.0300708
0.0301888
0.0303667
0.0306161
0.0309091
0.0311766
0.0302668
0.0301603
0.0301251
0.0301547
0.0302588
0.03045
0.0307493
0.0311958
0.0317553
0.0323086
0.0303621
0.0302178
0.0301785
0.0302127
0.0303466
0.0305944
0.030987
0.031601
0.0323923
0.03319
0.028062
0.0279381
0.0279021
0.0279332
0.0280306
0.0282036
0.0284624
0.0289333
0.0296366
0.0304949
0.0126899
0.0126056
0.0126094
0.0126099
0.0126067
0.0125342
0.0123677
0.0122136
0.0120871
0.0121458
0.00171129
0.00170915
0.00170833
0.00170881
0.00171064
0.00171381
0.00171848
0.00172484
0.00173282
0.00174148
0.00177961
0.00177973
0.0017798
0.0017798
0.00177979
0.00177976
0.00177971
0.00177967
0.00177961
0.00177949
0.0141698
0.0142229
0.0142379
0.0142465
0.0142529
0.01426
0.0142668
0.0142687
0.0142539
0.0141959
0.027836
0.0278454
0.0278543
0.0278567
0.0278584
0.0278608
0.0278646
0.0278686
0.02787
0.0278658
0.0293732
0.0293488
0.0293396
0.0293458
0.0293691
0.0294092
0.029465
0.0295332
0.029603
0.0296558
0.0296579
0.0296218
0.0296137
0.0296219
0.0296564
0.0297163
0.0298029
0.0299162
0.0300421
0.0301469
0.0297962
0.0297363
0.0297155
0.0297315
0.0297889
0.0298919
0.0300473
0.0302647
0.0305285
0.0307762
0.0298693
0.0297818
0.0297579
0.0297766
0.0298544
0.0299944
0.030208
0.0305222
0.0309161
0.0312923
0.0278425
0.0277677
0.0277469
0.0277636
0.0278139
0.0278947
0.0280106
0.0282226
0.0285512
0.0289686
0.0129945
0.0129199
0.0129282
0.0129257
0.0129108
0.0128215
0.0126623
0.0125001
0.0123345
0.012333
0.00169185
0.00169008
0.00168938
0.00168979
0.0016913
0.00169388
0.00169759
0.00170245
0.00170814
0.0017139
0.00175764
0.00175776
0.00175782
0.00175782
0.00175781
0.00175778
0.00175774
0.00175769
0.00175765
0.00175753
0.0146082
0.0146653
0.0146834
0.0146903
0.0146952
0.0147003
0.0147046
0.0147037
0.014686
0.0146238
0.0278886
0.0278995
0.0279077
0.0279099
0.0279103
0.0279103
0.0279102
0.0279092
0.0279053
0.0278965
0.0292279
0.0292136
0.029208
0.0292114
0.0292247
0.0292471
0.0292774
0.0293124
0.0293463
0.0293693
0.0294222
0.029402
0.0293975
0.0294019
0.0294208
0.029453
0.0294978
0.0295527
0.0296095
0.0296532
0.0295121
0.0294783
0.0294659
0.0294747
0.0295069
0.0295631
0.029645
0.0297526
0.0298771
0.0299886
0.0295605
0.0295069
0.0294923
0.0295028
0.0295486
0.0296286
0.0297464
0.029909
0.0301019
0.0302716
0.0277707
0.0277267
0.0277158
0.0277241
0.0277464
0.0277752
0.027818
0.0279007
0.0280356
0.0282296
0.013379
0.013311
0.0133233
0.0133186
0.0132945
0.0132009
0.0130588
0.0129097
0.0127421
0.012741
0.00167037
0.00166896
0.0016684
0.00166873
0.00166993
0.00167194
0.00167479
0.00167837
0.00168233
0.00168611
0.001734
0.00173412
0.00173417
0.00173417
0.00173416
0.00173413
0.0017341
0.00173407
0.00173403
0.00173391
0.0151183
0.015179
0.0151984
0.0152052
0.0152094
0.015213
0.0152156
0.0152128
0.0151929
0.0151268
0.027998
0.0280088
0.0280161
0.0280183
0.0280186
0.0280182
0.0280175
0.0280156
0.0280107
0.0280011
0.0291632
0.0291543
0.0291508
0.0291528
0.0291607
0.0291739
0.0291914
0.029211
0.0292292
0.0292406
0.0292957
0.0292835
0.0292806
0.0292831
0.0292943
0.0293132
0.0293386
0.029368
0.0293966
0.0294175
0.0293507
0.0293312
0.0293238
0.0293289
0.0293473
0.0293788
0.0294231
0.0294783
0.0295392
0.0295935
0.0293807
0.0293469
0.0293379
0.0293442
0.0293719
0.0294191
0.0294863
0.029574
0.0296717
0.0297536
0.0278105
0.0277853
0.0277806
0.0277842
0.0277908
0.0277943
0.0278027
0.0278261
0.0278714
0.0279693
0.01385
0.0137864
0.0138026
0.0137962
0.013764
0.0136784
0.0135586
0.0134325
0.0132809
0.0133027
0.00164684
0.00164576
0.00164533
0.00164558
0.00164649
0.00164801
0.00165012
0.00165267
0.00165536
0.00165779
0.00170862
0.00170872
0.00170877
0.00170877
0.00170876
0.00170874
0.00170872
0.00170869
0.00170866
0.00170855
0.0157116
0.015776
0.0157965
0.0158032
0.0158069
0.0158095
0.0158107
0.0158067
0.0157851
0.015715
0.028138
0.0281483
0.0281547
0.0281568
0.0281573
0.0281571
0.0281565
0.0281547
0.0281501
0.0281403
0.0291401
0.0291346
0.0291324
0.0291336
0.0291383
0.0291462
0.0291564
0.0291678
0.0291784
0.0291845
0.0292323
0.0292242
0.0292219
0.0292236
0.0292308
0.0292428
0.0292585
0.0292761
0.0292923
0.0293041
0.0292647
0.0292531
0.0292485
0.0292515
0.0292624
0.0292806
0.0293054
0.0293348
0.0293661
0.029395
0.0292847
0.0292626
0.0292568
0.029261
0.0292785
0.0293077
0.0293479
0.0293979
0.0294506
0.029495
0.0279302
0.0279154
0.0279146
0.0279155
0.0279137
0.0279083
0.0279029
0.0279023
0.0279098
0.0279678
0.0144184
0.0143574
0.0143779
0.0143699
0.0143326
0.014265
0.0141692
0.0140689
0.0139401
0.0139909
0.00162123
0.00162044
0.00162013
0.00162031
0.00162097
0.00162208
0.00162358
0.00162534
0.00162712
0.00162867
0.0016814
0.0016815
0.00168154
0.00168154
0.00168154
0.00168152
0.00168151
0.00168149
0.00168146
0.00168135
0.0164059
0.0164744
0.0164959
0.0165025
0.0165057
0.0165075
0.0165079
0.016503
0.0164801
0.0164058
0.0282944
0.0283041
0.0283096
0.0283116
0.0283122
0.0283122
0.0283119
0.0283106
0.0283065
0.028297
0.0291369
0.0291336
0.0291323
0.029133
0.0291357
0.0291402
0.029146
0.0291526
0.0291589
0.0291624
0.0292028
0.0291971
0.0291952
0.0291963
0.0292012
0.0292093
0.0292198
0.0292311
0.0292414
0.0292488
0.0292216
0.0292145
0.0292116
0.0292134
0.0292199
0.0292307
0.029245
0.0292614
0.0292783
0.0292949
0.029239
0.0292239
0.0292201
0.0292231
0.0292346
0.0292536
0.0292789
0.0293092
0.0293398
0.0293675
0.0281045
0.028093
0.0280943
0.0280938
0.0280897
0.0280829
0.028074
0.0280659
0.0280597
0.0281011
0.0151138
0.0150441
0.0150667
0.0150569
0.0150279
0.0149776
0.0149052
0.0148298
0.0147247
0.014803
0.00159355
0.00159299
0.00159277
0.0015929
0.00159337
0.00159415
0.00159518
0.00159635
0.0015975
0.00159847
0.00165229
0.00165238
0.00165241
0.00165241
0.00165241
0.0016524
0.00165238
0.00165237
0.00165235
0.00165225
0.0172272
0.0173002
0.0173223
0.0173287
0.0173318
0.0173331
0.0173329
0.0173274
0.0173036
0.0172246
0.0284591
0.0284681
0.0284728
0.0284745
0.0284752
0.0284754
0.0284754
0.0284745
0.0284712
0.0284621
0.0291422
0.0291403
0.0291397
0.02914
0.0291414
0.0291437
0.0291468
0.0291504
0.029154
0.0291562
0.0291902
0.0291861
0.0291845
0.0291852
0.0291886
0.0291942
0.0292014
0.0292091
0.0292159
0.029221
0.029201
0.0291965
0.0291946
0.0291957
0.0291997
0.0292063
0.0292147
0.0292241
0.0292337
0.0292438
0.0292204
0.0292097
0.0292071
0.0292094
0.0292173
0.02923
0.0292465
0.0292659
0.0292848
0.0293044
0.0283107
0.0282998
0.0283009
0.0283006
0.0282975
0.028292
0.0282842
0.0282756
0.0282662
0.0283
0.0159626
0.0158853
0.0159021
0.0158959
0.0158765
0.0158421
0.0157914
0.0157379
0.0156548
0.015756
0.00156381
0.00156342
0.00156327
0.00156336
0.00156368
0.0015642
0.00156489
0.00156564
0.00156636
0.00156695
0.00162123
0.00162131
0.00162133
0.00162133
0.00162133
0.00162133
0.00162132
0.0016213
0.00162128
0.00162119
0.0182124
0.0182906
0.0183128
0.0183189
0.0183221
0.0183229
0.0183223
0.0183168
0.0182925
0.0182084
0.0286262
0.0286344
0.0286381
0.0286396
0.0286402
0.0286406
0.0286409
0.0286404
0.028638
0.0286298
0.0291499
0.0291491
0.0291488
0.029149
0.0291496
0.0291505
0.0291518
0.0291536
0.0291557
0.0291572
0.0291849
0.0291819
0.0291806
0.029181
0.0291833
0.0291872
0.0291921
0.0291973
0.029202
0.0292056
0.0291909
0.0291879
0.0291866
0.0291872
0.0291897
0.0291937
0.0291988
0.0292044
0.0292099
0.0292163
0.0292135
0.0292059
0.0292041
0.0292059
0.0292114
0.02922
0.029231
0.0292436
0.0292558
0.0292706
0.0285298
0.0285194
0.0285201
0.0285201
0.0285183
0.028515
0.0285098
0.0285034
0.0284948
0.028524
0.017003
0.0169202
0.0169311
0.0169281
0.0169173
0.0168973
0.0168663
0.0168311
0.0167676
0.0168853
0.001532
0.00153175
0.00153165
0.00153171
0.00153192
0.00153226
0.00153269
0.00153316
0.00153359
0.00153395
0.00158828
0.00158835
0.00158837
0.00158838
0.00158838
0.00158837
0.00158836
0.00158835
0.00158833
0.00158824
0.0194157
0.0194996
0.019522
0.0195277
0.0195303
0.0195307
0.01953
0.0195247
0.0195007
0.019411
0.0287895
0.0287965
0.0287993
0.0288003
0.0288009
0.0288014
0.0288019
0.028802
0.0288005
0.0287938
0.0291572
0.0291569
0.0291569
0.029157
0.0291571
0.0291573
0.0291576
0.0291583
0.0291594
0.0291607
0.0291817
0.0291795
0.0291784
0.0291786
0.0291801
0.0291826
0.0291858
0.0291893
0.0291926
0.0291952
0.0291845
0.0291824
0.0291815
0.0291818
0.0291833
0.0291857
0.0291887
0.029192
0.0291953
0.0291993
0.0292088
0.0292035
0.0292022
0.0292035
0.0292072
0.029213
0.0292201
0.0292281
0.0292359
0.0292472
0.0287441
0.0287345
0.0287349
0.0287351
0.0287345
0.0287332
0.0287305
0.0287268
0.0287203
0.0287455
0.0182921
0.0182063
0.0182109
0.0182108
0.0182076
0.0182006
0.018188
0.0181679
0.0181228
0.0182486
0.00149824
0.00149808
0.00149801
0.00149805
0.00149818
0.00149839
0.00149866
0.00149893
0.0014992
0.0014994
0.00155368
0.00155374
0.00155375
0.00155375
0.00155375
0.00155375
0.00155374
0.00155373
0.0015537
0.00155363
0.0209196
0.0210091
0.0210315
0.0210366
0.0210377
0.0210378
0.021037
0.0210323
0.0210097
0.0209145
0.0289406
0.0289458
0.0289474
0.0289479
0.0289483
0.0289489
0.0289496
0.0289501
0.0289498
0.0289454
0.0291622
0.0291621
0.0291622
0.0291623
0.0291622
0.0291621
0.029162
0.0291621
0.0291626
0.0291638
0.0291779
0.0291763
0.0291755
0.0291755
0.0291764
0.0291779
0.0291799
0.0291821
0.0291843
0.0291863
0.0291785
0.0291771
0.0291765
0.0291766
0.0291774
0.0291788
0.0291805
0.0291824
0.0291842
0.0291867
0.0291998
0.0291964
0.0291955
0.0291964
0.0291987
0.0292022
0.0292065
0.0292113
0.029216
0.0292242
0.0289342
0.0289261
0.0289262
0.0289265
0.0289266
0.0289264
0.0289255
0.028924
0.0289197
0.0289404
0.0199132
0.0198278
0.0198253
0.0198273
0.0198314
0.0198368
0.0198423
0.0198355
0.0198102
0.0199326
0.0014627
0.0014626
0.00146256
0.00146258
0.00146266
0.00146279
0.00146295
0.00146311
0.00146328
0.00146339
0.00151761
0.00151765
0.00151765
0.00151765
0.00151765
0.00151765
0.00151764
0.00151764
0.00151763
0.00151758
0.0228572
0.0229491
0.0229688
0.0229729
0.0229737
0.0229736
0.0229727
0.0229687
0.0229489
0.0228508
0.0290671
0.0290697
0.02907
0.02907
0.0290702
0.0290708
0.0290716
0.0290727
0.0290734
0.0290722
0.0291642
0.0291641
0.0291642
0.0291643
0.0291642
0.0291641
0.0291639
0.0291638
0.0291639
0.0291649
0.0291733
0.0291722
0.0291716
0.0291716
0.029172
0.0291729
0.0291741
0.0291754
0.0291768
0.0291782
0.0291727
0.0291719
0.0291715
0.0291715
0.0291719
0.0291726
0.0291735
0.0291745
0.0291755
0.0291769
0.0291852
0.0291831
0.0291826
0.0291831
0.0291844
0.0291863
0.0291886
0.0291911
0.0291937
0.0291988
0.0290789
0.0290728
0.0290727
0.0290729
0.0290732
0.0290733
0.0290731
0.0290726
0.0290706
0.0290862
0.0220127
0.0219343
0.0219323
0.021934
0.0219371
0.0219413
0.0219456
0.0219485
0.0219494
0.0220526
0.00142552
0.00142546
0.00142543
0.00142544
0.00142549
0.00142557
0.00142567
0.00142577
0.00142589
0.00142595
0.00147921
0.00147921
0.00147919
0.00147919
0.00147918
0.00147919
0.0014792
0.00147921
0.00147924
0.00147926
0.0254656
0.0255461
0.0255598
0.0255627
0.0255633
0.025563
0.0255619
0.0255586
0.0255439
0.0254557
0.0291555
0.0291552
0.0291545
0.029154
0.029154
0.0291545
0.0291554
0.0291567
0.0291583
0.0291601
0.029164
0.029164
0.029164
0.0291641
0.0291641
0.0291641
0.0291641
0.029164
0.029164
0.0291644
0.0291696
0.0291689
0.0291686
0.0291686
0.0291689
0.0291694
0.02917
0.0291708
0.0291717
0.0291726
0.029169
0.0291685
0.0291683
0.0291683
0.0291686
0.029169
0.0291696
0.0291702
0.0291707
0.0291714
0.0291712
0.0291702
0.0291699
0.0291701
0.0291709
0.0291719
0.0291732
0.0291745
0.0291758
0.0291781
0.0291664
0.0291626
0.0291622
0.0291621
0.0291621
0.0291621
0.029162
0.0291621
0.0291622
0.0291721
0.0249072
0.0248484
0.0248473
0.0248485
0.0248505
0.0248533
0.0248561
0.0248579
0.0248582
0.0249351
0.00138593
0.00138588
0.00138586
0.00138587
0.00138591
0.00138597
0.00138605
0.00138612
0.0013862
0.00138625
0.0023442
0.00236508
0.00235486
0.00232093
0.00141083
0.00143385
0.00143121
0.00142636
0.0018874
0.00192949
0.00192035
0.00189566
0.00227436
0.00233253
0.002313
0.00226677
0.00262182
0.00269298
0.00266098
0.0025965
0.00296329
0.00304561
0.00300536
0.00293186
0.00324542
0.0033359
0.00329357
0.00322026
0.00341319
0.00351003
0.00346997
0.00340134
0.00304499
0.00313454
0.00309568
0.00303998
0.00237484
0.00239149
0.0023566
0.00227533
0.00202755
0.00203327
0.00203438
0.00203137
0.00235362
0.00243397
0.00233396
0.0021421
0.0033082
0.00342273
0.00329227
0.00305441
0.00407176
0.00424022
0.00408158
0.00378364
0.00485358
0.00508957
0.00489504
0.00451937
0.00582847
0.00615457
0.00591309
0.00542854
0.00679484
0.00720868
0.00690713
0.00630933
0.00749287
0.00799112
0.00763301
0.00693823
0.00591728
0.00635415
0.00600129
0.00540469
0.00218167
0.00221402
0.00220715
0.00217137
0.0019332
0.00193526
0.00193541
0.00193416
0.00406629
0.00404185
0.00405224
0.00414327
0.0049914
0.00497279
0.00499293
0.00509721
0.00549614
0.00551584
0.0055357
0.0055855
0.00601102
0.00606514
0.00606847
0.00602691
0.00675401
0.00685082
0.00681125
0.00663347
0.00751212
0.00763568
0.00752217
0.00718441
0.00805056
0.00821123
0.00802403
0.00752533
0.00612448
0.0062644
0.00608847
0.00560751
0.00204802
0.00206512
0.00206321
0.00204545
0.00189446
0.00189469
0.00189481
0.00189485
0.0102405
0.00996196
0.0100979
0.0106126
0.0119477
0.0116136
0.0119165
0.0128099
0.0114407
0.0112596
0.0116318
0.0125267
0.0110902
0.0110291
0.0114261
0.0122564
0.0112081
0.0112508
0.0116412
0.0123681
0.0114043
0.0115062
0.011845
0.0124235
0.0113545
0.0115319
0.0118022
0.0121731
0.00801804
0.0082028
0.00832601
0.00836714
0.00195678
0.00196723
0.00196821
0.00196021
0.00187253
0.00187257
0.0018726
0.00187262
0.0144911
0.0144312
0.0144593
0.0145687
0.0238417
0.0235182
0.023706
0.0243331
0.0222459
0.0219539
0.0223065
0.0232334
0.0203813
0.0202018
0.0206817
0.0217892
0.0193311
0.0193009
0.0198719
0.0210702
0.0185182
0.0185933
0.0191863
0.0203777
0.0173309
0.0175432
0.0180984
0.0191105
0.0108799
0.0111153
0.0113568
0.0116701
0.00189355
0.00190003
0.00190149
0.00189809
0.00185449
0.00185446
0.00185445
0.00185445
0.0140869
0.0140132
0.0140037
0.0140587
0.0304039
0.0302972
0.0303232
0.0304704
0.0317978
0.0315591
0.0316497
0.0320267
0.0304325
0.0301454
0.0303659
0.0310245
0.0290254
0.0288077
0.0291969
0.0301264
0.0274494
0.0273219
0.0278366
0.0289647
0.0247749
0.0248403
0.0253976
0.0264743
0.0131735
0.0134058
0.0135815
0.013742
0.00184562
0.00184954
0.00185082
0.00184946
0.00183718
0.00183714
0.00183712
0.00183711
0.0137853
0.0136946
0.0136769
0.0137313
0.0299159
0.029919
0.0299334
0.0299592
0.0336754
0.0336789
0.0337116
0.0337706
0.034825
0.0347789
0.0348401
0.0349964
0.0353464
0.0352618
0.0353982
0.0357255
0.0347083
0.0345951
0.0348274
0.0353615
0.0310989
0.0311309
0.0314428
0.0320076
0.0133158
0.0135932
0.0136544
0.0135466
0.00180728
0.00180967
0.00181061
0.0018101
0.00181925
0.0018192
0.00181917
0.00181916
0.0138649
0.0137678
0.0137476
0.0138032
0.0286249
0.0286182
0.0286212
0.0286341
0.0317589
0.0317852
0.0318027
0.0318116
0.0333167
0.0333622
0.0333951
0.0334168
0.0350525
0.0351258
0.0351872
0.0352385
0.0359191
0.0359838
0.0360698
0.0361778
0.0326213
0.0327798
0.0329062
0.0330044
0.0123923
0.0126489
0.0126892
0.0125503
0.00177445
0.00177596
0.0017766
0.00177636
0.00180019
0.00180014
0.0018001
0.0018001
0.0141242
0.0140238
0.0140027
0.0140595
0.0280675
0.0280548
0.0280534
0.0280637
0.0303408
0.0303489
0.030354
0.0303564
0.0312799
0.0313014
0.0313143
0.031319
0.0325575
0.0326145
0.0326459
0.0326532
0.0334933
0.0335721
0.0336156
0.0336287
0.0307734
0.0309413
0.0310097
0.0309861
0.0119572
0.0121819
0.0122235
0.0121016
0.00174437
0.00174539
0.0017458
0.00174562
0.00177976
0.0017797
0.00177967
0.00177966
0.0144824
0.0143791
0.0143573
0.0144154
0.0279205
0.027907
0.0279048
0.0279141
0.0296734
0.0296746
0.0296756
0.0296765
0.0301784
0.0301837
0.0301871
0.0301885
0.0308808
0.0309038
0.0309161
0.030918
0.0314138
0.031447
0.031465
0.0314692
0.0290409
0.0291512
0.0291911
0.0291619
0.0120322
0.0122516
0.0122932
0.0121706
0.00171551
0.00171625
0.00171651
0.00171632
0.0017578
0.00175773
0.0017577
0.0017577
0.0149176
0.0148111
0.0147884
0.0148481
0.0279467
0.0279337
0.0279314
0.0279401
0.029377
0.0293766
0.0293767
0.0293773
0.0296625
0.0296634
0.0296641
0.0296645
0.0300316
0.0300407
0.0300454
0.0300457
0.0302997
0.0303104
0.0303167
0.0303187
0.0281839
0.0282588
0.0282833
0.0282566
0.0123974
0.0126281
0.0126708
0.0125389
0.001687
0.00168758
0.00168774
0.00168755
0.0017342
0.00173412
0.00173408
0.00173409
0.0154295
0.0153193
0.0152957
0.0153572
0.0280475
0.0280352
0.028033
0.028041
0.029245
0.0292443
0.0292443
0.0292448
0.029421
0.029421
0.029421
0.0294212
0.0296149
0.0296192
0.0296214
0.0296212
0.029754
0.0297577
0.02976
0.0297607
0.0278874
0.0279464
0.0279638
0.0279391
0.0129389
0.0131886
0.013234
0.01309
0.00165828
0.00165876
0.00165886
0.00165866
0.00170884
0.00170876
0.00170872
0.00170873
0.0160283
0.0159137
0.015889
0.0159526
0.0281828
0.0281713
0.028169
0.0281764
0.0291874
0.0291867
0.0291867
0.0291872
0.0293059
0.0293058
0.0293058
0.0293058
0.0294078
0.0294105
0.0294117
0.0294114
0.0294901
0.0294921
0.0294931
0.0294933
0.0278808
0.0279317
0.027946
0.0279231
0.0136126
0.0138852
0.0139345
0.0137768
0.00162892
0.00162933
0.0016294
0.0016292
0.00168166
0.00168157
0.00168153
0.00168155
0.0167317
0.0166117
0.0165856
0.0166517
0.0283352
0.0283244
0.0283222
0.0283289
0.0291644
0.0291638
0.0291638
0.0291643
0.02925
0.0292499
0.0292499
0.0292499
0.0293036
0.0293054
0.0293061
0.0293059
0.0293636
0.0293653
0.029366
0.0293658
0.0280198
0.0280652
0.0280776
0.0280566
0.0144105
0.014709
0.0147626
0.01459
0.00159858
0.00159894
0.00159898
0.00159879
0.00165257
0.00165247
0.00165243
0.00165245
0.0175656
0.0174389
0.0174111
0.0174802
0.0284956
0.0284857
0.0284836
0.0284895
0.0291577
0.0291573
0.0291573
0.0291577
0.0292218
0.0292218
0.0292218
0.0292218
0.02925
0.0292513
0.0292518
0.0292515
0.029303
0.0293047
0.0293054
0.0293049
0.028229
0.0282697
0.0282806
0.0282614
0.0153472
0.0156745
0.0157328
0.0155434
0.00156698
0.0015673
0.00156733
0.00156714
0.00162153
0.00162142
0.00162138
0.00162141
0.0185672
0.0184322
0.018402
0.0184749
0.0286581
0.0286492
0.0286472
0.0286524
0.0291584
0.029158
0.0291581
0.0291584
0.0292063
0.0292063
0.0292063
0.0292063
0.0292209
0.0292218
0.0292221
0.0292218
0.0292717
0.0292734
0.029274
0.0292734
0.028466
0.0285024
0.0285118
0.0284943
0.0164563
0.0168156
0.0168787
0.0166706
0.00153394
0.00153422
0.00153424
0.00153406
0.0015886
0.00158848
0.00158844
0.00158848
0.0197911
0.019645
0.0196117
0.0196892
0.0288164
0.0288086
0.0288069
0.0288113
0.0291616
0.0291614
0.0291615
0.0291617
0.0291959
0.0291959
0.0291959
0.0291959
0.0292027
0.0292033
0.0292035
0.0292032
0.0292501
0.0292518
0.0292523
0.0292515
0.028703
0.028735
0.0287428
0.0287267
0.0177922
0.0181856
0.018253
0.0180247
0.00149937
0.00149961
0.00149962
0.00149947
0.00155401
0.00155388
0.00155385
0.00155389
0.0213176
0.0211559
0.0211182
0.0212023
0.0289638
0.0289577
0.0289563
0.0289597
0.0291645
0.0291644
0.0291645
0.0291646
0.0291871
0.0291872
0.0291872
0.0291872
0.029189
0.0291894
0.0291895
0.0291893
0.0292278
0.0292293
0.0292297
0.029229
0.0289152
0.0289426
0.0289486
0.0289339
0.0194343
0.0198576
0.0199276
0.0196813
0.00146336
0.00146356
0.00146357
0.00146345
0.00151799
0.00151787
0.00151784
0.00151789
0.0232721
0.0230878
0.0230444
0.0231382
0.0290873
0.0290835
0.0290825
0.0290847
0.0291652
0.0291652
0.0291653
0.0291652
0.029179
0.0291792
0.0291793
0.0291793
0.0291782
0.0291784
0.0291784
0.0291783
0.029202
0.0292031
0.0292033
0.0292028
0.0290776
0.0290992
0.0291033
0.0290907
0.0215229
0.0219755
0.0220425
0.0217747
0.00142604
0.0014262
0.00142621
0.00142611
0.00147971
0.00147961
0.0014796
0.00147966
0.0258483
0.0256395
0.0255939
0.0257011
0.0291702
0.0291686
0.0291682
0.0291691
0.029164
0.0291639
0.0291639
0.0291638
0.0291732
0.0291733
0.0291734
0.0291734
0.0291718
0.0291719
0.0291719
0.0291719
0.0291795
0.0291799
0.0291801
0.0291799
0.0291741
0.0291865
0.0291883
0.0291806
0.0244723
0.0248974
0.024947
0.0246873
0.00138662
0.00138675
0.00138676
0.00138666
0.00215549
0.00203893
0.00197451
0.00194197
0.00192285
0.00191046
0.00190229
0.0018971
0.00189376
0.00189148
0.00174745
0.00158318
0.00476551
0.0094241
0.0139348
0.0171228
0.0186336
0.0187848
0.0181535
0.0172134
0.00236377
0.00257413
0.007325
0.0155534
0.0249587
0.0330805
0.0390658
0.0428689
0.0447453
0.0451319
0.00276854
0.00359674
0.00828864
0.0178411
0.0291688
0.0385214
0.0449963
0.0487267
0.0501641
0.0499553
0.0030771
0.00394182
0.00871609
0.0193458
0.0320854
0.0419669
0.0481514
0.0510047
0.0513204
0.0501087
0.00338881
0.00407078
0.00893763
0.0204179
0.0342685
0.0443136
0.0498919
0.0516826
0.0509079
0.0488685
0.00363088
0.00408388
0.00896752
0.0211697
0.0358997
0.0457603
0.05044
0.0510703
0.0493452
0.0468131