/*--------------------------------*- C++ -*----------------------------------*\
| =========                 |                                                 |
| \\      /  F ield         | foam-extend: Open Source CFD                    |
|  \\    /   O peration     | Version:     4.0                                |
|   \\  /    A nd           | Web:         http://www.foam-extend.org         |
|    \\/     M anipulation  |                                                 |
\*---------------------------------------------------------------------------*/
FoamFile
{
    version     2.0;
    format      ascii;
    class       surfaceScalarField;
    location    "2250";
    object      phi;
}
// * * * * * * * * * * * * * * * * * * * * * * * * * * * * * * * * * * * * * //

dimensions      [1 0 -1 0 0 0 0];

internalField   nonuniform List<scalar> 
97302
(
-0.000109786
9.51906e-07
-0.000869491
0.000878767
-0.0001196
1.14125e-06
-0.000870494
0.000879167
-0.000129523
1.20036e-06
-0.000871019
0.000879742
-0.000140125
1.1384e-06
-0.000871058
0.000880522
-0.000152232
9.46292e-07
-0.000870606
0.000881767
-0.000167325
6.13926e-07
-0.000869439
0.000883919
-0.000188496
1.14821e-07
-0.000866952
0.000888008
-0.000222747
-5.95324e-07
-0.000861326
0.000896173
-0.000271326
-1.63889e-06
-0.000851537
0.000901755
-4.3958e-06
-0.000824039
-0.000352997
0.000910105
-0.000150902
1.60363e-06
-0.00116596
0.00117605
-0.000161174
1.96591e-06
-0.00116691
0.00117636
-0.000171518
2.08445e-06
-0.0011675
0.00117696
-0.000182474
1.99247e-06
-0.00116752
0.00117762
-0.000194834
1.67502e-06
-0.00116673
0.00117836
-0.000210315
1.12081e-06
-0.00116472
0.00117969
-0.000232767
2.7227e-07
-0.00116112
0.00118342
-0.000271568
-9.65762e-07
-0.00115433
0.0011935
-0.00032835
-2.89626e-06
-0.00114203
0.00120007
-7.45912e-06
-0.00110414
-0.00043277
0.00121162
-0.000191208
1.89723e-06
-0.00146133
0.00147217
-0.000201778
2.39343e-06
-0.00146233
0.00147248
-0.000212298
2.57495e-06
-0.00146296
0.00147299
-0.000223274
2.49852e-06
-0.00146275
0.00147322
-0.000235634
2.14604e-06
-0.0014614
0.00147329
-0.000251511
1.50694e-06
-0.00145874
0.00147423
-0.000275388
5.0197e-07
-0.00145486
0.0014785
-0.000318359
-9.67278e-07
-0.00144828
0.00149125
-0.000381693
-3.35258e-06
-0.00143512
0.00149891
-9.13416e-06
-0.00138641
-0.000500692
0.00150708
-0.000231437
2.0868e-06
-0.00175271
0.00176397
-0.000242301
2.72271e-06
-0.00175394
0.00176447
-0.000253115
2.98299e-06
-0.00175481
0.00176522
-0.000264406
2.94743e-06
-0.00175481
0.00176565
-0.000277164
2.5873e-06
-0.00175363
0.00176595
-0.000293713
1.89383e-06
-0.0017512
0.00176736
-0.000318864
7.64708e-07
-0.00174764
0.00177253
-0.000364969
-8.9164e-07
-0.00174142
0.00178745
-0.000432991
-3.67886e-06
-0.0017278
0.00179615
-1.0628e-05
-0.00166795
-0.000560754
0.00179721
-0.000271569
2.3195e-06
-0.00204523
0.00205668
-0.000282602
3.02473e-06
-0.00204684
0.00205757
-0.000293585
3.32278e-06
-0.00204822
0.00205886
-0.000305071
3.3035e-06
-0.00204869
0.00205982
-0.000318118
2.93588e-06
-0.00204804
0.00206074
-0.000335168
2.21082e-06
-0.00204624
0.00206297
-0.000361326
1.01174e-06
-0.00204332
0.00206923
-0.000409967
-7.45233e-07
-0.00203778
0.00208627
-0.000481931
-3.81377e-06
-0.00202453
0.00209663
-1.18625e-05
-0.00195287
-0.000615167
0.00208734
-0.000312271
2.40514e-06
-0.00233636
0.00234811
-0.000323407
3.13595e-06
-0.00233842
0.00234945
-0.000334459
3.42185e-06
-0.00234019
0.00235115
-0.000346003
3.3749e-06
-0.00234108
0.00235255
-0.00035915
2.97303e-06
-0.00234095
0.00235406
-0.000376427
2.21598e-06
-0.0023399
0.00235717
-0.000403211
9.85869e-07
-0.00233791
0.00236472
-0.000453746
-7.83493e-07
-0.00233347
0.00238405
-0.000529014
-3.9115e-06
-0.00232173
0.00239709
-1.28322e-05
-0.00223797
-0.000665771
0.00237569
-0.000352795
2.38438e-06
-0.00262732
0.00263919
-0.000363875
3.02292e-06
-0.00262997
0.00264117
-0.000374849
3.23798e-06
-0.00263231
0.00264347
-0.000386303
3.10509e-06
-0.00263366
0.00264539
-0.000399398
2.62911e-06
-0.00263411
0.00264755
-0.000416695
1.80264e-06
-0.00263387
0.00265158
-0.000443817
5.61831e-07
-0.00263301
0.00266056
-0.000495692
-1.10887e-06
-0.00263018
0.00268238
-0.000573746
-3.86049e-06
-0.00262109
0.00269909
-1.29888e-05
-0.002525
-0.000712507
0.00266391
-0.000394591
2.0253e-06
-0.00291885
0.00293115
-0.000405722
2.4746e-06
-0.0029221
0.00293378
-0.000416696
2.50326e-06
-0.00292455
0.00293625
-0.0004281
2.1645e-06
-0.00292584
0.00293819
-0.00044106
1.49445e-06
-0.00292619
0.00294028
-0.000458082
4.91169e-07
-0.00292611
0.00294445
-0.00048493
-8.17099e-07
-0.00292595
0.00295418
-0.000536996
-2.35954e-06
-0.00292456
0.00297788
-0.000616517
-4.14905e-06
-0.00291882
0.00299863
-1.21408e-05
-0.00281223
-0.000755677
0.00295054
-0.000435787
1.06861e-06
-0.00320673
0.00321916
-0.000446492
1.13606e-06
-0.00321083
0.00322288
-0.000457071
8.45152e-07
-0.0032139
0.00322614
-0.000468172
1.11584e-07
-0.00321581
0.00322897
-0.000480962
-9.47856e-07
-0.00321695
0.00323218
-0.000497826
-2.30792e-06
-0.00321787
0.00323754
-0.000524528
-3.78297e-06
-0.00321913
0.00324879
-0.000576321
-5.09792e-06
-0.00322003
0.00327456
-0.000655774
-5.50549e-06
-0.00321667
0.00329748
-1.0195e-05
-0.00309931
-0.000792423
0.00323401
-0.000477199
-0.0034753
0.00348832
-0.000488544
-0.00347891
0.00349139
-0.000499732
-0.00347962
0.00349165
-0.000511444
-0.00347706
0.00348888
-0.000524719
-0.0034719
0.00348423
-0.000541687
-0.00346521
0.00347987
-0.000567578
-0.00345814
0.00348025
-0.000616582
-0.0034522
0.00349611
-0.000689673
-0.00344859
0.00351617
-0.00333961
-0.000818671
0.00345841
1.43961e-05
8.89249e-07
-0.000861035
5.31286e-06
1.11389e-06
-0.000862525
-3.79114e-06
1.19462e-06
-0.00086311
-1.30996e-05
1.13695e-06
-0.000862887
-2.28119e-05
9.30949e-07
-0.000861825
-3.3146e-05
5.58277e-07
-0.000859664
-4.42493e-05
-1.52127e-08
-0.000855834
-5.55405e-05
-8.68308e-07
-0.000849166
-6.62356e-05
-2.1969e-06
-0.000838645
-3.96792e-06
-0.000822393
-6.39134e-05
1.54093e-05
1.51438e-06
-0.00115611
5.39097e-06
1.93063e-06
-0.00115771
-4.61697e-06
2.08433e-06
-0.00115838
-1.49319e-05
2.0051e-06
-0.00115808
-2.58189e-05
1.67106e-06
-0.00115658
-3.76406e-05
1.05994e-06
-0.0011534
-5.12335e-05
1.09979e-07
-0.00114765
-6.76411e-05
-1.29498e-06
-0.0011375
-8.82618e-05
-3.54202e-06
-0.00112006
-6.60808e-06
-0.00109112
-9.8643e-05
1.67382e-05
1.82543e-06
-0.00145028
6.0074e-06
2.38946e-06
-0.00145206
-4.63075e-06
2.61296e-06
-0.00145285
-1.55082e-05
2.55069e-06
-0.00145242
-2.69627e-05
2.16954e-06
-0.00145045
-3.97279e-05
1.44587e-06
-0.00144636
-5.55496e-05
2.87736e-07
-0.00143921
-7.71565e-05
-1.42682e-06
-0.00142654
-0.000108636
-4.2826e-06
-0.0014029
-8.39489e-06
-0.00135937
-0.000133882
1.79546e-05
2.03377e-06
-0.00174096
6.74024e-06
2.75509e-06
-0.00174309
-4.38318e-06
3.06607e-06
-0.00174414
-1.58112e-05
3.04997e-06
-0.00174388
-2.79993e-05
2.65937e-06
-0.00174193
-4.19394e-05
1.87272e-06
-0.00173769
-5.9942e-05
5.57372e-07
-0.00172991
-8.61296e-05
-1.40027e-06
-0.00171526
-0.000128053
-4.79341e-06
-0.00168537
-9.90464e-06
-0.0016255
-0.000168998
1.90695e-05
2.28006e-06
-0.00203309
7.56874e-06
3.08005e-06
-0.00203566
-3.83512e-06
3.43489e-06
-0.00203718
-1.55986e-05
3.44106e-06
-0.00203732
-2.83152e-05
3.04711e-06
-0.00203571
-4.31626e-05
2.23091e-06
-0.00203175
-6.29169e-05
8.20757e-07
-0.00202383
-9.29963e-05
-1.28725e-06
-0.00200781
-0.000144891
-5.07504e-06
-0.00197235
-1.10628e-05
-0.00189521
-0.000201391
1.97736e-05
2.39838e-06
-0.0023238
8.09572e-06
3.23303e-06
-0.0023269
-3.43879e-06
3.58341e-06
-0.00232881
-1.5345e-05
3.57225e-06
-0.00232931
-2.83363e-05
3.15511e-06
-0.00232807
-4.3754e-05
2.3198e-06
-0.00232457
-6.48026e-05
8.74699e-07
-0.00231691
-9.80687e-05
-1.27405e-06
-0.00230022
-0.000159355
-5.20766e-06
-0.00226031
-1.18818e-05
-0.00216571
-0.000230798
2.01859e-05
2.36938e-06
-0.00261449
8.53086e-06
3.1102e-06
-0.0026182
-2.95335e-06
3.39504e-06
-0.00262064
-1.47984e-05
3.3107e-06
-0.00262156
-2.78479e-05
2.8522e-06
-0.00262076
-4.35534e-05
1.99017e-06
-0.00261784
-6.54977e-05
5.49173e-07
-0.00261074
-0.000101307
-1.56452e-06
-0.00259408
-0.000171274
-5.24515e-06
-0.00255108
-1.22475e-05
-0.0024391
-0.0002568
1.99275e-05
2.03438e-06
-0.00290559
8.27088e-06
2.58968e-06
-0.00290992
-3.10679e-06
2.71848e-06
-0.00291249
-1.47849e-05
2.481e-06
-0.00291334
-2.76622e-05
1.90811e-06
-0.00291237
-4.32641e-05
9.66817e-07
-0.00290949
-6.54733e-05
-4.35203e-07
-0.00290276
-0.00010275
-2.40695e-06
-0.00288644
-0.000180118
-5.22016e-06
-0.00284148
-1.18985e-05
-0.00271328
-0.000279417
1.93971e-05
1.07416e-06
-0.0031932
8.21039e-06
1.21904e-06
-0.00319828
-2.66264e-06
1.05903e-06
-0.00320137
-1.38326e-05
4.74459e-07
-0.00320264
-2.63526e-05
-4.03695e-07
-0.00320211
-4.18585e-05
-1.58479e-06
-0.00319982
-6.44376e-05
-3.01039e-06
-0.00319397
-0.000103039
-4.67498e-06
-0.00317916
-0.000186367
-6.14876e-06
-0.00313241
-1.0075e-05
-0.00298564
-0.000301859
1.82417e-05
-0.0034615
6.8035e-06
-0.00346625
-4.11871e-06
-0.00346764
-1.52133e-05
-0.00346549
-2.74205e-05
-0.0034601
-4.23446e-05
-0.00345187
-6.39058e-05
-0.00343959
-0.000101288
-0.0034195
-0.000186014
-0.00337001
-0.00321569
-0.000320005
1.20262e-05
7.77894e-07
-0.000854364
4.42347e-06
1.01794e-06
-0.00085594
-3.29442e-06
1.10596e-06
-0.000856498
-1.10375e-05
1.0415e-06
-0.000856185
-1.86825e-05
8.18007e-07
-0.000854998
-2.59844e-05
4.19681e-07
-0.000852781
-3.23914e-05
-1.75493e-07
-0.000849251
-3.65994e-05
-1.00543e-06
-0.000843953
-3.67277e-05
-2.15387e-06
-0.000836363
-3.43208e-06
-0.000826718
-2.89707e-05
1.38783e-05
1.3626e-06
-0.00114759
4.85277e-06
1.80275e-06
-0.00114947
-4.23382e-06
1.96581e-06
-0.00115015
-1.34723e-05
1.87514e-06
-0.00114967
-2.2869e-05
1.50925e-06
-0.00114787
-3.22727e-05
8.43584e-07
-0.00114442
-4.12829e-05
-1.75304e-07
-0.00113864
-4.87474e-05
-1.61991e-06
-0.00112942
-5.22016e-05
-3.70529e-06
-0.00111506
-6.12741e-06
-0.00109587
-4.47552e-05
1.59827e-05
1.70896e-06
-0.00144011
5.78049e-06
2.30406e-06
-0.00144236
-4.4162e-06
2.53761e-06
-0.00144322
-1.48027e-05
2.45737e-06
-0.00144261
-2.54745e-05
2.02536e-06
-0.00144029
-3.64945e-05
1.20634e-06
-0.0014357
-4.79768e-05
-9.45354e-08
-0.00142781
-5.94528e-05
-1.97506e-06
-0.00141471
-6.85121e-05
-4.84512e-06
-0.0013927
-8.36497e-06
-0.0013607
-6.49453e-05
1.76323e-05
1.9679e-06
-0.00172976
6.64105e-06
2.73139e-06
-0.00173252
-4.34167e-06
3.05452e-06
-0.00173368
-1.56266e-05
3.01584e-06
-0.00173316
-2.74597e-05
2.56126e-06
-0.00173064
-4.01705e-05
1.65311e-06
-0.00172542
-5.432e-05
1.43395e-07
-0.00171599
-7.00999e-05
-2.08852e-06
-0.00169936
-8.58009e-05
-5.70508e-06
-0.00166881
-1.03337e-05
-0.0016211
-8.82323e-05
1.90373e-05
2.25941e-06
-0.00202121
7.53725e-06
3.10836e-06
-0.00202454
-3.9337e-06
3.47936e-06
-0.00202614
-1.57943e-05
3.46416e-06
-0.00202591
-2.84697e-05
3.00384e-06
-0.00202348
-4.2542e-05
2.05649e-06
-0.00201808
-5.90242e-05
4.18964e-07
-0.00200762
-7.89056e-05
-2.05755e-06
-0.00198796
-0.000101936
-6.3008e-06
-0.00194872
-1.1969e-05
-0.0018834
-0.000112116
1.99752e-05
2.42673e-06
-0.00231132
8.1384e-06
3.31473e-06
-0.00231526
-3.61555e-06
3.68587e-06
-0.00231726
-1.57994e-05
3.66078e-06
-0.00231732
-2.89962e-05
3.183e-06
-0.00231505
-4.40378e-05
2.21918e-06
-0.00230969
-6.24239e-05
5.3605e-07
-0.00229864
-8.60484e-05
-2.0386e-06
-0.00227662
-0.00011687
-6.63731e-06
-0.00222915
-1.3179e-05
-0.00214514
-0.000136226
2.05271e-05
2.4211e-06
-0.00260158
8.60986e-06
3.21519e-06
-0.00260618
-3.18643e-06
3.52672e-06
-0.00260868
-1.54203e-05
3.4418e-06
-0.0026091
-2.88409e-05
2.94722e-06
-0.0026071
-4.44904e-05
1.99679e-06
-0.00260196
-6.43525e-05
3.54946e-07
-0.0025907
-9.12577e-05
-2.20101e-06
-0.00256701
-0.000129976
-6.76537e-06
-0.00251224
-1.39482e-05
-0.00240904
-0.000159272
2.03509e-05
2.09737e-06
-0.0028922
8.40331e-06
2.70214e-06
-0.00289746
-3.30938e-06
2.87436e-06
-0.00290013
-1.54087e-05
2.67726e-06
-0.00290047
-2.87386e-05
2.1267e-06
-0.00289822
-4.45304e-05
1.17599e-06
-0.00289287
-6.52366e-05
-3.26788e-07
-0.00288137
-9.45829e-05
-2.64704e-06
-0.00285665
-0.000140684
-6.40172e-06
-0.00279574
-1.37374e-05
-0.00267359
-0.000180577
1.97376e-05
1.15096e-06
-0.00317949
8.24286e-06
1.3283e-06
-0.00318541
-2.9696e-06
1.24815e-06
-0.00318853
-1.45261e-05
7.7289e-07
-0.00318917
-2.74282e-05
2.60878e-08
-0.00318711
-4.31502e-05
-1.01325e-06
-0.0031819
-6.465e-05
-2.3366e-06
-0.00317046
-9.64398e-05
-4.09032e-06
-0.00314593
-0.000148896
-6.37094e-06
-0.00307999
-1.15126e-05
-0.00293619
-0.000200577
1.85755e-05
-0.00344764
6.99871e-06
-0.00345335
-4.10556e-06
-0.00345528
-1.54472e-05
-0.00345338
-2.79182e-05
-0.0034476
-4.3003e-05
-0.0034378
-6.37002e-05
-0.00342123
-9.54108e-05
-0.00339188
-0.000150679
-0.00332111
-0.00316253
-0.000215347
9.33384e-06
6.08985e-07
-0.000849533
3.46365e-06
8.52522e-07
-0.000850922
-2.58768e-06
9.4464e-07
-0.000851391
-8.54682e-06
8.7857e-07
-0.000851105
-1.4107e-05
6.52911e-07
-0.000850091
-1.88455e-05
2.58779e-07
-0.000848302
-2.21201e-05
-3.10765e-07
-0.000845666
-2.28923e-05
-1.05791e-06
-0.000842123
-1.95795e-05
-1.97911e-06
-0.000837697
-2.86279e-06
-0.000832852
-1.05826e-05
1.17251e-05
1.1165e-06
-0.00114076
4.1072e-06
1.56689e-06
-0.00114256
-3.63936e-06
1.73514e-06
-0.0011432
-1.1377e-05
1.63702e-06
-0.00114269
-1.88894e-05
1.25535e-06
-0.00114096
-2.57877e-05
5.72098e-07
-0.00113783
-3.13125e-05
-4.44214e-07
-0.00113299
-3.3946e-05
-1.81574e-06
-0.00112602
-3.08496e-05
-3.60252e-06
-0.00111653
-5.41758e-06
-0.00110601
-1.81522e-05
1.44343e-05
1.4878e-06
-0.00143134
5.2576e-06
2.09933e-06
-0.00143372
-3.98571e-06
2.33575e-06
-0.00143458
-1.32962e-05
2.23496e-06
-0.0014339
-2.25675e-05
1.76068e-06
-0.00143153
-3.15047e-05
8.78205e-07
-0.00142707
-3.94302e-05
-4.89889e-07
-0.00141984
-4.47344e-05
-2.39637e-06
-0.00140883
-4.34912e-05
-5.03533e-06
-0.00139252
-7.8925e-06
-0.00137301
-2.87082e-05
1.65212e-05
1.7993e-06
-0.00171966
6.22593e-06
2.59186e-06
-0.00172272
-4.13261e-06
2.91877e-06
-0.0017239
-1.46918e-05
2.84959e-06
-0.00172321
-2.54965e-05
2.33068e-06
-0.0017204
-3.64582e-05
1.32009e-06
-0.0017149
-4.71092e-05
-3.18238e-07
-0.00170552
-5.58655e-05
-2.67668e-06
-0.00169033
-5.78753e-05
-6.1774e-06
-0.00166566
-1.01725e-05
-0.00163381
-4.28845e-05
1.82718e-05
2.14184e-06
-0.00201013
7.19091e-06
3.02916e-06
-0.0020139
-3.92228e-06
3.40779e-06
-0.00201551
-1.5344e-05
3.35925e-06
-0.00201499
-2.73112e-05
2.82304e-06
-0.002012
-3.99854e-05
1.7479e-06
-0.00200583
-5.32037e-05
-6.68954e-08
-0.00199465
-6.55995e-05
-2.76718e-06
-0.00197548
-7.19264e-05
-7.05393e-06
-0.00194152
-1.21914e-05
-0.00189467
-5.86283e-05
1.95043e-05
2.36936e-06
-0.00229939
7.87328e-06
3.30181e-06
-0.00230391
-3.7325e-06
3.6854e-06
-0.00230593
-1.57153e-05
3.63299e-06
-0.00230561
-2.84888e-05
3.08169e-06
-0.00230254
-4.24899e-05
1.98382e-06
-0.00229593
-5.79585e-05
9.50786e-08
-0.00228334
-7.3957e-05
-2.78257e-06
-0.0022606
-8.55255e-05
-7.60628e-06
-0.00221703
-1.37657e-05
-0.00215329
-7.58001e-05
2.02607e-05
2.40779e-06
-0.00258902
8.39424e-06
3.24787e-06
-0.00259426
-3.40112e-06
3.5772e-06
-0.00259678
-1.56059e-05
3.47614e-06
-0.00259674
-2.88213e-05
2.92221e-06
-0.00259373
-4.37443e-05
1.85763e-06
-0.00258691
-6.10754e-05
2.26361e-08
-0.0025733
-8.04478e-05
-2.86614e-06
-0.00254756
-9.78689e-05
-7.85452e-06
-0.00249457
-1.48957e-05
-0.00241265
-9.313e-05
2.02408e-05
2.11235e-06
-0.00287905
8.27155e-06
2.75982e-06
-0.002885
-3.51493e-06
2.96218e-06
-0.00288772
-1.56843e-05
2.78425e-06
-0.00288761
-2.89506e-05
2.22401e-06
-0.00288425
-4.42598e-05
1.22675e-06
-0.00287693
-6.28394e-05
-4.00956e-07
-0.00286236
-8.50375e-05
-3.02023e-06
-0.0028343
-0.000108507
-7.33015e-06
-0.00277279
-1.483e-05
-0.00267208
-0.000110089
1.9693e-05
1.1999e-06
-0.00316592
8.11848e-06
1.40504e-06
-0.00317248
-3.22916e-06
1.3898e-06
-0.00317561
-1.49161e-05
9.9952e-07
-0.0031757
-2.77953e-05
3.46099e-07
-0.00317235
-4.30461e-05
-6.07368e-07
-0.00316482
-6.25178e-05
-1.89492e-06
-0.0031495
-8.76692e-05
-3.75178e-06
-0.00312005
-0.000117051
-6.49554e-06
-0.00305144
-1.22155e-05
-0.00292921
-0.000126644
1.86056e-05
-0.00343397
7.07058e-06
-0.00344041
-4.05796e-06
-0.00344276
-1.545e-05
-0.00344098
-2.78752e-05
-0.00343483
-4.25526e-05
-0.00342373
-6.14327e-05
-0.00340424
-8.70666e-05
-0.00336999
-0.00011968
-0.003295
-0.00315503
-0.000139402
6.84927e-06
4.23963e-07
-0.000846188
2.57482e-06
6.54553e-07
-0.000847302
-1.89874e-06
7.45243e-07
-0.000847663
-6.24103e-06
6.8291e-07
-0.000847445
-1.01074e-05
4.71083e-07
-0.000846695
-1.30928e-05
1.0886e-07
-0.000845425
-1.47038e-05
-3.95338e-07
-0.00084366
-1.43362e-05
-1.02021e-06
-0.00084147
-1.13197e-05
-1.72006e-06
-0.000838993
-2.32844e-06
-0.000836479
-5.36419e-06
9.38731e-06
8.22121e-07
-0.00113556
3.29739e-06
1.26178e-06
-0.00113708
-2.96859e-06
1.42846e-06
-0.00113761
-9.13069e-06
1.32934e-06
-0.00113718
-1.48464e-05
9.52995e-07
-0.00113573
-1.96461e-05
2.92755e-07
-0.00113322
-2.28143e-05
-6.56449e-07
-0.00112956
-2.32475e-05
-1.87276e-06
-0.00112474
-1.92826e-05
-3.31306e-06
-0.0011189
-4.63194e-06
-0.00111322
-9.76466e-06
1.2456e-05
1.18807e-06
-0.00142417
4.5913e-06
1.79619e-06
-0.00142639
-3.4064e-06
2.02915e-06
-0.00142718
-1.13542e-05
1.91281e-06
-0.00142654
-1.8977e-05
1.41618e-06
-0.00142437
-2.58025e-05
5.14721e-07
-0.00142046
-3.09546e-05
-8.37883e-07
-0.00141451
-3.28545e-05
-2.64389e-06
-0.00140616
-2.86146e-05
-4.9234e-06
-0.00139514
-7.13979e-06
-0.00138373
-1.53861e-05
1.48906e-05
1.53391e-06
-0.00171097
5.63905e-06
2.33941e-06
-0.00171401
-3.75156e-06
2.66463e-06
-0.00171514
-1.3215e-05
2.5671e-06
-0.0017144
-2.25871e-05
1.99814e-06
-0.00171161
-3.15022e-05
9.22255e-07
-0.0017064
-3.9068e-05
-7.63148e-07
-0.00169802
-4.33522e-05
-3.10022e-06
-0.00168558
-4.00334e-05
-6.26892e-06
-0.00166763
-9.53629e-06
-0.0016476
-2.3843e-05
1.69727e-05
1.91945e-06
-0.00200021
6.66654e-06
2.83305e-06
-0.00200408
-3.74472e-06
3.21447e-06
-0.00200565
-1.43384e-05
3.13131e-06
-0.00200496
-2.51207e-05
2.52576e-06
-0.00200175
-3.59141e-05
1.34709e-06
-0.00199546
-4.59408e-05
-5.75506e-07
-0.00198481
-5.30689e-05
-3.34491e-06
-0.0019681
-5.16607e-05
-7.3753e-06
-0.00194182
-1.17694e-05
-0.00191046
-3.36387e-05
1.85158e-05
2.20747e-06
-0.00228842
7.43008e-06
3.17638e-06
-0.00229316
-3.70316e-06
3.56832e-06
-0.00229515
-1.51051e-05
3.48474e-06
-0.00229456
-2.69529e-05
2.86036e-06
-0.00229103
-3.93129e-05
1.64115e-06
-0.00228386
-5.16586e-05
-3.98372e-07
-0.00227117
-6.18715e-05
-3.43094e-06
-0.0022503
-6.33677e-05
-8.12091e-06
-0.00221479
-1.35869e-05
-0.00216983
-4.50066e-05
1.95092e-05
2.30309e-06
-0.00257719
8.00651e-06
3.18539e-06
-0.00258276
-3.49294e-06
3.52975e-06
-0.00258524
-1.53153e-05
3.40812e-06
-0.00258484
-2.78313e-05
2.79031e-06
-0.00258114
-4.1365e-05
1.60978e-06
-0.00257335
-5.57432e-05
-3.88439e-07
-0.00255893
-6.90367e-05
-3.4788e-06
-0.00253422
-7.42159e-05
-8.48582e-06
-0.00248902
-1.49504e-05
-0.00242865
-5.68545e-05
1.9692e-05
2.04697e-06
-0.0028665
7.98132e-06
2.73793e-06
-0.00287284
-3.61851e-06
2.96617e-06
-0.00287556
-1.5546e-05
2.79906e-06
-0.00287507
-2.82975e-05
2.21786e-06
-0.00287093
-4.24514e-05
1.15931e-06
-0.00286233
-5.83079e-05
-5.88557e-07
-0.00284631
-7.43913e-05
-3.4079e-06
-0.00281829
-8.38705e-05
-7.91014e-06
-0.00276389
-1.50069e-05
-0.00268685
-6.90444e-05
1.92693e-05
1.1999e-06
-0.00315283
7.8664e-06
1.43362e-06
-0.00315977
-3.3868e-06
1.47524e-06
-0.00316287
-1.49375e-05
1.15402e-06
-0.00316251
-2.74299e-05
5.70846e-07
-0.00315821
-4.16488e-05
-3.27014e-07
-0.00314911
-5.83924e-05
-1.60643e-06
-0.00313173
-7.72885e-05
-3.53803e-06
-0.00310102
-9.15595e-05
-6.4751e-06
-0.00303861
-1.20777e-05
-0.00294221
-8.14814e-05
1.82911e-05
-0.0034208
7.00146e-06
-0.00342768
-3.96631e-06
-0.00343032
-1.51891e-05
-0.00342861
-2.72609e-05
-0.00342219
-4.10518e-05
-0.00341026
-5.75069e-05
-0.00338939
-7.70918e-05
-0.00335395
-9.41513e-05
-0.00328441
-0.00317041
-9.08514e-05
4.81649e-06
2.50982e-07
-0.000843929
1.84264e-06
4.55664e-07
-0.000844784
-1.31459e-06
5.40016e-07
-0.000845046
-4.34622e-06
4.85482e-07
-0.000844899
-6.94558e-06
2.99467e-07
-0.000844395
-8.79002e-06
-1.30287e-08
-0.000843568
-9.55036e-06
-4.33713e-07
-0.000842466
-8.9121e-06
-9.3061e-07
-0.000841178
-6.646e-06
-1.44732e-06
-0.000839812
-1.86582e-06
-0.000838413
-2.84606e-06
7.16937e-06
5.20912e-07
-0.00113173
2.5193e-06
9.29145e-07
-0.0011329
-2.32259e-06
1.08714e-06
-0.00113332
-7.02488e-06
9.93896e-07
-0.00113298
-1.12149e-05
6.4356e-07
-0.00113188
-1.44512e-05
4.06391e-08
-0.00113003
-1.61746e-05
-7.98325e-07
-0.00112747
-1.57044e-05
-1.82499e-06
-0.00112431
-1.22594e-05
-2.95096e-06
-0.00112084
-3.90724e-06
-0.00111779
-5.65224e-06
1.03344e-05
8.48755e-07
-0.00141853
3.86895e-06
1.42988e-06
-0.00142042
-2.77469e-06
1.65204e-06
-0.0014211
-9.29133e-06
1.52852e-06
-0.00142056
-1.53072e-05
1.0352e-06
-0.00141874
-2.03021e-05
1.61983e-07
-0.00141559
-2.34788e-05
-1.10325e-06
-0.00141102
-2.36623e-05
-2.72094e-06
-0.00140508
-1.91472e-05
-4.61182e-06
-0.001398
-6.31236e-06
-0.00139138
-9.09075e-06
1.29532e-05
1.20024e-06
-0.0017038
4.94845e-06
1.99641e-06
-0.00170657
-3.26091e-06
2.31328e-06
-0.0017076
-1.1435e-05
2.1949e-06
-0.0017069
-1.92467e-05
1.60078e-06
-0.00170436
-2.61812e-05
5.09346e-07
-0.00169981
-3.12793e-05
-1.13786e-06
-0.00169289
-3.28876e-05
-3.32988e-06
-0.00168337
-2.80245e-05
-6.07301e-06
-0.00167103
-8.68456e-06
-0.00165871
-1.45455e-05
1.52828e-05
1.61009e-06
-0.00199165
6.01555e-06
2.53068e-06
-0.00199535
-3.42917e-06
2.90875e-06
-0.0019968
-1.29318e-05
2.79591e-06
-0.00199606
-2.22879e-05
2.14113e-06
-0.00199293
-3.10796e-05
9.03305e-07
-0.00198706
-3.82932e-05
-1.04078e-06
-0.0019777
-4.18767e-05
-3.73417e-06
-0.00196412
-3.7398e-05
-7.34437e-06
-0.00194503
-1.09843e-05
-0.00192469
-2.08735e-05
1.71001e-05
1.94856e-06
-0.00227866
6.84783e-06
2.93911e-06
-0.00228332
-3.53037e-06
3.3341e-06
-0.0022852
-1.40551e-05
3.22111e-06
-0.00228446
-2.46641e-05
2.53725e-06
-0.00228081
-3.51113e-05
1.23163e-06
-0.00227374
-4.44658e-05
-8.78861e-07
-0.00226198
-5.04413e-05
-3.91158e-06
-0.00224415
-4.72129e-05
-8.23728e-06
-0.00221712
-1.29072e-05
-0.00218661
-2.85173e-05
1.83245e-05
2.10651e-06
-0.00256642
7.47608e-06
3.02173e-06
-0.002572
-3.4478e-06
3.37742e-06
-0.00257436
-1.45839e-05
3.23551e-06
-0.00257372
-2.6051e-05
2.56207e-06
-0.0025697
-3.78164e-05
1.28948e-06
-0.00256164
-4.91484e-05
-8.07704e-07
-0.00254767
-5.76865e-05
-3.95079e-06
-0.00252564
-5.64444e-05
-8.68852e-06
-0.00248982
-1.435e-05
-0.00244716
-3.64851e-05
1.87295e-05
1.89572e-06
-0.00285485
7.55181e-06
2.62699e-06
-0.00286127
-3.59954e-06
2.87654e-06
-0.00286391
-1.49949e-05
2.71504e-06
-0.00286316
-2.6883e-05
2.11064e-06
-0.00285859
-3.94574e-05
9.9847e-07
-0.00284946
-5.23269e-05
-8.26461e-07
-0.00283342
-6.33395e-05
-3.70964e-06
-0.00280751
-6.48613e-05
-8.09756e-06
-0.00276296
-1.44346e-05
-0.00270665
-4.49756e-05
1.84644e-05
1.14418e-06
-0.00314054
7.48912e-06
1.4049e-06
-0.00314757
-3.427e-06
1.49488e-06
-0.00315057
-1.45706e-05
1.22813e-06
-0.00314988
-2.63519e-05
6.96381e-07
-0.00314502
-3.91564e-05
-1.64268e-07
-0.00313515
-5.29365e-05
-1.43811e-06
-0.00311734
-6.63021e-05
-3.37858e-06
-0.00308799
-7.12601e-05
-6.28871e-06
-0.00303546
-1.12875e-05
-0.00296301
-5.36116e-05
1.76235e-05
-0.00340841
6.79104e-06
-0.00341545
-3.81524e-06
-0.00341822
-1.46388e-05
-0.00341656
-2.60685e-05
-0.00341006
-3.8606e-05
-0.00339789
-5.23912e-05
-0.00337705
-6.6566e-05
-0.00334315
-7.36959e-05
-0.00328357
-0.00319581
-5.95772e-05
3.29102e-06
1.07072e-07
-0.000842405
1.28808e-06
2.78828e-07
-0.00084306
-8.66442e-07
3.53675e-07
-0.000843245
-2.92015e-06
3.08992e-07
-0.000843154
-4.63256e-06
1.54811e-07
-0.000842838
-5.77054e-06
-1.00838e-07
-0.000842329
-6.12985e-06
-4.35362e-07
-0.000841671
-5.55922e-06
-8.15471e-07
-0.000840933
-4.01136e-06
-1.18914e-06
-0.000840171
-1.47547e-06
-0.000839303
-1.64572e-06
5.24911e-06
2.44776e-07
-0.00112897
1.83124e-06
6.05984e-07
-0.00112981
-1.76723e-06
7.49477e-07
-0.00113012
-5.22955e-06
6.6745e-07
-0.00112988
-8.21493e-06
3.58543e-07
-0.0011291
-1.03601e-05
-1.64439e-07
-0.00112783
-1.12715e-05
-8.71417e-07
-0.00112612
-1.05668e-05
-1.70272e-06
-0.00112413
-7.94664e-06
-2.56163e-06
-0.00112209
-3.25237e-06
-0.00112042
-3.53716e-06
8.28509e-06
5.07456e-07
-0.00141423
3.15592e-06
1.03902e-06
-0.00141573
-2.16822e-06
1.243e-06
-0.00141627
-7.33231e-06
1.12105e-06
-0.00141585
-1.19357e-05
6.55747e-07
-0.00141443
-1.5492e-05
-1.49034e-07
-0.00141205
-1.7373e-05
-1.27736e-06
-0.00140874
-1.68205e-05
-2.6612e-06
-0.00140467
-1.29826e-05
-4.17737e-06
-0.00140022
-5.46914e-06
-0.00139637
-5.77704e-06
1.09001e-05
8.33469e-07
-0.00169809
4.20952e-06
1.59495e-06
-0.00170044
-2.72856e-06
1.89562e-06
-0.00170131
-9.56148e-06
1.7662e-06
-0.00170071
-1.58695e-05
1.17589e-06
-0.00169858
-2.10947e-05
1.19888e-07
-0.00169485
-2.4388e-05
-1.41692e-06
-0.00168946
-2.4546e-05
-3.37862e-06
-0.00168249
-1.98145e-05
-5.66725e-06
-0.00167427
-7.72259e-06
-0.00166673
-9.54048e-06
1.33484e-05
1.24247e-06
-0.00198453
5.27998e-06
2.14478e-06
-0.00198783
-3.02408e-06
2.51153e-06
-0.00198911
-1.12882e-05
2.37767e-06
-0.00198841
-1.91565e-05
1.70187e-06
-0.00198559
-2.60805e-05
4.58919e-07
-0.00198048
-3.10468e-05
-1.42092e-06
-0.00197273
-3.24056e-05
-3.92035e-06
-0.00196222
-2.72131e-05
-7.02926e-06
-0.00194886
-9.98121e-06
-0.00193582
-1.38202e-05
1.53597e-05
1.61288e-06
-0.00227026
6.15676e-06
2.60298e-06
-0.00227458
-3.24356e-06
2.99358e-06
-0.00227628
-1.26806e-05
2.85698e-06
-0.0022755
-2.18961e-05
2.13693e-06
-0.00227203
-3.04295e-05
7.94382e-07
-0.00226554
-3.72135e-05
-1.29805e-06
-0.00225531
-4.02434e-05
-4.19043e-06
-0.00224085
-3.52498e-05
-8.01199e-06
-0.00222113
-1.18938e-05
-0.00220079
-1.9155e-05
1.67723e-05
1.82981e-06
-0.00255691
6.82299e-06
2.7613e-06
-0.00256221
-3.27998e-06
3.12233e-06
-0.00256438
-1.34845e-05
2.96358e-06
-0.00256362
-2.36833e-05
2.25186e-06
-0.00255962
-3.35634e-05
9.27361e-07
-0.0025519
-4.21053e-05
-1.18786e-06
-0.00253923
-4.70691e-05
-4.2368e-06
-0.00252063
-4.28696e-05
-8.50803e-06
-0.00249352
-1.32793e-05
-0.00246408
-2.45661e-05
1.73926e-05
1.66377e-06
-0.00284434
6.99498e-06
2.42583e-06
-0.00285054
-3.46342e-06
2.69045e-06
-0.00285302
-1.40724e-05
2.53187e-06
-0.00285212
-2.48452e-05
1.90951e-06
-0.00284747
-3.56486e-05
7.6464e-07
-0.0028385
-4.56543e-05
-1.07975e-06
-0.00282352
-5.26155e-05
-3.88929e-06
-0.0028009
-4.99884e-05
-7.91708e-06
-0.00276618
-1.32838e-05
-0.00272614
-3.04915e-05
1.72971e-05
1.03272e-06
-0.00312931
6.99053e-06
1.31514e-06
-0.00313616
-3.35189e-06
1.44428e-06
-0.00313898
-1.3837e-05
1.21958e-06
-0.00313808
-2.4646e-05
7.26305e-07
-0.00313303
-3.5816e-05
-1.04036e-07
-0.00312311
-4.67379e-05
-1.35888e-06
-0.00310614
-5.55497e-05
-3.2391e-06
-0.00307982
-5.51156e-05
-5.95507e-06
-0.00303785
-1.01069e-05
-0.00298516
-3.6137e-05
1.66145e-05
-0.00339707
6.44326e-06
-0.00340396
-3.60024e-06
-0.00340673
-1.38038e-05
-0.00340513
-2.43476e-05
-0.00339879
-3.53953e-05
-0.00338694
-4.65281e-05
-0.00336727
-5.618e-05
-0.00333674
-5.73751e-05
-0.00328833
-0.00322361
-3.96868e-05
2.21189e-06
-1.43804e-09
-0.000841362
8.93574e-07
1.36395e-07
-0.000841878
-5.42955e-07
2.00625e-07
-0.000842009
-1.90621e-06
1.66024e-07
-0.000841957
-3.02091e-06
4.42223e-08
-0.000841767
-3.72701e-06
-1.56096e-07
-0.000841467
-3.90064e-06
-4.12265e-07
-0.000841085
-3.47113e-06
-6.94755e-07
-0.000840668
-2.44938e-06
-9.61092e-07
-0.000840232
-1.15638e-06
-0.000839627
-9.69425e-07
3.6942e-06
1.30181e-08
-0.00112698
1.26095e-06
3.19162e-07
-0.00112756
-1.32602e-06
4.44645e-07
-0.00112777
-3.79929e-06
3.76839e-07
-0.00112762
-5.87774e-06
1.17469e-07
-0.0011271
-7.28499e-06
-3.16228e-07
-0.00112626
-7.75933e-06
-8.88554e-07
-0.00112517
-7.09738e-06
-1.53936e-06
-0.00112395
-5.21303e-06
-2.18102e-06
-0.00112276
-2.67434e-06
-0.00112183
-2.29049e-06
6.44966e-06
1.93781e-07
-0.00141101
2.50232e-06
6.58525e-07
-0.00141212
-1.63124e-06
8.38289e-07
-0.00141253
-5.60405e-06
7.25083e-07
-0.00141222
-9.04153e-06
3.06759e-07
-0.00141119
-1.15315e-05
-4.02533e-07
-0.00140947
-1.26146e-05
-1.36834e-06
-0.00140717
-1.1835e-05
-2.50973e-06
-0.00140448
-8.82532e-06
-3.69405e-06
-0.00140172
-4.65973e-06
-0.00139947
-3.74682e-06
8.89269e-06
4.67711e-07
-0.00169365
3.47487e-06
1.17047e-06
-0.00169553
-2.20622e-06
1.44716e-06
-0.00169624
-7.74957e-06
1.3165e-06
-0.00169576
-1.27102e-05
7.57127e-07
-0.00169407
-1.65608e-05
-2.20173e-07
-0.00169119
-1.86211e-05
-1.5965e-06
-0.00168717
-1.80877e-05
-3.28562e-06
-0.00168225
-1.40467e-05
-5.13941e-06
-0.00167687
-6.72544e-06
-0.00167226
-6.45177e-06
1.13191e-05
8.49107e-07
-0.00197876
4.50705e-06
1.70567e-06
-0.00198156
-2.57545e-06
2.05218e-06
-0.00198264
-9.55489e-06
1.90759e-06
-0.00198202
-1.59935e-05
1.24135e-06
-0.00197964
-2.13083e-05
4.63871e-08
-0.00197543
-2.46096e-05
-1.69834e-06
-0.00196932
-2.46918e-05
-3.92615e-06
-0.00196149
-1.98184e-05
-6.5169e-06
-0.00195236
-8.85786e-06
-0.00194405
-9.45601e-06
1.34188e-05
1.22802e-06
-0.00226325
5.39576e-06
2.19069e-06
-0.00226704
-2.87777e-06
2.56781e-06
-0.00226852
-1.11041e-05
2.41602e-06
-0.00226779
-1.88929e-05
1.68858e-06
-0.00226469
-2.56752e-05
3.63526e-07
-0.00225908
-3.04244e-05
-1.62878e-06
-0.00225063
-3.15581e-05
-4.2744e-06
-0.00223937
-2.63095e-05
-7.52929e-06
-0.00222537
-1.06705e-05
-0.00221195
-1.33376e-05
1.49472e-05
1.49283e-06
-0.00254877
6.07688e-06
2.41781e-06
-0.00255356
-3.01343e-06
2.77609e-06
-0.0025555
-1.21104e-05
2.60644e-06
-0.00255472
-2.09336e-05
1.88013e-06
-0.00255098
-2.89923e-05
5.52277e-07
-0.00254403
-3.51946e-05
-1.49985e-06
-0.00253316
-3.765e-05
-4.33529e-06
-0.00251811
-3.24407e-05
-8.03299e-06
-0.00249822
-1.19112e-05
-0.0024782
-1.70762e-05
1.57519e-05
1.364e-06
-0.00283513
6.33316e-06
2.14119e-06
-0.00284084
-3.22537e-06
2.41307e-06
-0.0028431
-1.28459e-05
2.25733e-06
-0.00284215
-2.23467e-05
1.629e-06
-0.00283772
-3.13611e-05
4.82278e-07
-0.00282941
-3.88663e-05
-1.31943e-06
-0.0028162
-4.2811e-05
-3.94676e-06
-0.00279734
-3.83386e-05
-7.47086e-06
-0.00277121
-1.17994e-05
-0.00274328
-2.13093e-05
1.58172e-05
8.71116e-07
-0.00311935
6.38515e-06