/*--------------------------------*- C++ -*----------------------------------*\
| =========                 |                                                 |
| \\      /  F ield         | foam-extend: Open Source CFD                    |
|  \\    /   O peration     | Version:     4.0                                |
|   \\  /    A nd           | Web:         http://www.foam-extend.org         |
|    \\/     M anipulation  |                                                 |
\*---------------------------------------------------------------------------*/
FoamFile
{
    version     2.0;
    format      ascii;
    class       volVectorField;
    location    "2250";
    object      U;
}
// * * * * * * * * * * * * * * * * * * * * * * * * * * * * * * * * * * * * * //

dimensions      [0 1 -1 0 0 0 0];

internalField   nonuniform List<vector> 
34480
(
(209.004 2.16697 3.26217)
(209.324 1.19985 1.52486)
(209.481 0.413988 -0.272632)
(209.487 -0.21016 -2.17594)
(209.338 -0.704947 -4.32553)
(208.996 -1.06659 -6.89874)
(208.38 -1.2687 -10.2972)
(207.214 -1.18829 -14.8664)
(204.543 -0.589926 -22.7772)
(197.606 1.98021 -50.0419)
(209.937 3.08134 2.87483)
(210.196 2.25984 1.05398)
(210.323 1.53468 -0.770442)
(210.296 0.900135 -2.66943)
(210.061 0.328159 -4.76313)
(209.558 -0.192315 -7.26131)
(208.751 -0.671359 -10.6255)
(207.459 -1.046 -15.5989)
(204.323 -1.14574 -24.4046)
(196.163 0.637329 -55.1)
(210.626 2.71781 3.28982)
(210.861 1.83765 1.40627)
(210.955 1.06215 -0.498599)
(210.884 0.407756 -2.44284)
(210.589 -0.170692 -4.55751)
(210.061 -0.696412 -7.10228)
(209.309 -1.18582 -10.6079)
(208.166 -1.55803 -16.1046)
(204.865 -1.63486 -25.7841)
(195.655 0.362102 -59.4545)
(210.634 3.26192 3.23981)
(210.869 2.42923 1.30069)
(210.978 1.68531 -0.636528)
(210.941 1.06095 -2.60827)
(210.707 0.512225 -4.75357)
(210.292 0.0150506 -7.36189)
(209.676 -0.449815 -10.9671)
(208.696 -0.790089 -16.8196)
(205.37 -0.819296 -27.1187)
(195.356 1.32632 -62.727)
(210.793 2.72751 3.74615)
(211.057 1.82077 1.76864)
(211.205 1.0261 -0.247807)
(211.229 0.376735 -2.29455)
(211.087 -0.188374 -4.53642)
(210.808 -0.691165 -7.27529)
(210.34 -1.14307 -11.0424)
(209.543 -1.43889 -17.2754)
(206.316 -1.38279 -28.2384)
(195.659 0.927249 -65.3966)
(210.679 3.41726 3.52163)
(210.954 2.52659 1.54652)
(211.121 1.74801 -0.43095)
(211.18 1.11916 -2.44647)
(211.105 0.589783 -4.65799)
(210.942 0.134454 -7.39242)
(210.628 -0.257841 -11.1654)
(210.046 -0.482266 -17.5871)
(207.066 -0.320576 -29.0313)
(196.01 2.08791 -67.3684)
(210.761 2.58088 4.03768)
(211.076 1.59524 2.06166)
(211.272 0.7426 0.0420744)
(211.369 0.052737 -2.00518)
(211.353 -0.530276 -4.26792)
(211.288 -1.02335 -7.07478)
(211.113 -1.41121 -10.9457)
(210.748 -1.57048 -17.6128)
(208.099 -1.20966 -29.6315)
(196.748 1.49058 -68.9923)
(210.588 3.35711 3.56661)
(210.908 2.35919 1.62275)
(211.084 1.52578 -0.317266)
(211.14 0.862925 -2.29869)
(211.083 0.338375 -4.47298)
(210.999 -0.0835236 -7.17429)
(210.87 -0.377954 -10.9065)
(210.662 -0.415049 -17.4914)
(208.421 0.250361 -29.6949)
(197.104 3.31551 -69.5908)
(210.533 2.04086 4.11453)
(210.897 0.925717 2.22399)
(211.104 -0.0309247 0.308503)
(211.198 -0.845118 -1.64899)
(211.192 -1.54866 -3.84196)
(211.153 -2.14747 -6.58119)
(211.092 -2.561 -10.4057)
(211.024 -2.61209 -17.1067)
(209.112 -1.55734 -29.6788)
(197.68 2.45891 -69.5448)
(209.569 2.7874 3.5308)
(209.843 1.57019 1.59849)
(209.79 0.61642 -0.311833)
(209.431 -0.169494 -2.27856)
(208.813 -0.775497 -4.43733)
(208.027 -1.2163 -7.07434)
(207.158 -1.4 -10.6664)
(206.371 -1.10916 -16.8186)
(204.433 0.415558 -28.5359)
(194.247 5.28069 -66.5003)
(205.889 1.91233 3.00055)
(206.367 1.10981 1.54392)
(206.554 0.426714 -0.00993611)
(206.471 -0.117237 -1.61002)
(206.093 -0.546352 -3.31976)
(205.331 -0.861162 -5.15152)
(203.984 -1.06577 -7.15903)
(201.618 -1.17164 -9.31726)
(198.152 -1.25673 -11.2449)
(193.577 -1.15889 -14.3934)
(207.188 2.86885 2.79785)
(207.619 2.16454 1.16175)
(207.791 1.51969 -0.49228)
(207.702 0.944181 -2.18911)
(207.291 0.416807 -3.99631)
(206.436 -0.0684834 -5.97179)
(204.942 -0.526802 -8.20868)
(202.357 -0.993072 -10.9581)
(198.188 -1.58349 -14.0067)
(192.504 -1.82376 -20.5815)
(208.137 2.57789 3.30703)
(208.546 1.77184 1.54466)
(208.704 1.04518 -0.256825)
(208.604 0.42303 -2.09026)
(208.168 -0.133169 -4.02985)
(207.294 -0.635945 -6.15934)
(205.809 -1.11461 -8.66768)
(203.232 -1.58584 -12.0868)
(198.687 -2.15667 -16.3331)
(192.069 -2.07071 -26.7166)
(208.381 3.17826 3.30345)
(208.796 2.40375 1.45608)
(208.975 1.69473 -0.403459)
(208.917 1.08857 -2.29705)
(208.544 0.546754 -4.31007)
(207.772 0.0575852 -6.5689)
(206.4 -0.412053 -9.2994)
(203.915 -0.855008 -13.2586)
(199.142 -1.36312 -18.4764)
(191.709 -0.933093 -32.454)
(208.735 2.66866 3.83828)
(209.177 1.80927 1.93571)
(209.395 1.04243 -0.0204058)
(209.402 0.408876 -2.00868)
(209.12 -0.146618 -4.14616)
(208.484 -0.635345 -6.58667)
(207.263 -1.09218 -9.57239)
(204.941 -1.48828 -14.0629)
(200.089 -1.90187 -20.2307)
(191.948 -1.07256 -37.693)
(208.77 3.39327 3.6342)
(209.228 2.54142 1.71989)
(209.471 1.78382 -0.206814)
(209.52 1.16397 -2.1756)
(209.313 0.635155 -4.29769)
(208.805 0.182969 -6.77303)
(207.749 -0.223841 -9.84341)
(205.648 -0.547712 -14.6622)
(200.883 -0.82979 -21.5475)
(192.218 0.365004 -42.2098)
(208.976 2.56699 4.15998)
(209.469 1.61623 2.23753)
(209.743 0.786596 0.259113)
(209.838 0.114416 -1.74953)
(209.699 -0.450489 -3.93579)
(209.305 -0.919708 -6.5157)
(208.412 -1.30976 -9.74438)
(206.555 -1.568 -14.9177)
(201.998 -1.65596 -22.5675)
(192.908 0.00134908 -46.2448)
(208.891 3.37392 3.69566)
(209.392 2.40969 1.8035)
(209.655 1.59827 -0.0881851)
(209.725 0.950943 -2.02431)
(209.569 0.441349 -4.12033)
(209.197 0.0374038 -6.62275)
(208.398 -0.263815 -9.78123)
(206.762 -0.418252 -15.0052)
(202.533 -0.207969 -23.0526)
(193.316 1.83458 -49.2172)
(208.903 2.05546 4.24504)
(209.436 0.97742 2.40196)
(209.728 0.0662205 0.526013)
(209.834 -0.688841 -1.37765)
(209.735 -1.31832 -3.48062)
(209.437 -1.83465 -6.0304)
(208.759 -2.18997 -9.33533)
(207.35 -2.32154 -14.7936)
(203.46 -1.7418 -23.4884)
(193.992 1.00298 -51.4978)
(207.981 2.86375 3.63687)
(208.458 1.69309 1.78957)
(208.575 0.796333 -0.034649)
(208.362 0.067826 -1.9054)
(207.834 -0.474159 -3.92981)
(207.026 -0.855598 -6.35379)
(205.826 -1.01327 -9.46969)
(204.024 -0.832093 -14.564)
(200.282 0.222253 -23.0378)
(191.635 4.0374 -51.3444)
(203.515 1.42802 2.33435)
(204.018 0.833686 1.21629)
(204.2 0.302661 -0.0132595)
(204.096 -0.131617 -1.26339)
(203.695 -0.482221 -2.55459)
(202.948 -0.746575 -3.83241)
(201.763 -0.934455 -5.04903)
(199.987 -1.07138 -6.05477)
(197.432 -1.24275 -6.4985)
(194.216 -1.43211 -6.51693)
(204.911 2.41453 2.31318)
(205.406 1.87221 0.94608)
(205.585 1.34592 -0.448832)
(205.462 0.855285 -1.86579)
(204.999 0.390197 -3.33136)
(204.11 -0.0546844 -4.84814)
(202.637 -0.492668 -6.37973)
(200.309 -0.955384 -7.86297)
(196.685 -1.55421 -8.80244)
(191.846 -2.13629 -9.81074)
(205.946 2.2123 2.94799)
(206.446 1.52913 1.39536)
(206.626 0.890929 -0.208818)
(206.501 0.327476 -1.83811)
(206.013 -0.193274 -3.53885)
(205.06 -0.681242 -5.32776)
(203.444 -1.16118 -7.21464)
(200.799 -1.66326 -9.29201)
(196.298 -2.3318 -11.0027)
(189.856 -2.91082 -13.584)
(206.343 2.89719 2.99411)
(206.865 2.22058 1.31803)
(207.071 1.57982 -0.380921)
(206.981 1.01474 -2.11239)
(206.53 0.491822 -3.94034)
(205.614 0.00133234 -5.92306)
(203.982 -0.488623 -8.10648)
(201.169 -0.995471 -10.7405)
(195.93 -1.68056 -13.2005)
(187.994 -2.16585 -17.5586)
(206.845 2.42663 3.56872)
(207.399 1.6502 1.8054)
(207.642 0.940979 -0.0196043)
(207.608 0.34079 -1.87745)
(207.227 -0.200835 -3.86952)
(206.4 -0.692392 -6.08631)
(204.827 -1.16937 -8.60258)
(201.969 -1.63777 -11.8317)
(196.183 -2.28577 -15.1301)
(186.926 -2.57733 -21.5716)
(207.011 3.20035 3.38966)
(207.585 2.41757 1.59382)
(207.854 1.70802 -0.222508)
(207.862 1.11513 -2.08442)
(207.544 0.594342 -4.09226)
(206.815 0.13332 -6.3875)
(205.341 -0.303379 -9.06298)
(202.541 -0.715303 -12.7146)
(196.409 -1.27632 -16.7149)
(186.061 -1.3397 -25.3328)
(207.329 2.39061 3.93873)
(207.935 1.50303 2.11663)
(208.234 0.720354 0.231287)
(208.288 0.0787507 -1.68945)
(208.032 -0.470194 -3.78531)
(207.401 -0.934785 -6.22102)
(206.047 -1.33746 -9.12164)
(203.367 -1.66903 -13.232)
(197.059 -2.06843 -18.0274)
(185.782 -1.79898 -28.9561)
(207.337 3.23562 3.47877)
(207.95 2.33256 1.68351)
(208.243 1.56593 -0.117601)
(208.28 0.948766 -1.97008)
(208.016 0.454489 -3.98466)
(207.414 0.0568152 -6.36727)
(206.144 -0.257083 -9.2605)
(203.617 -0.487731 -13.5543)
(197.326 -0.620419 -18.8721)
(185.387 -0.0695219 -31.8724)
(207.429 1.90361 4.03269)
(208.061 0.8875 2.27498)
(208.376 0.0349897 0.472707)
(208.441 -0.66059 -1.36155)
(208.22 -1.23113 -3.38779)
(207.679 -1.68688 -5.81514)
(206.521 -1.99254 -8.87645)
(204.188 -2.12662 -13.5149)
(198.029 -1.86066 -19.642)
(185.306 -0.799217 -34.2635)
(206.573 2.76956 3.39219)
(207.153 1.67668 1.66373)
(207.338 0.850665 -0.0526277)
(207.166 0.187381 -1.82453)
(206.629 -0.293625 -3.74848)
(205.717 -0.615346 -6.03817)
(204.201 -0.726486 -8.92235)
(201.63 -0.547139 -13.3057)
(195.609 0.217606 -19.5468)
(182.828 2.30023 -34.6943)
(201.779 0.949208 1.70176)
(202.217 0.547815 0.911395)
(202.367 0.165754 0.00789728)
(202.269 -0.15775 -0.89641)
(201.92 -0.42847 -1.80007)
(201.305 -0.641046 -2.62147)
(200.394 -0.807702 -3.29565)
(199.16 -0.951948 -3.68718)
(197.6 -1.12918 -3.58049)
(195.869 -1.36476 -2.75289)
(203.101 1.9077 1.79132)
(203.569 1.53224 0.718071)
(203.732 1.13508 -0.387759)
(203.601 0.742057 -1.49714)
(203.153 0.354377 -2.60171)
(202.343 -0.0307469 -3.67095)
(201.094 -0.42397 -4.62883)
(199.301 -0.847758 -5.34701)
(196.837 -1.3703 -5.40304)
(194.039 -1.93765 -4.61972)
(204.091 1.76012 2.50345)
(204.601 1.22026 1.20599)
(204.777 0.690451 -0.150888)
(204.635 0.204894 -1.51804)
(204.135 -0.259876 -2.91219)
(203.207 -0.712184 -4.31343)
(201.716 -1.17145 -5.65531)
(199.467 -1.66395 -6.84635)
(196.112 -2.29537 -7.29998)
(192.033 -2.99122 -6.92402)
(204.55 2.52678 2.58702)
(205.107 1.9724 1.13171)
(205.312 1.42104 -0.354626)
(205.189 0.916356 -1.86122)
(204.689 0.433132 -3.42374)
(203.722 -0.0379307 -5.05638)
(202.094 -0.525906 -6.71335)
(199.508 -1.05323 -8.37934)
(195.291 -1.75903 -9.29348)
(189.826 -2.52536 -9.54027)
(205.136 2.10118 3.20266)
(205.738 1.43218 1.62529)
(205.977 0.800445 -0.0200133)
(205.896 0.250154 -1.68744)
(205.431 -0.261206 -3.45167)
(204.488 -0.741573 -5.35626)
(202.811 -1.22391 -7.38184)
(200.007 -1.72746 -9.61121)
(195.039 -2.44175 -11.1401)
(188.235 -3.18091 -12.3679)
(205.393 2.9295 3.0526)
(206.022 2.23946 1.41834)
(206.29 1.59642 -0.243854)
(206.243 1.04585 -1.94383)
(205.817 0.548966 -3.75864)
(204.922 0.0932862 -5.78005)
(203.253 -0.358879 -8.01111)
(200.343 -0.826125 -10.6685)
(194.769 -1.50655 -12.7413)
(186.758 -2.16624 -15.1349)
(205.796 2.14617 3.63079)
(206.458 1.34332 1.94753)
(206.753 0.623507 0.194408)
(206.746 0.0243938 -1.58897)
(206.367 -0.498028 -3.52103)
(205.538 -0.951549 -5.71762)
(203.915 -1.3627 -8.22165)
(200.976 -1.74449 -11.3674)
(194.944 -2.30025 -14.1235)
(185.842 -2.7738 -17.9492)
(205.883 3.0419 3.18177)
(206.553 2.21944 1.51792)
(206.846 1.51101 -0.159338)
(206.828 0.933973 -1.88661)
(206.444 0.463428 -3.75586)
(205.63 0.0771267 -5.9261)
(204.048 -0.24688 -8.46753)
(201.146 -0.535858 -11.8565)
(194.857 -0.880593 -15.11)
(184.868 -1.19377 -20.318)
(206.044 1.70843 3.76442)
(206.724 0.770925 2.12352)
(207.033 -0.0163782 0.423877)
(207.039 -0.652794 -1.30796)
(206.689 -1.16965 -3.21025)
(205.919 -1.57409 -5.43805)
(204.393 -1.84567 -8.1433)
(201.582 -1.99534 -11.8891)
(195.221 -1.94747 -15.9861)
(184.257 -1.89915 -22.3803)
(205.256 2.64799 3.10251)
(205.889 1.6452 1.51467)
(206.107 0.893071 -0.075907)
(205.943 0.293656 -1.72671)
(205.373 -0.131712 -3.5164)
(204.349 -0.40311 -5.61274)
(202.583 -0.481732 -8.16701)
(199.582 -0.316617 -11.7256)
(193.24 0.228221 -16.0577)
(181.785 1.20166 -22.8629)
(200.569 0.551208 1.19391)
(200.912 0.295012 0.666084)
(201.026 0.0341547 0.035745)
(200.951 -0.195179 -0.583097)
(200.693 -0.396552 -1.18743)
(200.254 -0.562292 -1.69751)
(199.642 -0.70196 -2.06661)
(198.879 -0.830694 -2.20479)
(198.014 -0.974971 -2.02033)
(197.163 -1.14148 -1.42913)
(201.726 1.43471 1.31129)
(202.12 1.20023 0.510191)
(202.256 0.920947 -0.321286)
(202.143 0.622382 -1.14565)
(201.77 0.313734 -1.93594)
(201.121 -0.00374273 -2.64899)
(200.177 -0.334562 -3.21067)
(198.933 -0.688528 -3.51261)
(197.41 -1.0939 -3.32758)
(195.913 -1.51107 -2.51764)
(202.576 1.29291 2.05034)
(203.046 0.890827 1.01557)
(203.208 0.471025 -0.0833538)
(203.075 0.069216 -1.18042)
(202.622 -0.329375 -2.26761)
(201.813 -0.729386 -3.30344)
(200.582 -1.14403 -4.20337)
(198.864 -1.59081 -4.83742)
(196.581 -2.12501 -4.81327)
(194.192 -2.69397 -3.92696)
(203.016 2.11752 2.14827)
(203.558 1.69128 0.935413)
(203.754 1.23775 -0.315532)
(203.625 0.803462 -1.57423)
(203.134 0.373117 -2.84711)
(202.224 -0.0598029 -4.11447)
(200.774 -0.519432 -5.29414)
(198.641 -1.02497 -6.2706)
(195.551 -1.66436 -6.4664)
(192.082 -2.36879 -5.60751)
(203.615 1.72891 2.79415)
(204.22 1.17912 1.43088)
(204.452 0.635958 -0.00661054)
(204.348 0.146126 -1.4539)
(203.857 -0.322671 -2.95357)
(202.908 -0.776397 -4.50652)
(201.316 -1.24356 -6.04462)
(198.859 -1.7465 -7.49222)
(194.995 -2.42606 -8.08609)
(190.378 -3.19356 -7.53431)
(203.913 2.60725 2.66949)
(204.56 2.02468 1.22681)
(204.821 1.46029 -0.251889)
(204.741 0.962416 -1.75774)
(204.263 0.500967 -3.33667)
(203.308 0.0647819 -5.02972)
(201.636 -0.383524 -6.78405)
(198.952 -0.870233 -8.60567)
(194.392 -1.55902 -9.55972)
(188.652 -2.35283 -9.4594)
(204.362 1.85347 3.27553)
(205.049 1.1512 1.76105)
(205.338 0.505936 0.169052)
(205.29 -0.0417993 -1.44484)
(204.839 -0.528887 -3.16831)
(203.906 -0.962282 -5.06301)
(202.205 -1.37079 -7.11178)
(199.369 -1.7794 -9.39669)
(194.214 -2.3795 -10.878)
(187.389 -3.09935 -11.502)
(204.504 2.80602 2.83921)
(205.204 2.07985 1.33386)
(205.495 1.44077 -0.193555)
(205.439 0.912285 -1.76643)
(204.98 0.473642 -3.44898)
(204.044 0.106245 -5.34436)
(202.327 -0.218483 -7.45834)
(199.42 -0.543035 -9.99062)
(193.839 -0.991092 -11.8662)
(186.055 -1.65639 -13.2453)
(204.717 1.47467 3.4572)
(205.425 0.63054 1.95857)
(205.729 -0.084259 0.386398)
(205.692 -0.659525 -1.21509)
(205.256 -1.1241 -2.95747)
(204.348 -1.48257 -4.93712)
(202.645 -1.72709 -7.22508)
(199.715 -1.89022 -10.0744)
(193.889 -1.98175 -12.6836)
(185.057 -2.39463 -14.8183)
(203.99 2.50144 2.77465)
(204.655 1.59933 1.34465)
(204.897 0.925147 -0.103755)
(204.741 0.389884 -1.61323)
(204.153 0.0174769 -3.24025)
(203.068 -0.209313 -5.10197)
(201.2 -0.264009 -7.27262)
(198.102 -0.118978 -10.0004)
(192.174 0.26002 -12.8109)
(182.634 0.640338 -15.1307)
(199.738 0.251765 0.824846)
(199.992 0.0932159 0.488381)
(200.073 -0.0794606 0.0635807)
(200.022 -0.236398 -0.342726)
(199.847 -0.381983 -0.735404)
(199.559 -0.507229 -1.04651)
(199.174 -0.618379 -1.25087)
(198.722 -0.72291 -1.29412)
(198.246 -0.83155 -1.14384)
(197.79 -0.943106 -0.7775)
(200.716 1.0406 0.910798)
(201.018 0.911251 0.336673)
(201.125 0.7284 -0.260197)
(201.037 0.512657 -0.845204)
(200.753 0.277432 -1.38651)
(200.275 0.0269512 -1.84334)
(199.611 -0.237536 -2.1583)
(198.792 -0.516597 -2.25869)
(197.884 -0.815157 -2.03779)
(197.077 -1.10347 -1.43094)
(201.389 0.861743 1.63595)
(201.787 0.575223 0.84217)
(201.925 0.255003 -0.0153271)
(201.812 -0.0658605 -0.863818)
(201.435 -0.395549 -1.68091)
(200.783 -0.734552 -2.41798)
(199.838 -1.08945 -2.99865)
(198.609 -1.46892 -3.3146)
(197.135 -1.89503 -3.14388)
(195.748 -2.32507 -2.34646)
(201.757 1.71221 1.72031)
(202.246 1.40405 0.746163)
(202.422 1.04643 -0.269296)
(202.3 0.685657 -1.2832)
(201.859 0.315368 -2.28036)
(201.067 -0.066801 -3.22109)
(199.87 -0.477514 -4.01849)
(198.229 -0.929256 -4.5453)
(196.095 -1.46828 -4.43724)
(193.954 -2.04051 -3.43904)
(202.315 1.34327 2.37742)
(202.883 0.911052 1.23659)
(203.097 0.459619 0.0179417)
(202.986 0.0361757 -1.20021)
(202.514 -0.381334 -2.43267)
(201.634 -0.795534 -3.64944)
(200.238 -1.22817 -4.7637)
(198.234 -1.69874 -5.64696)
(195.415 -2.29692 -5.77439)
(192.408 -2.96182 -4.76563)
(202.61 2.25838 2.26776)
(203.235 1.7874 1.03182)
(203.481 1.30777 -0.246601)
(203.383 0.869598 -1.54192)
(202.897 0.452234 -2.87081)
(201.963 0.0474793 -4.23242)
(200.422 -0.377468 -5.54362)
(198.122 -0.849048 -6.71197)
(194.64 -1.48293 -7.04636)
(190.723 -2.22617 -6.09531)
(203.069 1.5308 2.89447)
(203.746 0.936856 1.56769)
(204.02 0.373481 0.156788)
(203.944 -0.116196 -1.26715)
(203.463 -0.56067 -2.76056)
(202.51 -0.964983 -4.33682)
(200.874 -1.35681 -5.93761)
(198.341 -1.7658 -7.50447)
(194.246 -2.343 -8.22473)
(189.396 -3.07451 -7.55851)
(203.239 2.54065 2.4682)
(203.936 1.9203 1.14015)
(204.217 1.35852 -0.217933)
(204.135 0.885271 -1.61529)
(203.638 0.485298 -3.08702)
(202.659 0.144102 -4.68426)
(200.957 -0.16879 -6.3613)
(198.267 -0.50113 -8.14039)
(193.684 -0.973215 -9.13438)
(187.954 -1.71681 -8.79328)
(203.488 1.21051 3.12304)
(204.196 0.469794 1.7855)
(204.487 -0.166969 0.360791)
(204.418 -0.679384 -1.08804)
(203.934 -1.09247 -2.64474)
(202.962 -1.40829 -4.35247)
(201.236 -1.62834 -6.21891)
(198.442 -1.79471 -8.27884)
(193.523 -1.95804 -9.83212)
(186.815 -2.51395 -9.91432)
(202.813 2.33615 2.41842)
(203.481 1.54218 1.15873)
(203.733 0.949074 -0.134019)
(203.582 0.478237 -1.48545)
(202.994 0.156495 -2.92833)
(201.898 -0.0308156 -4.53208)
(200.047 -0.0680567 -6.3067)
(197.093 0.0556143 -8.29688)
(191.995 0.313723 -9.9836)
(184.568 0.412607 -10.0823)
(199.164 0.0421997 0.576324)
(199.349 -0.0564981 0.36973)
(199.405 -0.170337 0.0876076)
(199.373 -0.275723 -0.172463)
(199.262 -0.379179 -0.425549)
(199.084 -0.471313 -0.616473)
(198.854 -0.555977 -0.736414)
(198.595 -0.635441 -0.752737)
(198.334 -0.712713 -0.658275)
(198.073 -0.783947 -0.451623)
(199.986 0.740842 0.598965)
(200.204 0.682529 0.200178)
(200.282 0.572222 -0.211258)
(200.219 0.423735 -0.609856)
(200.018 0.251875 -0.966844)
(199.688 0.0623331 -1.25031)
(199.246 -0.139552 -1.42135)
(198.729 -0.349417 -1.43693)
(198.195 -0.562132 -1.25228)
(197.757 -0.754131 -0.850809)
(200.484 0.495661 1.28416)
(200.798 0.296576 0.694271)
(200.908 0.0592323 0.0456981)
(200.82 -0.189177 -0.591113)
(200.527 -0.452904 -1.18894)
(200.033 -0.729218 -1.70223)
(199.347 -1.01938 -2.07149)
(198.505 -1.3246 -2.22261)
(197.578 -1.64836 -2.04287)
(196.774 -1.95745 -1.47321)
(200.756 1.3422 1.33058)
(201.168 1.13269 0.573895)
(201.318 0.861692 -0.222777)
(201.214 0.572004 -1.01237)
(200.844 0.263855 -1.76786)
(200.199 -0.0611615 -2.44287)
(199.265 -0.411626 -2.96164)
(198.062 -0.7925 -3.22039)
(196.636 -1.22199 -3.01373)
(195.323 -1.65782 -2.19299)
(201.237 0.9728 1.97811)
(201.74 0.646564 1.05173)
(201.928 0.28319 0.0480532)
(201.823 -0.0724164 -0.948067)
(201.401 -0.433563 -1.93193)
(200.638 -0.799162 -2.8572)
(199.485 -1.18331 -3.63816)
(197.93 -1.5993 -4.14864)
(195.952 -2.09671 -4.06603)
(194.018 -2.62764 -3.11847)
(201.496 1.90636 1.86987)
(202.069 1.54185 0.841946)
(202.291 1.14725 -0.231747)
(202.189 0.772293 -1.31392)
(201.731 0.404987 -2.39861)
(200.88 0.0408399 -3.45748)
(199.545 -0.345356 -4.39852)
(197.675 -0.774925 -5.09974)
(195.126 -1.31976 -5.10523)
(192.504 -1.94553 -4.031)
(201.938 1.19703 2.50635)
(202.573 0.711179 1.37476)
(202.824 0.232327 0.155112)
(202.735 -0.195237 -1.06964)
(202.261 -0.59162 -2.32909)
(201.356 -0.959183 -3.60161)
(199.881 -1.32153 -4.80833)
(197.739 -1.70667 -5.82713)
(194.631 -2.22159 -6.09918)
(191.266 -2.86443 -5.07336)
(202.11 2.26001 2.08448)
(202.774 1.74823 0.943351)
(203.036 1.26784 -0.233656)
(202.939 0.854213 -1.4432)
(202.442 0.497952 -2.69428)
(201.488 0.188693 -3.99746)
(199.91 -0.101927 -5.27594)
(197.561 -0.417541 -6.45325)
(193.978 -0.85773 -6.88309)
(189.879 -1.53901 -5.92325)
(202.378 0.926475 2.77509)
(203.058 0.293525 1.60954)
(203.331 -0.262257 0.345875)
(203.243 -0.711119 -0.935464)
(202.746 -1.07361 -2.29245)
(201.78 -1.34935 -3.72567)
(200.146 -1.54591 -5.20096)
(197.646 -1.70583 -6.62894)
(193.704 -1.88947 -7.46367)
(188.79 -2.41852 -6.69999)
(201.74 2.16025 2.04521)
(202.387 1.47794 0.962268)
(202.636 0.967434 -0.165702)
(202.492 0.560771 -1.34763)
(201.924 0.287438 -2.59382)
(200.867 0.134989 -3.93389)
(199.131 0.110311 -5.33119)
(196.475 0.213119 -6.71444)
(192.319 0.38485 -7.61544)
(186.787 0.372418 -6.78101)
(198.758 -0.0984421 0.417745)
(198.895 -0.162663 0.29553)
(198.933 -0.239622 0.107008)
(198.914 -0.310254 -0.0578618)
(198.847 -0.383408 -0.222998)
(198.742 -0.44993 -0.343355)
(198.608 -0.512378 -0.420367)
(198.462 -0.570336 -0.432979)
(198.316 -0.623613 -0.383266)
(198.149 -0.668177 -0.273323)
(199.462 0.530809 0.367202)
(199.61 0.517055 0.0966647)
(199.664 0.457979 -0.176622)
(199.622 0.360926 -0.438021)
(199.488 0.240507 -0.664935)
(199.27 0.10272 -0.835133)
(198.988 -0.0452336 -0.92434)
(198.67 -0.197029 -0.90872)
(198.358 -0.344664 -0.771821)
(198.116 -0.470518 -0.513369)
(199.804 0.205007 1.00199)
(200.038 0.0668388 0.574503)
(200.121 -0.105903 0.0960539)
(200.056 -0.293325 -0.370813)
(199.842 -0.497981 -0.800191)
(199.487 -0.71551 -1.15464)
(199.01 -0.943797 -1.39159)
(198.451 -1.17931 -1.46533)
(197.875 -1.41696 -1.32178)
(197.405 -1.632 -0.946293)
(199.981 1.02654 0.994503)
(200.31 0.893023 0.42439)
(200.431 0.695221 -0.180713)
(200.348 0.47012 -0.776314)
(200.055 0.221941 -1.33178)
(199.556 -0.0449254 -1.80321)
(198.861 -0.33231 -2.13149)
(198.009 -0.639319 -2.24268)
(197.074 -0.967646 -2.02958)
(196.27 -1.28551 -1.42348)
(200.368 0.639253 1.61496)
(200.79 0.401623 0.883224)
(200.949 0.11765 0.0789522)
(200.857 -0.172683 -0.713883)
(200.501 -0.476109 -1.4795)
(199.875 -0.788372 -2.16742)
(198.968 -1.11688 -2.70374)
(197.808 -1.46788 -2.98658)
(196.452 -1.86384 -2.83142)
(195.217 -2.26665 -2.08452)
(200.572 1.57174 1.49509)
(201.071 1.30167 0.664666)
(201.264 0.987325 -0.211074)
(201.168 0.67557 -1.08917)
(200.762 0.361377 -1.949)
(200.029 0.0437842 -2.7488)
(198.93 -0.293932 -3.40235)
(197.471 -0.665914 -3.79554)
(195.657 -1.10988 -3.64695)
(193.921 -1.60324 -2.71219)
(200.976 0.87072 2.12897)
(201.546 0.485793 1.18911)
(201.768 0.0895361 0.160998)
(201.677 -0.274768 -0.865975)
(201.239 -0.619788 -1.90116)
(200.428 -0.945018 -2.90241)
(199.167 -1.2686 -3.78742)
(197.433 -1.61274 -4.421)
(195.148 -2.04647 -4.44742)
(192.849 -2.56744 -3.45685)
(201.127 1.97918 1.7043)
(201.733 1.57222 0.750207)
(201.971 1.17323 -0.24241)
(201.87 0.821039 -1.26112)
(201.4 0.511596 -2.29429)
(200.524 0.238367 -3.32548)
(199.137 -0.0224579 -4.26582)
(197.18 -0.305746 -5.00173)
(194.477 -0.68352 -5.08967)
(191.603 -1.24155 -4.02929)
(201.402 0.634441 2.42781)
(202.032 0.107798 1.43663)
(202.28 -0.367072 0.340269)
(202.184 -0.753102 -0.767073)
(201.705 -1.0663 -1.92176)
(200.799 -1.30412 -3.0946)
(199.335 -1.47729 -4.22891)
(197.207 -1.62389 -5.18391)
(194.167 -1.79825 -5.56501)
(190.666 -2.23192 -4.57248)
(200.79 1.98327 1.66776)
(201.391 1.41181 0.76134)
(201.626 0.983333 -0.198141)
(201.493 0.63961 -1.20544)
(200.962 0.412131 -2.25177)
(199.986 0.290298 -3.33735)
(198.433 0.274594 -4.39687)
(196.157 0.358316 -5.31033)
(192.901 0.468969 -5.69494)
(188.926 0.424353 -4.59111)
(198.459 -0.191709 0.32125)
(198.566 -0.236932 0.25219)
(198.592 -0.291909 0.122469)
(198.581 -0.340073 0.0170087)
(198.542 -0.392312 -0.0945736)
(198.482 -0.440016 -0.174422)
(198.406 -0.48523 -0.229692)
(198.324 -0.526476 -0.245345)
(198.24 -0.562524 -0.226317)
(198.121 -0.589954 -0.173597)
(199.081 0.396388 0.199381)
(199.178 0.409065 0.0190025)
(199.214 0.384482 -0.155835)
(199.188 0.324966 -0.32042)
(199.101 0.244251 -0.458617)
(198.964 0.148003 -0.556207)
(198.789 0.0434885 -0.598992)
(198.597 -0.0627724 -0.574088)
(198.415 -0.163047 -0.47733)
(198.279 -0.244391 -0.311619)
(199.296 -0.0128571 0.785383)
(199.462 -0.111426 0.481326)
(199.522 -0.236371 0.134713)
(199.477 -0.375025 -0.202107)
(199.327 -0.529646 -0.507374)
(199.083 -0.695751 -0.752859)
(198.763 -0.869483 -0.909807)
(198.401 -1.04526 -0.952075)
(198.047 -1.21531 -0.854315)
(197.771 -1.36169 -0.621789)
(199.393 0.772799 0.717031)
(199.643 0.693905 0.299544)
(199.737 0.554624 -0.14595)
(199.674 0.385189 -0.581641)
(199.453 0.191642 -0.978628)
(199.084 -0.0200888 -1.3002)
(198.586 -0.247483 -1.50354)
(198 -0.486125 -1.54014)
(197.394 -0.729829 -1.35772)
(196.901 -0.954973 -0.931531)
(199.684 0.356177 1.29882)
(200.022 0.188037 0.735159)
(200.15 -0.0280576 0.10693)
(200.075 -0.258779 -0.508569)
(199.79 -0.506471 -1.09112)
(199.3 -0.764803 -1.59404)
(198.615 -1.03632 -1.95891)
(197.776 -1.32136 -2.11243)
(196.862 -1.62663 -1.95419)
(196.076 -1.92094 -1.41124)
(199.825 1.26984 1.15763)
(200.241 1.07829 0.505648)
(200.402 0.835693 -0.187874)
(200.317 0.583968 -0.879838)
(199.976 0.323 -1.54232)
(199.374 0.0545778 -2.13056)
(198.507 -0.23019 -2.57194)
(197.408 -0.539061 -2.77555)
(196.142 -0.8866 -2.57468)
(195.002 -1.25713 -1.84127)
(200.181 0.567785 1.7772)
(200.671 0.271764 1.01651)
(200.862 -0.0476459 0.171303)
(200.776 -0.350397 -0.66849)
(200.393 -0.643197 -1.49883)
(199.701 -0.922986 -2.26928)
(198.67 -1.20258 -2.90496)
(197.318 -1.4969 -3.28524)
(195.676 -1.84692 -3.19657)
(194.124 -2.2453 -2.37601)
(200.294 1.71223 1.34255)
(200.826 1.40101 0.56702)
(201.033 1.07969 -0.246123)
(200.936 0.788087 -1.07971)
(200.515 0.526492 -1.90797)
(199.749 0.2916 -2.69976)
(198.585 0.0653074 -3.36779)
(197.018 -0.178012 -3.80025)
(195.032 -0.485266 -3.70293)
(193.052 -0.910279 -2.75642)
(200.568 0.346124 2.09526)
(201.129 -0.0808459 1.27273)
(201.348 -0.477928 0.342406)
(201.253 -0.803515 -0.592746)
(200.815 -1.06948 -1.55271)
(200.007 -1.27146 -2.49083)
(198.754 -1.42122 -3.34284)
(197.017 -1.55005 -3.9624)
(194.741 -1.70144 -4.08197)
(192.304 -2.03011 -3.14711)
(199.968 1.81516 1.29868)
(200.506 1.34963 0.562035)
(200.72 1.00025 -0.231129)
(200.599 0.716979 -1.06537)
(200.123 0.532297 -1.91748)
(199.257 0.437141 -2.76893)
(197.924 0.427804 -3.54124)
(196.053 0.494887 -4.10945)
(193.583 0.562955 -4.17919)
(190.809 0.519256 -3.11539)
(198.231 -0.255762 0.265819)
(198.318 -0.2907 0.22952)
(198.336 -0.333153 0.135452)
(198.331 -0.367284 0.0657863)
(198.309 -0.405608 -0.0140171)
(198.275 -0.440094 -0.0711458)
(198.232 -0.472707 -0.115483)
(198.186 -0.501739 -0.13526)
(198.136 -0.525831 -0.135988)
(198.042 -0.542278 -0.11691)
(198.799 0.320989 0.0781836)
(198.861 0.348831 -0.0403321)
(198.885 0.346738 -0.147131)
(198.869 0.313689 -0.245272)
(198.815 0.262449 -0.324176)
(198.73 0.197998 -0.375346)
(198.624 0.126705 -0.390998)
(198.51 0.0544122 -0.363999)
(198.404 -0.0125293 -0.295277)
(198.325 -0.0645904 -0.185935)
(198.915 -0.167921 0.624883)
(199.028 -0.242168 0.411038)
(199.069 -0.333186 0.16246)
(199.039 -0.434503 -0.078768)
(198.938 -0.548761 -0.295626)
(198.776 -0.672329 -0.468039)
(198.568 -0.800759 -0.577355)
(198.339 -0.928277 -0.60951)
(198.122 -1.04738 -0.552204)
(197.959 -1.14546 -0.417662)
(198.954 0.579894 0.495773)
(199.136 0.537884 0.198378)
(199.206 0.443246 -0.119672)
(199.161 0.319648 -0.428818)
(199.001 0.173428 -0.704655)
(198.739 0.0110595 -0.918886)
(198.393 -0.162954 -1.04216)
(197.999 -0.34267 -1.04428)
(197.611 -0.519417 -0.902056)
(197.307 -0.676168 -0.609697)
(199.156 0.129484 1.03348)
(199.415 0.0129143 0.608869)
(199.514 -0.147743 0.129464)
(199.456 -0.326481 -0.33775)
(199.238 -0.523062 -0.7725)
(198.869 -0.730396 -1.13574)
(198.369 -0.947784 -1.38415)
(197.78 -1.17181 -1.46911)
(197.171 -1.40156 -1.33822)
(196.673 -1.6113 -0.963657)
(199.235 1.00979 0.866094)
(199.567 0.879739 0.368442)
(199.697 0.698242 -0.164671)
(199.627 0.500902 -0.69417)
(199.352 0.290603 -1.19043)
(198.879 0.0709453 -1.61233)
(198.219 -0.160851 -1.90291)
(197.416 -0.407938 -1.99705)
(196.547 -0.671502 -1.79856)
(195.804 -0.940618 -1.25423)
(199.543 0.3002 1.46159)
(199.948 0.078526 0.861064)
(200.105 -0.172501 0.183096)
(200.031 -0.417866 -0.487084)
(199.711 -0.659944 -1.13801)
(199.146 -0.893774 -1.71954)
(198.334 -1.12791 -2.16945)
(197.313 -1.3703 -2.39228)
(196.156 -1.64407 -2.26738)
(195.12 -1.93645 -1.63857)
(199.604 1.47064 1.01128)
(200.052 1.24251 0.399022)
(200.228 0.992077 -0.246692)
(200.141 0.757795 -0.908239)
(199.78 0.54303 -1.55197)
(199.139 0.346912 -2.14156)
(198.2 0.157297 -2.59938)
(196.988 -0.0437673 -2.83412)
(195.562 -0.28461 -2.65419)
(194.218 -0.594728 -1.88851)
(199.876 0.071728 1.78964)
(200.358 -0.266174 1.1232)
(200.545 -0.591307 0.350725)
(200.457 -0.860522 -0.42149)
(200.075 -1.08221 -1.20233)
(199.385 -1.25074 -1.93799)
(198.355 -1.37751 -2.56665)
(196.989 -1.48628 -2.95996)
(195.327 -1.60991 -2.94804)
(193.663 -1.84759 -2.17769)
(199.279 1.66538 0.94914)
(199.741 1.29739 0.369844)
(199.929 1.02194 -0.264849)
(199.823 0.795297 -0.933929)
(199.41 0.649797 -1.60482)
(198.672 0.577652 -2.24964)
(197.57 0.572819 -2.78832)
(196.088 0.625872 -3.11457)
(194.265 0.664544 -3.01085)
(192.377 0.633198 -2.10689)
(198.051 -0.304345 0.237532)
(198.125 -0.333722 0.220978)
(198.139 -0.369417 0.147712)
(198.137 -0.395115 0.0987378)
(198.124 -0.424508 0.0372631)
(198.105 -0.450076 -0.00770287)
(198.081 -0.473879 -0.0468978)
(198.055 -0.494325 -0.0705265)
(198.023 -0.510255 -0.0839944)
(197.944 -0.519595 -0.0851046)
(198.586 0.289465 -0.0112964)
(198.625 0.326156 -0.0878588)
(198.641 0.338437 -0.148377)
(198.631 0.323674 -0.201487)
(198.599 0.2937 -0.240969)
(198.548 0.252641 -0.262013)
(198.485 0.205729 -0.260775)
(198.417 0.15781 -0.23299)
(198.354 0.113698 -0.181747)
(198.308 0.0805829 -0.105151)
(198.624 -0.273073 0.509422)
(198.698 -0.33302 0.359317)
(198.726 -0.400678 0.181123)
(198.706 -0.474477 0.00778115)
(198.64 -0.557655 -0.147816)
(198.536 -0.647568 -0.272119)
(198.404 -0.740126 -0.353222)
(198.262 -0.830292 -0.38406)
(198.131 -0.91192 -0.357704)
(198.034 -0.976431 -0.288264)
(198.629 0.441179 0.323972)
(198.758 0.422607 0.118163)
(198.808 0.360693 -0.101782)
(198.776 0.273374 -0.314217)
(198.666 0.166448 -0.500185)
(198.485 0.0460661 -0.638981)
(198.251 -0.0828653 -0.711384)
(197.992 -0.214276 -0.699089)
(197.745 -0.339756 -0.593726)
(197.558 -0.447552 -0.395089)