/*--------------------------------*- C++ -*----------------------------------*\
  =========                 |
  \\      /  F ield         | OpenFOAM: The Open Source CFD Toolbox
   \\    /   O peration     | Website:  https://openfoam.org
    \\  /    A nd           | Version:  6
     \\/     M anipulation  |
\*---------------------------------------------------------------------------*/
FoamFile
{
    version     2.0;
    format      ascii;
    class       volScalarField;
    location    "400";
    object      epsilon;
}
// * * * * * * * * * * * * * * * * * * * * * * * * * * * * * * * * * * * * * //

dimensions      [0 2 -3 0 0 0 0];

internalField   nonuniform List<scalar> 
3072
(
2.35673
4.39471
4.41322
4.22753
3.71256
3.06785
3.25715
7.01969
27.7739
43.2738
50.5371
55.6498
2.39112
5.07682
5.05407
5.19212
6.21518
13.1278
22.1837
24.1716
31.8581
35.6087
36.72
37.4418
8.71371
7.56721
10.3666
15.327
18.0857
18.5345
21.2753
24.3707
27.9741
29.2217
30.417
31.4227
13.548
11.0618
14.3565
15.872
16.6462
17.9874
21.208
24.0597
26.0485
27.0877
28.1282
28.9912
15.5091
12.7795
14.6579
15.2143
16.2848
18.5539
21.7058
24.1535
25.667
26.5676
27.3884
28.087
16.4239
13.0679
14.3223
15.0783
16.8814
19.7827
22.5802
24.6017
25.8909
26.7135
27.4089
27.9814
16.539
12.5586
13.5855
15.4842
18.2384
21.3703
23.9958
25.8058
26.9406
27.6798
28.2628
28.7585
16.573
12.0857
13.9988
17.3489
21.3406
24.829
27.3669
29.0014
29.9632
30.5199
30.8911
31.1765
17.3323
12.9081
17.3155
23.4095
29.0735
33.0557
35.3954
36.5601
36.9368
36.845
36.5464
36.1849
19.3687
17.0858
28.8763
39.6252
47.0811
50.909
51.9937
51.3884
49.8931
48.0155
46.0958
44.3002
24.0531
34.4642
59.2123
74.7219
80.5048
80.5019
77.46
73.0034
68.1016
63.2694
58.8149
54.8552
111.971
106.841
117.697
120.915
118.086
110.653
102.218
93.658
85.472
77.8574
71.0139
64.9739
58.6679
60.226
60.3509
60.0175
58.5657
55.4417
50.9791
44.7871
37.3174
28.2302
18.6201
23.348
37.9369
38.3372
38.5431
38.861
39.4934
40.6603
43.0239
46.9596
51.9967
57.7619
61.7986
75.5433
32.0904
32.5282
32.8333
33.1563
33.8967
35.4693
38.3805
43.2924
51.1311
63.0454
81.4058
120.413
29.6105
30.0938
30.4917
30.9567
31.7683
33.3439
36.2682
41.4017
50.06
64.7699
92.4725
152.512
28.6177
29.0328
29.3872
29.8244
30.5958
32.0766
34.8536
39.8622
48.7515
64.9613
98.8222
177.949
28.4399
28.8196
29.1681
29.6073
30.3579
31.7749
34.444
39.3146
48.0904
64.7871
102.354
200.901
29.1819
29.5558
29.9203
30.367
31.0749
32.3707
34.8202
39.3982
47.95
64.5415
104.331
221.39
31.4214
31.651
31.8984
32.2382
32.8171
33.9157
36.0687
40.2568
48.3841
64.6942
105.22
246.162
35.836
35.5485
35.3666
35.3746
35.6624
36.4277
38.1726
41.8543
49.4415
65.3575
106.681
275.225
42.7228
41.4079
40.3771
39.6812
39.4584
39.8492
41.0753
44.1245
51.0092
66.3169
108.184
306.118
51.4641
48.666
46.4397
44.7993
43.7935
43.7134
44.4923
46.8424
52.8169
67.293
110.175
344.674
59.8067
55.5646
52.1923
49.6781
47.9941
47.3369
47.7866
49.4644
54.0987
67.1087
110.288
408.692
2.36144
4.4001
4.4142
4.22794
3.71469
3.06915
3.25734
7.01056
27.7565
43.2631
50.529
55.6416
2.39127
5.07892
5.05569
5.19305
6.21403
13.1219
22.1823
24.1681
31.8526
35.6051
36.7166
37.4387
8.71586
7.56852
10.3671
15.3262
18.0873
18.5364
21.272
24.3661
27.9699
29.2178
30.4128
31.419
13.5464
11.0613
14.3579
15.8754
16.6486
17.9847
21.203
24.0553
26.0444
27.0836
28.1241
28.9874
15.5038
12.7783
14.659
15.2154
16.2823
18.5502
21.7009
24.1493
25.6631
26.5636
27.3842
28.0829
16.4157
13.0663
14.3225
15.0766
16.8783
19.7785
22.5763
24.5979
25.8871
26.7095
27.4048
27.9772
16.5329
12.5566
13.5841
15.4821
18.2352
21.367
23.9925
25.8025
26.937
27.6758
28.2586
28.7542
16.5681
12.0843
13.9973
17.347
21.3383
24.8267
27.3644
28.9986
29.9599
30.5162
30.8871
31.1724
17.3291
12.9071
17.315
23.4093
29.0736
33.0556
35.3946
36.5585
36.9345
36.8421
36.5431
36.1814
19.3673
17.0863
28.8786
39.6288
47.0852
50.9127
51.9963
51.3895
49.8929
48.0143
46.0939
44.2979
24.0542
34.4677
59.2184
74.7291
80.5103
80.5073
77.4651
73.0069
68.1036
63.2701
58.8146
54.8542
111.988
106.848
117.701
120.919
118.091
110.658
102.223
93.6619
85.4747
77.8589
71.0146
64.9739
58.6615
60.2204
60.3471
60.0146
58.5654
55.442
50.9812
44.7894
37.3202
28.233
18.623
23.3522
37.934
38.335
38.5417
38.8611
39.4942
40.6621
43.0267
46.9632
52.0013
57.7673
61.8057
75.5537
32.0872
32.5256
32.8316
33.1552
33.8963
35.4697
38.3818
43.2947
51.1345
63.0504
81.4134
120.425
29.6069
30.0906
30.4891
30.9547
31.7669
33.3432
36.2684
41.4029
50.0626
64.7746
92.4805
152.526
28.6138
29.0291
29.384
29.8217
30.5936
32.0751
34.8529
39.8626
48.7534
64.9655
98.8303
177.964
28.4358
28.8157
29.1645
29.6042
30.3553
31.773
34.4429
39.3145
48.0917
64.7908
102.362
200.918
29.1777
29.5517
29.9165
30.3637
31.0722
32.3686
34.8189
39.3979
47.9511
64.5448
104.339
221.409
31.4173
31.6471
31.8948
32.2351
32.8145
33.9138
36.0674
40.2564
48.3851
64.6973
105.228
246.183
35.8326
35.5452
35.3636
35.372
35.6602
36.4261
38.1717
41.8541
49.4425
65.3607
106.689
275.249
42.7204
41.4055
40.375
39.6794
39.4571
39.8482
41.0748
44.1247
51.0105
66.3201
108.192
306.145
51.4628
48.6647
46.4385
44.7984
43.7929
43.7132
44.4924
46.8431
52.8185
67.2963
110.183
344.705
59.8064
55.5642
52.192
49.678
47.9944
47.3375
47.7875
49.4657
54.1005
67.1118
110.295
408.729
2.39951
4.48033
4.4599
4.25336
3.70633
3.06847
3.25991
7.03179
27.7891
43.2832
50.5448
55.658
2.40376
5.02865
5.02369
5.18134
6.20745
13.1258
22.1834
24.1739
31.8626
35.6122
36.7238
37.4459
8.75611
7.56852
10.3704
15.3324
18.0741
18.5284
21.2777
24.3742
27.9777
29.2252
30.4211
31.4269
13.555
11.0701
14.3675
15.878
16.644
17.9881
21.212
24.0633
26.0521
27.0914
28.1322
28.9953
15.5043
12.7817
14.6611
15.2172
16.2865
18.5561
21.7094
24.1567
25.6702
26.5709
27.3921
28.0909
16.4221
13.0694
14.3246
15.08
16.8834
19.7854
22.5827
24.6043
25.8936
26.7167
27.4126
27.9855
16.5382
12.5592
13.5855
15.4852
18.2398
21.372
23.9976
25.8079
26.9433
27.683
28.2667
28.7629
16.5725
12.0853
13.9984
17.3486
21.3406
24.8296
27.3682
29.0036
29.9663
30.5238
30.8957
31.1817
17.3306
12.907
17.3143
23.4082
29.0726
33.0559
35.397
36.5631
36.941
36.8501
36.5522
36.1911
19.3655
17.0839
28.8748
39.6235
47.0799
50.9095
51.9961
51.3925
49.8985
48.0217
46.1025
44.3073
24.0511
34.465
59.2133
74.722
80.5051
80.5035
77.4631
73.008
68.1074
63.2759
58.8218
54.8622
112.003
106.856
117.706
120.918
118.088
110.655
102.221
93.6619
85.4768
77.8628
71.0197
64.9798
58.676
60.2339
60.3584
60.0249
58.5715
55.4472
50.9832
44.7907
37.32
28.2317
18.6208
23.3485
37.9411
38.3414
38.5471
38.8642
39.4963
40.6629
43.0262
46.962
51.9991
57.7645
61.8005
75.5457
32.0946
32.5323
32.8373
33.1601
33.9004
35.4729
38.3842
43.2963
51.1353
63.0503
81.4109
120.419
29.6146
30.098
30.4959
30.9609
31.7725
33.3482
36.2727
41.4064
50.0653
64.7761
92.4807
152.524
28.6219
29.0371
29.3918
29.8291
30.6006
32.0816
34.8588
39.8679
48.7579
64.9687
98.8325
177.965
28.4443
28.8243
29.173
29.6125
30.3631
31.7803
34.4498
39.3209
48.0976
64.7958
102.366
200.923
29.1868
29.561
29.9257
30.3726
31.0808
32.3767
34.8265
39.4051
47.9577
64.551
104.344
221.417
31.427
31.657
31.9046
32.2445
32.8235
33.9223
36.0755
40.2641
48.3924
64.7043
105.234
246.194
35.8426
35.5552
35.3734
35.3815
35.6692
36.4346
38.1798
41.8619
49.4501
65.3681
106.696
275.263
42.73
41.4152
40.3843
39.6884
39.4655
39.8562
41.0825
44.1322
51.0179
66.3276
108.2
306.163
51.4711
48.673
46.4466
44.8061
43.8002
43.7201
44.4991
46.8496
52.8252
67.3035
110.192
344.727
59.8126
55.5704
52.1981
49.6838
47.9999
47.3427
47.7926
49.4709
54.1062
67.1183
110.304
408.76
2.36145
4.40002
4.41414
4.22782
3.71452
3.06913
3.25781
7.01561
27.7668
43.2712
50.5364
55.6495
2.39129
5.07895
5.05579
5.19324
6.21487
13.1256
22.1854
24.1717
31.8574
35.6093
36.7206
37.4425
8.71599
7.56901
10.3683
15.3281
18.089
18.5385
21.2752
24.3695
27.9733
29.2209
30.416
31.4219
13.5468
11.0623
14.3595
15.8773
16.6505
17.9871
21.2058
24.0582
26.0471
27.0863
28.1267
28.9899
15.5044
12.7795
14.6607
15.2172
16.2842
18.5524
21.7035
24.1519
25.6655
26.5659
27.3867
28.0854
16.4164
13.0674
14.3241
15.0782
16.8801
19.7805
22.5785
24.6001
25.8894
26.7118
27.4072
27.9797
16.5334
12.5575
13.5854
15.4836
18.2369
21.3688
23.9945
25.8045
26.9392
27.6782
28.2612
28.7569
16.5685
12.085
13.9986
17.3484
21.34
24.8285
27.3663
29.0006
29.9622
30.5187
30.8898
31.1753
17.3296
12.908
17.3164
23.4112
29.0756
33.0576
35.3967
36.5607
36.9369
36.8448
36.546
36.1845
19.3684
17.0877
28.8812
39.6318
47.088
50.9152
51.9986
51.3918
49.8954
48.017
46.0968
44.301
24.0567
34.4714
59.2236
74.7338
80.5138
80.5099
77.467
73.0087
68.1055
63.2722
58.817
54.8569
112.003
106.858
117.709
120.925
118.095
110.66
102.224
93.663
85.4757
77.8603
71.0162
64.9759
58.669
60.2279
60.3541
60.0214
58.5711
55.4471
50.985
44.7924
37.3219
28.2341
18.6234
23.353
37.9377
38.3385
38.5449
38.8637
39.4965
40.6641
43.0284
46.9647
52.0026
57.7683
61.8068
75.5555
32.0899
32.5281
32.8338
33.1572
33.8981
35.4712
38.383
43.2957
51.1353
63.0511
81.4143
120.427
29.6094
30.093
30.4914
30.9568
31.7688
33.3449
36.2698
41.404
50.0634
64.7751
92.4811
152.528
28.6163
29.0316
29.3865
29.8241
30.5959
32.0771
34.8547
39.8641
48.7545
64.9661
98.8306
177.966
28.4384
28.8184
29.1671
29.6068
30.3578
31.7753
34.4451
39.3165
48.0933
64.7917
102.362
200.921
29.1805
29.5546
29.9195
30.3666
31.075
32.3714
34.8215
39.4003
47.9531
64.5463
104.339
221.413
31.4203
31.6502
31.898
32.2383
32.8176
33.9168
36.0703
40.2592
48.3876
64.6994
105.229
246.187
35.8358
35.5485
35.3669
35.3753
35.6634
36.4293
38.1748
41.8571
49.4454
65.3632
106.69
275.253
42.7236
41.4088
40.3782
39.6827
39.4603
39.8513
41.0779
44.1277
51.0134
66.3226
108.194
306.148
51.4657
48.6677
46.4416
44.8014
43.796
43.7161
44.4953
46.8457
52.821
67.2986
110.185
344.705
59.8087
55.5667
52.1946
49.6807
47.997
47.3399
47.7898
49.4677
54.1023
67.1132
110.296
408.723
154.238
146.564
138.641
130.515
123.238
115.578
107.725
99.8122
91.9387
84.1964
76.9443
70.2848
95.739
97.2657
97.6295
97.227
96.3659
94.6661
92.2923
89.0393
84.5872
79.2201
73.7657
68.3203
67.7516
69.1981
70.199
70.8144
71.2785
71.2474
70.7999
69.8172
68.2426
66.2773
63.7715
60.5919
53.1952
53.7534
54.03
54.0767
54.0667
53.9981
53.8469
53.5674
53.1153
52.4893
51.6901
50.7607
64.4224
59.5913
55.7308
52.845
50.9087
49.9083
50.0921
51.1181
54.173
62.6008
85.4805
168.186
63.2883
59.1699
55.8883
53.4593
51.8174
50.8172
50.7889
51.3072
52.968
57.1131
67.3658
91.4914
57.4656
55.0305
53.0446
51.5252
50.386
49.5438
49.1758
49.2396
50.0852
51.7795
56.4082
64.953
49.9922
49.1682
48.1534
47.0944
46.0842
45.2341
44.7289
44.6725
45.3233
46.2142
48.5604
51.941
154.232
146.56
138.64
130.515
123.24
115.581
107.728
99.8156
91.9415
84.1985
76.9456
70.2857
95.7381
97.2663
97.6314
97.2298
96.3695
94.6702
92.2965
89.0434
84.591
79.2233
73.7684
68.3223
67.7531
69.2005
70.2022
70.8183
71.2832
71.2525
70.8052
69.8226
68.248
66.2823
63.776
60.5956
53.1962
53.7559
54.0334
54.0812
54.0718
54.0036
53.8527
53.5733
53.1212
52.495
51.6955
50.7658
64.423
59.5919
55.7315
52.8459
50.9098
49.9098
50.0936
51.1199
54.175
62.6035
85.4849
168.196
63.2901
59.1716
55.8901
53.4612
51.8193
50.8192
50.7908
51.3092
52.97
57.1153
67.3686
91.4955
57.4691
55.0337
53.0476
51.528
50.3885
49.5461
49.1778
49.2415
50.0871
51.7816
56.4104
64.9557
49.9969
49.1723
48.1568
47.0973
46.0866
45.236
44.7307
44.6742
45.3251
46.216
48.5624
51.943
154.242
146.571
138.648
130.519
123.241
115.58
107.727
99.815
91.9421
84.2002
76.9483
70.2889
95.7423
97.2713
97.6359
97.233
96.3709
94.6702
92.296
89.0426
84.5902
79.2232
73.7689
68.3233
67.7558
69.2036
70.2053
70.821
71.2845
71.253
70.805
69.8219
68.247
66.2812
63.7748
60.5946
53.1983
53.7579
54.0355
54.0828
54.0728
54.004
53.8525
53.5726
53.1201
52.4936
51.694
50.7643
64.4266
59.5955
55.7351
52.8493
50.9131
49.913
50.0969
51.1234
54.1792
62.6087
85.492
168.213
63.2912
59.1728
55.8913
53.4624
51.8207
50.8208
50.7928
51.3116
52.9731
57.1196
67.3746
91.5052
57.4681
55.0329
53.0471
51.5278
50.3888
49.5469
49.1797
49.244
50.0904
51.7859
56.4163
64.9635
49.9955
49.1712
48.1563
47.0976
46.0877
45.2382
44.7343
44.6786
45.3304
46.2223
48.5696
51.9514
154.252
146.574
138.65
130.523
123.246
115.585
107.732
99.8181
91.9433
84.2
76.9472
70.2875
95.7526
97.28
97.6437
97.2412
96.3797
94.6789
92.3043
89.0496
84.5951
79.2267
73.7713
68.325
67.7648
69.2127
70.2144
70.8304
71.2945
71.2631
70.8149
69.8312
68.2557
66.2888
63.7813
60.5996
53.2074
53.7673
54.0449
54.0924
54.0826
54.0139
53.8623
53.582
53.129
52.5017
51.7013
50.7709
64.4251
59.5941
55.7339
52.8482
50.912
49.9115
50.0951
51.121
54.1757
62.6038
85.4846
168.198
63.2927
59.1743
55.8926
53.4634
51.8211
50.8204
50.7916
51.3094
52.9697
57.1146
67.3675
91.4947
57.4727
55.037
53.0503
51.5299
50.3897
49.5466
49.1775
49.241
50.0861
51.7804
56.4088
64.9543
50.0009
49.1752
48.1586
47.0982
46.0867
45.2354
44.7298
44.6733
45.3241
46.215
48.5614
51.943
43.8261
43.5418
43.2136
42.8935
42.6995
42.5747
42.4992
42.4653
42.4835
42.546
42.6462
42.7511
36.5619
36.1875
35.8703
35.6437
35.5423
35.5281
35.6053
35.7961
36.1097
36.4736
36.7689
36.8403
31.1334
30.9644
30.8538
30.8009
30.7864
30.7974
30.8821
31.0954
31.5525
32.1887
32.88
33.3922
26.9696
27.0501
27.1492
27.2241
27.2289
27.123
27.0128
27.0293
27.3483
28.1679
30.0509
33.5803
42.7203
41.0534
39.481
38.6779
38.2487
38.3026
38.8633
39.7756
40.9687
42.178
43.4756
44.212
36.447
33.2837
31.3584
30.885
31.1131
31.9337
33.1776
34.5959
35.8545
36.7881
37.4302
37.3448
33.4626
27.3963
25.0841
24.7905
25.4047
26.6171
28.1557
29.6551
30.8037
31.5514
31.92
31.6902
36.9146
23.3025
20.2773
19.985
20.789
22.1311
23.708
25.1408
26.1932
26.8664
27.2001
27.1486
43.8293
43.5459
43.2186
42.899
42.7051
42.5804
42.5049
42.4709
42.4889
42.5511
42.651
42.7554
36.566
36.1923
35.8755
35.6491
35.5476
35.5332
35.6102
35.8007
36.1141
36.4778
36.7727
36.8438
31.1378
30.9691
30.8587
30.8057
30.7909
30.8016
30.8859
31.0989
31.5556
32.1917
32.883
33.3954
26.974
27.0543
27.1534
27.2282
27.2326
27.1262
27.0155
27.0317
27.3502
28.1697
30.0528
33.5833
42.7239
41.0563
39.4834
38.6799
38.2504
38.3042
38.8647
39.777
40.97
42.1794
43.4769
44.2134
36.4501
33.2862
31.3604
30.8867
31.1146
31.935
33.1788
34.5969
35.8554
36.789
37.4311
37.3456
33.4659
27.3986
25.086
24.7921
25.4061
26.6183
28.1566
29.6558
30.8043
31.5519
31.9205
31.6907
36.9191
23.3048
20.2791
19.9865
20.7902
22.1322
23.7088
25.1413
26.1936
26.8667
27.2004
27.149
43.8305
43.5471
43.2194
42.8993
42.7051
42.58
42.5042
42.4701
42.4881
42.5505
42.6507
42.7559
36.5668
36.1929
35.8759
35.6492
35.5475
35.5332
35.6102
35.801
36.115
36.4795
36.7756
36.8478
31.1383
30.9696
30.8591
30.8061
30.7915
30.8025
30.8872
31.1006
31.5591
32.1967
32.8898
33.4033
26.9745
27.0549
27.1542
27.2293
27.2341
27.1284
27.0185
27.0355
27.3559
28.1772
30.0625
33.5958
42.7257
41.0587
39.4866
38.6843
38.2558
38.3103
38.8717
39.7845
40.9781
42.1879
43.4861
44.2227
36.4559
33.2918
31.3666
30.8937
31.1223
31.9433
33.1875
34.606
35.8647
36.7984
37.4405
37.3548
33.4752
27.4065
25.0938
24.8002
25.4146
26.6272
28.1658
29.6651
30.8135
31.5611
31.9295
31.699
36.9347
23.3142
20.2873
19.9947
20.7987
22.1409
23.7177
25.1502
26.2022
26.8752
27.2084
27.1562
43.8399
43.5564
43.2285
42.9083
42.7137
42.5882
42.5117
42.4766
42.4938
42.555
42.6539
42.7574
36.5756
36.2013
35.8838
35.6565
35.5541
35.5388
35.6149
35.8044
36.1166
36.4793
36.7733
36.8435
31.146
30.9766
30.8654
30.8115
30.7958
30.8056
30.889
31.1011
31.5563
32.1913
32.8818
33.3936
26.9807
27.0604
27.1588
27.2328
27.2363
27.1289
27.0172
27.0325
27.3495
28.1681
30.0506
33.5805
42.7244
41.0563
39.4829
38.6792
38.2496
38.3034
38.8641
39.7766
40.9699
42.1795
43.4776
44.2143
36.4487
33.2849
31.3593
30.8858
31.1139
31.9347
33.1789
34.5975
35.8564
36.7903
37.4329
37.3475
33.4634
27.3968
25.0847
24.7911
25.4056
26.6183
28.1572
29.657
30.806
31.5539
31.923
31.6932
36.9152
23.3028
20.2778
19.9856
20.7899
22.1324
23.7096
25.1429
26.1956
26.8691
27.2033
27.1518
23.572
23.8632
24.1193
24.2623
24.1931
23.8327
23.2892
22.6604
22.0356
21.4789
21.3824
24.4628
20.6246
21.0636
21.4124
21.5679
21.3587
20.6639
19.5269
17.9415
15.7805
12.63
7.43078
3.0154
17.9543
18.4853
18.8735
19.0088
18.6533
17.6551
15.9958
13.6401
10.5105
6.59351
2.85745
1.76291
15.4883
16.0625
16.4628
16.5703
16.1158
14.9387
13.0011
10.3416
7.12656
3.90234
1.85551
1.65453
13.2183
13.7997
14.1977
14.2861
13.8032
12.5993
10.6484
8.09065
5.28687
2.92611
1.63267
1.62204
11.1665
11.7294
12.1175
12.2009
11.7521
10.6474
8.87173
6.63226
4.34944
2.59633
1.61123
1.55852
9.36584
9.89295
10.2661
10.355
9.97876
9.05382
7.54638
5.68787
3.86817
2.50967
1.66333
1.4162
7.85267
8.33502
8.6894
8.78617
8.50033
7.78512
6.56552
5.06681
3.61713
2.50985
1.72875
1.22574
6.67549
7.11313
7.44723
7.55637
7.35799
6.83104
5.87536
4.681
3.51179
2.56325
1.76883
0.988084
5.93918
6.34805
6.67427
6.80041
6.67511
6.27914
5.52359
4.56035
3.55654
2.67497
1.77964
0.726104
6.08279
6.52441
6.89212
7.05483
6.9686
6.58851
5.92234
5.05767
4.03542
2.99538
1.75384
0.488328
11.293
12.2523
13.1118
13.5087
13.3264
12.5743
11.3008
9.49181
7.1507
4.49865
2.01219
0.279621
59.0928
19.8652
16.3065
16.0987
16.9773
18.3061
19.796
21.1281
22.1244
22.7926
23.2082
23.4037
34.8067
15.0994
12.8725
12.9043
13.7973
15.0429
16.3956
17.6169
18.5693
19.2713
19.7876
20.2022
24.227
11.4524
10.0773
10.2911
11.148
12.2767
13.4776
14.5821
15.4819
16.2028
16.8108
17.3803
17.5792
8.75864
7.87018
8.16798
8.95786
9.95574
11.0063
11.9882
12.8258
13.5397
14.1917
14.8395
12.9192
6.75635
6.14366
6.46016
7.1659
8.03204
8.93937
9.79911
10.5631
11.2436
11.8906
12.552
9.45593
5.24079
4.798
5.0987
5.71741
6.45986
7.23435
7.97887
8.65962
9.28501
9.89485
10.5262
6.86838
4.09335
3.7485
4.02123
4.56357
5.19728
5.85333
6.49196
7.08874
7.64865
8.20257
8.77877
4.9436
3.19519
2.92796
3.17466
3.66276
4.20875
4.76498
5.31131
5.83129
6.32602
6.8184
7.33032
3.44902
2.4362
2.27713
2.52348
2.98623
3.47118
3.95099
4.4242
4.8828
5.32308
5.76084
6.21333
2.25899
1.76399
1.76173
2.06903
2.55234
3.01498
3.44922
3.87435
4.29186
4.69576
5.10153
5.51622
1.30462
1.16147
1.43233
1.90908
2.47106
2.96576
3.41445
3.85911
4.31005
4.74762
5.18862
5.63226
1.67127
0.361286
2.32717
3.36991
4.25645
5.03479
5.81228
6.68599
7.64226
8.57509
9.4732
10.3689
23.5757
23.8668
24.1229
24.2657
24.1961
23.8352
23.2912
22.6618
22.0366
21.4798
21.3839
24.4671
20.6278
21.0667
21.4155
21.5708
21.3611
20.6658
19.5284
17.9426
15.7812
12.6308
7.4321
3.01663
17.957
18.4879
18.8762
19.0113
18.6554
17.6568
15.9971
13.6411
10.5114
6.59453
2.85843
1.76378
15.4908
16.0649
16.4651
16.5724
16.1177
14.9402
13.0024
10.3427
7.1276
3.90334
1.85626
1.65536
13.2205
13.8018
14.1999
14.2881
13.8049
12.6007
10.6497
8.0918
5.28796
2.92702
1.63332
1.62283
11.1687
11.7314
12.1195
12.2027
11.7538
10.6489
8.87305
6.63346
4.35051
2.59717
1.61185
1.55927
9.36797
9.89486
10.268
10.3568
9.98039
9.05531
7.54773
5.68908
3.86922
2.51048
1.66392
1.41686
7.85477
8.33689
8.69121
8.78789
8.50196
7.78663
6.56687
5.06802
3.61816
2.51065
1.72933
1.22629
6.67754
7.11497
7.44904
7.55807
7.35963
6.83257
5.87674
4.68222
3.51282
2.56405
1.76941
0.988519
5.94123
6.35
6.67615
6.8022
6.67683
6.28074
5.52504
4.56162
3.5576
2.6758
1.78021
0.726415
6.08477
6.52676
6.89434
7.05693
6.97061
6.59038
5.92405
5.05916
4.03665
2.9963
1.7544
0.488528
11.2979
12.2569
13.1162
13.5129
13.3304
12.5781
11.3042
9.49464
7.15289
4.50005
2.0128
0.279695
59.1013
19.8676
16.3082
16.1002
16.9785
18.3071
19.7967
21.1285
22.1246
22.7928
23.2084
23.4041
34.812
15.1015
12.874
12.9057
13.7984
15.0438
16.3963
17.6173
18.5695
19.2714
19.7877
20.2026
24.2309
11.4542
10.0788
10.2924
11.1491
12.2776
13.4784
14.5825
15.4822
16.203
16.811
17.3807
17.5823
8.76018
7.87152
8.16923
8.95901
9.95677
11.0072
11.9888
12.8263
13.54
14.192
14.84
12.9215
6.75765
6.14488
6.46135
7.16706
8.03312
8.94032
9.79988
10.5637
11.244
11.8911
12.5525
9.45785
5.24187
4.79909
5.09984
5.71857
6.461
7.23541
7.97978
8.66038
9.28563
9.89542
10.5269
6.86973
4.09423
3.74945
4.0223
4.56473
5.19846
5.85448
6.493
7.08965
7.64944
8.20329
8.77953
4.94462
3.19589
2.92879
3.17568
3.66391
4.20995
4.76619
5.31246
5.83233
6.32695
6.81927
7.3312
3.44968
2.43675
2.27786
2.52445
2.98737
3.4724
3.95224
4.42544
4.88396
5.32415
5.76183
6.21432
2.25946
1.76442
1.76237
2.07
2.55351
3.01625
3.45054
3.87569
4.29314
4.69697
5.10267
5.51736
1.3049
1.16178
1.433
1.91014
2.47238
2.96718
3.41593
3.86066
4.31158
4.74908
5.19001
5.63365
1.67167
0.361372
2.32856
3.37188
4.25873
5.03722
5.81489
6.68883
7.64514
8.57784
9.47588
10.3715
23.5763
23.8677
24.1241
24.2674
24.1985
23.8384
23.2953
22.667
22.0433
21.4878
21.3926
24.4756
20.6285
21.0679
21.4171
21.5729
21.3642
20.6697
19.533
17.9479
15.7869
12.636
7.43494
3.01725
17.9578
18.4893
18.878
19.0138
18.6587
17.6608
16.0016
13.6457
10.5154
6.59708
2.85922
1.76407
15.4916
16.0663
16.4671
16.575
16.121
14.9441
13.0064
10.3463
7.13021
3.90457
1.85667
1.65563
13.2214
13.8032
14.2017
14.2906
13.808
12.6042
10.6531
8.09459
5.28972
2.9278
1.63366
1.62311
11.1696
11.7328
12.1212
12.205
11.7566
10.6519
8.87587
6.63564
4.35182
2.59781
1.61218
1.55956
9.36892
9.89611
10.2696
10.3588
9.98282
9.05785
7.55007
5.69085
3.87028
2.51107
1.66427
1.41714
7.85576
8.33806
8.69268
8.78968
8.50402
7.78876
6.56884
5.0695
3.61909
2.51122
1.72972
1.22655
6.6786
7.1161
7.45042
7.55964
7.3614
6.83438
5.87842
4.68352
3.51367
2.56465
1.76982
0.988742
5.94239
6.35116
6.67746
6.80364
6.67841
6.28235
5.52654
4.56282
3.55845
2.67643
1.78063
0.726587
6.08614
6.52808
6.89575
7.05844
6.97226
6.59202
5.92557
5.06041
4.03761
2.99703
1.75483
0.488665
11.3002
12.2593
13.1186
13.5158
13.3335
12.5812
11.3071
9.49711
7.15481
4.50124
2.01333
0.279756
59.1312
19.8774
16.3161
16.1079
16.9864
18.3152
19.805
21.1366
22.1325
22.8003
23.2153
23.41
34.8328
15.1099
12.8811
12.9126
13.8055
15.0511
16.4037
17.6245
18.5764
19.278
19.7935
20.2074
24.2466
11.4612
10.0847
10.2983
11.1553
12.2839
13.4848
14.5888
15.4882
16.2085
16.8159
17.3846
17.5942
8.76589
7.8765
8.17421
8.96417
9.9621
11.0126
11.9941
12.8313
13.5446
14.196
14.8431
12.9306
6.76227
6.14896
6.46545
7.17133
8.03755
8.9448
9.80429
10.5679
11.2478
11.8943
12.5551
9.4646
5.24561
4.80239
5.10317
5.72205
6.46462
7.23907
7.98338
8.6638
9.28874
9.89806
10.5289
6.87478
4.09726
3.75211
4.02497
4.56752
5.20138
5.85744
6.49591
7.09242
7.65196
8.20542
8.78112
4.94831
3.19833
2.93091
3.17778
3.66614
4.21231
4.76858
5.31481
5.83457
6.32899
6.82099
7.33246
3.4523
2.43865
2.27951
2.5261
2.98915
3.47433
3.9542
4.42737
4.88579
5.32582
5.76324
6.21535
2.26116
1.76578
1.76364
2.0713
2.55499
3.01791
3.45226
3.87737
4.29473
4.69842
5.10391
5.51825
1.30585
1.16263
1.43399
1.9113
2.47378
2.96885
3.4177
3.86238
4.3132
4.75057
5.19129
5.63458
1.67303
0.361544
2.3301
3.374
4.26147
5.04043
5.81828
6.69206
7.64827
8.58085
9.47852
10.3736
23.5812
23.8716
24.1271
24.2692
24.1987
23.8369
23.2919
22.6617
22.0354
21.4778
21.3814
24.4644
20.6321
21.0704
21.4187
21.5734
21.3629
20.6668
19.5287
17.9422
15.7802
12.6295
7.43131
3.01664
17.9605
18.4908
18.8786
19.0132
18.6565
17.6573
15.9971
13.6408
10.5108
6.59414
2.8584
1.7639
15.4936
16.067
16.4669
16.5737
16.1183
14.9405
13.0023
10.3425
7.12745
3.90332
1.85631
1.65546
13.2229
13.8035
14.2012
14.289
13.8053
12.6008
10.6496
8.09172
5.28795
2.92707
1.63334
1.62292
11.1707
11.7329
12.1205
12.2033
11.754
10.6489
8.87296
6.63341
4.35052
2.5972
1.61186
1.55931
9.36975
9.89613
10.2688
10.3572
9.98055
9.05529
7.54762
5.68902
3.8692
2.51047
1.6639
1.41688
7.85642
8.33808
8.69199
8.7883
8.50213
7.78661
6.56677
5.06794
3.61812
2.51061
1.72929
1.22629
6.67914
7.11615
7.44984
7.5585
7.35986
6.83261
5.87666
4.68215
3.51276
2.56399
1.76934
0.9885
5.94287
6.35125
6.67702
6.8027
6.67714
6.28086
5.525
4.56158
3.55754
2.67572
1.78013
0.726389
6.08671
6.52825
6.89542
7.0576
6.97102
6.5906
5.92412
5.05916
4.03658
2.9962
1.75431
0.488499
11.3019
12.2602
13.1186
13.5142
13.3313
12.5786
11.3044
9.49472
7.15276
4.49989
2.0127
0.279681
59.0951
19.8657
16.307
16.0993
16.9781
18.3073
19.7975
21.1301
22.1268
22.7954
23.2115
23.4067
34.8086
15.0998
12.8729
12.9048
13.798
15.0438
16.3969
17.6186
18.5715
19.2741
19.7909
20.2042
24.2284
11.4528
10.0776
10.2915
11.1485
12.2774
13.4787
14.5835
15.4838
16.2052
16.8137
17.382
17.5804
8.75898
7.87044
8.16826
8.95824
9.9563
11.0071
11.9893
12.8274
13.5416
14.194
14.8412
12.9201
6.75662
6.14385
6.46034
7.16615
8.03242
8.93994
9.79997
10.5642
11.245
11.8924
12.5536
9.45678
5.24101
4.79814
5.09881
5.71755
6.46009
7.23473
7.97947
8.66049
9.28611
9.89618
10.5275
6.86897
4.09355
3.74859
4.02128
4.56363
5.19739
5.85355
6.49236
7.08936
7.64948
8.20359
8.77974
4.94411
3.19539
2.92804
3.17469
3.66276
4.20877
4.76507
5.31155
5.83172
6.32663
6.81917
7.33104
3.44938
2.4364
2.27721
2.52349
2.98619
3.47113
3.95098
4.42431
4.88308
5.32354
5.76141
6.21383
2.25932
1.7642
1.76182
2.06901
2.55227
3.01488
3.44914
3.87437
4.29204
4.69613
5.10201
5.51661
1.30487
1.16166
1.43242
1.90905
2.47097
2.96562
3.4143
3.85906
4.31018
4.74799
5.18912
5.63249
1.67162
0.361325
2.32732
3.36989
4.25628
5.03455
5.81207
6.68596
7.64259
8.57586
9.4742
10.369
)
;

boundaryField
{
    rotor
    {
        Cmu             0.09;
        kappa           0.41;
        E               9.8;
        type            epsilonWallFunction;
        value           nonuniform List<scalar> 
192
(
2.35673
4.39471
4.41322
4.22753
3.71256
3.06785
3.25715
7.01969
27.7739
43.2738
50.5371
55.6498
58.6679
60.226
60.3509
60.0175
58.5657
55.4417
50.9791
44.7871
37.3174
28.2302
18.6201
23.348
2.36144
4.4001
4.4142
4.22794
3.71469
3.06915
3.25734
7.01056
27.7565
43.2631
50.529
55.6416
58.6615
60.2204
60.3471
60.0146
58.5654
55.442
50.9812
44.7894
37.3202
28.233
18.623
23.3522
2.39951
4.48033
4.4599
4.25336
3.70633
3.06847
3.25991
7.03179
27.7891
43.2832
50.5448
55.658
58.676
60.2339
60.3584
60.0249
58.5715
55.4472
50.9832
44.7907
37.32
28.2317
18.6208
23.3485
2.36145
4.40002
4.41414
4.22782
3.71452
3.06913
3.25781
7.01561
27.7668
43.2712
50.5364
55.6495
58.669
60.2279
60.3541
60.0214
58.5711
55.4471
50.985
44.7924
37.3219
28.2341
18.6234
23.353
2.35673
2.39112
8.71371
13.548
15.5091
16.4239
16.539
16.573
17.3323
19.3687
24.0531
111.971
23.353
75.5555
120.427
152.528
177.966
200.921
221.413
246.187
275.253
306.148
344.705
408.723
2.36144
2.39127
8.71586
13.5464
15.5038
16.4157
16.5329
16.5681
17.3291
19.3673
24.0542
111.988
23.348
75.5433
120.413
152.512
177.949
200.901
221.39
246.162
275.225
306.118
344.674
408.692
2.39951
2.40376
8.75611
13.555
15.5043
16.4221
16.5382
16.5725
17.3306
19.3655
24.0511
112.003
23.3522
75.5537
120.425
152.526
177.964
200.918
221.409
246.183
275.249
306.145
344.705
408.729
2.36145
2.39129
8.71599
13.5468
15.5044
16.4164
16.5334
16.5685
17.3296
19.3684
24.0567
112.003
23.3485
75.5457
120.419
152.524
177.965
200.923
221.417
246.194
275.263
306.163
344.727
408.76
)
;
    }
    stator
    {
        Cmu             0.09;
        kappa           0.41;
        E               9.8;
        type            epsilonWallFunction;
        value           nonuniform List<scalar> 
192
(
11.293
12.2523
13.1118
13.5087
13.3264
12.5743
11.3008
9.49181
7.1507
4.49865
2.01219
0.279621
1.67127
0.361286
2.32717
3.36991
4.25645
5.03479
5.81228
6.68599
7.64226
8.57509
9.4732
10.3689
11.2979
12.2569
13.1162
13.5129
13.3304
12.5781
11.3042
9.49464
7.15289
4.50005
2.0128
0.279695
1.67167
0.361372
2.32856
3.37188
4.25873
5.03722
5.81489
6.68883
7.64514
8.57784
9.47588
10.3715
11.3002
12.2593
13.1186
13.5158
13.3335
12.5812
11.3071
9.49711
7.15481
4.50124
2.01333
0.279756
1.67303
0.361544
2.3301
3.374
4.26147
5.04043
5.81828
6.69206
7.64827
8.58085
9.47852
10.3736
11.3019
12.2602
13.1186
13.5142
13.3313
12.5786
11.3044
9.49472
7.15276
4.49989
2.0127
0.279681
1.67162
0.361325
2.32732
3.36989
4.25628
5.03455
5.81207
6.68596
7.64259
8.57586
9.4742
10.369
59.0928
34.8067
24.227
17.5792
12.9192
9.45593
6.86838
4.9436
3.44902
2.25899
1.30462
1.67127
24.4628
3.0154
1.76291
1.65453
1.62204
1.55852
1.4162
1.22574
0.988084
0.726104
0.488328
0.279621
59.1013
34.812
24.2309
17.5823
12.9215
9.45785
6.86973
4.94462
3.44968
2.25946
1.3049
1.67167
24.4671
3.01663
1.76378
1.65536
1.62283
1.55927
1.41686
1.22629
0.988519
0.726415
0.488528
0.279695
59.1312
34.8328
24.2466
17.5942
12.9306
9.4646
6.87478
4.94831
3.4523
2.26116
1.30585
1.67303
24.4756
3.01725
1.76407
1.65563
1.62311
1.55956
1.41714
1.22655
0.988742
0.726587
0.488665
0.279756
59.0951
34.8086
24.2284
17.5804
12.9201
9.45678
6.86897
4.94411
3.44938
2.25932
1.30487
1.67162
24.4644
3.01664
1.7639
1.65546
1.62292
1.55931
1.41688
1.22629
0.9885
0.726389
0.488499
0.279681
)
;
    }
    front
    {
        type            empty;
    }
    back
    {
        type            empty;
    }
}


// ************************************************************************* //
