/*--------------------------------*- C++ -*----------------------------------*\
  =========                 |
  \\      /  F ield         | OpenFOAM: The Open Source CFD Toolbox
   \\    /   O peration     | Website:  https://openfoam.org
    \\  /    A nd           | Version:  6
     \\/     M anipulation  |
\*---------------------------------------------------------------------------*/
FoamFile
{
    version     2.0;
    format      ascii;
    class       volScalarField;
    location    "400";
    object      k;
}
// * * * * * * * * * * * * * * * * * * * * * * * * * * * * * * * * * * * * * //

dimensions      [0 2 -2 0 0 0 0];

internalField   nonuniform List<scalar> 
3072
(
0.0579479
0.0585749
0.0584141
0.056642
0.0517455
0.0456315
0.0474531
0.0787989
0.197667
0.266067
0.29516
0.31476
0.0726692
0.110122
0.112917
0.107379
0.0897069
0.108478
0.182408
0.209316
0.288463
0.360103
0.429733
0.49708
0.0704836
0.131065
0.175559
0.201858
0.204545
0.201432
0.257847
0.335332
0.431499
0.516697
0.594117
0.659532
0.100283
0.194882
0.224353
0.225629
0.229143
0.272291
0.365209
0.460431
0.550888
0.628522
0.696601
0.753146
0.115968
0.227638
0.250359
0.251757
0.286368
0.369002
0.466456
0.558626
0.63991
0.708621
0.768079
0.8179
0.126837
0.250856
0.281308
0.302566
0.365346
0.457036
0.551063
0.635812
0.708042
0.768859
0.821266
0.865715
0.133688
0.266061
0.310399
0.363192
0.447759
0.54291
0.632108
0.709409
0.773909
0.827521
0.873158
0.911996
0.139998
0.285883
0.35828
0.450968
0.556181
0.654009
0.737105
0.8049
0.859209
0.902898
0.939154
0.969738
0.150431
0.323691
0.456314
0.596452
0.722204
0.820584
0.893266
0.945954
0.983965
1.01151
1.03276
1.04988
0.168515
0.39894
0.6398
0.833605
0.972506
1.06199
1.11487
1.14361
1.15704
1.16008
1.15924
1.15637
0.20206
0.549596
0.942391
1.18082
1.30628
1.36558
1.38473
1.38009
1.36081
1.33441
1.30616
1.27863
0.583481
0.951412
1.36597
1.55566
1.62423
1.63555
1.62097
1.58459
1.5385
1.48746
1.43615
1.38701
0.32609
0.331878
0.332405
0.331147
0.325824
0.314144
0.297087
0.272523
0.241343
0.200372
0.151835
0.117953
0.557441
0.604911
0.636221
0.648115
0.644277
0.633325
0.616434
0.590071
0.543748
0.447356
0.328213
0.277887
0.710843
0.745936
0.764903
0.770646
0.768581
0.76265
0.754198
0.740483
0.712281
0.6465
0.489843
0.405352
0.797082
0.829092
0.849832
0.861503
0.867391
0.871027
0.874992
0.877976
0.872711
0.837072
0.698854
0.504155
0.857516
0.887622
0.909043
0.923758
0.934907
0.946195
0.960928
0.979663
0.992523
0.981533
0.875936
0.590686
0.902125
0.93108
0.953476
0.971205
0.987386
1.00607
1.03127
1.06463
1.10098
1.11706
1.05728
0.674142
0.94452
0.971387
0.993564
1.0129
1.03251
1.05676
1.09058
1.13712
1.19288
1.23541
1.21682
0.754316
0.995644
1.01772
1.037
1.05522
1.07539
1.10218
1.14167
1.19925
1.27393
1.34259
1.35524
0.846376
1.06433
1.07723
1.08965
1.1031
1.12022
1.14572
1.18682
1.25207
1.34482
1.44143
1.47394
0.950554
1.15344
1.15206
1.1533
1.15836
1.16903
1.18955
1.2277
1.29576
1.40407
1.53361
1.60277
1.06124
1.25413
1.23449
1.22083
1.21554
1.2204
1.23438
1.26613
1.32995
1.44532
1.6118
1.75017
1.19194
1.34306
1.30722
1.28063
1.26507
1.26555
1.27545
1.30112
1.35632
1.46313
1.65105
1.89338
1.38303
0.0580123
0.0586182
0.0584334
0.0566473
0.0517617
0.0456433
0.0474548
0.0787307
0.197587
0.266025
0.29513
0.31473
0.0726847
0.110152
0.112942
0.107406
0.0897236
0.108462
0.182391
0.20927
0.288372
0.36003
0.429643
0.496992
0.0705023
0.131097
0.175584
0.201897
0.204588
0.201445
0.257737
0.335223
0.431372
0.516575
0.593994
0.659413
0.100282
0.194899
0.224395
0.225685
0.229131
0.272173
0.365063
0.460292
0.550749
0.628383
0.696462
0.753012
0.115952
0.227625
0.25034
0.251708
0.286243
0.368852
0.466306
0.558481
0.639766
0.708476
0.767932
0.817755
0.126806
0.250811
0.281245
0.302461
0.365201
0.456888
0.550918
0.635667
0.707897
0.76871
0.821115
0.865563
0.133659
0.266002
0.310313
0.363066
0.447619
0.542771
0.631968
0.709269
0.773766
0.827374
0.873008
0.911845
0.139971
0.285836
0.358201
0.450865
0.556072
0.653896
0.736987
0.804776
0.859079
0.902763
0.939015
0.969598
0.150413
0.323665
0.456272
0.596408
0.722156
0.820527
0.893196
0.94587
0.983869
1.0114
1.03264
1.04976
0.168507
0.398947
0.639818
0.833634
0.972534
1.06201
1.11487
1.14359
1.157
1.16002
1.15917
1.15629
0.202065
0.549636
0.94246
1.1809
1.30637
1.36566
1.38479
1.38013
1.36083
1.33441
1.30613
1.2786
0.583541
0.951496
1.36605
1.55576
1.62433
1.63565
1.62107
1.58467
1.53856
1.4875
1.43617
1.38702
0.326067
0.331858
0.332393
0.331138
0.325824
0.314146
0.297096
0.272533
0.241356
0.200385
0.151851
0.117968
0.55736
0.604838
0.636166
0.648077
0.644249
0.633309
0.61643
0.590078
0.543763
0.447374
0.328237
0.277914
0.710732
0.745836
0.764818
0.770581
0.768533
0.762615
0.75418
0.740481
0.71229
0.64652
0.489868
0.40538
0.796955
0.828974
0.849728
0.861415
0.86732
0.870972
0.874954
0.87796
0.872712
0.83709
0.698882
0.504186
0.857375
0.88749
0.908922
0.923651
0.934817
0.946124
0.960878
0.979636
0.992516
0.98155
0.875971
0.590721
0.901977
0.930939
0.953344
0.971087
0.987284
1.00599
1.03121
1.0646
1.10097
1.11708
1.05732
0.674181
0.944371
0.971244
0.99343
1.01278
1.0324
1.05667
1.09052
1.13708
1.19287
1.23543
1.21687
0.75436
0.995505
1.01759
1.03687
1.0551
1.07529
1.1021
1.14161
1.19921
1.27392
1.34261
1.35529
0.846425
1.06421
1.07712
1.08954
1.10301
1.12014
1.14565
1.18677
1.25204
1.34482
1.44146
1.47401
0.95061
1.15336
1.15198
1.15322
1.15829
1.16896
1.1895
1.22767
1.29574
1.40408
1.53365
1.60284
1.06131
1.25409
1.23445
1.22079
1.2155
1.22037
1.23435
1.26612
1.32996
1.44534
1.61185
1.75026
1.19201
1.34306
1.30722
1.28063
1.26506
1.26555
1.27546
1.30113
1.35634
1.46317
1.65111
1.89348
1.38311
0.0586722
0.0592227
0.0588329
0.0569167
0.0517745
0.0456379
0.047472
0.0788855
0.197744
0.266105
0.29519
0.314791
0.0729833
0.110404
0.113132
0.107581
0.0897292
0.108463
0.182424
0.209354
0.288542
0.360169
0.429817
0.497167
0.0706041
0.131024
0.175536
0.201903
0.204479
0.201405
0.257936
0.335425
0.431607
0.516803
0.594228
0.659642
0.100312
0.194997
0.224427
0.225686
0.229174
0.272384
0.365333
0.460549
0.551007
0.628639
0.696719
0.753264
0.115948
0.227673
0.250417
0.251825
0.286469
0.369126
0.46658
0.558745
0.640027
0.708738
0.768199
0.818023
0.12685
0.2509
0.281371
0.302655
0.365456
0.45715
0.551173
0.635921
0.708153
0.768975
0.821389
0.865843
0.13369
0.26609
0.310451
0.363268
0.447848
0.543003
0.632205
0.709513
0.774021
0.827641
0.873288
0.912134
0.139995
0.285886
0.358307
0.451011
0.55624
0.654082
0.737195
0.805004
0.859327
0.903029
0.939296
0.96989
0.150419
0.323664
0.456307
0.596464
0.722238
0.820644
0.893351
0.946063
0.984094
1.01165
1.03291
1.05004
0.168493
0.398898
0.639789
0.833611
0.972535
1.06205
1.11496
1.14373
1.15718
1.16024
1.15941
1.15655
0.202049
0.549594
0.942418
1.18085
1.30633
1.36565
1.38483
1.38022
1.36096
1.33457
1.30632
1.27881
0.583596
0.951544
1.36608
1.55576
1.62432
1.63565
1.62109
1.58473
1.53865
1.48762
1.43631
1.38717
0.32612
0.331907
0.332433
0.331175
0.325846
0.314165
0.297103
0.272537
0.241355
0.200379
0.151839
0.117956
0.557529
0.604997
0.636301
0.648188
0.644345
0.633386
0.616488
0.590118
0.543785
0.447381
0.328226
0.277894
0.710952
0.746042
0.765005
0.770742
0.768671
0.762735
0.754277
0.740556
0.712346
0.646554
0.489874
0.405367
0.7972
0.829209
0.849948
0.861616
0.867502
0.871133
0.875094
0.878071
0.8728
0.837149
0.698911
0.504182
0.857641
0.887749
0.909172
0.923887
0.935036
0.946323
0.961053
0.979783
0.992637
0.981636
0.876015
0.590723
0.902258
0.931219
0.953618
0.97135
0.987532
1.00621
1.03142
1.06478
1.10112
1.11719
1.05738
0.674192
0.944665
0.971538
0.993719
1.01306
1.03267
1.05693
1.09075
1.13729
1.19304
1.23556
1.21695
0.754377
0.995802
1.01789
1.03717
1.05539
1.07556
1.10236
1.14186
1.19943
1.27412
1.34277
1.35538
0.846451
1.0645
1.07741
1.08983
1.10329
1.12041
1.14592
1.18702
1.25227
1.34503
1.44163
1.47411
0.950643
1.15362
1.15224
1.15349
1.15855
1.16922
1.18975
1.22791
1.29598
1.4043
1.53383
1.60296
1.06135
1.25431
1.23468
1.22102
1.21573
1.2206
1.23457
1.26634
1.33018
1.44556
1.61205
1.75039
1.19206
1.34323
1.30739
1.28081
1.26524
1.26573
1.27564
1.30132
1.35654
1.46339
1.65132
1.89361
1.38318
0.0580124
0.0586173
0.0584327
0.056646
0.0517598
0.0456429
0.0474592
0.0787692
0.197636
0.266058
0.295158
0.31476
0.0726853
0.110153
0.112941
0.107402
0.0897209
0.108481
0.182412
0.209297
0.288424
0.360076
0.429701
0.497052
0.070503
0.131102
0.175594
0.201906
0.204597
0.201463
0.25778
0.335274
0.431434
0.516639
0.594062
0.659482
0.100284
0.194907
0.224407
0.225698
0.229151
0.272212
0.365114
0.46035
0.550813
0.62845
0.696532
0.753082
0.115955
0.227637
0.250358
0.25173
0.286275
0.368894
0.466357
0.558539
0.639827
0.708542
0.768001
0.817826
0.12681
0.250823
0.281262
0.302482
0.365231
0.456928
0.550965
0.635721
0.707957
0.768774
0.821184
0.865635
0.133662
0.26601
0.310325
0.363083
0.447645
0.542806
0.632012
0.70932
0.773823
0.827437
0.873077
0.911918
0.139973
0.285843
0.358213
0.450883
0.556099
0.653931
0.737031
0.804828
0.859138
0.902828
0.939086
0.969674
0.150416
0.323674
0.456292
0.596441
0.722196
0.820573
0.893248
0.945928
0.983934
1.01147
1.03272
1.04984
0.168514
0.398972
0.639864
0.833692
0.972596
1.06207
1.11494
1.14366
1.15707
1.1601
1.15925
1.15638
0.202078
0.549689
0.942539
1.18099
1.30645
1.36574
1.38487
1.3802
1.36091
1.33449
1.30622
1.27869
0.583591
0.951599
1.36617
1.55588
1.62444
1.63576
1.62116
1.58477
1.53865
1.48759
1.43626
1.38711
0.326095
0.331886
0.332418
0.331163
0.325845
0.314165
0.29711
0.272545
0.241363
0.20039
0.151853
0.117971
0.557422
0.604899
0.636222
0.648128
0.644296
0.633351
0.616466
0.590108
0.543789
0.447391
0.328245
0.277918
0.710801
0.745902
0.764881
0.770638
0.768585
0.762663
0.754222
0.740516
0.71232
0.646544
0.48988
0.405384
0.797025
0.829044
0.849795
0.861478
0.867379
0.871026
0.875003
0.878001
0.872746
0.837116
0.698901
0.504192
0.857448
0.887562
0.908993
0.92372
0.934882
0.946185
0.960933
0.979684
0.992557
0.981581
0.875992
0.590726
0.902051
0.931014
0.95342
0.971161
0.987356
1.00605
1.03128
1.06465
1.10102
1.11712
1.05734
0.674188
0.944448
0.971323
0.99351
1.01286
1.03248
1.05675
1.09059
1.13715
1.19293
1.23548
1.2169
0.754368
0.995585
1.01767
1.03695
1.05519
1.07537
1.10218
1.14169
1.19928
1.27399
1.34266
1.35532
0.846435
1.0643
1.07721
1.08963
1.10309
1.12022
1.14574
1.18685
1.25211
1.34489
1.44152
1.47404
0.95062
1.15345
1.15206
1.15331
1.15838
1.16905
1.18959
1.22775
1.29582
1.40415
1.53371
1.60288
1.06131
1.25418
1.23454
1.22088
1.21559
1.22046
1.23444
1.2662
1.33003
1.44541
1.6119
1.75029
1.19201
1.34316
1.30731
1.28072
1.26515
1.26563
1.27554
1.30121
1.35641
1.46322
1.65115
1.89349
1.3831
1.70216
1.69969
1.7151
1.73059
1.73648
1.72787
1.70449
1.6647
1.61568
1.55936
1.50097
1.44303
1.71477
1.67054
1.6514
1.64555
1.64398
1.63788
1.62464
1.60306
1.57049
1.52574
1.47711
1.4259
1.61839
1.58138
1.54935
1.52495
1.5055
1.48896
1.47336
1.45673
1.43719
1.41273
1.38324
1.34928
1.48392
1.45629
1.42264
1.38658
1.35614
1.33008
1.30832
1.29083
1.27743
1.26606
1.25676
1.25068
1.39016
1.34758
1.31623
1.29766
1.29726
1.30604
1.32843
1.37461
1.4603
1.62432
1.90606
1.82695
1.37888
1.34383
1.32007
1.30903
1.31138
1.3215
1.34293
1.38127
1.44361
1.54736
1.77058
1.77401
1.3216
1.30737
1.30069
1.30155
1.30821
1.32118
1.34027
1.36805
1.41184
1.46932
1.60771
1.64435
1.25288
1.26323
1.26847
1.27472
1.28217
1.29268
1.30848
1.32959
1.36254
1.39549
1.47281
1.50215
1.70221
1.69977
1.71518
1.73069
1.73659
1.72799
1.70461
1.66481
1.61577
1.55943
1.50103
1.44307
1.71483
1.67064
1.65151
1.64567
1.64411
1.63802
1.62478
1.6032
1.57061
1.52585
1.4772
1.42598
1.61844
1.5815
1.54948
1.52509
1.50565
1.48912
1.47352
1.45689
1.43734
1.41287
1.38336
1.34939
1.48395
1.45638
1.42279
1.38673
1.3563
1.33024
1.30848
1.29099
1.27758
1.26621
1.2569
1.25081
1.3902
1.34761
1.31626
1.2977
1.2973
1.30608
1.32848
1.37466
1.46036
1.6244
1.90616
1.82705
1.37896
1.3439
1.32013
1.3091
1.31145
1.32157
1.343
1.38134
1.44369
1.54744
1.77068
1.77411
1.3217
1.30747
1.30078
1.30164
1.30831
1.32128
1.34036
1.36814
1.41193
1.46942
1.60781
1.64444
1.253
1.26335
1.26858
1.27482
1.28227
1.29278
1.30858
1.32969
1.36264
1.39559
1.47291
1.50224
1.70233
1.69988
1.71528
1.73075
1.73663
1.72801
1.70463
1.66484
1.61583
1.55951
1.50112
1.44318
1.71493
1.67074
1.65161
1.64575
1.64417
1.63806
1.62482
1.60323
1.57065
1.5259
1.47726
1.42604
1.61854
1.5816
1.54958
1.52517
1.50572
1.48917
1.47356
1.45692
1.43737
1.41289
1.38339
1.34942
1.48404
1.45647
1.42287
1.38681
1.35636
1.33029
1.30852
1.29102
1.2776
1.26622
1.25691
1.25083
1.39031
1.34773
1.31638
1.29783
1.29744
1.30622
1.32863
1.37483
1.46055
1.6246
1.90632
1.82717
1.37902
1.34397
1.32021
1.30919
1.31155
1.32168
1.34312
1.38149
1.44386
1.54763
1.77087
1.77427
1.32173
1.30751
1.30084
1.30171
1.30839
1.32138
1.34048
1.36828
1.41209
1.46961
1.60802
1.64464
1.25303
1.26339
1.26864
1.27491
1.28238
1.29291
1.30873
1.32986
1.36283
1.3958
1.47315
1.50247
1.70237
1.69992
1.71533
1.73084
1.73674
1.72813
1.70474
1.66493
1.61588
1.55954
1.50113
1.44317
1.71507
1.67086
1.65172
1.64588
1.64431
1.6382
1.62496
1.60336
1.57075
1.52598
1.47732
1.42609
1.61873
1.58177
1.54974
1.52533
1.50588
1.48934
1.47373
1.45708
1.43751
1.41302
1.38349
1.34952
1.48426
1.45667
1.42306
1.38699
1.35654
1.33047
1.30869
1.29118
1.27775
1.26635
1.25702
1.25093
1.3903
1.34771
1.31635
1.29778
1.29738
1.30616
1.32854
1.3747
1.46038
1.62441
1.90615
1.82703
1.37906
1.344
1.32023
1.30918
1.31152
1.32163
1.34303
1.38136
1.44369
1.54743
1.77064
1.77406
1.32181
1.30758
1.30086
1.3017
1.30835
1.3213
1.34036
1.36812
1.4119
1.46939
1.60776
1.6444
1.25309
1.26341
1.26861
1.27484
1.28226
1.29276
1.30855
1.32965
1.3626
1.39554
1.47286
1.50221
1.32274
1.28548
1.24804
1.21317
1.18521
1.16314
1.14716
1.13748
1.1343
1.13665
1.14858
1.16976
1.19297
1.15729
1.12348
1.09319
1.06836
1.04856
1.03451
1.02671
1.02517
1.0282
1.03995
1.05989
1.09064
1.06175
1.03398
1.00784
0.983879
0.962144
0.943713
0.929262
0.918456
0.910525
0.908535
0.917346
1.00698
0.986326
0.964719
0.941427
0.915986
0.888541
0.860094
0.831246
0.80141
0.769544
0.739302
0.730577
1.19269
1.20432
1.20248
1.20796
1.21956
1.23803
1.26278
1.29094
1.32149
1.34885
1.37387
1.36408
1.08464
1.09681
1.08947
1.09744
1.11721
1.14598
1.17996
1.2135
1.23998
1.25661
1.26204
1.23645
0.950925
0.977729
0.97223
0.983859
1.01068
1.04661
1.08634
1.12034
1.14324
1.15538
1.15327
1.1265
0.774646
0.850924
0.857584
0.874714
0.906669
0.946605
0.988669
1.02207
1.04363
1.05475
1.0525
1.03218
1.32284
1.28562
1.24821
1.21333
1.18537
1.1633
1.14731
1.13763
1.13444
1.13678
1.1487
1.16988
1.1931
1.15744
1.12365
1.09335
1.06851
1.0487
1.03465
1.02684
1.02529
1.02831
1.04004
1.05999
1.09079
1.0619
1.03413
1.00799
0.984017
0.962269
0.943825
0.929362
0.918544
0.910606
0.90861
0.917423
1.00712
0.986471
0.964864
0.941564
0.916109
0.888649
0.860186
0.831324
0.801475
0.7696
0.739352
0.730627
1.1928
1.20442
1.20259
1.20806
1.21966
1.23813
1.26288
1.29104
1.32158
1.34893
1.37395
1.36415
1.08474
1.09692
1.08958
1.09754
1.11732
1.14608
1.18006
1.21359
1.24007
1.25668
1.26211
1.23652
0.951013
0.977824
0.972333
0.983965
1.01078
1.04671
1.08643
1.12042
1.14332
1.15545
1.15333
1.12656
0.774718
0.851012
0.857684
0.874819
0.906771
0.946702
0.988757
1.02215
1.0437
1.05482
1.05256
1.03223
1.32292
1.28569
1.24827
1.21338
1.18541
1.16333
1.14733
1.13765
1.13445
1.1368
1.14874
1.16994
1.19316
1.1575
1.12369
1.09339
1.06855
1.04873
1.03467
1.02687
1.02533
1.02836
1.04013
1.06011
1.09084
1.06195
1.03418
1.00803
0.984056
0.96231
0.943871
0.929418
0.918614
0.910697
0.908734
0.917581
1.00717
0.986518
0.964911
0.941612
0.916161
0.888706
0.860254
0.831406
0.801573
0.769719
0.739499
0.730797
1.19289
1.20453
1.20272
1.20822
1.21984
1.23833
1.26309
1.29126
1.32181
1.34918
1.3742
1.36439
1.08489
1.09709
1.08978
1.09776
1.11754
1.14632
1.18031
1.21384
1.24032
1.25694
1.26236
1.23675
0.951213
0.978043
0.972569
0.984211
1.01104
1.04697
1.08669
1.12068
1.14358
1.1557
1.15358
1.12677
0.774932
0.851256
0.857937
0.875077
0.907035
0.946969
0.989024
1.02241
1.04395
1.05506
1.05278
1.03243
1.32313
1.28589
1.24845
1.21356
1.18557
1.16348
1.14747
1.13776
1.13455
1.13688
1.14877
1.16992
1.19337
1.15769
1.12387
1.09354
1.06868
1.04885
1.03477
1.02693
1.02535
1.02835
1.04006
1.05998
1.09103
1.06212
1.03432
1.00815
0.984159
0.962385
0.943912
0.92942
0.918575
0.910614
0.908592
0.917386
1.00734
0.986661
0.965028
0.941705
0.916226
0.888739
0.860249
0.831358
0.801484
0.769586
0.739317
0.730586
1.1928
1.20442
1.20256
1.20802
1.21961
1.23808
1.26283
1.29099
1.32155
1.34891
1.37394
1.36416
1.08471
1.09687
1.08952
1.09748
1.11725
1.14602
1.18001
1.21355
1.24005
1.25668
1.26213
1.23654
0.950955
0.977757
0.972256
0.983885
1.01071
1.04665
1.08638
1.12039
1.14331
1.15545
1.15337
1.1266
0.774661
0.850939
0.857601
0.874734
0.906692
0.946635
0.988708
1.02213
1.04369
1.05483
1.0526
1.03228
0.933629
0.921005
0.905019
0.883635
0.85539
0.819918
0.777445
0.727611
0.667391
0.587504
0.458769
0.272735
0.864594
0.859125
0.848156
0.828357
0.797256
0.753507
0.696158
0.623766
0.531794
0.409152
0.223683
0.0691202
0.796364
0.796926
0.790508
0.7725
0.739626
0.689535
0.62042
0.531069
0.419656
0.286368
0.140001
0.0494058
0.727812
0.732941
0.730622
0.714918
0.682061
0.629051
0.553938
0.457279
0.342731
0.223252
0.121368
0.0483862
0.658792
0.667311
0.668374
0.655541
0.624639
0.57249
0.497503
0.402507
0.295872
0.195133
0.118079
0.0487548
0.589802
0.600708
0.604428
0.594771
0.567424
0.519376
0.449331
0.361866
0.267503
0.182331
0.117425
0.0484392
0.52141
0.533826
0.539603
0.533053
0.510259
0.468624
0.406499
0.329383
0.247789
0.174579
0.116067
0.0463417
0.453989
0.467152
0.47437
0.470489
0.45271
0.418729
0.365969
0.299968
0.230168
0.166353
0.111548
0.0428949
0.387191
0.400315
0.408386
0.406719
0.393499
0.367241
0.324794
0.269544
0.210223
0.154238
0.101973
0.0378465
0.318547
0.330868
0.339197
0.339159
0.329704
0.310281
0.278639
0.233899
0.183932
0.135081
0.0853203
0.0313785
0.23883
0.249291
0.256993
0.258023
0.251854
0.237857
0.216785
0.185451
0.144269
0.103333
0.0580049
0.0245121
0.107223
0.113208
0.118434
0.120801
0.119704
0.11515
0.107231
0.0954538
0.0790215
0.0580152
0.0339285
0.0216469
0.491199
0.713208
0.745127
0.771047
0.80678
0.848608
0.891062
0.924197
0.945982
0.958126
0.959434
0.948224
0.353277
0.586652
0.638812
0.673555
0.71195
0.754307
0.796105
0.829257
0.852247
0.866418
0.872217
0.869918
0.283743
0.48475
0.543474
0.583335
0.623114
0.664948
0.70544
0.73853
0.762885
0.779317
0.78945
0.794213
0.234136
0.401796
0.459768
0.501169
0.540981
0.581394
0.620055
0.65265
0.677896
0.696538
0.710133
0.720156
0.194708
0.332879
0.386671
0.42724
0.465869
0.504126
0.540485
0.57203
0.59748
0.617571
0.633783
0.647395
0.161377
0.274014
0.322682
0.361157
0.397722
0.433261
0.466912
0.496852
0.521844
0.542518
0.560211
0.576007
0.132998
0.221923
0.266184
0.302133
0.336138
0.36856
0.399184
0.427032
0.450996
0.471478
0.489613
0.506336
0.108871
0.174684
0.215634
0.249146
0.280342
0.309382
0.336737
0.362109
0.384583
0.404243
0.421976
0.43862
0.0872512
0.131949
0.169682
0.200949
0.229065
0.254492
0.278356
0.300951
0.321557
0.339893
0.356563
0.372344
0.0669562
0.0938067
0.127087
0.155608
0.179863
0.201213
0.221258
0.240792
0.259211
0.275801
0.290794
0.305001
0.0460521
0.0600081
0.0856951
0.108563
0.126772
0.142748
0.158049
0.173833
0.189498
0.203678
0.216012
0.227642
0.0270076
0.0319664
0.0372739
0.0479349
0.0560124
0.0626376
0.0689071
0.0756281
0.0826627
0.0892513
0.095375
0.101293
0.933771
0.92114
0.905152
0.883758
0.8555
0.820012
0.777523
0.727675
0.667442
0.587545
0.458804
0.272763
0.864733
0.859251
0.848277
0.828469
0.797356
0.753593
0.696229
0.623823
0.531841
0.409192
0.223723
0.0691381
0.796496
0.797045
0.790621
0.772604
0.73972
0.689616
0.620488
0.531127
0.419707
0.286415
0.140042
0.049422
0.727939
0.733054
0.730727
0.715016
0.682151
0.62913
0.554007
0.45734
0.342787
0.223303
0.121406
0.0484022
0.658916
0.667419
0.668475
0.655635
0.624725
0.572569
0.497573
0.40257
0.29593
0.195182
0.118115
0.0487705
0.589921
0.600811
0.604524
0.594861
0.567508
0.519454
0.449402
0.361931
0.267561
0.182379
0.117459
0.0484545
0.521524
0.533924
0.539695
0.533139
0.51034
0.4687
0.406569
0.329447
0.247845
0.174625
0.1161
0.046356
0.454095
0.467244
0.474456
0.47057
0.452788
0.418802
0.366037
0.300029
0.230221
0.166396
0.111579
0.0429077
0.387289
0.4004
0.408466
0.406794
0.39357
0.367309
0.324857
0.2696
0.210272
0.154277
0.102001
0.0378575
0.318631
0.330943
0.339268
0.339226
0.329767
0.310341
0.278695
0.233949
0.183974
0.135115
0.0853432
0.0313873
0.238894
0.249351
0.25705
0.258076
0.251905
0.237905
0.21683
0.18549
0.144302
0.103358
0.0580205
0.0245187
0.107253
0.113236
0.118461
0.120826
0.119728
0.115173
0.107252
0.0954726
0.0790374
0.0580271
0.0339353
0.0216526
0.491246
0.71329
0.745223
0.771149
0.806881
0.848703
0.891148
0.924271
0.946045
0.958182
0.959483
0.94827
0.353311
0.586728
0.638905
0.673654
0.712049
0.754401
0.796191
0.82933
0.852309
0.866473
0.872265
0.869962
0.283772
0.484822
0.543562
0.583431
0.623211
0.665041
0.705526
0.738603
0.762947
0.779371
0.789497
0.794257
0.234162
0.401862
0.459852
0.501261
0.541076
0.581487
0.620141
0.652725
0.67796
0.696593
0.710182
0.720201
0.19473
0.33294
0.38675
0.427328
0.465962
0.504218
0.540572
0.572107
0.597546
0.617628
0.633833
0.647441
0.161397
0.274068
0.322756
0.361241
0.397811
0.433351
0.466999
0.496931
0.521913
0.542578
0.560263
0.576055
0.133015
0.221972
0.266251
0.302212
0.336223
0.368646
0.399269
0.427111
0.451067
0.47154
0.489667
0.506386
0.108887
0.174727
0.215694
0.249219
0.28042
0.309463
0.336818
0.362186
0.384654
0.404305
0.422031
0.438672
0.0872638
0.131985
0.169734
0.201014
0.229137
0.254566
0.27843
0.301023
0.321624
0.339954
0.356617
0.372395
0.0669668
0.0938347
0.127132
0.155663
0.179923
0.201276
0.221322
0.240856
0.259272
0.275857
0.290844
0.305048
0.0460599
0.060027
0.0857294
0.108605
0.126817
0.142794
0.158097
0.173883
0.189547
0.203723
0.216053
0.227682
0.0270117
0.031975
0.0372885
0.0479533
0.0560321
0.0626573
0.0689272
0.0756489
0.0826829
0.0892698
0.0953924
0.101309
0.933817
0.921189
0.905205
0.883818
0.855566
0.820087
0.777609
0.727772
0.66755
0.58766
0.458912
0.272831
0.864779
0.859302
0.848336
0.828538
0.797434
0.75368
0.696324
0.623924
0.531941
0.409277
0.223766
0.0691487
0.796542
0.797097
0.790684
0.77268
0.739805
0.68971
0.620586
0.531221
0.419788
0.286468
0.140058
0.0494272
0.727986
0.733106
0.730793
0.715095
0.682239
0.629224
0.554102
0.457424
0.34285
0.223337
0.121419
0.0484074
0.658963
0.667472
0.668539
0.655713
0.624813
0.57266
0.497661
0.402644
0.29598
0.195209
0.118128
0.0487759
0.58997
0.600864
0.604587
0.594936
0.567592
0.51954
0.449482
0.361995
0.267604
0.182404
0.117473
0.0484604
0.521573
0.533976
0.539755
0.533209
0.510418
0.468779
0.406642
0.329504
0.247884
0.174649
0.116115
0.0463619
0.454144
0.467294
0.474514
0.470635
0.452859
0.418873
0.366103
0.300082
0.230257
0.16642
0.111594
0.0429135
0.387337
0.400447
0.40852
0.406852
0.393634
0.367372
0.324915
0.269648
0.210305
0.1543
0.102015
0.0378631
0.318676
0.330986
0.339314
0.339276
0.329822
0.310395
0.278745
0.233991
0.184004
0.135136
0.0853563
0.0313921
0.238932
0.249386
0.257087
0.258116
0.251947
0.237947
0.216869
0.185524
0.144328
0.103376
0.05803
0.0245231
0.107268
0.113251
0.118475
0.120843
0.119747
0.115192
0.107271
0.095489
0.0790513
0.0580371
0.0339411
0.0216571
0.49141
0.713534
0.745475
0.771406
0.807141
0.848964
0.891408
0.924521
0.946285
0.958411
0.959694
0.948451
0.353451
0.586952
0.639142
0.673898
0.712296
0.754649
0.796437
0.829564
0.85253
0.866682
0.872456
0.870123
0.283894
0.485021
0.543778
0.583655
0.62344
0.665271
0.705752
0.738818
0.763149
0.77956
0.789666
0.794397
0.234268
0.402035
0.460044
0.501463
0.541282
0.581694
0.620346
0.652919
0.678142
0.696759
0.710329
0.720321
0.194822
0.333088
0.386917
0.427505
0.466144
0.504401
0.540753
0.572279
0.597707
0.617774
0.633961
0.647542
0.161475
0.274194
0.322898
0.361394
0.397969
0.43351
0.467156
0.49708
0.522053
0.542705
0.560372
0.576141
0.133079
0.222075
0.26637
0.30234
0.336357
0.368783
0.399404
0.427239
0.451186
0.471648
0.489759
0.506457
0.10894
0.174808
0.215791
0.249324
0.280532
0.309578
0.336931
0.362294
0.384753
0.404395
0.422107
0.43873
0.087306
0.132045
0.169809
0.201098
0.229227
0.254661
0.278523
0.301111
0.321705
0.340027
0.356679
0.372441
0.0669984
0.0938763
0.127187
0.155727
0.179994
0.201352
0.221396
0.240925
0.259335
0.275914
0.290893
0.305084
0.0460802
0.0600524
0.0857653
0.108649
0.126868
0.14285
0.158152
0.173933
0.189592
0.203764
0.216087
0.227706
0.0270258
0.0319904
0.0373048
0.0479733
0.056056
0.0626838
0.0689538
0.0756732
0.0827055
0.0892907
0.0954101
0.101323
0.933967
0.921307
0.905293
0.883876
0.855595
0.820083
0.777569
0.727695
0.667442
0.587525
0.458772
0.272744
0.864907
0.859397
0.848396
0.828566
0.797432
0.753648
0.696264
0.623838
0.531842
0.409182
0.223717
0.0691384
0.796651
0.797174
0.790721
0.772683
0.73978
0.68966
0.620516
0.531141
0.419714
0.286418
0.140048
0.0494242
0.728077
0.733166
0.730813
0.71508
0.682198
0.629164
0.55403
0.457354
0.342797
0.223311
0.121413
0.0484042
0.659038
0.667517
0.668548
0.655687
0.624763
0.572595
0.497591
0.402583
0.29594
0.19519
0.11812
0.0487723
0.59003
0.600897
0.604587
0.594904
0.567538
0.519474
0.449415
0.361941
0.26757
0.182385
0.117463
0.0484553
0.521621
0.534001
0.53975
0.533175
0.510364
0.468715
0.406578
0.329454
0.247851
0.174629
0.116103
0.0463565
0.454183
0.467313
0.474504
0.470601
0.452808
0.418814
0.366043
0.300034
0.230225
0.166398
0.11158
0.0429076
0.387367
0.400461
0.408507
0.40682
0.393588
0.367319
0.324861
0.269603
0.210273
0.154277
0.102001
0.037857
0.318699
0.330995
0.339299
0.339245
0.329781
0.31035
0.278698
0.233951
0.183974
0.135114
0.0853426
0.0313865
0.238947
0.249392
0.257075
0.258091
0.251915
0.237911
0.216833
0.185491
0.144301
0.103357
0.0580197
0.0245177
0.107279
0.113257
0.118474
0.120833
0.119733
0.115176
0.107254
0.0954731
0.0790363
0.0580257
0.0339342
0.0216515
0.491211
0.71322
0.74514
0.771062
0.806798
0.848632
0.891095
0.924246
0.946045
0.958201
0.959531
0.948329
0.353288
0.586662
0.638822
0.673566
0.711963
0.754325
0.796132
0.829299
0.852305
0.866489
0.872309
0.870022
0.283752
0.48476
0.543481
0.583342
0.623123
0.664961
0.70546
0.738565
0.762936
0.779382
0.789537
0.794308
0.234146
0.401804
0.459773
0.501173
0.540986
0.581401
0.620068
0.652677
0.677938
0.696598
0.710213
0.720236
0.194716
0.332886
0.386675
0.427241
0.465871
0.504129
0.540492
0.572049
0.597514
0.617625
0.633859
0.647449
0.161386
0.27402
0.322685
0.361157
0.39772
0.43326
0.466915
0.496865
0.521871
0.542564
0.560274
0.576044
0.133006
0.221929
0.266186
0.302131
0.336134
0.368556
0.399184
0.427039
0.451017
0.471515
0.489661
0.506362
0.108879
0.174691
0.215636
0.249144
0.280337
0.309377
0.336734
0.362113
0.384598
0.40427
0.422011
0.438639
0.0872589
0.131956
0.169684
0.200947
0.22906
0.254486
0.278351
0.300952
0.321567
0.339913
0.356588
0.372357
0.0669643
0.093814
0.127089
0.155606
0.179858
0.201207
0.221253
0.240791
0.259218
0.275817
0.290812
0.305008
0.0460595
0.0600148
0.0856972
0.108562
0.126768
0.142743
0.158045
0.173833
0.189504
0.203689
0.216025
0.227644
0.0270116
0.0319702
0.0372755
0.0479348
0.0560111
0.0626356
0.0689055
0.0756281
0.0826653
0.0892569
0.0953818
0.101294
)
;

boundaryField
{
    rotor
    {
        type            kqRWallFunction;
        value           nonuniform List<scalar> 
192
(
0.0579479
0.0585749
0.0584141
0.056642
0.0517455
0.0456315
0.0474531
0.0787989
0.197667
0.266067
0.29516
0.31476
0.32609
0.331878
0.332405
0.331147
0.325824
0.314144
0.297087
0.272523
0.241343
0.200372
0.151835
0.117953
0.0580123
0.0586182
0.0584334
0.0566473
0.0517617
0.0456433
0.0474548
0.0787307
0.197587
0.266025
0.29513
0.31473
0.326067
0.331858
0.332393
0.331138
0.325824
0.314146
0.297096
0.272533
0.241356
0.200385
0.151851
0.117968
0.0586722
0.0592227
0.0588329
0.0569167
0.0517745
0.0456379
0.047472
0.0788855
0.197744
0.266105
0.29519
0.314791
0.32612
0.331907
0.332433
0.331175
0.325846
0.314165
0.297103
0.272537
0.241355
0.200379
0.151839
0.117956
0.0580124
0.0586173
0.0584327
0.056646
0.0517598
0.0456429
0.0474592
0.0787692
0.197636
0.266058
0.295158
0.31476
0.326095
0.331886
0.332418
0.331163
0.325845
0.314165
0.29711
0.272545
0.241363
0.20039
0.151853
0.117971
0.0579479
0.0726692
0.0704836
0.100283
0.115968
0.126837
0.133688
0.139998
0.150431
0.168515
0.20206
0.583481
0.117971
0.277918
0.405384
0.504192
0.590726
0.674188
0.754368
0.846435
0.95062
1.06131
1.19201
1.3831
0.0580123
0.0726847
0.0705023
0.100282
0.115952
0.126806
0.133659
0.139971
0.150413
0.168507
0.202065
0.583541
0.117953
0.277887
0.405352
0.504155
0.590686
0.674142
0.754316
0.846376
0.950554
1.06124
1.19194
1.38303
0.0586722
0.0729833
0.0706041
0.100312
0.115948
0.12685
0.13369
0.139995
0.150419
0.168493
0.202049
0.583596
0.117968
0.277914
0.40538
0.504186
0.590721
0.674181
0.75436
0.846425
0.95061
1.06131
1.19201
1.38311
0.0580124
0.0726853
0.070503
0.100284
0.115955
0.12681
0.133662
0.139973
0.150416
0.168514
0.202078
0.583591
0.117956
0.277894
0.405367
0.504182
0.590723
0.674192
0.754377
0.846451
0.950643
1.06135
1.19206
1.38318
)
;
    }
    stator
    {
        type            kqRWallFunction;
        value           nonuniform List<scalar> 
192
(
0.107223
0.113208
0.118434
0.120801
0.119704
0.11515
0.107231
0.0954538
0.0790215
0.0580152
0.0339285
0.0216469
0.0270076
0.0319664
0.0372739
0.0479349
0.0560124
0.0626376
0.0689071
0.0756281
0.0826627
0.0892513
0.095375
0.101293
0.107253
0.113236
0.118461
0.120826
0.119728
0.115173
0.107252
0.0954726
0.0790374
0.0580271
0.0339353
0.0216526
0.0270117
0.031975
0.0372885
0.0479533
0.0560321
0.0626573
0.0689272
0.0756489
0.0826829
0.0892698
0.0953924
0.101309
0.107268
0.113251
0.118475
0.120843
0.119747
0.115192
0.107271
0.095489
0.0790513
0.0580371
0.0339411
0.0216571
0.0270258
0.0319904
0.0373048
0.0479733
0.056056
0.0626838
0.0689538
0.0756732
0.0827055
0.0892907
0.0954101
0.101323
0.107279
0.113257
0.118474
0.120833
0.119733
0.115176
0.107254
0.0954731
0.0790363
0.0580257
0.0339342
0.0216515
0.0270116
0.0319702