/*--------------------------------*- C++ -*----------------------------------*\
  =========                 |
  \\      /  F ield         | OpenFOAM: The Open Source CFD Toolbox
   \\    /   O peration     | Website:  https://openfoam.org
    \\  /    A nd           | Version:  6
     \\/     M anipulation  |
\*---------------------------------------------------------------------------*/
FoamFile
{
    version     2.0;
    format      ascii;
    class       volScalarField;
    location    "400";
    object      nut;
}
// * * * * * * * * * * * * * * * * * * * * * * * * * * * * * * * * * * * * * //

dimensions      [0 2 -1 0 0 0 0];

internalField   nonuniform List<scalar> 
3072
(
0.000128235
7.02644e-05
6.95861e-05
6.83021e-05
6.49106e-05
6.10854e-05
6.22205e-05
7.96095e-05
0.000126612
0.000147231
0.000155148
0.000160228
0.000198766
0.000214981
0.000227049
0.000199864
0.000116531
8.06738e-05
0.000134988
0.000163134
0.000235073
0.000327747
0.000452623
0.000593934
5.13116e-05
0.000204305
0.000267579
0.000239264
0.000208203
0.000197024
0.000281249
0.000415265
0.000599026
0.000822259
0.00104441
0.00124586
6.68069e-05
0.000309003
0.000315542
0.000288671
0.000283883
0.00037097
0.000566012
0.000793013
0.00104854
0.00131254
0.00155263
0.0017609
7.80428e-05
0.000364937
0.000384855
0.000374933
0.00045322
0.000660487
0.000902171
0.0011628
0.00143584
0.00170106
0.0019386
0.00214357
8.81579e-05
0.000433398
0.000497271
0.000546428
0.000711615
0.000950296
0.00121037
0.00147889
0.00174267
0.00199162
0.00221472
0.00241059
9.72569e-05
0.000507297
0.000638274
0.000766702
0.000989338
0.00124133
0.00149861
0.00175517
0.00200085
0.00222658
0.0024278
0.00260293
0.000106435
0.000608619
0.000825269
0.00105502
0.00130457
0.00155042
0.0017868
0.00201051
0.00221744
0.00240401
0.00256971
0.00271471
0.000117506
0.000730534
0.00108227
0.00136774
0.0016146
0.00183334
0.00202888
0.0022028
0.00235908
0.00249922
0.0026266
0.00274154
0.000131954
0.000838343
0.00127582
0.00157831
0.00180793
0.00199384
0.0021515
0.00229053
0.00241491
0.00252254
0.0026238
0.00271664
0.000152768
0.00078879
0.00134987
0.00167942
0.00190761
0.00208482
0.00222789
0.00234808
0.00244728
0.00253297
0.00261063
0.00268236
0.000273647
0.000762501
0.00142678
0.00180133
0.00201065
0.00217573
0.00231347
0.00241287
0.00249237
0.00255761
0.00261395
0.00266478
0.000163123
0.000164594
0.000164776
0.00016444
0.000163142
0.0001602
0.000155818
0.000149243
0.000140476
0.000127997
0.00011143
5.36308e-05
0.000737189
0.000859022
0.000945175
0.000972823
0.000945941
0.000887819
0.000794886
0.000667308
0.000511755
0.000311822
0.000156883
9.19991e-05
0.00141715
0.00153952
0.00160376
0.00161208
0.00156843
0.00147584
0.00133384
0.00113989
0.000893018
0.000596659
0.000265278
0.00012281
0.00193109
0.00205575
0.00213171
0.00215775
0.00213147
0.00204781
0.00189987
0.00167567
0.00136928
0.000973632
0.000475338
0.000149991
0.00231256
0.00244236
0.00253077
0.00257505
0.00257109
0.00251198
0.00238439
0.00216688
0.00181859
0.00133474
0.000698768
0.000176466
0.00257542
0.00270725
0.00280514
0.00286725
0.00289031
0.0028669
0.00277892
0.00259471
0.00226851
0.00173344
0.00098291
0.000203593
0.00275138
0.00287332
0.0029694
0.0030407
0.00308758
0.00310488
0.00307417
0.0029538
0.00267084
0.00212827
0.00127727
0.000231308
0.00283939
0.00294518
0.00303409
0.00310854
0.00317156
0.00322366
0.00325233
0.0032153
0.00301878
0.00250762
0.00157099
0.000261908
0.00284495
0.00293793
0.0030215
0.00309587
0.00316694
0.00324318
0.00332094
0.00337098
0.00329215
0.00286109
0.0018328
0.000295467
0.00280268
0.00288474
0.00296477
0.00304331
0.0031171
0.00319588
0.00330254
0.00342461
0.00347833
0.00319188
0.00213707
0.000331118
0.00275059
0.00281835
0.00288845
0.0029683
0.00306083
0.00313706
0.00324276
0.00339842
0.00355956
0.00347452
0.0025022
0.000370971
0.00271448
0.00276786
0.00282805
0.00289937
0.00300338
0.00309293
0.00318839
0.00334712
0.00356142
0.00365582
0.00292544
0.000421218
0.000128264
7.02822e-05
6.96166e-05
6.83082e-05
6.49139e-05
6.10912e-05
6.22213e-05
7.95751e-05
0.000126588
0.000147221
0.000155141
0.000160221
0.000198838
0.000215009
0.000227078
0.000199931
0.000116596
8.06865e-05
0.000134971
0.000163086
0.000234965
0.000327647
0.000452475
0.000593774
5.13262e-05
0.00020437
0.000267644
0.00023937
0.000208271
0.00019703
0.000281053
0.000415075
0.000598766
0.000821982
0.00104412
0.00124556
6.68132e-05
0.000309068
0.00031563
0.00028875
0.000283813
0.000370706
0.000565693
0.000792682
0.00104818
0.00131215
0.00155224
0.0017605
7.80477e-05
0.00036493
0.000384769
0.000374761
0.000452894
0.000660085
0.000901792
0.0011624
0.0014354
0.00170062
0.00193815
0.00214312
8.81583e-05
0.000433294
0.000497044
0.000546106
0.000711179
0.000949882
0.00120994
0.00147844
0.00174221
0.00199114
0.00221424
0.00241011
9.72496e-05
0.000507154
0.000637985
0.000766277
0.000988891
0.00124089
0.00149816
0.0017547
0.00200038
0.0022261
0.00242732
0.00260245
0.000106425
0.000608494
0.000824993
0.00105466
0.0013042
0.00155003
0.00178639
0.00201009
0.00221701
0.00240358
0.00256928
0.00271429
0.0001175
0.00073047
0.0010821
0.00136754
0.00161438
0.00183309
0.00202861
0.0022025
0.00235877
0.00249889
0.00262627
0.00274119
0.00013195
0.000838349
0.00127579
0.00157827
0.00180787
0.00199376
0.00215139
0.00229039
0.00241473
0.00252235
0.00262359
0.00271641
0.000152769
0.000788824
0.00134993
0.00167949
0.00190775
0.00208492
0.00222796
0.0023481
0.00244725
0.00253292
0.00261055
0.00268226
0.000273663
0.000762589
0.00142691
0.00180149
0.00201084
0.00217591
0.00231364
0.00241301
0.00249249
0.00255769
0.00261401
0.00266481
0.000163119
0.00016459
0.000164774
0.000164438
0.000163143
0.000160202
0.000155821
0.000149246
0.00014048
0.000128002
0.000111436
5.36347e-05
0.000737029
0.000858865
0.000945045
0.000972702
0.000945838
0.000887735
0.000794824
0.000667272
0.000511739
0.000311819
0.000156888
9.20041e-05
0.00141685
0.00153923
0.00160349
0.00161186
0.00156825
0.00147569
0.00133373
0.00113982
0.000892982
0.000596649
0.00026528
0.000122815
0.00193071
0.00205538
0.00213137
0.00215745
0.00213121
0.00204759
0.0018997
0.00167557
0.00136921
0.000973603
0.000475335
0.000149997
0.00231212
0.00244194
0.00253037
0.0025747
0.00257078
0.00251172
0.00238419
0.00216674
0.0018185
0.0013347
0.000698766
0.000176472
0.00257494
0.0027068
0.00280471
0.00286686
0.00288997
0.0028666
0.00277868
0.00259454
0.00226842
0.00173339
0.000982907
0.000203599
0.00275091
0.00287287
0.00296897
0.00304031
0.00308722
0.00310457
0.00307393
0.00295362
0.00267074
0.00212823
0.00127727
0.000231315
0.00283897
0.00294477
0.0030337
0.00310817
0.00317122
0.00322336
0.00325209
0.00321513
0.00301869
0.0025076
0.00157101
0.000261916
0.00284461
0.00293759
0.00302116
0.00309555
0.00316665
0.00324292
0.00332073
0.00337084
0.00329208
0.00286108
0.00183283
0.000295476
0.00280244
0.0028845
0.00296453
0.00304307
0.00311686
0.00319568
0.00330238
0.0034245
0.00347828
0.0031919
0.00213712
0.000331128
0.00275047
0.00281823
0.00288832
0.00296818
0.00306071
0.00313694
0.00324267
0.00339838
0.00355957
0.00347459
0.00250228
0.000370983
0.00271449
0.00276785
0.00282804
0.00289936
0.00300337
0.00309292
0.0031884
0.00334716
0.0035615
0.00365593
0.00292556
0.00042123
0.000129117
7.04544e-05
6.98487e-05
6.85471e-05
6.50924e-05
6.10901e-05
6.22173e-05
7.96473e-05
0.000126642
0.000147241
0.000155156
0.000160236
0.000199434
0.000218153
0.000229291
0.000201036
0.000116734
8.06641e-05
0.000135014
0.000163176
0.000235168
0.000327836
0.000452754
0.000594076
5.12378e-05
0.000204142
0.000267411
0.000239285
0.000208201
0.000197037
0.000281413
0.000415433
0.00059925
0.000822497
0.00104466
0.00124611
6.68114e-05
0.000309136
0.00031551
0.000288707
0.000283997
0.000371211
0.000566291
0.000793302
0.00104885
0.00131285
0.00155294
0.0017612
7.80406e-05
0.000364986
0.000384948
0.000375064
0.000453495
0.000660853
0.0009025
0.00116314
0.00143618
0.0017014
0.00193894
0.00214391
8.81851e-05
0.0004335
0.000497416
0.000546683
0.000711955
0.000950638
0.00121072
0.00147924
0.00174302
0.00199198
0.00221509
0.00241095
9.72642e-05
0.000507385
0.000638488
0.000766975
0.000989657
0.00124166
0.00149897
0.00175554
0.00200123
0.00222696
0.00242819
0.00260332
0.000106433
0.000608656
0.000825418
0.00105524
0.00130485
0.00155074
0.00178715
0.00201088
0.00221782
0.0024044
0.0025701
0.00271511
0.000117499
0.000730476
0.00108231
0.00136787
0.0016148
0.00183359
0.00202918
0.00220312
0.00235943
0.00249958
0.00262698
0.00274192
0.000131941
0.000838258
0.00127584
0.0015784
0.00180808
0.00199404
0.00215174
0.00229082
0.00241524
0.00252289
0.00262417
0.00271703
0.000152764
0.000788767
0.00134993
0.00167952
0.00190776
0.00208501
0.00222812
0.00234837
0.00244759
0.00253331
0.002611
0.00268275
0.000273676
0.000762608
0.00142691
0.00180151
0.00201085
0.00217596
0.00231374
0.00241317
0.00249271
0.00255797
0.00261433
0.00266518
0.000163131
0.000164602
0.000164784
0.000164447
0.000163148
0.000160206
0.000155822
0.000149247
0.000140479
0.000128
0.000111432
5.36316e-05
0.000737339
0.000859174
0.000945313
0.000972959
0.000946067
0.000887934
0.000794985
0.000667381
0.0005118
0.000311844
0.00015689
9.20006e-05
0.0014174
0.00153977
0.001604
0.00161229
0.00156863
0.00147602
0.00133399
0.00114001
0.000893106
0.000596713
0.000265295
0.000122813
0.0019314
0.00205605
0.002132
0.00215802
0.00213173
0.00204804
0.00190008
0.00167585
0.00136941
0.000973719
0.000475374
0.000149996
0.0023129
0.0024427
0.0025311
0.00257537
0.00257139
0.00251226
0.00238465
0.0021671
0.00181878
0.00133487
0.000698821
0.000176472
0.00257578
0.00270761
0.0028055
0.0028676
0.00289067
0.00286724
0.00277924
0.00259499
0.00226874
0.0017336
0.00098299
0.000203601
0.00275177
0.00287371
0.00296979
0.00304109
0.00308797
0.00310527
0.00307456
0.00295415
0.00267114
0.00212848
0.00127738
0.000231317
0.00283979
0.00294558
0.0030345
0.00310895
0.00317198
0.00322409
0.00325277
0.00321572
0.00301915
0.0025079
0.00157112
0.00026192
0.00284535
0.00293834
0.00302192
0.0030963
0.0031674
0.00324365
0.00332143
0.00337148
0.0032926
0.00286143
0.00183296
0.000295481
0.00280308
0.00288516
0.00296521
0.00304376
0.00311757
0.00319638
0.00330308
0.00342517
0.00347887
0.00319231
0.00213726
0.000331134
0.002751
0.00281878
0.00288889
0.00296877
0.00306133
0.00313758
0.00324333
0.00339905
0.00356021
0.00347506
0.00250243
0.000370991
0.00271489
0.00276828
0.0028285
0.00289985
0.00300389
0.00309346
0.00318898
0.00334778
0.00356216
0.00365648
0.00292574
0.000421241
0.000128264
7.02813e-05
6.96159e-05
6.8307e-05
6.49121e-05
6.10905e-05
6.2224e-05
7.95959e-05
0.000126605
0.00014723
0.000155149
0.000160229
0.00019884
0.00021501
0.00022707
0.000199907
0.000116573
8.06919e-05
0.000134984
0.000163104
0.000235014
0.000327694
0.000452549
0.000593857
5.13264e-05
0.000204372
0.000267642
0.000239362
0.000208271
0.000197041
0.000281103
0.000415142
0.000598865
0.000822099
0.00104425
0.00124571
6.68145e-05
0.000309067
0.000315627
0.000288751
0.000283831
0.000370763
0.000565778
0.000792787
0.00104831
0.00131231
0.00155241
0.00176068
7.80494e-05
0.000364934
0.000384779
0.000374781
0.000452941
0.000660154
0.000901884
0.00116251
0.00143555
0.00170078
0.00193833
0.0021433
8.81603e-05
0.000433299
0.000497048
0.000546125
0.000711219
0.000949949
0.00121003
0.00147856
0.00174235
0.0019913
0.00221441
0.00241029
9.72515e-05
0.000507149
0.000637971
0.000766273
0.000988915
0.00124094
0.00149824
0.00175482
0.00200051
0.00222626
0.00242749
0.00260263
0.000106427
0.000608484
0.000824976
0.00105465
0.00130422
0.00155009
0.00178648
0.00201021
0.00221715
0.00240374
0.00256944
0.00271446
0.000117501
0.000730469
0.00108211
0.00136759
0.00161445
0.00183319
0.00202873
0.00220264
0.00235892
0.00249906
0.00262644
0.00274138
0.000131953
0.000838385
0.00127586
0.00157837
0.001808
0.0019939
0.00215154
0.00229056
0.00241491
0.00252254
0.00262379
0.00271662
0.000152773
0.000788893
0.00135004
0.00167964
0.00190791
0.0020851
0.00222815
0.0023483
0.00244747
0.00253315
0.00261078
0.0026825
0.000273671
0.000762684
0.00142705
0.00180168
0.00201104
0.00217614
0.00231388
0.00241326
0.00249275
0.00255796
0.00261428
0.00266508
0.000163126
0.000164597
0.000164781
0.000164444
0.000163148
0.000160206
0.000155824
0.00014925
0.000140482
0.000128004
0.000111437
5.36353e-05
0.000737121
0.000858961
0.000945134
0.000972791
0.000945921
0.00088781
0.000794888
0.00066732
0.000511775
0.000311836
0.000156892
9.20048e-05
0.001417
0.00153939
0.00160365
0.001612
0.00156838
0.00147582
0.00133383
0.0011399
0.000893043
0.000596686
0.00026529
0.000122815
0.00193089
0.00205557
0.00213154
0.00215762
0.00213137
0.00204774
0.00189984
0.00167568
0.0013693
0.000973656
0.000475358
0.000149997
0.0023123
0.00244213
0.00253056
0.00257488
0.00257095
0.00251188
0.00238434
0.00216687
0.00181861
0.00133478
0.000698798
0.000176473
0.00257513
0.00270699
0.0028049
0.00286704
0.00289015
0.00286678
0.00277885
0.00259469
0.00226854
0.00173348
0.00098295
0.000203601
0.0027511
0.00287306
0.00296916
0.00304049
0.0030874
0.00310475
0.0030741
0.00295378
0.00267088
0.00212834
0.00127733
0.000231316
0.00283915
0.00294496
0.00303388
0.00310835
0.0031714
0.00322355
0.00325228
0.0032153
0.00301884
0.00250771
0.00157106
0.000261918
0.00284479
0.00293778
0.00302136
0.00309575
0.00316685
0.00324312
0.00332093
0.00337102
0.00329223
0.0028612
0.00183289
0.000295477
0.00280265
0.00288472
0.00296475
0.00304329
0.00311708
0.0031959
0.00330259
0.00342469
0.00347845
0.00319202
0.00213718
0.00033113
0.00275072
0.00281847
0.00288856
0.00296842
0.00306095
0.00313718
0.0032429
0.00339858
0.00355972
0.00347469
0.00250232
0.000370984
0.00271476
0.00276812
0.00282831
0.00289962
0.00300362
0.00309316
0.00318862
0.00334735
0.00356163
0.00365601
0.00292556
0.000421229
0.00169065
0.00177401
0.00190953
0.00206524
0.0022021
0.00232482
0.00242726
0.00249879
0.00255537
0.0025992
0.00263517
0.00266644
0.00276417
0.00258224
0.002514
0.00250655
0.00252412
0.00255042
0.00257391
0.00259754
0.00262426
0.00264466
0.00266204
0.00267837
0.00347928
0.00325251
0.00307758
0.0029555
0.00286185
0.00280054
0.0027595
0.00273552
0.00272406
0.00271017
0.0027003
0.00270416
0.00372554
0.00355082
0.00337129
0.00319979
0.00306143
0.00294864
0.00286096
0.0027995
0.002765
0.0027484
0.00275004
0.00277337
0.00269983
0.00274262
0.00279775
0.00286789
0.00297513
0.00307598
0.00317068
0.0033268
0.00354276
0.0037932
0.00382516
0.0017861
0.00270381
0.00274682
0.00280617
0.00288482
0.00298694
0.00309291
0.00319579
0.00334672
0.00354103
0.00377301
0.00418825
0.0030958
0.00273548
0.00279537
0.00287044
0.00295898
0.00305696
0.00317088
0.00328758
0.00342081
0.0035818
0.00375249
0.00412398
0.00374654
0.00282591
0.00292095
0.00300728
0.00310528
0.00321056
0.00332475
0.003445
0.00356154
0.00368656
0.00379245
0.00402028
0.00390982
0.0016908
0.00177421
0.00190974
0.00206547
0.00220236
0.00232508
0.00242752
0.00249904
0.00255559
0.0025994
0.00263533
0.00266657
0.0027644
0.00258253
0.00251429
0.00250685
0.00252444
0.00255074
0.00257423
0.00259786
0.00262456
0.00264494
0.00266228
0.00267859
0.00347943
0.00325292
0.00307798
0.00295589
0.00286222
0.00280091
0.00275987
0.00273589
0.00272442
0.0027105
0.00270059
0.00270444
0.00372562
0.00355114
0.0033718
0.00320024
0.00306186
0.00294905
0.00286136
0.00279988
0.00276536
0.00274875
0.00275036
0.00277367
0.00269995
0.00274273
0.00279785
0.00286798
0.00297524
0.00307609
0.0031708
0.00332694
0.00354291
0.00379339
0.00382537
0.00178619
0.00270401
0.00274701
0.00280635
0.00288501
0.00298714
0.00309311
0.003196
0.00334694
0.00354128
0.00377328
0.00418854
0.00309601
0.00273574
0.00279563
0.0028707
0.00295924
0.00305723
0.00317117
0.00328788
0.00342113
0.00358213
0.00375283
0.00412433
0.00374683
0.00282619
0.00292124
0.00300758
0.00310561
0.00321091
0.00332513
0.00344539
0.00356193
0.00368695
0.00379283
0.00402066
0.00391015
0.00169093
0.00177432
0.00190985
0.00206556
0.00220242
0.00232517
0.00242761
0.00249916
0.00255575
0.00259959
0.00263556
0.00266684
0.00276461
0.00258272
0.00251448
0.00250701
0.00252458
0.00255088
0.00257436
0.00259799
0.0026247
0.00264509
0.00266246
0.00267879
0.0034797
0.00325317
0.00307822
0.00295609
0.00286243
0.0028011
0.00276004
0.00273604
0.00272454
0.00271063
0.00270072
0.00270459
0.00372592
0.00355142
0.00337204
0.00320048
0.00306207
0.00294924
0.00286154
0.00280004
0.00276548
0.00274887
0.00275049
0.00277382
0.00270024
0.00274305
0.0027982
0.00286838
0.00297567
0.00307654
0.00317131
0.00332752
0.00354356
0.00379401
0.00382567
0.00178625
0.00270423
0.00274726
0.00280664
0.00288535
0.0029875
0.00309353
0.00319648
0.00334749
0.0035419
0.00377391
0.00418907
0.00309624
0.00273592
0.00279584
0.00287097
0.00295956
0.00305761
0.00317161
0.00328835
0.00342168
0.00358274
0.00375348
0.00412499
0.00374728
0.0028264
0.0029215
0.00300791
0.00310601
0.00321136
0.00332563
0.0034459
0.00356251
0.00368756
0.00379348
0.00402133
0.0039107
0.00169091
0.00177436
0.00190994
0.00206571
0.00220262
0.00232537
0.00242782
0.00249934
0.00255589
0.0025997
0.00263563
0.00266687
0.00276475
0.00258284
0.00251462
0.00250718
0.00252477
0.00255109
0.00257458
0.0025982
0.00262489
0.00264527
0.0026626
0.00267891
0.00348006
0.00325345
0.00307846
0.00295632
0.00286265
0.00280132
0.00276027
0.00273627
0.00272476
0.00271082
0.00270087
0.00270476
0.00372639
0.00355181
0.00337234
0.00320074
0.00306231
0.00294948
0.00286176
0.00280026
0.00276567
0.00274903
0.00275061
0.00277391
0.00270024
0.00274302
0.00279814
0.00286825
0.00297547
0.00307632
0.00317099
0.00332707
0.003543
0.00379343
0.00382531
0.00178613
0.00270432
0.00274732
0.00280663
0.00288525
0.00298735
0.0030933
0.00319611
0.00334701
0.0035413
0.00377326
0.00418844
0.00309587
0.00273604
0.0027959
0.00287089
0.00295942
0.00305735
0.00317124
0.00328791
0.0034211
0.00358207
0.00375274
0.00412418
0.00374668
0.00282637
0.00292138
0.00300765
0.00310562
0.00321087
0.00332506
0.00344528
0.0035618
0.0036868
0.00379269
0.00402047
0.00391001
0.00359302
0.0034156
0.003244
0.00308811
0.0029608
0.00285994
0.00278681
0.00274218
0.0027257
0.00273299
0.00278411
0.00288066
0.00350325
0.00333095
0.00316694
0.0030175
0.00289023
0.00278521
0.0027052
0.00265036
0.00261946
0.00260865
0.00264718
0.00274437
0.00343858
0.00327658
0.00311857
0.00296796
0.00282987
0.00270526
0.00259547
0.00249933
0.00240616
0.00231805
0.0022594
0.00226811
0.00338382
0.00323679
0.00308523
0.00292996
0.00277326
0.00261975
0.0024647
0.00230074
0.00211359
0.00189215
0.00163693
0.00143051
0.00299681
0.00317961
0.00329619
0.00339535
0.00349972
0.00360145
0.00369284
0.00377086
0.00383635
0.00388222
0.00390738
0.00378773
0.00290506
0.00325295
0.00340661
0.00350958
0.00361052
0.00370124
0.00377689
0.00383086
0.0038595
0.00386307
0.0038297
0.00368439
0.00243206
0.00314042
0.00339142
0.00351418
0.00361872
0.00370386
0.00377229
0.00380925
0.00381871
0.00380778
0.00375011
0.00360396
0.00146302
0.00279655
0.00326426
0.00344565
0.00355883
0.00364399
0.00371065
0.00373963
0.00374236
0.00372679
0.00366537
0.00353189
0.00359331
0.00341601
0.00324449
0.00308856
0.00296122
0.00286033
0.00278717
0.00274252
0.00272601
0.0027333
0.00278439
0.00288094
0.00350363
0.00333139
0.00316741
0.00301794
0.00289063
0.00278557
0.00270552
0.00265066
0.00261973
0.00260891
0.00264741
0.0027446
0.00343901
0.00327703
0.00311902
0.00296838
0.00283025
0.00270559
0.00259576
0.00249958
0.00240639
0.00231824
0.00225957
0.00226827
0.00338426
0.00323724
0.00308567
0.00293037
0.00277363
0.00262007
0.00246498
0.00230096
0.00211379
0.0018923
0.00163704
0.00143057
0.00299712
0.00317996
0.00329657
0.00339576
0.00350015
0.00360188
0.00369327
0.00377127
0.00383675
0.0038826
0.00390774
0.00378805
0.00290534
0.00325332
0.00340705
0.00351006
0.00361101
0.00370173
0.00377736
0.0038313
0.00385991
0.00386345
0.00383005
0.0036847
0.00243227
0.00314077
0.00339189
0.00351471
0.00361926
0.00370439
0.0037728
0.00380971
0.00381912
0.00380816
0.00375045
0.00360426
0.00146312
0.00279684
0.00326475
0.00344621
0.00355942
0.00364456
0.00371119
0.00374011
0.0037428
0.00372718
0.00366571
0.00353219
0.0035936
0.00341628
0.00324473
0.00308877
0.00296141
0.00286051
0.00278733
0.00274267
0.00272615
0.00273344
0.00278459
0.0028812
0.00350392
0.00333165
0.00316765
0.00301815
0.00289081
0.00278573
0.00270568
0.0026508
0.00261987
0.00260905
0.00264763
0.00274493
0.00343929
0.00327728
0.00311924
0.00296858
0.00283042
0.00270575
0.00259591
0.00249975
0.00240649
0.00231835
0.00225972
0.00226852
0.00338452
0.00323748
0.00308589
0.00293056
0.00277379
0.00262021
0.0024651
0.0023011
0.00211387
0.00189239
0.00163717
0.00143071
0.00299746
0.00318034
0.00329703
0.00339628
0.00350067
0.00360245
0.00369384
0.00377187
0.00383736
0.00388321
0.00390833
0.00378855
0.00290569
0.00325379
0.0034076
0.00351064
0.0036116
0.00370232
0.00377796
0.0038319
0.0038605
0.00386403
0.00383059
0.00368516
0.00243262
0.00314126
0.00339248
0.00351531
0.00361987
0.00370501
0.00377341
0.00381031
0.00381971
0.00380873
0.00375096
0.00360471
0.00146331
0.00279733
0.00326534
0.00344683
0.00356004
0.00364518
0.00371179
0.0037407
0.00374338
0.00372774
0.00366621
0.00353262
0.00359402
0.00341662
0.00324501
0.00308902
0.00296164
0.00286072
0.00278751
0.00274282
0.00272623
0.0027335
0.00278451
0.002881
0.0035043
0.00333197
0.00316791
0.00301838
0.00289102
0.00278592
0.0027058
0.00265087
0.00261987
0.00260904
0.00264743
0.00274456
0.00343966
0.00327758
0.00311949
0.0029688
0.00283063
0.0027059
0.00259599
0.00249972
0.0024065
0.00231832
0.00225957
0.00226821
0.00338489
0.00323776
0.00308612
0.00293076
0.00277396
0.00262035
0.00246519
0.00230108
0.00211389
0.00189234
0.00163701
0.00143053
0.00299712
0.00317992
0.00329644
0.00339557
0.00349993
0.00360166
0.00369304
0.00377105
0.00383656
0.00388245
0.00390762
0.003788
0.00290527
0.00325315
0.00340678
0.00350973
0.00361066
0.00370137
0.00377703
0.00383102
0.00385969
0.00386327
0.00382997
0.00368467
0.00243216
0.00314054
0.00339152
0.00351427
0.0036188
0.00370394
0.00377238
0.00380937
0.00381886
0.00380797
0.00375039
0.00360424
0.00146305
0.0027966
0.00326432
0.0034457
0.00355886
0.00364401
0.00371069
0.00373971
0.00374248
0.00372695
0.00366565
0.00353217
0.00332809
0.00319918
0.00305628
0.00289639
0.00272194
0.00253869
0.00233575
0.00210269
0.00181919
0.00144628
0.000885877
0.000273664
0.00326198
0.00315372
0.00302362
0.00286332
0.00267832
0.00247289
0.0022337
0.00195176
0.00161291
0.00119291
0.000606003
0.000142596
0.00317906
0.00309209
0.0029799
0.00282542
0.00263943
0.00242373
0.00216575
0.00186091
0.00150802
0.00111937
0.000617345
0.000124615
0.00307805
0.00301
0.00291826
0.00277604
0.00259798
0.00238397
0.00212414
0.00181977
0.00148344
0.0011495
0.00071448
0.000127354
0.00295504
0.00290423
0.0028318
0.00270724
0.00254402
0.00234117
0.00209194
0.00180221
0.00149022
0.00117115
0.000768576
0.000131891
0.00280374
0.0027688
0.00271343
0.00260946
0.0024657
0.00228015
0.00204817
0.00177695
0.0014807
0.0011524
0.000770198
0.000135495
0.00261249
0.00259248
0.00255262
0.00246963
0.00234826
0.00218303
0.00197071
0.0017167
0.00142856
0.00109298
0.000728925
0.000136478
0.00236219
0.00235642
0.00233071
0.00226747
0.00216994
0.00202695
0.00183596
0.0015983
0.00131816
0.000992336
0.000647792
0.0001351
0.0020212
0.00202762
0.00201553
0.00197024
0.00189396
0.00177688
0.00161594
0.00139689
0.0011326
0.000835284
0.000529087
0.000130467
0.00153767
0.00155207
0.00155147
0.00152235
0.00146566
0.00137992
0.00126504
0.0010797
0.000856106
0.000613924
0.000368143
0.000122042
0.000843949
0.000857261
0.000862448
0.00084932
0.000819208
0.000772835
0.000714181
0.000611997
0.000464192
0.000320827
0.000172656
0.000110737
9.16233e-05
9.41408e-05
9.62799e-05
9.72231e-05
9.6772e-05
9.49044e-05
9.1575e-05
8.63934e-05
7.8593e-05
6.73355e-05
5.14876e-05
0.000150822
0.000367471
0.00230452
0.00306437
0.00332363
0.00345052
0.00354046
0.00360978
0.00363841
0.00364029
0.00362487
0.00356969
0.00345764
0.000322708
0.00205137
0.00285316
0.00316412
0.00330635
0.00340415
0.00347902
0.00351311
0.0035203
0.00350579
0.00346018
0.00337132
0.000299084
0.00184665
0.00263788
0.00297588
0.00313459
0.00324144
0.00332313
0.00336636
0.00338327
0.0033735
0.00333659
0.00326632
0.00028066
0.00165889
0.00241732
0.00276755
0.00294037
0.00305569
0.00314384
0.0031978
0.00322465
0.00322495
0.00319806
0.0031454
0.000264104
0.00147606
0.00219028
0.00254298
0.00272584
0.0028477
0.00294105
0.00300534
0.00304157
0.00305289
0.00304032
0.00300516
0.000247869
0.00128941
0.00195314
0.00230237
0.00249002
0.00261528
0.00271214
0.00278455
0.00283025
0.00285292
0.00285454
0.00283677
0.00023178
0.00108285
0.00170118
0.00204306
0.00222829
0.00235224
0.00245012
0.00252806
0.00258238
0.00261566
0.00263026
0.00262837
0.000215787
0.000859514
0.00142926
0.00175976
0.00193112
0.00204682
0.00214172
0.00222188
0.00228275
0.00232486
0.00235036
0.00236209
0.00019865
0.000643193
0.00113796
0.00144018
0.00158139
0.00167924
0.00176497
0.00184246
0.00190586
0.00195328
0.00198623
0.0020082
0.000178612
0.000448967
0.000825103
0.00105327
0.00114074
0.00120857
0.00127738
0.00134688
0.00140898
0.00145791
0.0014918
0.00151776
0.000146304
0.000279032
0.000461437
0.000555628
0.000585332
0.000618363
0.000658421
0.000704728
0.000749844
0.000786422
0.000809366
0.000828067
3.92796e-05
0.000254554
5.37307e-05
6.13661e-05
6.63382e-05
7.01345e-05
7.3523e-05
7.69916e-05
8.04711e-05
8.36051e-05
8.64201e-05
8.9057e-05
0.00332858
0.00319963
0.00305672
0.00289679
0.0027223
0.00253901
0.00233603
0.00210291
0.00181939
0.00144641
0.00088595
0.000273671
0.00326253
0.00315418
0.00302405
0.00286371
0.00267869
0.00247322
0.00223398
0.001952
0.00161312
0.00119307
0.000606112
0.000142612
0.00317963
0.00309257
0.00298033
0.00282582
0.00263981
0.00242408
0.00216605
0.00186118
0.00150826
0.00111957
0.000617491
0.000124635
0.00307865
0.00301049
0.00291869
0.00277644
0.00259837
0.00238433
0.00212447
0.00182006
0.00148371
0.00114973
0.000714637
0.000127374
0.00295565
0.00290472
0.00283223
0.00270765
0.00254441
0.00234154
0.00209228
0.00180252
0.0014905
0.00117138
0.00076874
0.000131912
0.00280433
0.00276928
0.00271385
0.00260986
0.00246609
0.00228051
0.00204852
0.00177727
0.00148098
0.00115263
0.000770359
0.000135516
0.00261304
0.00259294
0.00255302
0.00247001
0.00234863
0.00218338
0.00197104
0.001717
0.00142883
0.00109319
0.000729083
0.000136498
0.00236267
0.00235682
0.00233107
0.00226781
0.00217027
0.00202727
0.00183626
0.00159857
0.00131839
0.000992526
0.000647931
0.00013512
0.0020216
0.00202795
0.00201583
0.00197052
0.00189423
0.00177714
0.00161618
0.00139711
0.00113279
0.000835441
0.000529201
0.000130485
0.00153796
0.0015523
0.00155168
0.00152255
0.00146584
0.0013801
0.00126522
0.00107986
0.000856246
0.000614036
0.000368222
0.000122058
0.00084413
0.000857365
0.000862551
0.000849415
0.000819302
0.000772926
0.000714268
0.000612076
0.000464264
0.000320885
0.000172694
0.000110751
9.16366e-05
9.41529e-05
9.62906e-05
9.72327e-05
9.67812e-05
9.49133e-05
9.15836e-05
8.64015e-05
7.86006e-05
6.73422e-05
5.14928e-05
0.000150861
0.000367488
0.00230478
0.00306485
0.00332421
0.00345114
0.00354107
0.00361035
0.00363892
0.00364074
0.00362528
0.00357003
0.00345792
0.000322722
0.00205162
0.00285365
0.00316472
0.00330699
0.00340478
0.00347962
0.00351365
0.00352076
0.00350621
0.00346054
0.0033716
0.000299096
0.0018469
0.00263836
0.00297649
0.00313524
0.00324209
0.00332376
0.00336691
0.00338376
0.00337394
0.00333695
0.00326661
0.000280673
0.00165914
0.0024178
0.00276815
0.00294103
0.00305636
0.00314447
0.00319837
0.00322516
0.00322539
0.00319843
0.0031457
0.000264117
0.00147631
0.00219074
0.00254357
0.00272648
0.00284835
0.00294169
0.00300592
0.00304208
0.00305334
0.00304069
0.00300547
0.000247881
0.00128966
0.00195358
0.00230293
0.00249063
0.0026159
0.00271276
0.00278512
0.00283075
0.00285335
0.00285491
0.00283708
0.000231795
0.0010831
0.0017016
0.00204357
0.00222885
0.00235282
0.00245068
0.00252859
0.00258285
0.00261607
0.00263061
0.00262866
0.000215804
0.000859745
0.00142965
0.00176022
0.0019316
0.00204731
0.00214221
0.00222234
0.00228318
0.00232523
0.00235068
0.00236236
0.000198669
0.000643395
0.0011383
0.00144055
0.00158177
0.00167963
0.00176536
0.00184283
0.0019062
0.00195358
0.00198649
0.00200843
0.000178631
0.000449125
0.000825381
0.00105352
0.00114098
0.00120882
0.00127763
0.00134713
0.00140921
0.00145812
0.00149199
0.00151791
0.000146323
0.000279133
0.000461588
0.00055575
0.000585443
0.000618473
0.000658538
0.000704847
0.00074996
0.000786525
0.000809458
0.000828151
3.92822e-05
0.00025463
5.37409e-05
6.13773e-05
6.63494e-05
7.01447e-05
7.35331e-05
7.70012e-05
8.04802e-05
8.3613e-05
8.64272e-05
8.90637e-05
0.00332882
0.00319985
0.00305693
0.00289698
0.00272245
0.00253913
0.00233613
0.002103
0.00181943
0.00144645
0.000886009
0.000273713
0.00326276
0.00315437
0.00302425
0.00286391
0.00267883
0.00247334
0.00223407
0.00195206
0.00161314
0.00119307
0.000606111
0.000142626
0.00317985
0.00309275
0.00298052
0.00282601
0.00263995
0.00242418
0.00216613
0.00186122
0.00150826
0.00111955
0.000617466
0.000124641
0.00307887
0.00301066
0.00291887
0.00277662
0.0025985
0.00238443
0.00212454
0.00182009
0.0014837
0.00114972
0.000714629
0.00012738
0.00295587
0.00290489
0.0028324
0.00270783
0.00254455
0.00234165
0.00209236
0.00180256
0.00149051
0.00117139
0.000768753
0.000131918
0.00280456
0.00276945
0.00271402
0.00261003
0.00246623
0.00228062
0.0020486
0.00177732
0.00148101
0.00115266
0.000770384
0.000135523
0.00261326
0.00259311
0.00255319
0.00247018
0.00234878
0.0021835
0.00197113
0.00171707
0.00142888
0.00109324
0.000729114
0.000136506
0.00236288
0.002357
0.00233124
0.00226798
0.00217042
0.0020274
0.00183637
0.00159866
0.00131847
0.000992583
0.000647964
0.000135128
0.00202179
0.00202811
0.00201599
0.00197067
0.00189438
0.00177728
0.0016163
0.00139721
0.00113287
0.000835499
0.00052923
0.000130494
0.00153809
0.00155242
0.0015518
0.00152268
0.00146598
0.00138023
0.00126533
0.00107996
0.000856322
0.000614085
0.000368247
0.000122067
0.000844205
0.000857436
0.000862624
0.000849497
0.000819387
0.000773007
0.000714341
0.00061215
0.000464319
0.000320913
0.000172708
0.00011076
9.16425e-05
9.41585e-05
9.62964e-05
9.72396e-05
9.67888e-05