/*--------------------------------*- C++ -*----------------------------------*\
  =========                 |
  \\      /  F ield         | OpenFOAM: The Open Source CFD Toolbox
   \\    /   O peration     | Website:  https://openfoam.org
    \\  /    A nd           | Version:  6
     \\/     M anipulation  |
\*---------------------------------------------------------------------------*/
FoamFile
{
    version     2.0;
    format      ascii;
    class       surfaceScalarField;
    location    "400";
    object      phi;
}
// * * * * * * * * * * * * * * * * * * * * * * * * * * * * * * * * * * * * * //

dimensions      [0 3 -1 0 0 0 0];

internalField   nonuniform List<scalar> 
5952
(
5.15726e-06
-5.16038e-06
8.75729e-06
-3.60196e-06
1.14653e-05
-2.70822e-06
1.28939e-05
-1.42945e-06
1.28801e-05
1.41698e-08
1.07981e-05
2.08446e-06
6.0646e-06
4.73425e-06
-1.43217e-06
7.49921e-06
-1.51627e-05
1.37303e-05
-2.89681e-05
1.38054e-05
-3.9172e-05
1.02036e-05
7.96567e-06
-4.71381e-05
1.42821e-06
-6.58706e-06
3.54159e-06
-5.71627e-06
3.63238e-06
-2.79862e-06
1.69256e-06
5.10132e-07
-2.83592e-06
4.54365e-06
-1.1279e-05
1.05286e-05
-2.30762e-05
1.6532e-05
-3.39996e-05
1.8423e-05
-3.87929e-05
1.85238e-05
-4.10792e-05
1.60916e-05
-4.36e-05
1.27244e-05
1.00407e-05
-4.56753e-05
1.25e-06
-7.83612e-06
7.32523e-07
-5.19887e-06
-1.91143e-06
-1.54398e-07
-7.63373e-06
6.23262e-06
-1.66253e-05
1.35357e-05
-2.53782e-05
1.9282e-05
-3.0432e-05
2.15862e-05
-3.31635e-05
2.11548e-05
-3.41835e-05
1.9544e-05
-3.47341e-05
1.66422e-05
-3.5579e-05
1.35692e-05
1.07175e-05
-3.62559e-05
-1.93647e-06
-5.89896e-06
-5.13551e-06
-1.99964e-06
-1.01508e-05
4.86118e-06
-1.65921e-05
1.26741e-05
-2.22435e-05
1.91874e-05
-2.54904e-05
2.25293e-05
-2.67613e-05
2.28574e-05
-2.71223e-05
2.1516e-05
-2.70775e-05
1.94993e-05
-2.70962e-05
1.66609e-05
-2.72361e-05
1.3709e-05
1.08212e-05
-2.73399e-05
-3.7583e-06
-2.13974e-06
-8.70477e-06
2.94727e-06
-1.36967e-05
9.85341e-06
-1.78149e-05
1.67927e-05
-2.01122e-05
2.1485e-05
-2.06271e-05
2.30446e-05
-2.02766e-05
2.25071e-05
-1.96425e-05
2.08822e-05
-1.88676e-05
1.87244e-05
-1.83147e-05
1.6108e-05
-1.79608e-05
1.3355e-05
1.0576e-05
-1.77157e-05
-4.8403e-06
2.70181e-06
-9.56711e-06
7.67479e-06
-1.31858e-05
1.34727e-05
-1.50759e-05
1.86834e-05
-1.51976e-05
2.16073e-05
-1.42738e-05
2.21212e-05
-1.29815e-05
2.12151e-05
-1.16751e-05
1.9576e-05
-1.04865e-05
1.75359e-05
-9.56311e-06
1.51846e-05
-8.89002e-06
1.26819e-05
1.00958e-05
-8.40983e-06
-5.01504e-06
7.71835e-06
-8.93938e-06
1.16001e-05
-1.10364e-05
1.55705e-05
-1.10923e-05
1.87401e-05
-9.6973e-06
2.02128e-05
-7.73023e-06
2.01546e-05
-5.70536e-06
1.91905e-05
-3.85357e-06
1.77245e-05
-2.26538e-06
1.59479e-05
-1.00129e-06
1.39206e-05
-4.0656e-08
1.17214e-05
9.39077e-06
6.64415e-07
-4.92341e-06
1.26426e-05
-7.78372e-06
1.44611e-05
-8.28846e-06
1.60759e-05
-6.79258e-06
1.72447e-05
-4.21343e-06
1.7634e-05
-1.35691e-06
1.72985e-05
1.3609e-06
1.6473e-05
3.76144e-06
1.53241e-05
5.78434e-06
1.39251e-05
7.41164e-06
1.22934e-05
8.67599e-06
1.04571e-05
8.43956e-06
9.62725e-06
-4.36393e-06
1.70073e-05
-6.02324e-06
1.61208e-05
-4.82206e-06
1.4875e-05
-1.93265e-06
1.43556e-05
1.69471e-06
1.4007e-05
5.36345e-06
1.363e-05
8.72322e-06
1.31134e-05
1.1636e-05
1.24115e-05
1.40685e-05
1.14927e-05
1.60325e-05
1.03296e-05
1.75768e-05
8.91289e-06
7.25715e-06
1.87592e-05
-3.9635e-06
2.09708e-05
-2.93804e-06
1.50955e-05
7.41349e-07
1.11957e-05
5.11478e-06
9.98231e-06
9.63961e-06
9.48231e-06
1.38786e-05
9.39112e-06
1.76161e-05
9.37613e-06
2.07876e-05
9.24006e-06
2.34044e-05
8.87602e-06
2.55112e-05
8.2228e-06
2.71769e-05
7.2472e-06
5.96662e-06
2.84675e-05
4.74108e-07
2.04968e-05
5.99446e-06
9.57519e-06
1.18977e-05
5.29253e-06
1.72772e-05
4.60302e-06
2.20121e-05
4.74751e-06
2.60764e-05
5.32705e-06
2.95052e-05
5.94745e-06
3.23476e-05
6.3978e-06
3.4664e-05
6.55969e-06
3.65183e-05
6.36848e-06
3.79907e-05
5.77492e-06
4.81327e-06
3.91441e-05
2.01714e-05
3.25301e-07
2.83856e-05
1.36092e-06
3.34629e-05
2.15197e-07
3.73817e-05
6.84287e-07
4.04274e-05
1.7019e-06
4.29323e-05
2.82219e-06
4.50351e-05
3.84474e-06
4.67795e-05
4.65347e-06
4.81987e-05
5.14058e-06
4.93264e-05
5.24078e-06
5.02286e-05
4.87278e-06
5.09492e-05
4.09271e-06
-5.27303e-05
5.59201e-06
-5.63623e-05
3.63171e-06
-5.8008e-05
1.64572e-06
-5.7879e-05
-1.29139e-07
-5.60174e-05
-1.86154e-06
-5.24384e-05
-3.57891e-06
-4.69314e-05
-5.50691e-06
-3.94832e-05
-7.44801e-06
-2.9922e-05
-9.56112e-06
-1.84694e-05
-1.14524e-05
-7.05705e-06
-1.14119e-05
-7.05688e-06
-4.72041e-05
7.12077e-06
-4.80237e-05
4.45116e-06
-4.82563e-05
1.8783e-06
-4.78218e-05
-5.63591e-07
-4.66727e-05
-3.01058e-06
-4.46027e-05
-5.64882e-06
-4.15451e-05
-8.56438e-06
-3.71655e-05
-1.18274e-05
-3.12738e-05
-1.54526e-05
-2.35828e-05
-1.91432e-05
-1.31377e-05
-2.18567e-05
-2.01944e-05
-3.69183e-05
7.78312e-06
-3.74032e-05
4.93594e-06
-3.76326e-05
2.10771e-06
-3.74377e-05
-7.58516e-07
-3.66672e-05
-3.78097e-06
-3.52568e-05
-7.05918e-06
-3.31024e-05
-1.07186e-05
-3.00735e-05
-1.48561e-05
-2.60836e-05
-1.94424e-05
-2.06547e-05
-2.45719e-05
-1.27827e-05
-2.97285e-05
-3.2977e-05
-2.74415e-05
7.88468e-06
-2.74616e-05
4.956e-06
-2.73431e-05
1.98915e-06
-2.70109e-05
-1.0907e-06
-2.64007e-05
-4.39106e-06
-2.54449e-05
-8.01493e-06
-2.40549e-05
-1.21085e-05
-2.21038e-05
-1.68071e-05
-1.93841e-05
-2.2162e-05
-1.54074e-05
-2.85485e-05
-9.41361e-06
-3.57221e-05
-4.23906e-05
-1.75672e-05
7.73611e-06
-1.74566e-05
4.84534e-06
-1.73284e-05
1.86087e-06
-1.71305e-05
-1.28851e-06
-1.6822e-05
-4.69954e-06
-1.63553e-05
-8.48159e-06
-1.56722e-05
-1.27915e-05
-1.47112e-05
-1.7768e-05
-1.32716e-05
-2.36015e-05
-1.11361e-05
-3.06837e-05
-7.42839e-06
-3.94296e-05
-4.98189e-05
-8.09113e-06
7.41739e-06
-7.88821e-06
4.64242e-06
-7.76087e-06
1.73354e-06
-7.67802e-06
-1.37131e-06
-7.61878e-06
-4.75872e-06
-7.56322e-06
-8.53704e-06
-7.50702e-06
-1.28476e-05
-7.41424e-06
-1.78607e-05
-7.17077e-06
-2.38448e-05
-6.59578e-06
-3.12585e-05
-4.86833e-06
-4.11569e-05
-5.46871e-05
1.15216e-06
6.92969e-06
1.4596e-06
4.33502e-06
1.61371e-06
1.57951e-06
1.6273e-06
-1.38481e-06
1.49848e-06
-4.62975e-06
1.2128e-06
-8.25123e-06
7.41731e-07
-1.23764e-05
6.68958e-08
-1.71857e-05
-7.88433e-07
-2.29893e-05
-1.70622e-06
-3.03405e-05
-2.22634e-06
-4.06365e-05
-5.69133e-05
1.03104e-05
6.24661e-06
1.07587e-05
3.88678e-06
1.0991e-05
1.34732e-06
1.10066e-05
-1.40034e-06
1.07847e-05
-4.4077e-06
1.02814e-05
-7.74774e-06
9.42212e-06
-1.15169e-05
8.11358e-06
-1.5877e-05
6.26103e-06
-2.11366e-05
3.84392e-06
-2.79233e-05
1.24226e-06
-3.80346e-05
-5.56709e-05
1.96358e-05
5.37009e-06
2.02407e-05
3.28196e-06
2.05906e-05
9.97576e-07
2.06764e-05
-1.48603e-06
2.04633e-05
-4.19439e-06
1.98831e-05
-7.16745e-06
1.88125e-05
-1.04461e-05
1.70735e-05
-1.41378e-05
1.44204e-05
-1.84834e-05
1.05964e-05
-2.40989e-05
5.69524e-06
-3.31333e-05
-4.99756e-05
2.94529e-05
4.38479e-06
3.01674e-05
2.56754e-06
3.063e-05
5.35044e-07
3.08277e-05
-1.6836e-06
3.07147e-05
-4.08121e-06
3.02047e-05
-6.6573e-06
2.91319e-05
-9.37311e-06
2.7242e-05
-1.22478e-05
2.41242e-05
-1.53655e-05
1.92736e-05
-1.92483e-05
1.18774e-05
-2.57369e-05
-3.80981e-05
4.00625e-05
3.46647e-06
4.07705e-05
1.85962e-06
4.12902e-05
1.54663e-08
4.16063e-05
-1.99957e-06
4.16644e-05
-4.13915e-06
4.13658e-05
-6.35857e-06
4.05182e-05
-8.52531e-06
3.88253e-05
-1.05547e-05
3.57373e-05
-1.22774e-05
3.05187e-05
-1.40295e-05
2.06597e-05
-1.58777e-05
-1.74383e-05
5.15922e-05
2.82353e-06
5.21568e-05
1.29509e-06
5.2666e-05
-4.93628e-07
5.30966e-05
-2.43005e-06
5.33814e-05
-4.4239e-06
5.34121e-05
-6.38909e-06
5.29944e-05
-8.10754e-06
5.18606e-05
-9.42077e-06
4.94867e-05
-9.90337e-06
4.49357e-05
-9.47854e-06
3.45748e-05
-5.51673e-06
1.71367e-05
5.16329e-06
-5.16391e-06
8.76439e-06
-3.60356e-06
1.14709e-05
-2.70718e-06
1.28978e-05
-1.42772e-06
1.28821e-05
1.55461e-08
1.08016e-05
2.08292e-06
6.06931e-06
4.73248e-06
-1.42349e-06
7.49521e-06
-1.5153e-05
1.37291e-05
-2.89624e-05
1.38096e-05
-3.91687e-05
1.02059e-05
7.96781e-06
-4.71368e-05
1.42775e-06
-6.59166e-06
3.54163e-06
-5.71897e-06
3.63363e-06
-2.79943e-06
1.69588e-06
5.09434e-07
-2.82974e-06
4.54161e-06
-1.12698e-05
1.05238e-05
-2.30675e-05
1.65306e-05
-3.39965e-05
1.84246e-05
-3.8794e-05
1.85266e-05
-4.10801e-05
1.60956e-05
-4.36014e-05
1.27271e-05
1.0043e-05
-4.56768e-05
1.24919e-06
-7.84042e-06
7.33032e-07
-5.20331e-06
-1.9086e-06
-1.5786e-07
-7.627e-06
6.22785e-06
-1.66164e-05
1.35314e-05
-2.53737e-05
1.92816e-05
-3.04316e-05
2.15888e-05
-3.3165e-05
2.11583e-05
-3.4186e-05
1.95477e-05
-3.47364e-05
1.66459e-05
-3.55814e-05
1.3572e-05
1.07198e-05
-3.62583e-05
-1.93626e-06
-5.90356e-06
-5.13308e-06
-2.0064e-06
-1.01457e-05
4.855e-06
-1.65871e-05
1.26695e-05
-2.22419e-05
1.91865e-05
-2.54919e-05
2.25319e-05
-2.67641e-05
2.28612e-05
-2.71254e-05
2.15199e-05
-2.70806e-05
1.9503e-05
-2.7099e-05
1.66643e-05
-2.72388e-05
1.37116e-05
1.08233e-05
-2.73423e-05
-3.75769e-06
-2.14487e-06
-8.70307e-06
2.93966e-06
-1.36954e-05
9.84763e-06
-1.78158e-05
1.67903e-05
-2.01152e-05
2.14863e-05
-2.06309e-05
2.3048e-05
-2.02802e-05
2.25109e-05
-1.96461e-05
2.08858e-05
-1.88707e-05
1.87278e-05
-1.83174e-05
1.61108e-05
-1.79631e-05
1.33573e-05
1.05777e-05
-1.77178e-05
-4.83908e-06
2.6965e-06
-9.56737e-06
7.66859e-06
-1.31878e-05
1.34689e-05
-1.50795e-05
1.86828e-05
-1.52019e-05
2.16093e-05
-1.42777e-05
2.21245e-05
-1.29851e-05
2.12185e-05
-1.1678e-05
1.95792e-05
-1.0489e-05
1.75388e-05
-9.56508e-06
1.5187e-05
-8.89171e-06
1.26839e-05
1.00973e-05
-8.41121e-06
-5.01579e-06
7.71349e-06
-8.94142e-06
1.15954e-05
-1.10399e-05
1.5568e-05
-1.10965e-05
1.87402e-05
-9.70123e-06
2.02148e-05
-7.7336e-06
2.01574e-05
-5.708e-06
1.91934e-05
-3.85567e-06
1.77271e-05
-2.26696e-06
1.59503e-05
-1.00251e-06
1.39227e-05
-4.157e-08
1.1723e-05
9.39201e-06
6.6371e-07
-4.92447e-06
1.26392e-05
-7.78636e-06
1.44578e-05
-8.29202e-06
1.60744e-05
-6.7962e-06
1.72449e-05
-4.21649e-06
1.76355e-05
-1.35927e-06
1.73006e-05
1.35919e-06
1.64753e-05
3.76027e-06
1.53263e-05
5.78359e-06
1.39272e-05
7.4112e-06
1.22952e-05
8.67577e-06
1.04585e-05
8.44064e-06
9.62719e-06
-4.36545e-06
1.70052e-05
-6.02568e-06
1.61187e-05
-4.82497e-06
1.48739e-05
-1.93536e-06
1.43556e-05
1.69254e-06
1.40079e-05
5.36192e-06
1.36315e-05
8.72227e-06
1.31152e-05
1.16356e-05
1.24132e-05
1.40685e-05
1.14944e-05
1.60327e-05
1.03311e-05
1.75771e-05
8.91416e-06
7.25811e-06
1.87597e-05
-3.96436e-06
2.09703e-05
-2.93944e-06
1.50939e-05
7.39726e-07
1.11951e-05
5.11318e-06
9.98236e-06
9.63837e-06
9.48297e-06
1.38778e-05
9.39219e-06
1.76158e-05
9.37744e-06
2.07877e-05
9.24147e-06
2.34048e-05
8.87743e-06
2.55118e-05
8.22412e-06
2.71777e-05
7.24831e-06
5.96747e-06
2.84684e-05
4.74277e-07
2.04964e-05
5.99442e-06
9.57415e-06
1.18974e-05
5.29211e-06
1.72767e-05
4.60318e-06
2.20118e-05
4.74809e-06
2.60762e-05
5.32792e-06
2.95053e-05
5.94851e-06
3.23479e-05
6.39897e-06
3.46646e-05
6.56089e-06
3.65192e-05
6.36963e-06
3.79916e-05
5.77589e-06
4.81402e-06
3.91452e-05
2.01725e-05
3.24195e-07
2.83864e-05
1.36029e-06
3.34633e-05
2.15466e-07
3.73817e-05
6.8481e-07
4.04273e-05
1.70258e-06
4.29324e-05
2.82299e-06
4.50353e-05
3.84566e-06
4.67799e-05
4.65447e-06
4.81993e-05
5.14161e-06
4.93272e-05
5.24175e-06
5.02295e-05
4.8736e-06
5.09503e-05
4.0933e-06
-5.27303e-05
5.59322e-06
-5.63635e-05
3.63304e-06
-5.80099e-05
1.64628e-06
-5.78814e-05
-1.2861e-07
-5.60199e-05
-1.86143e-06
-5.24412e-05
-3.57883e-06
-4.6934e-05
-5.50712e-06
-3.94857e-05
-7.44828e-06
-2.9924e-05
-9.56164e-06
-1.84709e-05
-1.1453e-05
-7.05801e-06
-1.14128e-05
-7.05795e-06
-4.72063e-05
7.1226e-06
-4.80259e-05
4.45249e-06
-4.82587e-05
1.87909e-06
-4.78243e-05
-5.63146e-07
-4.66752e-05
-3.01046e-06
-4.46051e-05
-5.64897e-06
-4.15474e-05
-8.56482e-06
-3.71675e-05
-1.18281e-05
-3.12755e-05
-1.54536e-05
-2.3584e-05
-1.91444e-05
-1.31385e-05
-2.18581e-05
-2.01964e-05
-3.69207e-05
7.78484e-06
-3.74055e-05
4.93716e-06
-3.76349e-05
2.10845e-06
-3.74399e-05
-7.582e-07
-3.66693e-05
-3.78104e-06
-3.52587e-05
-7.05959e-06
-3.31041e-05
-1.07194e-05
-3.0075e-05
-1.48572e-05
-2.60848e-05
-1.94437e-05
-2.06555e-05
-2.45736e-05
-1.27831e-05
-2.97305e-05
-3.29795e-05
-2.74438e-05
7.88618e-06
-2.74637e-05
4.957e-06
-2.7345e-05
1.98965e-06
-2.70126e-05
-1.09061e-06
-2.64023e-05
-4.39135e-06
-2.54464e-05
-8.01556e-06
-2.40562e-05
-1.21095e-05
-2.2105e-05
-1.68084e-05
-1.93851e-05
-2.21635e-05
-1.54082e-05
-2.85504e-05
-9.4141e-06
-3.57245e-05
-4.23936e-05
-1.7569e-05
7.73735e-06
-1.74582e-05
4.84609e-06
-1.73297e-05
1.86117e-06
-1.71318e-05
-1.28861e-06
-1.68231e-05
-4.7e-06
-1.63563e-05
-8.48237e-06
-1.56732e-05
-1.27927e-05
-1.4712e-05
-1.77694e-05
-1.32722e-05
-2.36033e-05
-1.11367e-05
-3.06859e-05
-7.42873e-06
-3.94323e-05
-4.98223e-05
-8.0923e-06
7.41839e-06
-7.8892e-06
4.64297e-06
-7.76172e-06
1.73369e-06
-7.67877e-06
-1.37154e-06
-7.61943e-06
-4.75929e-06
-7.56381e-06
-8.53795e-06
-7.50755e-06
-1.28488e-05
-7.41474e-06
-1.78622e-05
-7.17121e-06
-2.38467e-05
-6.5962e-06
-3.12609e-05
-4.86863e-06
-4.11598e-05
-5.46908e-05
1.15162e-06
6.93052e-06
1.4592e-06
4.33544e-06
1.61341e-06
1.57954e-06
1.62708e-06
-1.38513e-06
1.4983e-06
-4.63042e-06
1.21267e-06
-8.2522e-06
7.41592e-07
-1.23777e-05
6.67805e-08
-1.71873e-05
-7.88567e-07
-2.29913e-05
-1.70639e-06
-3.03429e-05
-2.22651e-06
-4.06395e-05
-5.69173e-05
1.03105e-05
6.24731e-06
1.07589e-05
3.8871e-06
1.09912e-05
1.34729e-06
1.10069e-05
-1.40072e-06
1.0785e-05
-4.40841e-06
1.02817e-05
-7.74876e-06
9.42242e-06
-1.15182e-05
8.11385e-06
-1.58786e-05
6.26122e-06
-2.11385e-05
3.84406e-06
-2.79256e-05
1.24227e-06
-3.80376e-05
-5.56749e-05
1.96364e-05
5.37071e-06
2.02414e-05
3.28222e-06
2.05913e-05
9.97499e-07
2.06772e-05
-1.48645e-06
2.0464e-05
-4.19513e-06
1.98839e-05
-7.1685e-06
1.88132e-05
-1.04474e-05
1.70742e-05
-1.41395e-05
1.44211e-05
-1.84853e-05
1.05968e-05
-2.41013e-05
5.69548e-06
-3.31361e-05
-4.99793e-05
2.94538e-05
4.38533e-06
3.01684e-05
2.56775e-06
3.06311e-05
5.34911e-07
3.08289e-05
-1.68405e-06
3.07159e-05
-4.082e-06
3.02059e-05
-6.65838e-06
2.91331e-05
-9.37447e-06
2.72431e-05
-1.22494e-05
2.41253e-05
-1.53674e-05
1.92745e-05
-1.92504e-05
1.18779e-05
-2.57394e-05
-3.81012e-05
4.00637e-05
3.46692e-06
4.07718e-05
1.85976e-06
4.12916e-05
1.52602e-08
4.16078e-05
-2.0001e-06
4.1666e-05
-4.14002e-06
4.13674e-05
-6.35972e-06
4.05198e-05
-8.52674e-06
3.88269e-05
-1.05563e-05
3.57388e-05
-1.22792e-05
3.052e-05
-1.40315e-05
2.06606e-05
-1.58798e-05
-1.74406e-05
5.15934e-05
2.82384e-06
5.21582e-05
1.29508e-06
5.26675e-05
-4.93962e-07
5.30983e-05
-2.43073e-06
5.33833e-05
-4.4249e-06
5.3414e-05
-6.39038e-06
5.29964e-05
-8.10906e-06
5.18626e-05
-9.42245e-06
4.94887e-05
-9.90515e-06
4.49376e-05
-9.48025e-06
3.45761e-05
-5.51838e-06
1.71358e-05
5.21318e-06
-5.21242e-06
8.80611e-06
-3.59476e-06
1.14866e-05
-2.68014e-06
1.28926e-05
-1.40625e-06
1.28689e-05
2.46157e-08
1.07883e-05
2.0839e-06
6.05766e-06
4.73184e-06
-1.44151e-06
7.50232e-06
-1.51722e-05
1.37306e-05
-2.89733e-05
1.38013e-05
-3.9175e-05
1.02013e-05
7.96362e-06
-4.71391e-05
1.42754e-06
-6.63934e-06
3.54231e-06
-5.71074e-06
3.64462e-06
-2.78204e-06
1.70691e-06
5.31416e-07
-2.83351e-06
4.56614e-06
-1.12841e-05
1.05357e-05
-2.30841e-05
1.65325e-05
-3.40023e-05
1.84211e-05
-3.87922e-05
1.85206e-05
-4.10784e-05
1.60874e-05
-4.35988e-05
1.27215e-05
1.00384e-05
-4.56739e-05
1.19548e-06
-7.83455e-06
6.93421e-07
-5.2091e-06
-1.93423e-06
-1.54401e-07
-7.64799e-06
6.2452e-06
-1.66319e-05
1.35504e-05
-2.53802e-05
1.92846e-05
-3.04315e-05
2.15842e-05
-3.31617e-05
2.11517e-05
-3.41812e-05
1.95402e-05
-3.47322e-05
1.66384e-05
-3.55771e-05
1.35662e-05
1.07151e-05
-3.62539e-05
-1.9458e-06
-5.88847e-06
-5.15656e-06
-1.99844e-06
-1.01723e-05
4.8614e-06
-1.66054e-05
1.26784e-05
-2.22462e-05
1.91915e-05
-2.54895e-05
2.25283e-05
-2.67593e-05
2.28543e-05
-2.71198e-05
2.15125e-05
-2.7075e-05
1.94956e-05
-2.7094e-05
1.66574e-05
-2.72339e-05
1.37061e-05
1.08188e-05
-2.73378e-05
-3.75522e-06
-2.13275e-06
-8.70768e-06
2.95431e-06
-1.37027e-05
9.85668e-06
-1.78188e-05
1.67949e-05
-2.01118e-05
2.1485e-05
-2.06253e-05
2.30422e-05
-2.02744e-05
2.25037e-05
-1.96401e-05
2.08786e-05
-1.88654e-05
1.8721e-05
-1.83127e-05
1.61048e-05
-1.7959e-05
1.33523e-05
1.05737e-05
-1.7714e-05
-4.84147e-06
2.70969e-06
-9.56698e-06
7.6804e-06
-1.31859e-05
1.34763e-05
-1.50754e-05
1.86849e-05
-1.51959e-05
2.16062e-05
-1.42718e-05
2.21186e-05
-1.29794e-05
2.12119e-05
-1.16732e-05
1.95727e-05
-1.04848e-05
1.75328e-05
-9.56159e-06
1.51817e-05
-8.88861e-06
1.26794e-05
1.00936e-05
-8.40851e-06
-5.01409e-06
7.72499e-06
-8.93754e-06
1.16047e-05
-1.10342e-05
1.55737e-05
-1.10898e-05
1.87413e-05
-9.69486e-06
2.02118e-05
-7.72808e-06
2.01524e-05
-5.70361e-06
1.91878e-05
-3.85211e-06
1.77216e-05
-2.26414e-06
1.59451e-05
-1.00018e-06
1.3918e-05
-3.96368e-08
1.1719e-05
9.38872e-06
6.654e-07
-4.92161e-06
1.26473e-05
-7.78071e-06
1.44645e-05
-8.28501e-06
1.60785e-05
-6.78915e-06
1.72459e-05
-4.21055e-06
1.76336e-05
-1.35465e-06
1.72969e-05
1.36261e-06
1.64709e-05
3.76279e-06
1.53218e-05
5.78545e-06
1.39227e-05
7.4126e-06
1.22911e-05
8.67688e-06
1.04549e-05
8.43761e-06
9.62811e-06
-4.36153e-06
1.70096e-05
-6.01967e-06
1.61231e-05
-4.81808e-06
1.48772e-05
-1.92876e-06
1.43569e-05
1.69806e-06
1.40071e-05
5.36616e-06
1.36291e-05
8.72537e-06
1.3112e-05
1.16378e-05
1.24096e-05
1.407e-05
1.14907e-05
1.60338e-05
1.03276e-05
1.75779e-05
8.91097e-06
7.25538e-06
1.87603e-05
-3.96117e-06
2.09712e-05
-2.93478e-06
1.50969e-05
7.45385e-07
1.11973e-05
5.11897e-06
9.98349e-06
9.64351e-06
9.48271e-06
1.3882e-05
9.39074e-06
1.7619e-05
9.37516e-06
2.07901e-05
9.23871e-06
2.34066e-05
8.87447e-06
2.55131e-05
8.22118e-06
2.71786e-05
7.2456e-06
5.96512e-06
2.8469e-05
4.75476e-07
2.04961e-05
5.99754e-06
9.57504e-06
1.19017e-05
5.29324e-06
1.72815e-05
4.6038e-06
2.20165e-05
4.74789e-06
2.60805e-05
5.32686e-06
2.9509e-05
5.9468e-06
3.2351e-05
6.39684e-06
3.4667e-05
6.55856e-06
3.6521e-05
6.36729e-06
3.7993e-05
5.77374e-06
4.81215e-06
3.91461e-05
2.01738e-05
3.22346e-07
2.8389e-05
1.35985e-06
3.34668e-05
2.1538e-07
3.7386e-05
6.84657e-07
4.04319e-05
1.70204e-06
4.29368e-05
2.82198e-06
4.50394e-05
3.84423e-06
4.67835e-05
4.65279e-06
4.82023e-05
5.13982e-06
4.93297e-05
5.24003e-06
5.02314e-05
4.87205e-06
5.09516e-05
4.09204e-06
-5.27302e-05
5.59078e-06
-5.6361e-05
3.63049e-06
-5.80063e-05
1.64515e-06
-5.78769e-05
-1.29623e-07
-5.60152e-05
-1.8617e-06
-5.24363e-05
-3.57903e-06
-4.69295e-05
-5.50681e-06
-3.94816e-05
-7.44785e-06
-2.99208e-05
-9.56082e-06
-1.84687e-05
-1.1452e-05
-7.05688e-06
-1.14116e-05
-7.05681e-06
-4.72022e-05
7.1189e-06
-4.80217e-05
4.44977e-06
-4.82541e-05
1.8774e-06
-4.78197e-05
-5.64165e-07
-4.66705e-05
-3.01087e-06
-4.46007e-05
-5.64886e-06
-4.15433e-05
-8.56422e-06
-3.7164e-05
-1.18271e-05
-3.12726e-05
-1.54521e-05
-2.3582e-05
-1.91426e-05
-1.31374e-05
-2.18561e-05
-2.01941e-05
-3.69164e-05
7.78117e-06
-3.74012e-05
4.93445e-06
-3.76306e-05
2.10667e-06
-3.74357e-05
-7.59161e-07
-3.66653e-05
-3.78125e-06
-3.5255e-05
-7.05914e-06
-3.31009e-05
-1.07183e-05
-3.00722e-05
-1.48557e-05
-2.60826e-05
-1.94417e-05
-2.06539e-05
-2.45711e-05
-1.27823e-05
-2.97276e-05
-3.29763e-05
-2.74394e-05
7.88275e-06
-2.74596e-05
4.95454e-06
-2.73412e-05
1.98815e-06
-2.70091e-05
-1.09129e-06
-2.63991e-05
-4.39127e-06
-2.54434e-05
-8.0148e-06
-2.40536e-05
-1.21081e-05
-2.21027e-05
-1.68065e-05
-1.93832e-05
-2.21611e-05
-1.54068e-05
-2.85475e-05
-9.41334e-06
-3.5721e-05
-4.23896e-05
-1.75656e-05
7.73427e-06
-1.7455e-05
4.84394e-06
-1.73268e-05
1.8599e-06
-1.7129e-05
-1.28907e-06
-1.68206e-05
-4.69972e-06
-1.6354e-05
-8.48139e-06
-1.56711e-05
-1.2791e-05
-1.47103e-05
-1.77672e-05
-1.32709e-05
-2.36004e-05
-1.11357e-05
-3.06825e-05
-7.4282e-06
-3.94284e-05
-4.98178e-05
-8.08984e-06
7.41563e-06
-7.88696e-06
4.64104e-06
-7.75962e-06
1.73257e-06
-7.6768e-06
-1.37188e-06
-7.61758e-06
-4.7589e-06
-7.56208e-06
-8.53683e-06
-7.50598e-06
-1.2847e-05
-7.41336e-06
-1.78597e-05
-7.17012e-06
-2.38436e-05
-6.59538e-06
-3.12572e-05
-4.86816e-06
-4.11555e-05
-5.46859e-05
1.15312e-06
6.92796e-06
1.46058e-06
4.33364e-06
1.6147e-06
1.5785e-06
1.62832e-06
-1.38544e-06
1.4995e-06
-4.62999e-06
1.2138e-06
-8.25106e-06
7.42672e-07
-1.23758e-05
6.77033e-08
-1.71847e-05
-7.87819e-07
-2.2988e-05
-1.70586e-06
-3.0339e-05
-2.22618e-06
-4.0635e-05
-5.6912e-05
1.03112e-05
6.24493e-06
1.07596e-05
3.8854e-06
1.09919e-05
1.34628e-06
1.10075e-05
-1.40101e-06
1.07857e-05
-4.40799e-06
1.02823e-05
-7.7476e-06
9.42301e-06
-1.15163e-05
8.11437e-06
-1.58759e-05
6.26163e-06
-2.11351e-05
3.84427e-06
-2.79215e-05
1.24242e-06
-3.8033e-05
-5.56694e-05
1.96368e-05
5.36852e-06
2.02417e-05
3.28065e-06
2.05915e-05
9.96563e-07
2.06773e-05
-1.48671e-06
2.04642e-05
-4.19469e-06
1.9884e-05
-7.16732e-06
1.88133e-05
-1.04455e-05
1.70743e-05
-1.41367e-05
1.44211e-05
-1.84818e-05
1.05968e-05
-2.4097e-05
5.6954e-06
-3.31314e-05
-4.9974e-05
2.94542e-05
4.38344e-06
3.01686e-05
2.56638e-06
3.06311e-05
5.3415e-07
3.08287e-05
-1.68418e-06
3.07156e-05
-4.08145e-06
3.02056e-05
-6.65714e-06
2.91328e-05
-9.37246e-06
2.72428e-05
-1.22466e-05
2.41249e-05
-1.53637e-05
1.92741e-05
-1.92461e-05
1.18776e-05
-2.57348e-05
-3.80963e-05
4.00642e-05
3.46544e-06
4.0772e-05
1.85873e-06
4.12915e-05
1.47882e-08
4.16075e-05
-1.99998e-06
4.16654e-05
-4.13926e-06
4.13667e-05
-6.35829e-06
4.0519e-05
-8.52457e-06
3.8826e-05
-1.05534e-05
3.57379e-05
-1.22755e-05
3.05191e-05
-1.40272e-05
2.06598e-05
-1.58753e-05
-1.74363e-05
5.15943e-05
2.82289e-06
5.21585e-05
1.29454e-06
5.26674e-05
-4.94018e-07
5.30978e-05
-2.43023e-06
5.33824e-05
-4.4238e-06
5.34129e-05
-6.38861e-06
5.29951e-05
-8.10661e-06
5.18611e-05
-9.41926e-06
4.9487e-05
-9.90135e-06
4.49359e-05
-9.47619e-06
3.45749e-05
-5.51416e-06
1.71388e-05
5.16323e-06
-5.16381e-06
8.76423e-06
-3.60343e-06
1.14706e-05
-2.70702e-06
1.28973e-05
-1.4275e-06
1.28813e-05
1.59173e-08
1.08001e-05
2.08363e-06
6.06726e-06
4.73303e-06
-1.42792e-06
7.49761e-06
-1.51588e-05
1.37305e-05
-2.89671e-05
1.38084e-05
-3.91726e-05
1.02051e-05
7.9671e-06
-4.714e-05
1.42762e-06
-6.59141e-06
3.54129e-06
-5.71861e-06
3.63295e-06
-2.79891e-06
1.69471e-06
5.10173e-07
-2.83184e-06
4.54293e-06
-1.12732e-05
1.05259e-05
-2.30717e-05
1.6532e-05
-3.3999e-05
1.84253e-05
-3.87951e-05
1.85266e-05
-4.10814e-05
1.60947e-05
-4.36028e-05
1.27264e-05
1.00423e-05
-4.56782e-05
1.24907e-06
-7.84003e-06
7.32641e-07
-5.20266e-06
-1.90948e-06
-1.5683e-07
-7.62873e-06
6.22946e-06
-1.66188e-05
1.35333e-05
-2.53755e-05
1.92831e-05
-3.04329e-05
2.15897e-05
-3.31659e-05
2.11585e-05
-3.41867e-05
1.95475e-05
-3.47372e-05
1.66452e-05
-3.55823e-05
1.35713e-05
1.07191e-05
-3.62593e-05
-1.93633e-06
-5.90309e-06
-5.1334e-06
-2.00548e-06
-1.01464e-05
4.85644e-06
-1.65881e-05
1.26713e-05
-2.22428e-05
1.91883e-05
-2.54925e-05
2.25333e-05
-2.67646e-05
2.28619e-05
-2.71258e-05
2.15201e-05
-2.70812e-05
1.95028e-05
-2.70997e-05
1.66638e-05
-2.72395e-05
1.3711e-05
1.08226e-05
-2.73431e-05
-3.75776e-06
-2.14433e-06
-8.70323e-06
2.94067e-06
-1.36956e-05
9.84918e-06
-1.78161e-05
1.67922e-05
-2.01155e-05
2.14882e-05
-2.06312e-05
2.30493e-05
-2.02804e-05
2.25117e-05
-1.96464e-05
2.08861e-05
-1.88711e-05
1.87277e-05
-1.83179e-05
1.61105e-05
-1.79637e-05
1.33568e-05
1.05771e-05
-1.77184e-05
-4.83918e-06
2.69716e-06
-9.56749e-06
7.66962e-06
-1.31879e-05
1.34705e-05
-1.50796e-05
1.86847e-05
-1.5202e-05
2.1611e-05
-1.42778e-05
2.21258e-05
-1.29851e-05
2.12192e-05
-1.16782e-05
1.95796e-05
-1.04893e-05
1.75388e-05
-9.56541e-06
1.51868e-05
-8.89208e-06
1.26834e-05
1.00966e-05
-8.41159e-06
-5.01581e-06
7.71416e-06
-8.94151e-06
1.15965e-05
-1.104e-05
1.55695e-05
-1.10965e-05
1.8742e-05
-9.70108e-06
2.02164e-05
-7.73341e-06
2.01586e-05
-5.70786e-06
1.91942e-05
-3.8556e-06
1.77276e-05
-2.26697e-06
1.59504e-05
-1.00257e-06
1.39225e-05
-4.16573e-08
1.17226e-05
9.39134e-06
6.63629e-07
-4.92456e-06
1.264e-05
-7.78649e-06
1.4459e-05
-8.29203e-06
1.60758e-05
-6.79597e-06
1.72465e-05
-4.21609e-06
1.7637e-05
-1.35881e-06
1.73018e-05
1.35962e-06
1.64761e-05
3.76064e-06
1.53268e-05
5.7839e-06
1.39273e-05
7.41147e-06
1.2295e-05
8.67603e-06
1.04581e-05
8.43996e-06
9.62748e-06
-4.36568e-06
1.70062e-05
-6.02586e-06
1.61198e-05
-4.82489e-06
1.48751e-05
-1.93498e-06
1.43569e-05
1.69313e-06
1.40092e-05
5.3626e-06
1.36326e-05
8.72295e-06
1.3116e-05
1.16362e-05
1.24137e-05
1.40691e-05
1.14946e-05
1.60333e-05
1.03309e-05
1.75778e-05
8.9137e-06
7.2574e-06
1.87604e-05
-3.96463e-06
2.09715e-05
-2.93959e-06
1.50949e-05
7.39834e-07
1.1196e-05
5.11359e-06
9.98333e-06
9.639e-06
9.48401e-06
1.38786e-05
9.39318e-06
1.76165e-05
9.37824e-06
2.07885e-05
9.24197e-06
2.34056e-05
8.87759e-06
2.55127e-05
8.22392e-06
2.71786e-05
7.24781e-06
5.96671e-06
2.84694e-05
4.74128e-07
2.04978e-05
5.99431e-06
9.5751e-06
1.18974e-05
5.29287e-06
1.7277e-05
4.60396e-06
2.20122e-05
4.74898e-06
2.60767e-05
5.32881e-06
2.95059e-05
5.94923e-06
3.23486e-05
6.3994e-06
3.46654e-05
6.56096e-06
3.652e-05
6.36933e-06
3.79926e-05
5.77528e-06
4.81316e-06
3.91462e-05
2.01721e-05
3.25986e-07
2.83859e-05
1.36132e-06
3.34628e-05
2.16237e-07
3.73813e-05
6.85596e-07
4.0427e-05
1.70339e-06
4.29321e-05
2.82375e-06
4.50352e-05
3.84622e-06
4.678e-05
4.65471e-06
4.81996e-05
5.14148e-06
4.93277e-05
5.24124e-06
5.02302e-05
4.87279e-06
5.09512e-05
4.09225e-06
-5.27329e-05
5.5927e-06
-5.63655e-05
3.63239e-06
-5.80115e-05
1.64588e-06
-5.78826e-05
-1.29033e-07
-5.60208e-05
-1.86172e-06
-5.24418e-05
-3.57914e-06
-4.69344e-05
-5.5073e-06
-3.9486e-05
-7.44844e-06
-2.99242e-05
-9.56169e-06
-1.84712e-05
-1.1453e-05
-7.05825e-06
-1.14128e-05
-7.05819e-06
-4.72074e-05
7.12182e-06
-4.8027e-05
4.45178e-06
-4.82596e-05
1.87847e-06
-4.7825e-05
-5.63709e-07
-4.66757e-05
-3.01097e-06
-4.46055e-05
-5.64941e-06
-4.15475e-05
-8.56517e-06
-3.71676e-05
-1.18284e-05
-3.12755e-05
-1.54537e-05
-2.3584e-05
-1.91444e-05
-1.31385e-05
-2.18581e-05
-2.01966e-05
-3.69216e-05
7.78407e-06
-3.74064e-05
4.93639e-06
-3.76356e-05
2.1077e-06
-3.74405e-05
-7.5892e-07
-3.66698e-05
-3.78171e-06
-3.5259e-05
-7.06019e-06
-3.31042e-05
-1.07199e-05
-3.0075e-05
-1.48576e-05
-2.60847e-05
-1.9444e-05
-2.06553e-05
-2.45737e-05
-1.27829e-05
-2.97304e-05
-3.29795e-05
-2.74445e-05
7.88541e-06
-2.74644e-05
4.95618e-06
-2.73456e-05
1.98883e-06
-2.70131e-05
-1.09144e-06
-2.64027e-05
-4.39215e-06
-2.54466e-05
-8.01632e-06
-2.40562e-05
-1.21102e-05
-2.21049e-05
-1.68089e-05
-1.93849e-05
-2.21639e-05
-1.5408e-05
-2.85505e-05
-9.41397e-06
-3.57244e-05
-4.23934e-05
-1.75696e-05
7.73657e-06
-1.74587e-05
4.84523e-06
-1.73302e-05
1.86027e-06
-1.71321e-05
-1.28954e-06
-1.68234e-05
-4.70092e-06
-1.63564e-05
-8.48325e-06
-1.56731e-05
-1.27934e-05
-1.47119e-05
-1.77701e-05
-1.3272e-05
-2.36037e-05
-1.11363e-05
-3.06861e-05
-7.42845e-06
-3.94322e-05
-4.98218e-05
-8.09267e-06
7.41758e-06
-7.88951e-06
4.64207e-06
-7.76195e-06
1.7327e-06
-7.6789e-06
-1.37256e-06
-7.61945e-06
-4.76032e-06
-7.56373e-06
-8.53893e-06
-7.50735e-06
-1.28497e-05
-7.41446e-06
-1.78629e-05
-7.17088e-06
-2.38472e-05
-6.59583e-06
-3.1261e-05
-4.86836e-06
-4.11595e-05
-5.46901e-05
1.15157e-06
6.92969e-06
1.4592e-06
4.33448e-06
1.61348e-06
1.57849e-06
1.62724e-06
-1.38623e-06
1.49854e-06
-4.63153e-06
1.21299e-06
-8.25326e-06
7.41994e-07
-1.23786e-05
6.72336e-08
-1.7188e-05
-7.8809e-07
-2.29918e-05
-1.70594e-06
-3.0343e-05
-2.22612e-06
-4.06391e-05
-5.69161e-05
1.03108e-05
6.24645e-06
1.07592e-05
3.8861e-06
1.09916e-05
1.34618e-06
1.10074e-05
-1.40188e-06
1.07856e-05
-4.40957e-06
1.02823e-05
-7.74987e-06
9.42304e-06
-1.15192e-05
8.11448e-06
-1.58794e-05
6.26181e-06
-2.1139e-05
3.84457e-06
-2.79256e-05
1.24265e-06
-3.80371e-05
-5.56733e-05
1.96371e-05
5.36981e-06
2.02421e-05
3.28118e-06
2.05921e-05
9.96355e-07
2.0678e-05
-1.48765e-06
2.04649e-05
-4.19632e-06
1.98847e-05
-7.16961e-06
1.8814e-05
-1.04484e-05
1.7075e-05
-1.41402e-05
1.44218e-05
-1.84856e-05
1.05973e-05
-2.41011e-05
5.69589e-06
-3.31353e-05
-4.99773e-05
2.94549e-05
4.38438e-06
3.01695e-05
2.56667e-06
3.06322e-05
5.33738e-07
3.083e-05
-1.68526e-06
3.0717e-05
-4.08318e-06
3.02069e-05
-6.65945e-06
2.91341e-05
-9.37535e-06
2.7244e-05
-1.225e-05
2.4126e-05
-1.53675e-05
1.9275e-05
-1.925e-05
1.18782e-05
-2.57385e-05
-3.80989e-05
4.00648e-05
3.46589e-06
4.0773e-05
1.85862e-06
4.12929e-05
1.4051e-08
4.16091e-05
-2.00132e-06
4.16672e-05
-4.14116e-06
4.13686e-05
-6.36071e-06
4.05208e-05
-8.52748e-06
3.88277e-05
-1.05567e-05
3.57394e-05
-1.22791e-05
3.05203e-05
-1.40309e-05
2.06607e-05
-1.58786e-05
-1.74382e-05
5.15945e-05
2.82266e-06
5.21594e-05
1.29383e-06
5.26688e-05
-4.95233e-07
5.30995e-05
-2.43195e-06
5.33844e-05
-4.42597e-06
5.3415e-05
-6.39122e-06
5.29972e-05
-8.10958e-06
5.18631e-05
-9.42256e-06
4.94889e-05
-9.90478e-06
4.49375e-05
-9.47939e-06
3.45759e-05
-5.51695e-06
1.71378e-05
6.55457e-05
4.15445e-06
-6.93747e-05
6.48514e-05
2.05523e-06
6.34857e-05
1.58085e-06
6.2748e-05
1.42202e-06
6.25398e-05
1.91024e-06
6.2643e-05
2.71902e-06
6.28791e-05
3.60873e-06
6.31244e-05
4.40825e-06
6.33137e-05
4.95137e-06
6.34272e-05
5.12733e-06
6.35128e-05
4.78713e-06
4.00275e-06
6.36028e-05
8.42216e-05
3.29229e-06
-8.33596e-05
8.38779e-05
2.39893e-06
8.31989e-05
2.25973e-06
8.23385e-05
2.28245e-06
8.15087e-05
2.74004e-06
8.07271e-05
3.50065e-06
7.99612e-05
4.37467e-06
7.91798e-05
5.1897e-06
7.83792e-05
5.75195e-06
7.75915e-05
5.91502e-06
7.69133e-05
5.46534e-06
4.48861e-06
7.64274e-05
9.72564e-05
2.31105e-06
-9.62751e-05
9.75634e-05
2.09194e-06
9.75117e-05
2.31136e-06
9.71056e-05
2.68857e-06
9.64307e-05
3.41501e-06
9.55269e-05
4.4045e-06
9.44215e-05
5.48005e-06
9.31588e-05
6.45243e-06
9.1815e-05
7.09572e-06
9.05141e-05
7.21592e-06
8.94333e-05
6.54617e-06
5.13597e-06
8.87859e-05
0.000109095
-0.000108501
1.71673e-06
0.000109361
1.82582e-06
0.000109312
2.36068e-06
0.000108904
3.09565e-06
0.000108148
4.17135e-06
0.000107079
5.47379e-06
0.000105756
6.80283e-06
0.000104282
7.92608e-06
0.000102808
8.56984e-06
0.000101553
8.47091e-06
0.000100772
7.32733e-06
0.000100897
5.01069e-06
6.38528e-05
2.57354e-06
6.42187e-05
9.2931e-07
6.47202e-05
-9.9504e-07
6.53076e-05
-3.01729e-06
6.58853e-05
-5.00156e-06
6.63207e-05
-6.82438e-06
6.64351e-05
-8.22188e-06
6.60281e-05
-9.0136e-06
6.488e-05
-8.75529e-06
6.2735e-05