/*--------------------------------*- C++ -*----------------------------------*\
  =========                 |
  \\      /  F ield         | OpenFOAM: The Open Source CFD Toolbox
   \\    /   O peration     | Website:  https://openfoam.org
    \\  /    A nd           | Version:  6
     \\/     M anipulation  |
\*---------------------------------------------------------------------------*/
FoamFile
{
    version     2.0;
    format      ascii;
    class       volVectorField;
    location    "400";
    object      U;
}
// * * * * * * * * * * * * * * * * * * * * * * * * * * * * * * * * * * * * * //

dimensions      [0 1 -1 0 0 0 0];

internalField   nonuniform List<vector> 
3072
(
(0.223239 2.20391 0)
(0.292833 1.93696 0)
(0.380527 1.76875 1.42705e-19)
(0.497305 1.6619 7.3467e-19)
(0.617411 1.5878 -1.23458e-18)
(0.747684 1.54984 7.85639e-19)
(0.896661 1.67344 3.82976e-19)
(1.3062 1.69193 1.0081e-18)
(2.27508 1.45427 -3.44917e-19)
(2.93525 1.79927 9.37619e-19)
(3.12988 2.11752 7.98175e-19)
(3.4368 2.24779 7.27871e-19)
(-0.364081 2.6642 -2.08811e-19)
(-0.193172 2.40281 -4.77887e-19)
(0.051757 2.35585 4.87519e-19)
(0.327594 2.36176 0)
(0.657388 2.43021 1.07321e-18)
(1.19928 2.39933 -1.36937e-18)
(2.05385 2.5464 0)
(2.68565 2.77919 0)
(2.98189 2.76561 0)
(3.09625 2.83893 8.067e-19)
(3.13019 2.84106 -2.78045e-18)
(3.24174 2.82736 3.51236e-19)
(-0.346736 2.98554 1.90817e-19)
(-0.0986777 2.70716 0)
(0.327826 2.74417 0)
(0.854839 2.77875 -3.61292e-18)
(1.54574 2.88689 1.3195e-18)
(2.24435 3.01755 -2.0445e-18)
(2.71114 3.0378 1.78249e-18)
(2.98108 3.00082 0)
(3.13397 2.87369 0)
(3.20449 2.78376 -1.0204e-18)
(3.2594 2.69785 -1.08955e-18)
(3.33639 2.61278 3.80607e-18)
(-0.28515 3.32218 -1.33347e-18)
(0.121501 3.12451 -2.25041e-18)
(0.701619 3.22889 1.94989e-18)
(1.36592 3.30368 -1.77018e-18)
(2.01128 3.3609 3.60998e-18)
(2.49788 3.32289 -3.61756e-18)
(2.78332 3.20381 -2.15994e-18)
(2.94609 3.07045 -6.69538e-18)
(3.05648 2.91866 -3.00683e-19)
(3.11546 2.80408 3.49125e-18)
(3.16744 2.6997 3.89618e-18)
(3.22646 2.59888 -3.103e-18)
(-0.0742193 3.53153 0)
(0.388767 3.49103 1.23297e-18)
(0.998974 3.59903 -2.75589e-18)
(1.63259 3.63058 3.23004e-18)
(2.16418 3.57473 6.00692e-19)
(2.50734 3.43619 2.15958e-18)
(2.7103 3.26796 2.43418e-18)
(2.83906 3.1009 2.35558e-18)
(2.92702 2.93821 -4.90458e-18)
(2.98929 2.79643 4.15803e-18)
(3.04693 2.66944 -5.62822e-18)
(3.10591 2.5509 7.46005e-18)
(0.141401 3.71602 -4.63766e-18)
(0.630315 3.77531 1.74497e-18)
(1.19505 3.85276 5.03217e-18)
(1.7402 3.81642 0)
(2.15589 3.68429 -7.25684e-18)
(2.42079 3.50112 7.56452e-18)
(2.59059 3.30654 0)
(2.70887 3.1186 -5.66238e-18)
(2.7979 2.94165 4.8202e-18)
(2.86806 2.78319 0)
(2.93187 2.64081 2.77162e-19)
(2.99387 2.51012 4.39106e-18)
(0.347482 3.88263 0)
(0.817491 4.02773 -4.05928e-18)
(1.3069 4.05056 3.70783e-18)
(1.74871 3.95795 0)
(2.07735 3.77894 -4.36867e-18)
(2.29989 3.56607 6.99213e-19)
(2.45634 3.34968 6.1617e-18)
(2.57434 3.14352 5.68098e-18)
(2.66873 2.95193 -4.99864e-18)
(2.74756 2.77834 4.95752e-18)
(2.81864 2.62148 -4.29158e-18)
(2.88573 2.47844 -1.20388e-17)
(0.543421 4.06797 0)
(0.950791 4.27573 3.39975e-18)
(1.3461 4.2311 -4.94453e-18)
(1.6939 4.09465 4.92473e-18)
(1.96343 3.88111 0)
(2.16396 3.64192 -6.35742e-18)
(2.31733 3.40364 6.26305e-18)
(2.44017 3.17808 1.23099e-19)
(2.54226 2.96934 -1.04371e-17)
(2.62965 2.77944 -4.89534e-18)
(2.70769 2.6076 -2.74216e-19)
(2.7797 2.45155 8.81711e-18)
(0.696792 4.24016 0)
(1.03428 4.51306 -3.88014e-18)
(1.32661 4.39268 -5.42624e-18)
(1.59606 4.21359 -3.87566e-18)
(1.82406 3.97021 7.8389e-18)
(2.01216 3.70728 0)
(2.16747 3.44853 0)
(2.29779 3.20456 0)
(2.40891 2.97935 0)
(2.50515 2.77437 4.93444e-18)
(2.59025 2.58895 -4.97103e-18)
(2.66733 2.42107 4.76183e-18)
(0.822973 4.50389 0)
(1.02662 4.71597 2.70614e-18)
(1.2203 4.49099 -6.16847e-19)
(1.44001 4.25283 4.45606e-18)
(1.64351 3.98209 4.43912e-18)
(1.82647 3.70307 -7.12405e-18)
(1.98801 3.43378 0)
(2.12918 3.1816 -2.17611e-19)
(2.2522 2.94937 -1.76844e-17)
(2.35958 2.73777 0)
(2.45381 2.54601 1.10218e-17)
(2.53774 2.3722 -5.16403e-18)
(0.972877 4.56659 0)
(0.935667 4.68953 3.13948e-18)
(1.02313 4.37832 9.22951e-18)
(1.20722 4.08417 -7.88387e-18)
(1.40019 3.81149 -1.10502e-17)
(1.58835 3.54557 1.74983e-17)
(1.7631 3.29378 -1.99019e-19)
(1.92065 3.05855 -6.87505e-18)
(2.06006 2.84043 5.62239e-18)
(2.18245 2.63975 -1.19847e-17)
(2.28918 2.45613 -1.6627e-17)
(2.383 2.28794 1.68305e-17)
(0.398786 4.18546 -1.86023e-18)
(0.564831 4.1128 -1.23082e-17)
(0.692663 3.81195 2.37171e-18)
(0.888002 3.56482 0)
(1.10169 3.37053 0)
(1.31081 3.17845 3.63144e-19)
(1.50507 2.98962 1.86257e-17)
(1.68148 2.8063 1.15056e-17)
(1.83879 2.62981 0)
(1.97782 2.46235 1.08521e-17)
(2.09871 2.30497 0)
(2.20433 2.15712 4.97182e-19)
(3.67904 2.2764 1.85836e-19)
(3.90997 2.22097 -3.73451e-19)
(4.05419 2.11554 -3.23207e-19)
(4.14562 1.97238 -5.74902e-19)
(4.1515 1.81375 -2.86891e-19)
(4.1083 1.62551 0)
(3.97498 1.43551 0)
(3.77427 1.23524 7.98788e-19)
(3.48743 1.03089 -9.37983e-19)
(3.10795 0.789941 0)
(2.68274 0.379489 0)
(2.54017 -0.217337 -6.49779e-20)
(3.33199 2.80781 1.65847e-18)
(3.43412 2.75052 0)
(3.53175 2.65903 -8.95474e-19)
(3.62715 2.53073 5.01893e-19)
(3.70554 2.36924 2.93578e-19)
(3.74475 2.20609 2.65695e-18)
(3.73838 2.04699 -4.32699e-18)
(3.68067 1.90089 6.75306e-19)
(3.56886 1.78789 0)
(3.32625 1.6824 0)
(3.05064 1.54253 0)
(3.19063 1.02899 7.25746e-19)
(3.40684 2.5266 1.55393e-18)
(3.48395 2.43556 -4.25531e-18)
(3.55646 2.33851 1.18386e-18)
(3.61837 2.23788 2.86276e-18)
(3.6604 2.13843 -2.90418e-18)
(3.67719 2.04367 0)
(3.66314 1.9646 0)
(3.61932 1.91143 -2.35534e-19)
(3.55326 1.88713 1.09533e-18)
(3.41684 1.87749 0)
(3.19922 1.86631 0)
(3.41138 1.74559 -4.67919e-19)
(3.2829 2.50223 3.44489e-19)
(3.34137 2.40651 4.23173e-18)
(3.39822 2.31057 2.98326e-18)
(3.44957 2.21593 -2.96857e-18)
(3.49054 2.12738 0)
(3.51707 2.05084 1.72757e-18)
(3.5256 1.99394 0)
(3.519 1.96658 2.51422e-18)
(3.49428 1.96931 -7.6842e-19)
(3.42666 2.02523 0)
(3.24902 2.108 -5.50276e-19)
(3.54696 2.15722 6.58829e-19)
(3.16411 2.44005 -3.0389e-18)
(3.22303 2.33494 0)
(3.2803 2.23514 0)
(3.33326 2.14251 0)
(3.37946 2.06093 0)
(3.41748 1.99536 -3.12555e-18)
(3.44594 1.95432 -1.40548e-19)
(3.46423 1.94484 -1.39907e-18)
(3.47917 1.97568 0)
(3.47544 2.06277 -1.2215e-18)
(3.36039 2.20479 4.90856e-19)
(3.77271 2.40187 -1.68556e-19)
(3.05454 2.38966 -2.42261e-19)
(3.1148 2.27792 -7.21179e-18)
(3.17379 2.17462 3.3958e-18)
(3.23043 2.0812 3.0903e-21)
(3.28392 2.00081 2.22834e-19)
(3.33408 1.93794 4.84252e-18)
(3.38185 1.89881 -1.54645e-19)
(3.42936 1.89066 -5.39502e-18)
(3.47875 1.92426 -2.16476e-18)
(3.53248 2.01659 1.0854e-18)
(3.47847 2.20403 -1.3385e-18)
(3.93768 2.52286 -5.4123e-19)
(2.95026 2.34747 1.15004e-17)
(3.01339 2.22723 3.76266e-18)
(3.0754 2.11738 0)
(3.13651 2.01892 0)
(3.19734 1.93427 2.10546e-19)
(3.25925 1.8671 -3.51536e-18)
(3.32467 1.8226 5.49668e-18)
(3.39724 1.80759 -1.29434e-19)
(3.48055 1.83298 1.85069e-18)
(3.58105 1.91826 0)
(3.60224 2.10485 -2.40907e-19)
(4.09718 2.50883 -7.97591e-20)
(2.84763 2.30941 -4.22894e-18)
(2.91315 2.17958 -3.89246e-18)
(2.97747 2.06143 4.1759e-18)
(3.04189 1.95535 -3.90497e-18)
(3.10816 1.86293 5.58797e-22)
(3.1789 1.78679 7.72164e-18)
(3.25813 1.73072 -3.53554e-18)
(3.35157 1.70054 1.99139e-18)
(3.46509 1.70642 0)
(3.61092 1.76916 1.19681e-18)
(3.70923 1.94127 6.101e-19)
(4.20308 2.39038 -9.19935e-19)
(2.73851 2.26866 4.61838e-18)
(2.806 2.12964 -4.47286e-18)
(2.87171 2.00297 -4.17597e-18)
(2.93776 1.88827 -8.69119e-18)
(3.00677 1.78626 8.34946e-18)
(3.08237 1.69842 -7.99274e-18)
(3.17003 1.62668 0)
(3.27785 1.57513 -1.89087e-18)
(3.4149 1.55158 0)
(3.60052 1.57621 0)
(3.77891 1.71217 0)
(4.26118 2.13101 4.38492e-19)
(2.61338 2.21426 5.00647e-18)
(2.68343 2.06953 -1.00589e-17)
(2.75023 1.93678 9.80211e-18)
(2.81639 1.81495 9.39544e-18)
(2.88508 1.70385 4.52954e-18)
(2.96084 1.60387 0)
(3.05038 1.51476 0)
(3.16365 1.43802 4.37334e-18)
(3.31359 1.37736 0)
(3.5297 1.34954 -1.22163e-18)
(3.77033 1.41069 7.95614e-19)
(4.24795 1.71997 -1.2736e-18)
(2.46524 2.13378 -1.10427e-17)
(2.53914 1.9904 1.01878e-17)
(2.60719 1.85704 -9.95024e-18)
(2.67222 1.73211 -2.49773e-17)
(2.73754 1.61498 -2.47461e-19)
(2.80813 1.50508 1.34841e-19)
(2.89212 1.39988 -4.76753e-18)
(2.99971 1.29763 -4.34775e-18)
(3.14783 1.19573 0)
(3.37435 1.10549 3.6674e-18)
(3.64826 1.03824 8.97802e-19)
(4.11778 1.0226 -1.78906e-18)
(2.29431 2.01882 -4.93411e-19)
(2.37241 1.88589 0)
(2.44089 1.75932 0)
(2.50243 1.63719 4.77793e-18)
(2.56091 1.51892 1.45695e-17)
(2.62096 1.4036 -4.75496e-18)
(2.6919 1.28706 -2.19494e-19)
(2.78192 1.16437 -2.43893e-18)
(2.91008 1.02531 -2.26376e-18)
(3.10419 0.871225 -2.27588e-18)
(3.38769 0.646588 0)
(3.71826 -0.0356846 2.33963e-18)
(2.20547 -0.221515 -2.14225e-22)
(1.93725 -0.292372 0)
(1.76893 -0.380496 -1.4271e-19)
(1.662 -0.497344 0)
(1.58784 -0.617434 -6.24662e-19)
(1.54982 -0.747755 7.8778e-19)
(1.67334 -0.896631 0)
(1.69209 -1.30585 7.25622e-19)
(1.45405 -2.2745 -3.07727e-19)
(1.79877 -2.93532 -8.62999e-20)
(2.11735 -3.12994 -8.06175e-19)
(2.24755 -3.43686 -7.27823e-19)
(2.66485 0.364603 -2.6223e-19)
(2.40307 0.19327 -1.44219e-19)
(2.35616 -0.0519254 5.52302e-19)
(2.36197 -0.327934 0)
(2.43018 -0.657653 -1.06944e-18)
(2.39923 -1.19887 5.91147e-19)
(2.54601 -2.05342 0)
(2.77906 -2.68566 9.03522e-19)
(2.76547 -2.98206 -2.57592e-18)
(2.83881 -3.0965 2.00683e-18)
(2.841 -3.13036 1.49416e-18)
(2.82731 -3.24188 -3.75513e-18)
(2.98573 0.346987 -1.90357e-19)
(2.70731 0.0988028 0)
(2.74438 -0.327817 -1.71182e-18)
(2.77881 -0.854679 0)
(2.88669 -1.54537 0)
(3.01735 -2.24417 -8.16082e-19)
(3.03766 -2.71122 4.05479e-18)
(3.0008 -2.98129 -2.86245e-18)
(2.87366 -3.1342 9.92474e-19)
(2.78371 -3.20474 0)
(2.69782 -3.2596 2.66659e-18)
(2.61275 -3.33657 -1.61764e-18)
(3.3223 0.285488 8.61811e-19)
(3.12464 -0.121142 1.31149e-18)
(3.22898 -0.701299 1.42913e-18)
(3.3036 -1.36562 2.67866e-18)
(3.36081 -2.01115 -1.66485e-18)
(3.32289 -2.49802 -1.22455e-18)
(3.20381 -2.78356 0)
(3.07048 -2.94635 0)
(2.91866 -3.05675 2.19737e-18)
(2.80407 -3.1157 0)
(2.69969 -3.16763 4.8278e-19)
(2.59888 -3.22663 1.35096e-18)
(3.53173 0.0745366 1.35592e-18)
(3.49113 -0.388358 -9.8842e-19)
(3.5991 -0.998657 -2.75629e-18)
(3.63064 -1.63246 0)
(3.57482 -2.16427 0)
(3.43629 -2.50758 3.02399e-18)
(3.26803 -2.71056 0)
(3.10096 -2.83932 -5.63515e-18)
(2.93824 -2.92725 -2.34783e-18)
(2.79644 -2.98949 4.15852e-18)
(2.66945 -3.04709 -5.62889e-18)
(2.5509 -3.10604 3.54069e-18)
(3.71631 -0.141085 -2.60763e-18)
(3.77542 -0.629976 -1.49787e-18)
(3.85289 -1.19485 2.15485e-18)
(3.81657 -1.74018 3.81805e-19)
(3.68445 -2.15603 3.65703e-18)
(3.50125 -2.421 -7.24952e-18)
(3.30663 -2.59081 6.57314e-18)
(3.11866 -2.70907 6.57464e-19)
(2.94167 -2.79808 0)
(2.7832 -2.86822 0)
(2.64081 -2.93199 8.54149e-18)
(2.51012 -2.99397 5.63017e-20)
(3.88282 -0.347248 -3.40001e-20)
(4.02787 -0.817262 -2.2448e-18)
(4.05074 -1.30678 0)
(3.95815 -1.74874 -4.40288e-18)
(3.7791 -2.07748 4.65075e-18)
(3.56618 -2.30006 1.11367e-17)
(3.34975 -2.45651 6.80523e-18)
(3.14356 -2.5745 8.60592e-19)
(2.95195 -2.66886 -1.05358e-17)
(2.77833 -2.74768 4.61161e-18)
(2.62147 -2.81873 4.93139e-18)
(2.47842 -2.88579 2.64874e-19)
(4.0681 -0.543225 2.18346e-19)
(4.27587 -0.950638 3.40031e-18)
(4.23127 -1.34605 0)
(4.09482 -1.69394 -4.92589e-18)
(3.88124 -1.96353 -3.58187e-18)
(3.64201 -2.16409 6.35298e-19)
(3.40369 -2.31745 -1.18387e-17)
(3.17809 -2.44028 4.21255e-19)
(2.96933 -2.54235 -2.70952e-19)
(2.77942 -2.62973 5.14601e-18)
(2.60757 -2.70774 -4.15415e-18)
(2.45153 -2.77974 2.20399e-19)
(4.24026 -0.696661 -3.48057e-18)
(4.51319 -1.03419 1.55367e-18)
(4.39283 -1.32659 -7.8987e-18)
(4.21372 -1.5961 3.87588e-18)
(3.97031 -1.82414 0)
(3.70734 -2.01225 0)
(3.44855 -2.16756 6.50335e-18)
(3.20456 -2.29787 1.18676e-17)
(2.97933 -2.40897 -5.41986e-18)
(2.77434 -2.5052 -4.93484e-18)
(2.58891 -2.59028 -4.7313e-18)
(2.42104 -2.66735 0)
(4.50397 -0.822934 7.30755e-20)
(4.71605 -1.02657 4.11463e-18)
(4.49108 -1.22028 9.33148e-18)
(4.25292 -1.44003 0)
(3.98215 -1.64356 7.7489e-18)
(3.7031 -1.82653 0)
(3.43378 -1.98807 3.37646e-19)
(3.18159 -2.12923 -5.72326e-18)
(2.94933 -2.25224 6.19677e-18)
(2.73772 -2.35961 0)
(2.54597 -2.45382 0)
(2.37216 -2.53774 -1.06583e-17)
(4.56661 -0.972825 -6.59427e-18)
(4.68955 -0.935621 3.13936e-18)
(4.37835 -1.02312 5.26036e-19)
(4.0842 -1.20723 -8.69558e-18)
(3.81151 -1.40022 -3.41718e-18)
(3.54558 -1.58838 -3.49833e-18)
(3.29378 -1.76314 -6.81462e-18)
(3.05853 -1.92068 -1.92332e-17)
(2.84039 -2.06009 -5.62224e-18)
(2.63971 -2.18247 -1.19845e-17)
(2.45609 -2.28918 1.16269e-17)
(2.2879 -2.38299 1.06829e-17)
(4.18543 -0.39873 3.56044e-18)
(4.11277 -0.564793 -1.41086e-18)
(3.81194 -0.69266 3.55825e-19)
(3.56482 -0.888017 7.39261e-18)
(3.37053 -1.10172 0)
(3.17845 -1.31084 -6.69442e-18)
(2.98961 -1.5051 5.997e-18)
(2.80628 -1.6815 5.34085e-18)
(2.62978 -1.83881 -1.73981e-17)
(2.46231 -1.97784 1.08515e-17)
(2.30493 -2.09871 -1.06278e-17)
(2.15708 -2.20433 0)
(2.27638 -3.67908 -4.34885e-19)
(2.22089 -3.91004 1.05557e-18)
(2.11556 -4.05429 -9.62505e-19)
(1.97236 -4.14571 -2.70724e-19)
(1.8138 -4.15161 -9.91669e-20)
(1.62553 -4.1084 7.75685e-20)
(1.43556 -3.97508 -1.27078e-19)
(1.23527 -3.77436 -3.17629e-19)
(1.03094 -3.48752 -9.37692e-19)
(0.789984 -3.108 0)
(0.379547 -2.68279 0)
(-0.217244 -2.54023 -6.49645e-20)
(2.80778 -3.33213 -6.06156e-20)
(2.75052 -3.43424 2.15404e-18)
(2.65906 -3.53185 -8.95448e-19)
(2.53077 -3.62725 0)
(2.36928 -3.70563 1.72935e-18)
(2.20614 -3.74484 0)
(2.04704 -3.73847 1.29503e-18)
(1.90095 -3.68075 2.23294e-18)
(1.78796 -3.56893 -1.90051e-18)
(1.68247 -3.32629 0)
(1.54261 -3.05068 0)
(1.02911 -3.19066 -2.96795e-20)
(2.52658 -3.40699 1.11645e-18)
(2.43555 -3.48408 -1.05305e-18)
(2.33851 -3.55658 1.18382e-18)
(2.2379 -3.61847 0)
(2.13847 -3.66048 -1.27628e-18)
(2.04371 -3.67726 3.21932e-18)
(1.96466 -3.6632 -4.65432e-18)
(1.9115 -3.61937 -5.18824e-18)
(1.88721 -3.55329 3.07809e-18)
(1.87758 -3.41687 0)
(1.86641 -3.19923 6.10598e-19)
(1.74572 -3.41139 1.51769e-19)
(2.50223 -3.28304 1.29801e-18)
(2.40652 -3.34149 -2.9478e-18)
(2.31058 -3.39831 2.98342e-18)
(2.21596 -3.44964 -2.9687e-18)
(2.12742 -3.4906 0)
(2.05089 -3.51712 1.72759e-18)
(1.99401 -3.52563 1.17519e-18)
(1.96666 -3.51903 6.92233e-19)
(1.96939 -3.49431 -1.55995e-18)
(2.02533 -3.42668 0)
(2.10812 -3.24903 -3.53944e-19)
(2.15737 -3.54698 5.90757e-19)
(2.44005 -3.16422 3.40472e-18)
(2.33495 -3.22311 -1.76289e-18)
(2.23516 -3.28036 0)
(2.14253 -3.33331 0)
(2.06097 -3.37949 1.69913e-18)
(1.99541 -3.41751 -1.42864e-18)
(1.95438 -3.44596 -2.55368e-19)
(1.94491 -3.46425 0)
(1.97576 -3.47919 -8.30647e-19)
(2.06287 -3.47545 1.22134e-18)
(2.20491 -3.36039 -1.07483e-18)
(2.40202 -3.77272 -2.7193e-19)
(2.38966 -3.05462 -7.26711e-18)
(2.27792 -3.11486 3.47773e-18)
(2.17463 -3.17383 7.01969e-18)
(2.08122 -3.23046 3.09998e-21)
(2.00084 -3.28393 -8.36167e-18)
(1.93799 -3.33409 -3.54742e-18)
(1.89887 -3.38186 -2.44204e-19)
(1.89073 -3.42936 0)
(1.92434 -3.47875 0)
(2.0167 -3.53248 -1.08531e-18)
(2.20416 -3.47847 -7.79113e-19)
(2.52302 -3.93769 2.37339e-19)
(2.34746 -2.95031 3.92985e-18)
(2.22723 -3.01342 -7.75243e-18)
(2.11739 -3.07541 -3.44291e-18)
(2.01894 -3.13652 -1.99641e-19)
(1.93429 -3.19734 3.3138e-18)
(1.86714 -3.25924 3.27815e-18)
(1.82265 -3.32465 1.85314e-18)
(1.80766 -3.39723 1.80732e-18)
(1.83306 -3.48053 -2.00755e-18)
(1.91835 -3.58104 0)
(2.10497 -3.60223 1.25228e-18)
(2.50899 -4.09718 -3.60692e-19)
(2.30939 -2.84765 0)
(2.17957 -2.91316 3.89283e-18)
(2.06142 -2.97746 0)
(1.95536 -3.04187 -1.99409e-19)
(1.86295 -3.10814 5.53466e-22)
(1.78682 -3.17888 7.72208e-18)
(1.73076 -3.25811 -7.46038e-18)
(1.7006 -3.35154 0)
(1.7065 -3.46506 -2.131e-18)
(1.76925 -3.6109 1.19678e-18)
(1.94138 -3.70921 -2.33331e-18)
(2.39054 -4.20308 1.17435e-18)
(2.26863 -2.73851 4.61877e-18)
(2.12962 -2.80599 -4.47322e-18)
(2.00295 -2.87169 -4.52824e-18)
(1.88827 -2.93773 4.42527e-18)
(1.78627 -3.00673 4.17834e-18)
(1.69844 -3.08232 -1.22435e-17)
(1.62672 -3.16998 3.82451e-18)
(1.57517 -3.27781 0)
(1.55165 -3.41486 1.94851e-18)
(1.5763 -3.60048 0)
(1.71228 -3.77889 2.84861e-18)
(2.13115 -4.26117 -2.0843e-18)
(2.21422 -2.61337 0)
(2.0695 -2.6834 -1.00594e-17)
(1.93675 -2.7502 -5.22201e-18)
(1.81493 -2.81635 -9.11454e-18)
(1.70385 -2.88503 4.52974e-18)
(1.60388 -2.96078 4.27303e-18)
(1.51479 -3.05032 0)
(1.43806 -3.16359 0)
(1.37741 -3.31354 0)
(1.34961 -3.52965 0)
(1.41078 -3.77029 -7.97701e-19)
(1.72009 -4.24792 -1.03986e-19)
(2.13374 -2.46522 5.381e-18)
(1.99037 -2.53911 4.93539e-18)
(1.85701 -2.60715 2.04783e-17)
(1.73209 -2.67216 5.25633e-18)
(1.61497 -2.73748 1.97449e-17)
(1.50508 -2.80806 -4.75523e-18)
(1.3999 -2.89204 -4.76755e-18)
(1.29766 -2.99964 0)
(1.19578 -3.14776 -4.53097e-18)
(1.10554 -3.37428 -2.43899e-18)
(1.03831 -3.64821 -1.84009e-18)
(1.02268 -4.11774 -1.11147e-25)
(2.01878 -2.29428 0)
(1.88585 -2.37237 0)
(1.7593 -2.44084 -2.04262e-17)
(1.63717 -2.50237 -1.4865e-17)
(1.51892 -2.56084 -4.69911e-18)
(1.40361 -2.62087 0)
(1.28707 -2.69181 4.72715e-18)
(1.16439 -2.78183 0)
(1.02535 -2.90999 -1.9799e-19)
(0.871267 -3.10411 2.27579e-18)
(0.646636 -3.38762 6.63808e-19)
(-0.0356481 -3.71821 4.63205e-18)
(-0.208541 -2.21044 1.03094e-19)
(-0.290696 -1.93266 2.0084e-19)
(-0.380402 -1.76786 -1.75211e-19)
(-0.497217 -1.66277 1.55623e-20)
(-0.617437 -1.58862 0)
(-0.748018 -1.55051 3.83407e-20)
(-0.897313 -1.6741 0)
(-1.30667 -1.69178 4.8282e-19)
(-2.27569 -1.45451 1.19794e-18)
(-2.93523 -1.79975 -2.49011e-21)
(-3.12986 -2.1177 5.81561e-19)
(-3.43676 -2.24801 8.26258e-19)
(0.372683 -2.66289 3.42424e-19)
(0.193402 -2.40187 -4.76982e-19)
(-0.0539545 -2.35519 5.16974e-19)
(-0.330481 -2.36106 -2.45647e-20)
(-0.659481 -2.42915 -1.06563e-18)
(-1.20018 -2.39942 -2.11437e-19)
(-2.05433 -2.54687 -1.03765e-18)
(-2.68571 -2.77941 -1.49689e-18)
(-2.98176 -2.76579 2.40151e-18)
(-3.09604 -2.83909 -6.01816e-19)
(-3.13004 -2.84114 7.57232e-19)
(-3.24163 -2.82742 4.5705e-19)
(0.347142 -2.9879 -3.78541e-19)
(0.100519 -2.70805 0)
(-0.325687 -2.74453 0)
(-0.854114 -2.77889 -1.53154e-18)
(-1.5465 -2.88737 0)
(-2.24447 -3.01773 -1.22762e-18)
(-2.71105 -3.038 6.8118e-19)
(-2.9809 -3.00092 2.49534e-18)
(-3.13376 -2.87377 -1.24244e-18)
(-3.20427 -2.78385 -1.81601e-18)
(-3.25922 -2.69793 -3.75667e-18)
(-3.33623 -2.61284 3.80594e-18)
(0.284176 -3.32309 -1.72112e-18)
(-0.122482 -3.12527 -1.31077e-18)
(-0.701992 -3.22953 2.5185e-18)
(-1.36608 -3.30389 9.0806e-19)
(-2.01145 -3.36111 0)
(-2.49773 -3.32295 -4.45323e-18)
(-2.78308 -3.20388 3.31318e-18)
(-2.94585 -3.0705 0)
(-3.05624 -2.91873 3.27326e-18)
(-3.11523 -2.80415 -5.00981e-18)
(-3.16725 -2.69976 3.41291e-18)
(-3.2263 -2.59893 4.67296e-19)
(0.0740701 -3.53125 2.05775e-18)
(-0.389077 -3.4914 3.0188e-18)
(-0.999198 -3.5993 9.05756e-19)
(-1.63271 -3.63065 0)
(-2.16411 -3.57475 -2.73405e-18)
(-2.50711 -3.43619 4.63334e-18)
(-2.71003 -3.268 0)
(-2.8388 -3.10095 -3.07356e-18)
(-2.92679 -2.93826 -2.80807e-18)
(-2.98909 -2.79648 4.15711e-18)
(-3.04676 -2.66949 0)
(-3.10577 -2.55094 -3.20567e-18)
(-0.14136 -3.71626 2.02906e-18)
(-0.630483 -3.77545 7.07298e-19)
(-1.19518 -3.85281 -2.1541e-18)
(-1.74023 -3.81638 -8.91314e-18)
(-2.15575 -3.68423 -3.05495e-19)
(-2.42057 -3.50109 7.56331e-18)
(-2.59035 -3.30655 0)
(-2.70865 -3.11863 8.55336e-18)
(-2.7977 -2.94168 -4.99268e-18)
(-2.8679 -2.78324 4.37885e-18)
(-2.93173 -2.64085 2.77099e-19)
(-2.99375 -2.51016 -5.62727e-20)
(-0.347609 -3.88258 -1.84052e-18)
(-0.817613 -4.02778 -1.44672e-18)
(-1.30697 -4.0505 0)
(-1.74869 -3.95786 9.51351e-18)
(-2.07722 -3.77886 -1.31217e-17)
(-2.29971 -3.56602 -2.1681e-19)
(-2.45615 -3.34967 -1.29618e-17)
(-2.57417 -3.14354 5.29449e-19)
(-2.66857 -2.95196 -4.99751e-18)
(-2.74743 -2.77837 -4.95652e-18)
(-2.81852 -2.62152 4.92973e-18)
(-2.88563 -2.47847 -4.08e-18)
(-0.543536 -4.06787 -1.66376e-19)
(-0.950882 -4.27571 -1.83477e-18)
(-1.34616 -4.23098 0)
(-1.69389 -4.09451 4.92345e-18)
(-1.96334 -3.881 3.36461e-18)
(-2.16383 -3.64185 2.98955e-18)
(-2.31719 -3.40361 -5.10511e-19)
(-2.44003 -3.17807 -1.23112e-19)
(-2.54213 -2.96935 -5.59698e-18)
(-2.62954 -2.77947 -5.97336e-19)
(-2.70759 -2.60763 2.33332e-19)
(-2.77962 -2.45159 0)
(-0.696876 -4.24004 2.16574e-18)
(-1.03434 -4.51298 0)
(-1.32666 -4.39253 0)
(-1.59607 -4.21342 -3.87502e-18)
(-1.82401 -3.97007 3.43304e-18)
(-2.01207 -3.70718 -7.07271e-18)
(-2.16736 -3.44846 0)
(-2.29768 -3.20453 5.80876e-18)
(-2.40879 -2.97933 -2.45007e-19)
(-2.50504 -2.77437 4.93357e-18)
(-2.59015 -2.58896 -5.16341e-18)
(-2.66724 -2.42109 9.92228e-18)
(-0.822991 -4.50377 4.4403e-18)
(-1.02668 -4.71589 -1.40869e-18)
(-1.22035 -4.49084 -4.97399e-18)
(-1.44002 -4.25266 -8.55774e-18)
(-1.64347 -3.98193 0)
(-1.8264 -3.70293 6.44783e-18)
(-1.98792 -3.43367 -1.30544e-17)
(-2.12907 -3.18152 5.79424e-18)
(-2.25209 -2.94931 6.19551e-18)
(-2.35947 -2.73773 0)
(-2.45371 -2.54599 -5.89496e-18)
(-2.53765 -2.37219 -9.93144e-18)
(-0.972826 -4.56654 -6.54048e-18)
(-0.935689 -4.68945 1.42787e-18)
(-1.02315 -4.37818 4.35123e-18)
(-1.20722 -4.084 3.68673e-18)
(-1.40016 -3.81131 -4.99337e-20)
(-1.58828 -3.54541 -1.08218e-17)
(-1.76301 -3.29364 1.29342e-17)
(-1.92055 -3.05844 2.52863e-17)
(-2.05995 -2.84033 -1.76859e-17)
(-2.18234 -2.63968 -1.19827e-17)
(-2.28907 -2.45608 1.09618e-17)
(-2.3829 -2.28791 0)
(-0.398672 -4.18535 5.49958e-18)
(-0.564784 -4.1127 1.86564e-18)
(-0.692655 -3.81181 2.01563e-18)
(-0.887989 -3.56465 7.94969e-18)
(-1.10166 -3.37035 0)
(-1.31075 -3.17828 6.33082e-18)
(-1.50498 -2.98946 -1.26264e-17)
(-1.68137 -2.80616 -5.58982e-18)
(-1.83868 -2.62969 -5.72542e-18)
(-1.97772 -2.46225 1.08506e-17)
(-2.09861 -2.30489 5.6779e-18)
(-2.20424 -2.15706 1.63012e-17)
(-3.679 -2.27643 1.27547e-19)
(-3.90991 -2.22105 5.89696e-19)
(-4.05411 -2.11553 2.88616e-19)
(-4.14554 -1.9724 -6.76182e-19)
(-4.15142 -1.81373 1.87077e-19)
(-4.10822 -1.6255 0)
(-3.9749 -1.43548 -5.07797e-19)
(-3.77421 -1.23522 3.84411e-19)
(-3.48738 -1.03086 0)
(-3.10791 -0.789923 1.15545e-19)
(-2.68273 -0.379479 0)
(-2.54017 0.217328 -2.97816e-19)
(-3.33187 -2.80785 -4.24202e-18)
(-3.43403 -2.75053 3.02329e-18)
(-3.53167 -2.65902 2.28999e-18)
(-3.62708 -2.53071 -9.60176e-19)
(-3.70547 -2.36921 0)
(-3.74468 -2.20606 0)
(-3.73832 -2.04695 1.4807e-18)
(-3.68062 -1.90086 -1.59786e-18)
(-3.56882 -1.78785 0)
(-3.32622 -1.68237 6.07177e-19)
(-3.05063 -1.5425 -3.91435e-20)
(-3.19062 -1.02899 -1.09913e-18)
(-3.40671 -2.52665 1.6087e-18)
(-3.48384 -2.43559 -2.76816e-18)
(-3.55636 -2.33852 0)
(-3.61828 -2.23788 -2.89277e-18)
(-3.66032 -2.13842 -2.97636e-18)
(-3.67712 -2.04365 6.36698e-18)
(-3.66309 -1.96457 -5.68342e-18)
(-3.61928 -1.9114 0)
(-3.55322 -1.88709 0)
(-3.41682 -1.87745 0)
(-3.19921 -1.86627 -5.33785e-19)
(-3.41136 -1.74556 1.64328e-19)
(-3.28277 -2.50227 -1.29775e-18)
(-3.34126 -2.40653 -3.90261e-19)
(-3.39813 -2.31057 0)
(-3.44949 -2.21593 -3.68437e-19)
(-3.49048 -2.12736 0)
(-3.51702 -2.05081 0)
(-3.52555 -1.99391 1.33546e-18)
(-3.51897 -1.96654 -1.60027e-18)
(-3.49426 -1.96926 1.719e-18)
(-3.42664 -2.02518 0)
(-3.24902 -2.10796 -5.50301e-19)
(-3.54695 -2.15718 -6.58876e-19)
(-3.164 -2.44008 7.09312e-18)
(-3.22294 -2.33496 -1.76244e-18)
(-3.28022 -2.23515 3.16785e-18)
(-3.3332 -2.1425 1.426e-18)
(-3.3794 -2.06092 -4.83067e-18)
(-3.41744 -1.99534 0)
(-3.4459 -1.95428 -1.64136e-18)
(-3.4642 -1.94479 0)
(-3.47915 -1.97563 0)
(-3.47543 -2.06271 1.2215e-18)
(-3.36039 -2.20473 3.14226e-20)
(-3.77269 -2.40182 7.40018e-19)
(-3.05444 -2.38969 -3.38805e-18)
(-3.11472 -2.27794 -2.57007e-19)
(-3.17373 -2.17463 0)
(-3.23038 -2.0812 0)
(-3.28387 -2.0008 -5.29305e-18)
(-3.33404 -1.93792 3.32654e-18)
(-3.38182 -1.89878 3.39248e-18)
(-3.42933 -1.89061 1.76921e-18)
(-3.47873 -1.9242 -4.19853e-18)
(-3.53247 -2.01653 -1.08539e-18)
(-3.47847 -2.20397 0)
(-3.93766 -2.52281 8.45141e-19)
(-2.95017 -2.34751 -8.06997e-18)
(-3.01332 -2.22726 3.31761e-18)
(-3.07534 -2.1174 3.67021e-18)
(-3.13646 -2.01893 2.0127e-19)
(-3.1973 -1.93426 -4.13168e-19)
(-3.25921 -1.86708 -3.71019e-18)
(-3.32464 -1.82257 -5.39423e-18)
(-3.39722 -1.80754 -1.93847e-18)
(-3.48053 -1.83292 1.85053e-18)
(-3.58104 -1.91819 0)
(-3.60224 -2.10479 2.11783e-18)
(-4.09716 -2.50877 -5.40116e-19)
(-2.84756 -2.30944 8.2654e-18)
(-2.91309 -2.1796 -4.49542e-18)
(-2.97741 -2.06144 -4.17532e-18)
(-3.04184 -1.95536 -7.60954e-18)
(-3.10812 -1.86293 7.46247e-18)
(-3.17887 -1.78677 -1.93613e-19)
(-3.25811 -1.73068 1.12007e-17)
(-3.35155 -1.70049 1.78192e-18)
(-3.46507 -1.70636 2.13077e-18)
(-3.61091 -1.76909 0)
(-3.70923 -1.9412 -1.4513e-18)
(-4.20306 -2.39032 -6.94096e-19)
(-2.73843 -2.26868 0)
(-2.80593 -2.12966 4.28448e-18)
(-2.87165 -2.00298 4.17536e-18)
(-2.93771 -1.88827 -4.26564e-18)
(-3.00673 -1.78625 -1.63395e-19)
(-3.08233 -1.6984 -4.24951e-18)
(-3.17 -1.62665 -3.82386e-18)
(-3.27783 -1.57508 0)
(-3.41489 -1.55152 -1.94829e-18)
(-3.60051 -1.57614 -1.20963e-18)
(-3.77891 -1.7121 4.6609e-18)
(-4.26117 -2.13094 -9.98225e-19)
(-2.6133 -2.21426 0)
(-2.68336 -2.06953 0)
(-2.75017 -1.93678 0)
(-2.81634 -1.81494 -1.42085e-17)
(-2.88504 -1.70384 9.03326e-18)
(-2.96081 -1.60385 8.70166e-18)
(-3.05035 -1.51473 0)
(-3.16363 -1.43798 -4.37268e-18)
(-3.31358 -1.37729 0)
(-3.52969 -1.34947 -2.49537e-18)
(-3.77032 -1.41062 -7.97686e-19)
(-4.24794 -1.7199 -1.27366e-18)
(-2.46516 -2.13376 0)
(-2.53907 -1.99039 0)
(-2.60713 -1.85703 1.0526e-17)
(-2.67216 -1.7321 1.47098e-17)
(-2.7375 -1.61496 4.06609e-19)
(-2.8081 -1.50505 4.88922e-18)
(-2.89209 -1.39985 -2.33611e-18)
(-2.99969 -1.29758 6.58291e-18)
(-3.14782 -1.19567 4.5303e-18)
(-3.37434 -1.10541 2.27652e-18)
(-3.64825 -1.03816 -1.84001e-18)
(-4.11777 -1.02252 -1.96006e-18)
(-2.29422 -2.01878 0)
(-2.37233 -1.88586 0)
(-2.44083 -1.7593 -9.97324e-18)
(-2.50238 -1.63717 5.24681e-18)
(-2.56087 -1.5189 -4.69879e-18)
(-2.62093 -1.40358 -4.75447e-18)
(-2.69188 -1.28702 4.94629e-18)
(-2.78191 -1.16432 0)
(-2.91008 -1.02525 -4.44897e-18)
(-3.10419 -0.87115 -2.36741e-18)
(-3.38768 -0.646505 2.27857e-18)
(-3.71825 0.0357554 -4.65184e-18)
(-2.20546 0.221521 1.04945e-19)
(-1.93725 0.292376 0)
(-1.76893 0.380502 0)
(-1.66202 0.497353 5.94957e-19)
(-1.58785 0.617447 -6.46078e-19)
(-1.54986 0.747761 0)
(-1.67342 0.896698 0)
(-1.69203 1.30607 4.83033e-19)
(-1.45414 2.27482 1.27377e-18)
(-1.79904 2.93538 1.07019e-18)
(-2.11748 3.12997 -2.24306e-19)
(-2.24773 3.43692 7.41843e-19)
(-2.66485 -0.364592 -4.83829e-19)
(-2.40308 -0.193254 0)
(-2.35617 0.051948 0)
(-2.362 0.327969 -9.19139e-19)
(-2.4302 0.657726 2.21667e-18)
(-2.39926 1.19906 -2.41623e-18)
(-2.54615 2.05361 8.69803e-19)
(-2.77913 2.68575 8.06955e-19)
(-2.76554 2.98208 -3.25655e-19)
(-2.83889 3.09647 8.06762e-19)
(-2.84107 3.13036 0)
(-2.82737 3.24189 -1.70322e-18)
(-2.98573 -0.346971 3.80825e-19)
(-2.70731 -0.0987733 0)
(-2.74439 0.327868 0)
(-2.77883 0.854775 -9.10029e-19)
(-2.88674 1.54551 6.76026e-19)
(-3.01739 2.24428 -1.54953e-18)
(-3.03771 2.71129 0)
(-3.00082 2.98132 -3.28549e-18)
(-2.87369 3.13421 3.93863e-18)
(-2.78375 3.20473 -1.02013e-18)
(-2.69787 3.25959 -2.64478e-18)
(-2.61281 3.33656 3.80545e-18)
(-3.3223 -0.285466 -8.6192e-19)
(-3.12464 0.121185 1.31169e-18)
(-3.22898 0.70137 0)
(-3.30361 1.36571 9.08705e-19)
(-3.36082 2.01126 -6.43721e-19)
(-3.32289 2.49809 1.22472e-18)
(-3.20382 2.78361 0)
(-3.07049 2.94636 -2.41526e-18)
(-2.91868 3.05674 -5.47014e-18)
(-2.80411 3.11569 3.49128e-18)
(-2.69973 3.16763 3.41369e-18)
(-2.59893 3.22662 -6.6737e-18)
(-3.53173 -0.0745176 1.0281e-18)
(-3.49112 0.388404 -1.23269e-18)
(-3.59909 0.998728 2.75625e-18)
(-3.63063 1.63255 0)
(-3.57481 2.16436 -5.78445e-18)
(-3.43628 2.50764 5.4964e-18)
(-3.26803 2.71059 3.27608e-18)
(-3.10096 2.83933 2.35562e-18)
(-2.93825 2.92725 0)
(-2.79647 2.98948 0)
(-2.66948 3.04708 0)
(-2.55094 3.10603 -7.13623e-19)
(-3.71631 0.141108 5.21548e-18)
(-3.77542 0.630019 0)
(-3.85288 1.19491 -2.15486e-18)
(-3.81656 1.74027 4.64703e-18)
(-3.68443 2.15611 3.61762e-18)
(-3.50123 2.42105 -7.2134e-18)
(-3.30662 2.59084 3.36172e-18)
(-3.11865 2.70908 -1.17306e-17)
(-2.94168 2.79808 -1.7373e-19)
(-2.78322 2.86821 -4.24586e-19)
(-2.64084 2.93199 2.7721e-19)
(-2.51015 2.99396 1.14398e-17)
(-3.88282 0.347266 -6.58626e-18)
(-4.02787 0.817302 4.06064e-18)
(-4.05073 1.30685 -6.18279e-18)
(-3.95813 1.74882 -4.4029e-18)
(-3.77908 2.07755 -8.17919e-18)
(-3.56615 2.30011 -4.34627e-18)
(-3.34973 2.45654 -6.42029e-18)
(-3.14355 2.57451 1.06564e-17)
(-2.95194 2.66886 0)
(-2.77834 2.74767 9.28766e-18)
(-2.62149 2.81871 -1.30356e-17)
(-2.47844 2.88577 4.36627e-18)
(-4.0681 0.543244 -3.14512e-18)
(-4.27587 0.950678 -5.38954e-18)
(-4.23127 1.34611 7.60802e-18)
(-4.09479 1.694 0)
(-3.88121 1.96359 -4.20215e-18)
(-3.64198 2.16413 6.35847e-18)
(-3.40366 2.31747 -3.17979e-19)
(-3.17807 2.44029 1.23148e-19)
(-2.96932 2.54235 -5.17674e-18)
(-2.77942 2.62972 -9.75292e-18)
(-2.60757 2.70772 4.3673e-18)
(-2.45154 2.77972 -4.42315e-18)
(-4.24027 0.696686 2.16611e-18)
(-4.51319 1.03423 0)
(-4.39282 1.32663 0)
(-4.2137 1.59614 0)
(-3.97027 1.82418 3.43388e-18)
(-3.7073 2.01228 0)
(-3.44852 2.16758 -4.08232e-19)
(-3.20453 2.29787 1.15402e-17)
(-2.9793 2.40896 2.78785e-19)
(-2.77432 2.50518 4.93472e-18)
(-2.5889 2.59025 -4.97133e-18)
(-2.42103 2.66731 1.46866e-17)
(-4.50398 0.822967 7.30663e-20)
(-4.71605 1.0266 7.47693e-18)
(-4.49107 1.22031 -2.28983e-18)
(-4.2529 1.44006 0)
(-3.98212 1.64359 0)
(-3.70306 1.82655 0)
(-3.43374 1.98808 0)
(-3.18155 2.12923 6.05608e-18)
(-2.9493 2.25223 -2.32004e-17)
(-2.7377 2.35958 -1.14454e-17)
(-2.54595 2.45379 1.10219e-17)
(-2.37215 2.5377 5.88875e-18)
(-4.56662 0.972863 -6.54028e-18)
(-4.68955 0.935645 -4.33982e-18)
(-4.37835 1.02314 -2.59908e-18)
(-4.08419 1.20726 0)
(-3.81149 1.40024 0)
(-3.54556 1.5884 7.27218e-18)
(-3.29375 1.76315 -1.34294e-17)
(-3.0585 1.92069 2.55106e-17)
(-2.84036 2.06008 1.80311e-17)
(-2.63969 2.18244 1.12826e-17)
(-2.45607 2.28914 -1.09629e-17)
(-2.28788 2.38294 6.34874e-19)
(-4.18545 0.398771 -1.86015e-18)
(-4.11278 0.564816 0)
(-3.81195 0.692679 3.85934e-18)
(-3.56483 0.888041 -1.18185e-17)
(-3.37054 1.10175 1.0705e-17)
(-3.17846 1.31087 3.63129e-19)
(-2.9896 1.50512 5.99683e-18)