/*--------------------------------*- C++ -*----------------------------------*\
| =========                 |                                                 |
| \\      /  F ield         | foam-extend: Open Source CFD                    |
|  \\    /   O peration     | Version:     4.0                                |
|   \\  /    A nd           | Web:         http://www.foam-extend.org         |
|    \\/     M anipulation  |                                                 |
\*---------------------------------------------------------------------------*/
FoamFile
{
    version     2.0;
    format      ascii;
    class       volScalarField;
    location    "2750";
    object      divFlux;
}
// * * * * * * * * * * * * * * * * * * * * * * * * * * * * * * * * * * * * * //

dimensions      [1 -3 -1 0 0 0 0];

internalField   nonuniform List<scalar> 
34480
(
2.73635e-05
9.52171e-06
1.09953e-05
1.02967e-05
9.52717e-06
8.93358e-06
8.48867e-06
0.000300323
0.000174897
7.58393e-06
9.45524e-06
4.48279e-06
4.61956e-06
4.27231e-06
4.03353e-06
3.92677e-06
3.92271e-06
3.92889e-06
0.00349536
3.79304e-06
4.35337e-06
9.86352e-07
1.61082e-06
1.44042e-06
1.41944e-06
1.4686e-06
1.54988e-06
1.60436e-06
0.00337636
1.58264e-06
1.65967e-06
2.8618e-07
6.79233e-07
5.4483e-07
5.64685e-07
5.89733e-07
6.3055e-07
6.50672e-07
0.0008161
6.4567e-07
7.90154e-07
3.31863e-08
3.32059e-07
2.09263e-07
2.42908e-07
2.44871e-07
2.64836e-07
2.70988e-07
2.7544e-07
2.69287e-07
2.54648e-07
6.24288e-08
1.32418e-07
9.2555e-08
1.07618e-07
1.06874e-07
1.16553e-07
1.1787e-07
1.19531e-07
1.17068e-07
1.80267e-07
5.60014e-09
7.90638e-08
3.59936e-08
5.20813e-08
4.82121e-08
5.28958e-08
5.3965e-08
5.5085e-08
5.31504e-08
5.34482e-08
3.31274e-08
2.73541e-08
2.04354e-08
2.46966e-08
2.35969e-08
2.5109e-08
2.64836e-08
2.68959e-08
2.57963e-08
8.83896e-08
1.23296e-08
2.90328e-08
9.28882e-09
1.46205e-08
1.36625e-08
1.43289e-08
1.45789e-08
1.4079e-08
1.46205e-08
1.43376e-08
3.1539e-08
1.87096e-09
1.62277e-08
7.90383e-09
9.81297e-09
9.88933e-09
8.43839e-09
1.05003e-08
1.00039e-08
4.16935e-05
1.40511e-05
1.41303e-05
1.32389e-05
1.24493e-05
1.18533e-05
1.14601e-05
1.12531e-05
1.12279e-05
0.00106738
1.29104e-05
6.7087e-06
6.71301e-06
6.30553e-06
6.02281e-06
5.90407e-06
5.91131e-06
6.02446e-06
6.22167e-06
0.0034691
5.7043e-06
1.86814e-06
2.54055e-06
2.42303e-06
2.40335e-06
2.49966e-06
2.62434e-06
2.77125e-06
2.92706e-06
0.00432868
3.16725e-06
3.26422e-07
1.17875e-06
1.11227e-06
1.04859e-06
1.15206e-06
1.19611e-06
1.27587e-06
1.35187e-06
0.00150756
2.46829e-06
3.68145e-07
4.78588e-07
6.82072e-07
3.98752e-07
5.66882e-07
5.54773e-07
5.95482e-07
6.31201e-07
6.47425e-07
7.23767e-07
5.72374e-08
5.63855e-08
4.49753e-07
1.37849e-07
2.95824e-07
2.61801e-07
2.87465e-07
3.05674e-07
3.0988e-07
6.67106e-07
5.50425e-08
4.16818e-07
5.12752e-07
2.96747e-08
1.54905e-07
1.34885e-07
1.4312e-07
1.52112e-07
1.55579e-07
1.40568e-06
3.80035e-07
2.91139e-07
2.63835e-07
9.45615e-09
8.88111e-08
6.9984e-08
7.73956e-08
8.31033e-08
8.33802e-08
1.39052e-07
1.85367e-07
1.36072e-07
1.83818e-07
5.65355e-09
5.19275e-08
4.70097e-08
4.68548e-08
5.25083e-08
5.3002e-08
4.49748e-07
4.54562e-07
3.12578e-07
1.6921e-07
1.38435e-09
4.15659e-08
3.23724e-08
4.09624e-08
3.72708e-08
4.40462e-08
3.78911e-05
1.06908e-05
1.10236e-05
1.03947e-05
9.80662e-06
9.3881e-06
9.16055e-06
9.13599e-06
3.1164e-05
0.000880667
1.21385e-05
4.95302e-06
4.96366e-06
4.64381e-06
4.38722e-06
4.21625e-06
4.16091e-06
4.25303e-06
8.26964e-05
0.00136157
4.88275e-06
1.36582e-06
1.77609e-06
1.66189e-06
1.59331e-06
1.56733e-06
1.59509e-06
1.6961e-06
0.000122022
0.00128068
2.48079e-06
2.70257e-07
7.8216e-07
6.70824e-07
6.4921e-07
6.42412e-07
6.5515e-07
7.04218e-07
7.89849e-07
9.89454e-07
1.65169e-06
1.77116e-07
4.08143e-07
2.885e-07
2.7102e-07
2.74754e-07
2.78997e-07
3.01002e-07
3.42071e-07
4.35122e-07
4.84068e-07
1.22754e-08
1.81904e-07
1.26367e-07
1.19586e-07
1.23694e-07
1.22556e-07
1.33693e-07
1.53195e-07
1.98259e-07
4.49561e-07
6.86806e-08
9.26154e-08
7.25964e-08
4.91896e-08
5.81651e-08
5.74172e-08
6.1465e-08
7.13645e-08
9.48538e-08
1.43477e-07
9.63817e-08
3.86477e-08
3.31436e-08
2.58179e-08
3.02133e-08
2.8471e-08
3.17576e-08
3.62322e-08
4.95619e-08
1.73e-07
8.1788e-08
7.53443e-08
1.25994e-08
1.54432e-08
1.9835e-08
1.68832e-08
1.9475e-08
2.18509e-08
2.99843e-08
4.31624e-08
1.00249e-07
4.41518e-08
3.88391e-08
3.76181e-09
1.31994e-08
1.31994e-08
1.17804e-08
1.56742e-08
2.10447e-08
3.73808e-05
9.72305e-06
1.01064e-05
9.55351e-06
9.02851e-06
8.65846e-06
8.46366e-06
8.45535e-06
1.77883e-05
0.000378997
1.17035e-05
4.59972e-06
4.62848e-06
4.35616e-06
4.12264e-06
3.95377e-06
3.87292e-06
3.90085e-06
3.71579e-05
0.00115668
4.44907e-06
1.48318e-06
1.73545e-06
1.62108e-06
1.53623e-06
1.48359e-06
1.47435e-06
1.52603e-06
0.000124654
0.0023057
2.27005e-06
4.00604e-07
7.51911e-07
6.60771e-07
6.34788e-07
6.15492e-07
6.13498e-07
6.40708e-07
0.00011659
0.00212309
1.60207e-06
1.03441e-07
3.84157e-07
2.81505e-07
2.73827e-07
2.67096e-07
2.64676e-07
2.77666e-07
4.6805e-05
0.00158519
5.15409e-07
1.52309e-08
1.69932e-07
1.24424e-07
1.23549e-07
1.20466e-07
1.18488e-07
1.24746e-07
1.12597e-05
0.000999547
4.92031e-07
9.51788e-08
9.9269e-08
6.20891e-08
5.55448e-08
5.57493e-08
5.54221e-08
5.89397e-08
6.69565e-08
0.000421779
6.70779e-09
3.99776e-08
4.29593e-08
3.00752e-08
2.81978e-08
2.94862e-08
2.82714e-08
2.93758e-08
3.58915e-08
0.00015955
2.59143e-07
1.09732e-07
7.0779e-08
1.38546e-08
1.55279e-08
2.10162e-08
1.65318e-08
2.02799e-08
2.08488e-08
2.92632e-08
8.91031e-08
1.0703e-07
3.98794e-08
3.61369e-08
6.04326e-09
1.19945e-08
1.37431e-08
1.08901e-08
1.60745e-08
2.03174e-08
3.62671e-05
8.63206e-06
9.05971e-06
8.60397e-06
8.1551e-06
7.83741e-06
7.66487e-06
7.64465e-06
2.19293e-05
0.000146116
1.15597e-05
4.28697e-06
4.28252e-06
4.02004e-06
3.80556e-06
3.65567e-06
3.57118e-06
3.55998e-06
1.16926e-06
0.000588771
4.06914e-06
1.45496e-06
1.64438e-06
1.55533e-06
1.47077e-06
1.41051e-06
1.38108e-06
1.38864e-06
7.93973e-05
0.00134614
1.967e-06
4.68435e-07
7.25382e-07
6.47756e-07
6.16557e-07
5.93458e-07
5.81509e-07
5.8784e-07
8.22214e-05
0.00143318
1.4333e-06
2.62528e-08
3.64997e-07
2.75239e-07
2.6815e-07
2.5935e-07
2.54461e-07
2.57492e-07
5.53263e-05
0.00129144
4.81494e-07
4.70973e-08
1.59729e-07
1.21059e-07
1.2431e-07
1.17551e-07
1.15113e-07
1.17808e-07
4.22116e-05
0.00102655
4.88915e-07
7.99642e-08
9.20939e-08
5.82146e-08
5.87469e-08
5.53628e-08
5.45643e-08
5.53628e-08
6.18075e-06
0.00067508
6.53353e-08
1.99511e-08
3.98338e-08
3.12785e-08
2.93963e-08
2.85065e-08
2.80959e-08
2.89856e-08
9.14388e-06
0.000507205
3.1288e-07
1.157e-07
5.9421e-08
1.80752e-08
1.51508e-08
2.01907e-08
1.58663e-08
2.03462e-08
1.95374e-08
0.000311286
1.1711e-07
1.11876e-07
3.83566e-08
3.30237e-08
6.13135e-09
1.10935e-08
1.44301e-08
1.02665e-08
1.49434e-08
0.000410825
3.49908e-05
7.57713e-06
8.00454e-06
7.61692e-06
7.22214e-06
6.93778e-06
6.78161e-06
6.75364e-06
6.85931e-06
2.41083e-05
1.09021e-05
3.90678e-06
3.9195e-06
3.67784e-06
3.47646e-06
3.33402e-06
3.24772e-06
3.22096e-06
1.47914e-05
0.000227398
3.90196e-06
1.38497e-06
1.50064e-06
1.43991e-06
1.37154e-06
1.31724e-06
1.28253e-06
1.27089e-06
3.70225e-05
0.000724897
1.7795e-06
4.72166e-07
6.76435e-07
6.22193e-07
5.89982e-07
5.64398e-07
5.49419e-07
5.4417e-07
4.40358e-05
0.000855259
1.25743e-06
7.68069e-09
3.47494e-07
2.70233e-07
2.59826e-07
2.50236e-07
2.43555e-07
2.4251e-07
3.87491e-05
0.000869869
3.94658e-07
7.2336e-08
1.55608e-07
1.17551e-07
1.19937e-07
1.14489e-07
1.11546e-07
1.10313e-07
3.68947e-05
0.000785361
4.35452e-07
4.85333e-08
8.38816e-08
5.51788e-08
5.7229e-08
5.39416e-08
5.31286e-08
5.30579e-08
2.01146e-05
0.000598504
8.49968e-08
2.33511e-08
3.30861e-08
3.04137e-08
2.93003e-08
2.7805e-08
2.77096e-08
2.73914e-08
2.70513e-05
0.000528512
3.32378e-07
1.01398e-07
4.39316e-08
2.19513e-08
1.43161e-08
2.01871e-08
1.59935e-08
1.90013e-08
9.80342e-06
0.000450782
1.38726e-07
1.16968e-07
3.73809e-08
3.13628e-08
9.19941e-09
1.03924e-08
1.38124e-08
1.10287e-08
2.67547e-05
0.000528628
3.3186e-05
6.56791e-06
6.98755e-06
6.67265e-06
6.3323e-06
6.07968e-06
5.92549e-06
5.87221e-06
5.91595e-06
3.42965e-06
1.0012e-05
3.37391e-06
3.43576e-06
3.25206e-06
3.08471e-06
2.96267e-06
2.88781e-06
2.85739e-06
1.07536e-05
7.26739e-05
3.72325e-06
1.3692e-06
1.38887e-06
1.31907e-06
1.25685e-06
1.20627e-06
1.17188e-06
1.15378e-06
1.42616e-05
0.000380879
1.68004e-06
4.6307e-07
6.0954e-07
5.75899e-07
5.49133e-07
5.28283e-07
5.11721e-07
5.02405e-07
1.75987e-05
0.000493433
1.1786e-06
6.12624e-09
3.14044e-07
2.62034e-07
2.46106e-07
2.3698e-07
2.29713e-07
2.25953e-07
1.82996e-05
0.000544874
3.19144e-07
7.15714e-08
1.52015e-07
1.14048e-07
1.14122e-07
1.09982e-07
1.06433e-07
1.05102e-07
2.06067e-05
0.000537594
3.55912e-07
2.33971e-08
8.08711e-08
5.17891e-08
5.59624e-08
5.26434e-08
5.11318e-08
5.03103e-08
1.58703e-05
0.000441457
6.19203e-08
3.62293e-08
2.91018e-08
2.88356e-08
2.82737e-08
2.71794e-08
2.67062e-08
2.67062e-08
2.52743e-05
0.000432315
3.16627e-07
7.51204e-08
2.66444e-08
2.56765e-08
1.40078e-08
1.84709e-08
1.59167e-08
1.83903e-08
1.91298e-05
0.000408102
1.64273e-07
1.26334e-07
3.76588e-08
2.75787e-08
9.48864e-09
1.01787e-08
1.29144e-08
1.07949e-08
3.27042e-05
0.000468187
3.0711e-05
5.50451e-06
5.91149e-06
5.66712e-06
5.3897e-06
5.17365e-06
5.048e-06
5.00293e-06
5.04289e-06
5.36893e-06
9.52854e-06
2.94766e-06
2.99756e-06
2.83796e-06
2.69238e-06
2.58371e-06
2.51363e-06
2.48184e-06
3.64082e-06
1.45295e-05
3.15616e-06
1.25793e-06
1.25174e-06
1.1829e-06
1.12541e-06
1.08136e-06
1.04779e-06
1.02808e-06
4.8606e-06
0.000181387
1.5632e-06
4.76287e-07
5.52995e-07
5.23485e-07
5.01512e-07
4.81533e-07
4.6577e-07
4.55483e-07
5.40987e-06
0.00026744
1.17518e-06
5.14529e-09
2.71483e-07
2.43989e-07
2.28671e-07
2.19166e-07
2.13432e-07
2.07579e-07
5.59211e-06
0.000321262
3.00183e-07
5.33382e-08
1.41559e-07
1.09495e-07
1.07467e-07
1.02724e-07
9.97343e-08
9.76379e-08
7.1586e-06
0.000348066
2.91705e-07
1.73823e-08
7.793e-08
4.99779e-08
5.1597e-08
5.00695e-08
4.78089e-08
4.75645e-08
7.80141e-06
0.000299624
1.91132e-08
4.60249e-08
2.9611e-08
2.66691e-08
2.71915e-08
2.61467e-08
2.57343e-08
2.47995e-08
1.72163e-05
0.000321163
2.71102e-07
4.13659e-08
1.24223e-08
2.58443e-08
1.38719e-08
1.73462e-08
1.53716e-08
1.62964e-08
1.68513e-05
0.000307356
1.98564e-07
1.36462e-07
3.66128e-08
2.37593e-08
1.07455e-08
9.18756e-09
1.15933e-08
1.10205e-08
2.86054e-05
0.000361629
2.83106e-05
4.5883e-06
4.9571e-06
4.76552e-06
4.52818e-06
4.33948e-06
4.21844e-06
4.16969e-06
4.18602e-06
4.43091e-06
8.66687e-06
2.52309e-06
2.57335e-06
2.43743e-06
2.31373e-06
2.21766e-06
2.15443e-06
2.12248e-06
2.11376e-06
1.01302e-06
2.67347e-06
1.09353e-06
1.08681e-06
1.02769e-06
9.79638e-07
9.40558e-07
9.13158e-07
8.94117e-07
1.28257e-06
7.94911e-05
1.29548e-06
4.67267e-07
4.96703e-07
4.66287e-07
4.45797e-07
4.27885e-07
4.14658e-07
4.0454e-07
1.22911e-06
0.000134963
1.15246e-06
2.44274e-08
2.30509e-07
2.19956e-07
2.07615e-07
1.99034e-07
1.91878e-07
1.8819e-07
3.5721e-07
0.000175335
3.2488e-07
3.48565e-08
1.24857e-07
1.01662e-07
9.8084e-08
9.41862e-08
9.11829e-08
1.24947e-05
1.31279e-07
0.000211529
2.71577e-07
2.57013e-08
7.36109e-08
4.73416e-08
4.7796e-08
4.61772e-08
4.48708e-08
4.39905e-08
2.03455e-06
0.000185865
1.72252e-08
4.39876e-08
3.13357e-08
2.51759e-08
2.48437e-08
2.39491e-08
2.39491e-08
1.05599e-05
9.40126e-06
0.000220882
2.05694e-07
8.3184e-09
2.71858e-09
2.38399e-08
1.40344e-08
1.587e-08
1.47082e-08
1.56841e-08
1.15664e-05
0.00020815
2.40917e-07
1.45582e-07
3.18853e-08
1.78489e-08
1.11609e-08
8.96707e-09
1.03302e-08
5.10737e-06
2.13661e-05
0.000257214
2.55266e-05
3.73976e-06
4.07231e-06
3.93664e-06
3.75174e-06
3.59834e-06
3.49312e-06
3.44107e-06
3.42929e-06
3.57111e-06
7.50476e-06
2.05903e-06
2.11582e-06
2.01462e-06
1.91489e-06
1.83942e-06
1.7883e-06
1.76062e-06
1.74966e-06
1.65626e-06
2.43634e-06
9.55781e-07
9.43092e-07
8.87706e-07
8.42132e-07
8.05826e-07
7.79879e-07
7.62961e-07
1.9339e-07
3.12162e-05
9.8791e-07
4.22547e-07
4.34428e-07
4.05341e-07
3.87223e-07
3.72254e-07
3.59363e-07
3.50473e-07
4.02351e-08
6.33726e-05
1.04014e-06
4.86079e-08
1.94568e-07
1.93244e-07
1.83434e-07
1.75152e-07
1.6972e-07
1.64527e-07
1.09789e-06
8.93156e-05
3.45922e-07
2.67013e-08
1.06567e-07
9.18951e-08
8.83013e-08
8.44402e-08
8.12028e-08
1.8079e-05
3.16614e-06
0.000122108
2.91256e-07
3.88886e-08
6.39959e-08
4.48024e-08
4.23999e-08
4.20831e-08
4.03671e-08
3.96014e-08
6.53741e-07
0.000104935
2.65871e-08
3.06515e-08
3.16495e-08
2.39034e-08
2.1765e-08
2.21451e-08
2.18362e-08
2.00622e-05
3.87307e-06
0.000143428
1.36447e-07
1.92031e-08
3.34812e-09
2.11688e-08
1.42565e-08
1.40405e-08
1.36517e-08
1.35437e-08
6.60563e-06
0.000130456
2.83078e-07
1.47575e-07
2.28104e-08
1.18606e-08
1.093e-08
8.77172e-09
9.38554e-09
1.1006e-05
1.43506e-05
0.000172733
2.22033e-05
2.89643e-06
3.16584e-06
3.07279e-06
2.93724e-06
2.82379e-06
2.75629e-06
2.72901e-06
2.75302e-06
2.8981e-06
6.65245e-06
1.71432e-06
1.75596e-06
1.66898e-06
1.58322e-06
1.51431e-06
1.46599e-06
1.43595e-06
1.41386e-06
1.30083e-06
2.03345e-06
7.58004e-07
7.64918e-07
7.28096e-07
6.94167e-07
6.67218e-07
6.45527e-07
6.3044e-07
6.1944e-07
1.04578e-05
7.97482e-07
3.71646e-07
3.73045e-07
3.46594e-07
3.27469e-07
3.15448e-07
3.03668e-07
2.95955e-07
2.17668e-07
2.66471e-05
8.62815e-07
6.85388e-08
1.62922e-07
1.64121e-07
1.57399e-07
1.51278e-07
1.45187e-07
1.41369e-07
1.08839e-06
4.25875e-05
3.2726e-07
2.70589e-08
8.91841e-08
7.98515e-08
7.67591e-08
7.37218e-08
7.10988e-08
1.75358e-05
4.05647e-06
6.82216e-05
3.21178e-07
4.70985e-08
5.4167e-08
4.03e-08
3.77721e-08
3.71094e-08
3.55386e-08
3.47287e-08
1.25021e-06
5.35306e-05
3.51369e-09
1.29662e-08
2.90249e-08
2.31271e-08
1.94162e-08
1.9615e-08
9.49051e-07
2.27365e-05
4.36345e-07
9.00722e-05
7.28213e-08
3.88163e-08
5.1407e-09
1.65065e-08
1.32333e-08
1.2169e-08
1.22292e-08
1.23497e-08
3.02496e-06
7.50977e-05
3.1353e-07
1.38553e-07
1.09524e-08
7.36298e-09
1.01425e-08
7.67591e-09
8.17291e-09
1.24227e-05
8.81378e-06
0.00011095
2.03551e-05
2.51182e-06
2.66362e-06
2.55773e-06
2.42997e-06
2.30993e-06
2.22587e-06
2.1667e-06
2.12696e-06
2.13826e-06
5.43206e-06
1.32975e-06
1.36802e-06
1.31147e-06
1.25089e-06
1.20048e-06
1.16596e-06
1.14886e-06
1.14126e-06
1.06149e-06
1.86293e-06
6.28073e-07
6.26061e-07
5.93883e-07
5.64908e-07
5.40431e-07
5.21745e-07
5.06611e-07
4.90758e-07
3.13161e-06
6.10093e-07
2.98608e-07
3.04272e-07
2.85329e-07
2.70253e-07
2.5824e-07
2.49565e-07
2.42275e-07
2.36747e-07
8.52725e-06
6.79143e-07
7.94985e-08
1.3459e-07
1.36673e-07
1.32273e-07
1.25731e-07
1.21653e-07
1.1781e-07
6.80167e-07
1.87858e-05
2.72335e-07
3.07763e-08
7.38734e-08
6.69687e-08
6.45558e-08
6.2374e-08
1.26168e-06
1.50826e-05
4.00562e-06
3.72557e-05
3.37475e-07
4.91691e-08
4.20276e-08
3.55021e-08
3.25588e-08
3.1167e-08
3.05738e-08
2.9433e-08
6.62402e-07
2.33925e-05
3.93648e-08
4.12747e-09
2.29372e-08
2.16641e-08
1.73107e-08
1.66947e-08
1.71411e-05
2.22457e-05
1.55211e-06
5.56698e-05
1.71408e-08
5.32034e-08
4.62963e-09
1.22088e-08
1.20408e-08
1.08834e-08
1.04167e-08
1.0286e-08
9.30332e-07
3.82419e-05
3.17954e-07
1.14772e-07
2.20748e-09
4.36362e-09
7.92296e-09
7.34114e-09
6.79355e-09
1.15159e-05
4.95286e-06
6.87515e-05
1.33622e-05
1.8735e-06
1.81715e-06
1.75565e-06
1.73849e-06
1.70638e-06
1.70336e-06
1.77223e-06
1.92364e-06
2.18661e-06
4.43556e-06
1.04731e-06
1.0444e-06
1.00696e-06
9.67922e-07
9.30744e-07
8.99127e-07
8.8061e-07
8.63692e-07
7.76188e-07
1.49407e-06
4.82111e-07
4.83639e-07
4.61246e-07
4.41355e-07
4.23659e-07
4.09513e-07
3.99663e-07
1.35785e-07
2.03191e-06
5.26252e-07
2.34486e-07
2.39974e-07
2.27852e-07
2.15635e-07
2.05326e-07
1.98088e-07
1.91295e-07
1.84025e-07
9.96018e-09
4.9889e-07
8.19768e-08
1.09575e-07
1.09739e-07
1.05894e-07
1.01557e-07
9.80122e-08
9.48488e-08
3.33061e-07
7.68259e-06
1.9534e-07
3.4982e-08
6.02997e-08
5.50501e-08
5.29263e-08
5.10651e-08
9.214e-06
1.25518e-05
3.64354e-06
2.01176e-05
3.31069e-07
4.60699e-08
3.1286e-08
3.02042e-08
2.66832e-08
2.63651e-08
2.50924e-08
2.41803e-08
2.35228e-08
7.15648e-06
3.09794e-06
1.489e-08
1.46991e-08
1.82307e-08
1.49854e-08
1.62283e-05
2.55544e-05
2.06836e-05
2.67716e-06
3.443e-05
3.17086e-08
5.96815e-08
4.51212e-10
8.01769e-09
1.02564e-08
9.54487e-09
8.8507e-09
8.88541e-09
5.76337e-08
1.51857e-05
2.84042e-07
7.9477e-08
1.14061e-08
3.9134e-09
5.99736e-09
6.2678e-09
2.09532e-06
9.69802e-06
2.49761e-06
4.13842e-05
9.98125e-06
2.30209e-06
1.25471e-06
7.40532e-07
6.43961e-07
4.1339e-07
3.62324e-09
4.46354e-07
8.39173e-07
1.09877e-06
3.71243e-06
9.51567e-07
8.02874e-07
7.32598e-07
7.00033e-07
6.62011e-07
6.30955e-07
6.2237e-07
6.42002e-07
6.34268e-07
5.89233e-05
6.90825e-06
9.55275e-06
7.29104e-06
6.04464e-06
5.1361e-06
4.01442e-06
1.80574e-06
1.32712e-06
3.69178e-06
4.44049e-07
1.75276e-07
1.81842e-07
1.75099e-07
1.66403e-07
1.58861e-07
1.5259e-07
1.45876e-07
1.40183e-07
1.16031e-07
3.47221e-07
7.62339e-08
8.55888e-08
8.50818e-08
8.25466e-08
7.9124e-08
7.57522e-08
7.28621e-08
2.10195e-07
3.19926e-06
9.86025e-06
3.7068e-08
4.8692e-08
4.37008e-08
4.15712e-08
7.593e-06
1.24812e-05
1.0517e-05
3.2772e-06
1.0904e-05
3.00968e-07
3.87071e-08
2.17888e-08
2.4569e-08
2.15521e-08
2.04874e-08
1.98958e-08
1.93831e-08
1.89099e-08
1.75363e-08
4.91476e-05
4.63771e-05
4.16571e-05
3.71593e-05
3.56325e-05
3.36446e-05
2.95038e-05
1.91281e-05
3.39111e-06
2.17343e-05
7.70532e-08
5.70792e-08
6.51781e-09
5.11422e-09
7.61486e-09
7.64713e-09
7.22767e-09
7.03407e-09
7.17927e-09
1.76903e-06
2.0475e-07
3.91606e-08
1.40493e-08
4.67325e-09
4.77677e-09
4.68803e-09
5.49177e-06
7.65495e-06
1.03855e-06
2.42369e-05
1.98375e-05
1.11723e-05
7.30578e-06
5.48332e-06
6.50469e-06
8.04767e-06
8.95528e-06
8.97978e-06
8.28658e-06
7.08436e-06
9.70131e-08
8.02658e-07
4.65918e-07
4.24838e-07
5.1471e-07
5.67977e-07
5.51356e-07
4.9151e-07
4.14713e-07
3.10499e-07
0.000201574
0.000128449
7.03184e-05
4.03863e-05
2.30097e-05
1.3216e-05
7.1257e-06
2.17856e-06
3.06214e-06
6.61408e-06
3.68932e-07
1.26758e-07
1.27569e-07
1.24132e-07
1.20846e-07
1.17794e-07
1.14261e-07
1.1147e-07
1.07428e-07
9.20328e-08
2.25479e-07
6.54255e-08
6.53548e-08
6.27622e-08
6.14424e-08
5.92034e-08
5.66345e-08
2.01179e-07
3.1942e-07
1.80821e-06
3.97844e-05
3.02975e-05
1.98994e-05
1.59966e-05
1.53941e-05
1.4829e-05
1.30971e-05
8.92086e-06
2.99798e-06
5.96052e-06
2.52039e-07
2.75696e-08
1.31249e-08
1.83859e-08
1.72493e-08
1.58195e-08
1.53796e-08
1.44997e-08
1.41698e-08
1.29576e-08
0.000217181
4.52414e-05
8.15527e-05
7.18119e-05
5.6506e-05
4.28897e-05
3.12484e-05
1.81246e-05
4.03529e-06
1.42897e-05
1.09074e-07
4.10045e-08
1.25083e-08
5.2193e-09
5.36928e-09
5.78922e-09
5.42927e-09
5.1593e-09
5.39927e-09
5.30205e-09
9.03544e-08
6.21416e-09
9.77493e-09
4.77061e-09
3.40954e-09
4.15194e-09
5.77967e-06
5.44065e-06
2.21111e-07
1.34241e-05
0.000226962
9.48036e-06
1.10244e-05
2.81241e-05
3.3986e-05
3.23655e-05
2.7116e-05
2.06119e-05
1.39571e-05
7.42952e-06
5.9614e-06
3.34899e-06
1.59634e-06
6.81975e-07
4.8781e-07
5.51036e-07
6.21835e-07
5.79026e-07
3.58213e-07
1.10091e-07
0.00034172
0.000242722
0.000118424
6.22078e-05
3.18531e-05
1.60703e-05
7.26381e-06
1.05875e-06
5.56475e-06
1.05079e-05
2.74502e-07
9.37597e-08
8.82128e-08
8.20014e-08
7.82438e-08
7.61989e-08
7.47291e-08
7.4039e-08
7.35277e-08
6.04407e-08
1.84669e-05
5.02832e-08
4.67119e-08
2.18551e-07
1.6453e-06
2.52264e-06
2.64794e-06
1.87616e-06
5.60236e-07
1.48791e-06
4.04554e-05
4.5636e-05
3.57757e-05
2.68936e-05
2.06371e-05
1.58955e-05
1.18082e-05
7.3593e-06
2.727e-06
3.12576e-06
1.8873e-07
1.4962e-08
7.3106e-09
1.22525e-08
1.23377e-08
1.19117e-08
1.05484e-08
1.07018e-08
9.84971e-09
9.40341e-09
0.000483715
1.36491e-05
8.67655e-05
8.58307e-05
6.64128e-05
4.7497e-05
3.21112e-05
1.78716e-05
4.86777e-06
9.81513e-06
1.02029e-07
1.14748e-08
1.18373e-08
6.34391e-09
4.26645e-09
3.95971e-09
4.25251e-09
4.02943e-09
4.02943e-09
4.15153e-09
1.54407e-08
6.4415e-09
5.13787e-09
3.93647e-09
3.29744e-09
3.69875e-08
3.26221e-06
2.83293e-06
1.47567e-07
6.18313e-06
1.81764e-05
0.000216099
0.000198071
0.000146272
0.00010007
6.46576e-05
3.87691e-05
1.97802e-05
5.04181e-06
7.79078e-06
3.08547e-05
2.3599e-06
4.42525e-08
1.7915e-06
2.35436e-06
2.01792e-06
1.11743e-06
1.71913e-07
1.83898e-06
3.85011e-06
0.000489628
0.000367274
0.000161143
7.67069e-05
3.47672e-05
1.48813e-05
4.99446e-06
1.36141e-06
8.69264e-06
1.51224e-05
1.92411e-07
7.58274e-08
6.62985e-08
5.57953e-08
4.67297e-08
3.85197e-08
3.26977e-08
2.84561e-08
2.52718e-08
2.80939e-08
5.92903e-05
3.56558e-05
2.07195e-05
1.34694e-05
9.2493e-06
6.49758e-06
4.40837e-06
2.50661e-06
7.40751e-07
1.1869e-06
2.99372e-05
3.78791e-05
3.14052e-05
2.35665e-05
1.73307e-05
1.25699e-05
8.79729e-06
5.37499e-06
2.25427e-06
1.31026e-06
1.20809e-07
2.80402e-09
4.911e-09
6.78035e-09
7.5566e-09
7.95265e-09
7.50908e-09
6.85956e-09
6.66945e-09
5.85769e-09
0.000830295
0.000115358
6.55895e-05
8.35593e-05
6.71774e-05
4.77759e-05
3.16248e-05
1.77597e-05
5.91984e-06
6.49942e-06
2.89816e-08
1.4491e-08
2.24235e-09
4.51063e-09
3.5774e-09
3.08486e-09
2.64416e-09
3.09782e-09
2.6312e-09
2.73306e-09
5.78733e-08
6.00013e-09
9.26753e-10
2.47134e-09
2.1149e-09
2.40005e-09
1.87727e-09
3.60935e-07
1.42078e-07
1.63474e-06
0.00590317
0.000117162
8.37198e-05
3.84224e-05
9.29151e-06
6.65286e-06
1.49272e-05
1.95981e-05
2.33049e-05
2.75227e-05
3.51434e-05
2.63707e-05
2.0095e-05
1.40099e-05
8.57806e-06
4.08669e-06
3.41104e-07
3.07093e-06
6.64854e-06
1.0459e-05
0.000556072
0.00046216
0.000180706
7.72147e-05
3.01952e-05
1.01873e-05
1.65301e-06
3.17946e-06
9.40103e-06
1.63496e-05
9.08229e-08
4.97485e-08
4.89533e-08
4.2801e-08
3.33682e-08
2.36593e-08
1.13326e-08
2.76135e-10
1.36411e-08
3.9677e-08
5.10028e-05
3.46408e-05
1.97239e-05
1.24066e-05
8.09785e-06
5.36303e-06
3.45516e-06
1.94515e-06
6.71549e-07
6.28968e-07
1.71028e-05
2.05822e-05
1.75352e-05
1.32474e-05
9.66873e-06
6.90889e-06
4.77097e-06
2.97313e-06
1.44476e-06
2.28412e-07
5.66748e-08
5.06616e-09
5.34598e-09
4.3298e-09
3.87326e-09
4.24144e-09
4.09417e-09
3.93217e-09
4.1678e-09
3.12286e-09
0.00106297
0.00021068
2.53343e-05
6.24866e-05
5.45678e-05
3.97924e-05
2.66727e-05
1.56662e-05
6.47241e-06
2.96749e-06
7.99169e-08
7.89245e-09
3.37387e-09
6.38626e-10
1.91588e-09
1.71104e-09
1.80743e-09
1.217e-09
1.66284e-09
1.66805e-09
1.27392e-06
7.96363e-07
1.10454e-10
6.62725e-10
1.06036e-09
5.5121e-07
9.75443e-07
5.81298e-07
2.59368e-07
8.32512e-07
0.00406783
0.000489229
0.00031149
0.000208807
0.000148799
0.000104096
6.66132e-05
3.49427e-05
2.23197e-06
3.31928e-05
4.35629e-05
1.83717e-05
8.09407e-06
8.97677e-07
2.95125e-06
4.83454e-06
5.81433e-06
6.52722e-06
7.2822e-06
7.54349e-06
0.000289048
0.000373888
0.000126467
4.78296e-05
1.50108e-05
2.49439e-06
2.11428e-06
4.54231e-06
8.18261e-06
1.31488e-05
4.8971e-08
6.85916e-09
1.84417e-08
3.53021e-08
4.68436e-08
5.67524e-08
6.50799e-08
7.17953e-08
7.3428e-08
6.71262e-08
2.09118e-05
1.55202e-05
8.604e-06
5.27828e-06
3.36202e-06
2.18338e-06
1.39913e-06
8.17379e-07
3.48127e-07
1.39978e-07
6.50356e-06
6.11486e-06
5.21983e-06
3.96537e-06
2.90366e-06
2.08216e-06
1.45518e-06
9.50739e-07
5.49339e-07
1.13902e-07
8.38957e-09
3.34059e-09
4.72338e-09
3.97037e-09
3.27214e-09
2.03995e-09
2.16317e-09
2.06733e-09
1.61553e-09
1.69511e-09
0.000709974
0.000174232
4.1818e-06
2.79256e-05
2.7584e-05
2.11016e-05
1.47301e-05
9.3522e-06
4.90212e-06
2.83966e-07
5.20949e-08
1.35092e-08
3.77497e-09
9.18538e-10
6.72101e-10
1.07536e-09
9.2974e-10
8.96135e-10
6.83303e-10
1.11158e-09
9.41474e-05
0.000132132
8.8291e-05
5.34353e-05
3.17911e-05
1.91802e-05
1.16524e-05
6.42201e-06
2.31901e-06
2.61105e-06
0.0105589
0.000680281
0.00051391
0.000391757
0.000296985
0.000221785
0.000161084
0.000111373
6.93221e-05
3.51906e-05
2.41667e-05
5.10829e-05
3.54021e-05
2.32773e-05
1.49373e-05
9.27988e-06
5.25231e-06
2.01354e-06
1.22247e-06
5.12853e-06
9.65692e-05
8.38119e-05
2.01116e-05
6.01767e-06
7.63819e-07
7.8776e-07
1.16084e-06
1.40453e-06
2.0796e-06
3.38888e-06
4.44804e-08
3.74955e-08
1.89291e-08
4.00919e-09
9.50751e-09
2.14205e-08
3.40399e-08
4.49697e-08
5.62814e-08
6.78985e-08
1.75494e-06
1.84185e-06
9.91612e-07
6.01411e-07
3.81348e-07
2.50615e-07
1.67224e-07
1.08559e-07
6.25106e-08
1.01457e-08
8.39749e-07
5.0238e-07
4.18559e-07
3.19647e-07
2.38747e-07
1.7556e-07
1.28781e-07
9.40585e-08
7.05331e-08
4.46022e-08
6.77355e-09
3.4619e-09
1.52731e-10
3.30917e-10
7.8911e-10
4.83648e-10
7.63655e-10
2.41824e-10
4.2001e-10
6.36379e-10
5.1592e-05
2.68976e-05
1.10082e-06
4.06247e-06
4.3457e-06
3.57899e-06
2.753e-06
2.03986e-06
1.46082e-06
8.10017e-07
8.17661e-08
7.81011e-10
3.22818e-10
1.77029e-10
8.43492e-10
4.16539e-10
2.7075e-10
5.20674e-10
3.12404e-11
4.37366e-10
0.000272099
0.000167683
0.000102564
6.18679e-05
3.8166e-05
2.45942e-05
1.65212e-05
1.11317e-05
6.78573e-06
1.74822e-06
0.52477
0.418091
0.529158
0.918155
0.686219
0.623951
0.739282
1.1158
0.850755
0.792468
0.938899
1.44273
0.618455
0.594716
0.704419
1.10217
0.452794
0.451048
0.535397
0.866568
0.301012
0.297163
0.368337
0.626509
0.201363
0.191896
0.255999
0.459623
0.130918
0.120452
0.172271
0.320643
0.0911849
0.0830677
0.125113
0.236489
0.0691953
0.0636829
0.10253
0.193905
0.0358975
0.00179346
2.20317e-05
0.0190357
0.0786808
0.00652926
1.65046e-05
0.0410043
0.136936
0.0152309
8.97763e-06
0.0705325
0.125445
0.0170746
4.65092e-06
0.0605342
0.110893
0.0170709
2.41067e-06
0.0491056
0.0860723
0.0143437
1.24565e-06
0.037802
0.065255
0.0111881
6.57512e-07
0.0308049
0.0473518
0.00848132
3.78523e-07
0.0235272
0.0366898
0.00731467
0.00106368
0.0188123
0.031094
0.00849098
0.00392833
0.0159109
0.0171927
0.0135093
0.0141808
0.0197464
0.0388617
0.02675
0.0262479
0.0409108
0.0751735
0.048815
0.0493683
0.0798292
0.0713504
0.0432286
0.0448273
0.0752062
0.0654575
0.0372388
0.0397328
0.0702166
0.0524075
0.0282352
0.0308669
0.057
0.0408822
0.0208627
0.0234392
0.0455586
0.0304452
0.0147565
0.0169125
0.0340794
0.024019
0.0106679
0.0126232
0.0264241
0.0206316
0.00871867
0.0108149
0.0219893
0.00193321
0.00139749
0.00134416
0.00195866
0.00612798
0.0041932
0.00387732
0.00633555
0.0162953
0.0110424
0.0105039
0.0166312
0.0191312
0.0126032
0.0124349
0.0190236
0.0208266
0.0132292
0.0136556
0.0207996
0.0190862
0.0117017
0.012512
0.019126
0.0165812
0.00975252
0.0107662
0.0168417
0.0135696
0.00769469
0.00869506
0.0137944
0.0113853
0.00592714
0.0070109
0.011376
0.0101508
0.00517902
0.00659496
0.0102355
0.00061159
0.000574343
0.000603417
0.00082217
0.00228345
0.0021165
0.00237638
0.00342127
0.00611756
0.00576146
0.00642031
0.00891232
0.00732702
0.00657308
0.00708054
0.00962543
0.00842023
0.00716287
0.00765752
0.0103774
0.00818339
0.00659116
0.00706926
0.00954743
0.00750902
0.00571699
0.00621057
0.008449
0.00654926
0.00473182
0.00521105
0.00709281
0.00590338
0.00391386
0.00449945
0.00609452
0.00566628
0.00373774
0.00461432
0.00588689
0.00010712
0.000103735
0.00010339
0.000163101
0.000771573
0.000726328
0.000849921
0.00123961
0.00246385
0.00249627
0.00299336
0.00411701
0.00303174
0.00306304
0.00355209
0.00472774
0.00359708
0.00356058
0.00404743
0.00532321
0.00362786
0.0034595
0.00387791
0.00504585
0.00343788
0.00314019
0.0035017
0.0045285
0.00316828
0.00274812
0.0030561
0.0039087
0.00307045
0.00245138
0.0028045
0.0034823
0.00304922
0.00239636
0.00290861
0.00338479
4.06873e-06
7.7079e-06
3.05834e-06
2.20489e-05
0.000271457
0.00025268
0.000301964
0.000461205
0.00117657
0.00120071
0.00148292
0.00207129
0.00149584
0.00157443
0.0018993
0.00253103
0.00180216
0.00191601
0.00227808
0.00297921
0.00184429
0.00193283
0.00226135
0.00291613
0.00174811
0.00179501
0.00207781
0.0026456
0.00166758
0.00164077
0.00187199
0.00234927
0.00169296
0.00155324
0.00178638
0.00213612
0.00169269
0.00153131
0.00182829
0.00205505
1.88722e-05
6.77847e-06
6.54602e-06
6.71476e-06
7.3918e-05
6.29167e-05
7.51197e-05
0.0001291
0.000536537
0.00052953
0.000660164
0.000947666
0.000755607
0.000795886
0.000972643
0.00130473
0.000953867
0.0010345
0.00125425
0.00164586
0.00101781
0.00110518
0.00132345
0.00171013
0.0009661
0.0010497
0.00124622
0.00158078
0.000951826
0.00100384
0.00117001
0.00146165
0.000953141
0.000958553
0.0011062
0.00130338
0.000967387
0.000971574
0.001146
0.00127652
1.54299e-05
5.37353e-06
5.18533e-06
5.36715e-06
1.02163e-05
5.48692e-06
5.35243e-06
1.94535e-05
0.000232027
0.000209802
0.000261593
0.00040055
0.000375923
0.000390189
0.000478735
0.000648513
0.00050136
0.000546388
0.000668322
0.000881633
0.000573359
0.000631384
0.000764086
0.000991838
0.000548039
0.000613283
0.000737376
0.000933565
0.000565863
0.0006196
0.000730971
0.000913419
0.000538927
0.000575526
0.000664511
0.000780635
0.000569447
0.00061454
0.000717967
0.00079988
1.19688e-05
3.97819e-06
3.81803e-06
3.96764e-06
3.84695e-06
1.49517e-06
1.45892e-06
1.61641e-06
8.68752e-05
6.01866e-05
7.33207e-05
0.000137904
0.000180311
0.000181019
0.000221726
0.00030482
0.00025404
0.000274916
0.000338036
0.000449912
0.000317439
0.000350347
0.000426462
0.000557871
0.000301839
0.000344222
0.000416773
0.000526434
0.000335661
0.000374968
0.000445548
0.000559137
0.000305764
0.000338831
0.000391434
0.000460778
0.000340865
0.000384612
0.000446346
0.00049857
9.66137e-06
3.20136e-06
3.06661e-06
3.20805e-06
3.00468e-06
1.04759e-06
1.02849e-06
1.1475e-06
2.16023e-05
4.7585e-07
4.58037e-07
2.14737e-05
8.21981e-05
7.78509e-05
9.44665e-05
0.000132577
0.000123455
0.000131022
0.000161741
0.00021861
0.000173472
0.000190076
0.00023241
0.000307904
0.000159116
0.000184069
0.000224097
0.000281872
0.000198012
0.000222796
0.000266311
0.000337237
0.000171219
0.000193743
0.000224082
0.00026454
0.000204547
0.000236699
0.000273959
0.000306576
6.36381e-06
1.83378e-06
1.81435e-06
1.90595e-06
2.31626e-06
7.75996e-07
7.61042e-07
8.41705e-07
9.05901e-07
3.41491e-07
3.38099e-07
3.81264e-07
3.40594e-05
2.90457e-05
3.42995e-05
4.93175e-05
5.61968e-05
5.7455e-05
7.11384e-05
9.87063e-05
9.35347e-05
0.000100906
0.000123858
0.000167219
7.8344e-05
9.21085e-05
0.00011274
0.000140346
0.000116607
0.000130758
0.000157259
0.000202168
9.13753e-05
0.000104575
0.000121101
0.000143135
0.000121448
0.000142404
0.000165126
0.000184671
9.02533e-06
2.83542e-06
2.61851e-06
2.59683e-06
1.66611e-06
5.45606e-07
5.38529e-07
6.13182e-07
6.54062e-07
2.26228e-07
2.17142e-07