/*--------------------------------*- C++ -*----------------------------------*\
| =========                 |                                                 |
| \\      /  F ield         | foam-extend: Open Source CFD                    |
|  \\    /   O peration     | Version:     4.0                                |
|   \\  /    A nd           | Web:         http://www.foam-extend.org         |
|    \\/     M anipulation  |                                                 |
\*---------------------------------------------------------------------------*/
FoamFile
{
    version     2.0;
    format      ascii;
    class       volScalarField;
    location    "2750";
    object      MaU;
}
// * * * * * * * * * * * * * * * * * * * * * * * * * * * * * * * * * * * * * //

dimensions      [0 0 0 0 0 0 0];

internalField   nonuniform List<scalar> 
34480
(
0.623809
0.624806
0.625341
0.625454
0.625147
0.624348
0.622915
0.620168
0.614072
0.608274
0.627232
0.628058
0.628519
0.62855
0.627991
0.626696
0.62469
0.621726
0.614706
0.60915
0.62942
0.630178
0.63055
0.630457
0.629721
0.628372
0.626596
0.624301
0.617264
0.612143
0.629416
0.630195
0.630636
0.630674
0.630162
0.629217
0.627941
0.62636
0.61971
0.615063
0.629879
0.630762
0.631343
0.6316
0.631411
0.630944
0.630215
0.629404
0.62354
0.619378
0.629477
0.630418
0.631083
0.631471
0.631519
0.631457
0.631263
0.631275
0.626593
0.62325
0.629683
0.630766
0.631539
0.632067
0.632325
0.632604
0.632906
0.633735
0.6305
0.627959
0.629094
0.630219
0.630948
0.631361
0.631504
0.631738
0.632192
0.633561
0.631842
0.630487
0.628845
0.630127
0.63097
0.631518
0.631837
0.632231
0.632934
0.634799
0.634351
0.632904
0.625042
0.626067
0.626104
0.625226
0.623605
0.621619
0.619718
0.619173
0.618372
0.619156
0.61391
0.615372
0.615945
0.615696
0.614552
0.612236
0.608121
0.600851
0.59014
0.576283
0.618527
0.619835
0.62036
0.620098
0.618855
0.616259
0.611716
0.603868
0.591209
0.575049
0.621599
0.622822
0.623294
0.622998
0.621682
0.61904
0.614568
0.606882
0.593377
0.576039
0.622409
0.623644
0.624181
0.624019
0.622911
0.620612
0.616539
0.609282
0.595386
0.577627
0.623554
0.624863
0.625518
0.625562
0.624753
0.622908
0.619356
0.612742
0.598941
0.581337
0.623691
0.625045
0.62578
0.62596
0.625386
0.623956
0.62095
0.615123
0.601872
0.585058
0.624346
0.625807
0.626637
0.626961
0.626605
0.625547
0.623078
0.618105
0.605782
0.59004
0.62408
0.62557
0.626368
0.62661
0.626199
0.625204
0.623026
0.61877
0.607635
0.593582
0.624078
0.625675
0.626565
0.626921
0.626689
0.625927
0.624141
0.620632
0.610755
0.597503
0.620467
0.62188
0.622214
0.621551
0.619947
0.617552
0.614093
0.609285
0.599883
0.589754
0.606281
0.607848
0.608412
0.608092
0.60685
0.60453
0.600835
0.595268
0.587194
0.577005
0.611183
0.612717
0.613274
0.612897
0.611465
0.608714
0.604139
0.596881
0.585491
0.570334
0.614529
0.616061
0.616613
0.616232
0.614737
0.611806
0.606823
0.598658
0.58464
0.564819
0.615832
0.617426
0.618056
0.617788
0.616421
0.613631
0.608642
0.60005
0.58388
0.559953
0.617454
0.619138
0.619877
0.61979
0.618653
0.61617
0.611419
0.602809
0.585139
0.557923
0.618011
0.619752
0.620576
0.620622
0.619686
0.617526
0.613118
0.604787
0.58623
0.556644
0.619029
0.620863
0.621777
0.621969
0.621235
0.6194
0.615401
0.607544
0.588675
0.557424
0.619063
0.620923
0.621821
0.621957
0.621197
0.619448
0.615721
0.608392
0.589737
0.557644
0.61932
0.621243
0.622212
0.622438
0.621808
0.620253
0.616887
0.610223
0.592211
0.558716
0.615951
0.617705
0.618261
0.617728
0.616089
0.613344
0.608832
0.601397
0.583941
0.550861
0.600721
0.602095
0.602567
0.602259
0.601167
0.599235
0.596365
0.59246
0.587501
0.58197
0.605357
0.606822
0.607331
0.606922
0.605522
0.602985
0.599061
0.593407
0.585581
0.576657
0.608551
0.610136
0.61068
0.61024
0.608688
0.605798
0.601145
0.594102
0.583508
0.570573
0.610053
0.611775
0.612409
0.612033
0.610487
0.607498
0.602448
0.594403
0.58115
0.563936
0.611943
0.613793
0.61453
0.614288
0.612866
0.609978
0.60482
0.596184
0.580679
0.559468
0.612791
0.614724
0.615548
0.615414
0.614121
0.611401
0.606298
0.597403
0.580103
0.555414
0.614081
0.616111
0.617017
0.617012
0.615874
0.613375
0.608455
0.59956
0.580981
0.553347
0.614372
0.616427
0.61733
0.617288
0.616131
0.613682
0.608896
0.600171
0.5809
0.551007
0.614852
0.616942
0.617897
0.61793
0.616879
0.614567
0.609969
0.601578
0.58228
0.549849
0.611731
0.613667
0.614334
0.613826
0.612071
0.608944
0.60358
0.594584
0.575479
0.541848
0.596859
0.597941
0.598302
0.598064
0.59725
0.595866
0.59393
0.591509
0.588756
0.586037
0.600939
0.602179
0.60261
0.602254
0.601079
0.599033
0.596048
0.592102
0.587254
0.582468
0.60368
0.605152
0.605657
0.605239
0.603822
0.601285
0.597415
0.591997
0.584751
0.577131
0.605111
0.606805
0.607416
0.607013
0.605484
0.602642
0.5981
0.591401
0.581616
0.570567
0.607042
0.608921
0.609639
0.60932
0.607801
0.604857
0.599907
0.592244
0.580067
0.565431
0.608017
0.610026
0.610837
0.610593
0.60912
0.60617
0.600992
0.592662
0.578339
0.560219
0.609456
0.611583
0.612476
0.612337
0.610956
0.608094
0.602856
0.594123
0.578018
0.556637
0.609924
0.612091
0.612994
0.612828
0.61142
0.60855
0.603271
0.594351
0.576974
0.552748
0.610576
0.612769
0.613711
0.613605
0.612272
0.609489
0.604264
0.595312
0.577303
0.550003
0.607683
0.609735
0.610481
0.609995
0.608176
0.60483
0.599081
0.589605
0.571371
0.54199
0.594216
0.595021
0.595278
0.595115
0.594562
0.593651
0.592431
0.590996
0.58948
0.588029
0.597699
0.598657
0.598994
0.598717
0.59782
0.596306
0.5942
0.591597
0.588702
0.586124
0.59987
0.601121
0.601555
0.601198
0.600012
0.597957
0.594975
0.591084
0.586397
0.581971
0.601063
0.602598
0.603151
0.602769
0.601384
0.598897
0.595124
0.589942
0.583161
0.576322
0.602857
0.604634
0.6053
0.604955
0.603482
0.600732
0.59636
0.590061
0.581138
0.571554
0.603821
0.605775
0.606542
0.606238
0.604725
0.601815
0.597
0.589791
0.578787
0.566317
0.605294
0.607401
0.608252
0.608023
0.606532
0.603576
0.598489
0.590597
0.577709
0.56233
0.60585
0.608022
0.608898
0.608645
0.607106
0.604069
0.598779
0.590417
0.576022
0.557901
0.60662
0.608823
0.609731
0.609522
0.608024
0.605014
0.599658
0.590997
0.575624
0.554509
0.60392
0.605997
0.606779
0.606309
0.604478
0.601074
0.595329
0.586173
0.570298
0.546971
0.592401
0.592988
0.593164
0.593062
0.592712
0.592149
0.591419
0.590597
0.589766
0.588936
0.595366
0.596055
0.596302
0.596105
0.595468
0.59442
0.593015
0.591369
0.589669
0.588271
0.596968
0.597959
0.598308
0.598027
0.597104
0.595544
0.593373
0.590702
0.587753
0.585191
0.59785
0.59915
0.599623
0.599294
0.598128
0.596091
0.593138
0.589324
0.584789
0.580596
0.599395
0.600974
0.601563
0.601234
0.599909
0.597513
0.593885
0.588977
0.582699
0.576532
0.60024
0.602038
0.602734
0.602414
0.60098
0.59831
0.594114
0.588218
0.580134
0.571765
0.601655
0.603642
0.604426
0.60415
0.602672
0.599843
0.595228
0.588505
0.57868
0.567966
0.602215
0.604295
0.605117
0.604815
0.603261
0.600281
0.595341
0.587976
0.576659
0.563617
0.60305
0.605178
0.606031
0.605759
0.604211
0.601197
0.596092
0.58827
0.575866
0.560277
0.600503
0.60252
0.603298
0.602849
0.60107
0.59777
0.592347
0.584045
0.570999
0.553482
0.591122
0.591559
0.591678
0.591619
0.591407
0.591073
0.590649
0.590187
0.589722
0.589191
0.59369
0.59416
0.594333
0.594201
0.593774
0.593083
0.592184
0.591171
0.590179
0.589405
0.594794
0.595533
0.595798
0.595592
0.594914
0.59379
0.592279
0.590504
0.588672
0.587178
0.595366
0.596407
0.59679
0.596526
0.595601
0.594021
0.591817
0.589112
0.586137
0.583571
0.596608
0.597938
0.598436
0.598148
0.597028
0.595055
0.592191
0.588519
0.584212
0.580276
0.597271
0.598844
0.599451
0.599148
0.597871
0.595562
0.592092
0.587477
0.581712
0.576169
0.598565
0.600354
0.601052
0.600767
0.599395
0.596847
0.592883
0.587415
0.580174
0.572845
0.599057
0.600964
0.60171
0.601394
0.599919
0.597166
0.592804
0.586633
0.578063
0.5689
0.599917
0.601894
0.602672
0.602372
0.600871
0.598031
0.593433
0.586738
0.577128
0.565989
0.597479
0.599362
0.600102
0.599682
0.598017
0.594955
0.590079
0.582925
0.572654
0.560022
0.59019
0.590529
0.59061
0.590578
0.590454
0.590262
0.590021
0.589762
0.589495
0.589117
0.592476
0.592784
0.5929
0.592816
0.592542
0.592103
0.591546
0.590935
0.590357
0.589921
0.593173
0.593697
0.593889
0.593745
0.59327
0.592495
0.591482
0.590334
0.589207
0.58833
0.593485
0.594278
0.594575
0.594375
0.593677
0.592507
0.590925
0.589062
0.587134
0.585562
0.594418
0.595486
0.595888
0.595652
0.594753
0.593205
0.591036
0.588378
0.585473
0.582973
0.594875
0.596189
0.596697
0.59643
0.595353
0.593452
0.590706
0.587221
0.583194
0.579558
0.596016
0.59756
0.598159
0.59789
0.596685
0.594506
0.591252
0.586975
0.581766
0.576821
0.596383
0.59806
0.598714
0.59841
0.597083
0.594666
0.590991
0.586032
0.579722
0.573405
0.597243
0.59901
0.599698
0.5994
0.598022
0.595479
0.591529
0.586045
0.578831
0.571068
0.594876
0.596565
0.597241
0.596859
0.595359
0.592635
0.588433
0.58253
0.574713
0.565886
0.589483
0.58976
0.589817
0.589801
0.58973
0.589622
0.589486
0.589341
0.589182
0.588885
0.591578
0.591775
0.591851
0.5918
0.59163
0.59136
0.591022
0.590659
0.590321
0.590069
0.591956
0.592314
0.592446
0.592351
0.592031
0.591516
0.590856
0.590129
0.589442
0.588924
0.592082
0.592661
0.592882
0.592738
0.592233
0.591399
0.5903
0.589049
0.587811
0.586845
0.592728
0.59355
0.593862
0.593679
0.592989
0.591823
0.590238
0.588369
0.586436
0.584852
0.592986
0.594038
0.594447
0.594226
0.593358
0.59186
0.589767
0.587217
0.584451
0.582083
0.59397
0.595249
0.595745
0.595511
0.594502
0.592719
0.590151
0.586917
0.583243
0.579943
0.594173
0.59559
0.596143
0.595869
0.59473
0.592702
0.589729
0.585887
0.581349
0.577064
0.595027
0.596549
0.597137
0.596862
0.595656
0.593479
0.590225
0.5859
0.580623
0.575325
0.592698
0.594154
0.594747
0.594413
0.59311
0.590781
0.5873
0.582611
0.576831
0.570822
0.588928
0.589166
0.589208
0.589202
0.589161
0.589101
0.589024
0.588942
0.588843
0.588592
0.5909
0.591025
0.591075
0.591045
0.590942
0.590779
0.590578
0.590363
0.590163
0.590014
0.591029
0.591264
0.591352
0.59129
0.591082
0.59075
0.590331
0.58988
0.589464
0.589158
0.591046
0.591454
0.591613
0.591514
0.591162
0.590587
0.589845
0.589021
0.588233
0.587639
0.591443
0.592052
0.592284
0.592148
0.591639
0.590793
0.589671
0.588389
0.587119
0.586119
0.591528
0.592337
0.592655
0.592481
0.591811
0.590675
0.589131
0.587316
0.585445
0.583913
0.592372
0.593393
0.593789
0.593595
0.592787
0.591386
0.589431
0.587057
0.584511
0.582331
0.592386
0.593537
0.593988
0.593754
0.592818
0.591186
0.588868
0.585988
0.582791
0.579926
0.593244
0.594508
0.594993
0.594756
0.593745
0.591959
0.589376
0.58608
0.582308
0.578754
0.590929
0.592133
0.592634
0.592352
0.591263
0.589348
0.586567
0.58297
0.578803
0.574806
0.588482
0.588694
0.588726
0.588724
0.588701
0.588668
0.588625
0.588578
0.588512
0.58829
0.59038
0.590459
0.590493
0.590476
0.590415
0.590318
0.590199
0.590071
0.589951
0.589858
0.590303
0.590452
0.590508
0.590469
0.590338
0.590129
0.58987
0.589595
0.589346
0.589166
0.590288
0.590567
0.590678
0.590613
0.590376
0.589991
0.589501
0.588968
0.58847
0.588102
0.590476
0.590909
0.591076
0.590979
0.590617
0.590022
0.58925
0.588391
0.587568
0.58694
0.590424
0.591024
0.591261
0.59113
0.590632
0.589801
0.588697
0.587438
0.586189
0.585206
0.591157
0.591942
0.592248
0.592096
0.591474
0.590413
0.588972
0.587278
0.585542
0.584114
0.590969
0.591868
0.592222
0.592032
0.591293
0.590028
0.588282
0.586188
0.583979
0.582092
0.591857
0.59287
0.593257
0.593062
0.592249
0.59084
0.588862
0.586428
0.583787
0.581438
0.589533
0.59049
0.590897
0.590668
0.589791
0.588273
0.586128
0.583458
0.580524
0.577922
0.588118
0.588311
0.588334
0.588336
0.588322
0.588304
0.588279
0.588252
0.588206
0.588005
0.589981
0.590033
0.590057
0.590048
0.590012
0.589954
0.589884
0.589807
0.589732
0.589669
0.589715
0.589807
0.589841
0.589817
0.589735
0.589607
0.58945
0.589286
0.589141
0.589035
0.589738
0.589925
0.590001
0.58996
0.589805
0.589554
0.589237
0.588897
0.588584
0.588355
0.589749
0.590048
0.590164
0.590096
0.589847
0.589442
0.588925
0.588361
0.587836
0.587444
0.589602
0.590031
0.590203
0.590108
0.589751
0.589162
0.588395
0.587541
0.586721
0.586095
0.590257
0.59084
0.591068
0.590955
0.590494
0.589719
0.58869
0.587511
0.586347
0.585419
0.589858
0.590533
0.5908
0.590653
0.590092
0.589147
0.587873
0.586395
0.584898
0.583672
0.590818
0.591602
0.5919
0.591747
0.591119
0.590049
0.588585
0.58684
0.585029
0.583495
0.588463
0.589191
0.58951
0.58933
0.588651
0.587491
0.585892
0.58397
0.581952
0.580294
0.587816
0.587992
0.58801
0.588013
0.588005
0.587995
0.587981
0.587965
0.587932
0.587749
0.589683
0.58972
0.589737
0.589733
0.589712
0.589678
0.589635
0.589588
0.589537
0.589491
0.589221
0.589275
0.589294
0.589278
0.589229
0.589152
0.58906
0.588965
0.588882
0.588823
0.589346
0.589469
0.589521
0.589496
0.589397
0.589237
0.589036
0.588822
0.588626
0.588482
0.589206
0.589404
0.589482
0.589436
0.58927
0.589002
0.588664
0.588302
0.587972
0.587731
0.589001
0.589298
0.589418
0.589352
0.589104
0.5887
0.588182
0.587616
0.587084
0.586689
0.589608
0.590027
0.590191
0.59011
0.58978
0.589233
0.58852
0.587721
0.586955
0.586356
0.588989
0.589476
0.589671
0.589561
0.58915
0.588469
0.587569
0.586554
0.585559
0.584777
0.590077
0.590665
0.590885
0.590771
0.590305
0.589522
0.588473
0.587258
0.586042
0.585049
0.587661
0.58819
0.588432
0.588296
0.587789
0.586935
0.585782
0.584441
0.583082
0.582053
0.587557
0.587717
0.58773
0.587733
0.587729
0.587723
0.587715
0.587706
0.587681
0.587516
0.589481
0.589509
0.589524
0.589522
0.589509
0.589489
0.589462
0.58943
0.589393
0.589353
0.588787
0.588816
0.588825
0.588814
0.588784
0.58874
0.588687
0.588635
0.58859
0.588561
0.589076
0.589156
0.589191
0.589177
0.589116
0.589015
0.58889
0.588756
0.588634
0.588542
0.588803
0.58893
0.58898
0.58895
0.588842
0.588669
0.588454
0.588228
0.588024
0.587879
0.588574
0.588774
0.588855
0.588811
0.588645
0.588376
0.588034
0.587667
0.587328
0.587082
0.589154
0.589444
0.589558
0.589501
0.589274
0.588901
0.588422
0.587894
0.587401
0.587018
0.588302
0.58864
0.588777
0.588698
0.588408
0.587933
0.587316
0.586639
0.58599
0.585502
0.589588
0.590015
0.590172
0.590091
0.589758
0.589205
0.588479
0.587655
0.586857
0.58622
0.587061
0.587428
0.587604
0.587506
0.587141
0.586534
0.585729
0.584822
0.583927
0.583307
0.587302
0.587445
0.587453
0.587456
0.587454
0.587451
0.587447
0.587441
0.587424
0.587278
0.589381
0.589405
0.589418
0.589418
0.58941
0.589397
0.589379
0.589356
0.589325
0.589285
0.588392
0.588404
0.588407
0.588398
0.588381
0.588355
0.588327
0.5883
0.58828
0.588269
0.588902
0.588954
0.588977
0.588969
0.588932
0.58887
0.588794
0.588711
0.588636
0.588576
0.588516
0.588595
0.588626
0.588607
0.588539
0.588431
0.588297
0.588158
0.588035
0.587949
0.588294
0.588425
0.588479
0.588451
0.588342
0.588168
0.587948
0.587715
0.587501
0.587349
0.588849
0.589042
0.589117
0.589078
0.588927
0.588681
0.588369
0.588031
0.587722
0.587482
0.587754
0.587979
0.588073
0.588018
0.587821
0.587501
0.58709
0.586648
0.586232
0.585937
0.589316
0.589618
0.589727
0.58967
0.589442
0.589065
0.588579
0.588036
0.587525
0.587116
0.586575
0.586818
0.586943
0.586874
0.586621
0.586206
0.585661
0.585066
0.584488
0.58413
0.586952
0.587074
0.587078
0.58708
0.587079
0.587078
0.587077
0.587074
0.587065
0.586941
0.589407
0.589432
0.589443
0.589445
0.58944
0.58943
0.589416
0.589397
0.589369
0.589323
0.588034
0.588036
0.588036
0.58803
0.588019
0.588005
0.58799
0.587978
0.58797
0.587972
0.588807
0.588839
0.588852
0.588848
0.588825
0.588789
0.588743
0.588695
0.588651
0.588613
0.588336
0.588385
0.588405
0.588394
0.588352
0.588286
0.588204
0.58812
0.588045
0.587996
0.588147
0.588232
0.588267
0.58825
0.588182
0.588071
0.587933
0.587787
0.587653
0.587558
0.588664
0.588785
0.588832
0.588805
0.588707
0.58855
0.588354
0.588145
0.587959
0.587813
0.58734
0.587487
0.587551
0.587516
0.587386
0.587176
0.586908
0.586625
0.586357
0.586185
0.589256
0.589462
0.589535
0.589497
0.589345
0.589097
0.588782
0.588436
0.588117
0.587852
0.586068
0.586221
0.586308
0.586262
0.586093
0.585817
0.585459
0.58508
0.584709
0.584517
0.586285
0.58638
0.586382
0.586384
0.586384
0.586384
0.586385
0.586385
0.586383
0.586288
0.589629
0.589656
0.589664
0.589665
0.589661
0.589654
0.589643
0.589628
0.589602
0.589549
0.587758
0.587759
0.587762
0.58776
0.587755
0.587746
0.587736
0.587727
0.587721
0.587725
0.588774
0.58879
0.588795
0.58879
0.588777
0.588756
0.588731
0.588705
0.588684
0.588663
0.588264
0.588295
0.588309
0.588303
0.588278
0.588238
0.588188
0.588136
0.58809
0.588059
0.588127
0.588182
0.588205
0.588195
0.588153
0.588084
0.587998
0.587907
0.587822
0.587761
0.588583
0.588653
0.58868
0.588661
0.588598
0.5885
0.58838
0.588256
0.588151
0.588069
0.587139
0.587238
0.587284
0.587263
0.58718
0.587044
0.586871
0.586687
0.586507
0.586402
0.589461
0.589594
0.58964
0.589614
0.589515
0.589356
0.589158
0.588944
0.588755
0.588581
0.585311
0.585405
0.585467
0.585436
0.585326
0.585147
0.584915
0.584676
0.584433
0.584339
0.58499
0.585055
0.585059
0.585061
0.585063
0.585063
0.585063
0.585062
0.585062
0.584994
0.590186
0.590204
0.5902
0.590195
0.59019
0.590187
0.590184
0.59018
0.590169
0.590119
0.58768
0.587693
0.587706
0.587711
0.587711
0.587704
0.587692
0.587677
0.587659
0.587648
0.588774
0.588777
0.588774
0.588768
0.588759
0.588747
0.588735
0.588725
0.588721
0.588718
0.588282
0.588304
0.588314
0.588312
0.588297
0.588272
0.58824
0.588206
0.588175
0.588152
0.588203
0.58824
0.588256
0.58825
0.588223
0.588179
0.588125
0.588067
0.588011
0.587969
0.588585
0.588622
0.588636
0.588622
0.588582
0.588519
0.588445
0.588371
0.588314
0.588276
0.587304
0.587381
0.587417
0.587406
0.587352
0.587262
0.587147
0.587021
0.586888
0.586801
0.590053
0.590128
0.590154
0.590133
0.590067
0.589963
0.589838
0.589709
0.589609
0.589512
0.584028
0.584092
0.584136
0.584117
0.584044
0.583925
0.583772
0.583616
0.583446
0.583399
0.583168
0.583208
0.58322
0.583228
0.58323
0.583228
0.58322
0.583208
0.583191
0.583136
0.591111
0.591083
0.591053
0.591034
0.591025
0.591026
0.591037
0.59106
0.591094
0.591104
0.587863
0.5879
0.587923
0.587935
0.587938
0.587931
0.587916
0.587891
0.587855
0.587811
0.588765
0.588756
0.588749
0.588742
0.588735
0.588728
0.588722
0.58872
0.588726
0.588739
0.588337
0.588355
0.588363
0.588362
0.588352
0.588334
0.588311
0.588286
0.588262
0.588242
0.5883
0.588327
0.588338
0.588334
0.588314
0.588283
0.588244
0.588203
0.588163
0.588131
0.588606
0.588628
0.588637
0.588626
0.588596
0.588551
0.588498
0.588446
0.588411
0.588397
0.587824
0.587895
0.587926
0.58792
0.58788
0.587814
0.587728
0.587632
0.587523
0.587424
0.591011
0.59104
0.591051
0.591032
0.590981
0.590905
0.590816
0.590732
0.590685
0.590684
0.582342
0.5824
0.582433
0.582418
0.582363
0.582274
0.582162
0.582046
0.581918
0.581877
0.439206
0.418454
0.42536
0.466318
0.391431
0.368192
0.379234
0.43647
0.348241
0.321094
0.338432
0.417356
0.31017
0.280773
0.305108
0.406436
0.278692
0.248626
0.280195
0.404023
0.251587
0.222071
0.261907
0.401216
0.22987
0.202227
0.250852
0.398581
0.209485
0.185368
0.242832
0.396487
0.191542
0.17352
0.239249
0.398119
0.17208
0.16221
0.234936
0.393622
0.499287
0.489089
0.489414
0.499129
0.468797
0.456182
0.457327
0.470005
0.43792
0.421199
0.423409
0.440983
0.408898
0.387932
0.391526
0.414247
0.384236
0.358772
0.36403
0.392096
0.36219
0.331841
0.337893
0.371223
0.344308
0.308971
0.314858
0.353285
0.327865
0.28773
0.29317
0.336587
0.314322
0.270153
0.275139
0.32295
0.29896
0.252367
0.254967
0.305308
0.566691
0.564475
0.563945
0.565078
0.548932
0.545235
0.54454
0.546842
0.528945
0.523049
0.522241
0.526577
0.506706
0.498438
0.497638
0.504473
0.485707
0.474985
0.474358
0.484093
0.464631
0.451324
0.450915
0.463661
0.445692
0.429719
0.429487
0.445179
0.427057
0.408537
0.408449
0.426908
0.410795
0.390595
0.390553
0.410935
0.391879
0.372167
0.371403
0.391312
0.579156
0.578073
0.577724
0.578074
0.569527
0.568115
0.567625
0.567989
0.557666
0.555182
0.554465
0.555365
0.542893
0.539103
0.538198
0.539923
0.528457
0.523218
0.522199
0.525054
0.512893
0.506078
0.505003
0.50925
0.498291
0.489829
0.488737
0.494577
0.482977
0.472945
0.471893
0.479403
0.468753
0.457775
0.456772
0.465583
0.450911
0.440981
0.439718
0.448068
0.586024
0.585434
0.585234
0.585422
0.580197
0.579717
0.579488
0.579497
0.572718
0.571778
0.571355
0.571427
0.562614
0.560979
0.560326
0.560594
0.552657
0.550152
0.54928
0.549912
0.541361
0.537847
0.53678
0.537958
0.53063
0.526017
0.524799
0.52671
0.518847
0.513158
0.511859
0.514649
0.507676
0.501334
0.500032
0.503606
0.492924
0.487723
0.486294
0.489315
0.588603
0.588127
0.587981
0.588167
0.585159
0.584948
0.584839
0.584831
0.580074
0.579653
0.579437
0.579419
0.57285
0.572089
0.571712
0.571704
0.565796
0.564564
0.563996
0.564052
0.557478
0.555652
0.554878
0.555076
0.54965
0.547134
0.546168
0.546616
0.540753
0.53753
0.536423
0.537242
0.532329
0.528659
0.527514
0.52874
0.520418
0.517866
0.516644
0.517203
0.589728
0.589297
0.589174
0.589361
0.587848
0.587756
0.587704
0.587695
0.584311
0.584116
0.584009
0.583989
0.578942
0.578572
0.57837
0.578333
0.573738
0.573117
0.572789
0.572741
0.567387
0.56643
0.565945
0.565905
0.561545
0.560179
0.559526
0.559537
0.554747
0.55294
0.552146
0.552278
0.548587
0.54647
0.545616
0.545938
0.538913
0.53791
0.537011
0.536569
0.59006
0.589643
0.589529
0.589718
0.58919
0.589143
0.589117
0.589111
0.586729
0.586631
0.586577
0.586565
0.582713
0.582521
0.582412
0.582386
0.578814
0.578485
0.578299
0.578254
0.573853
0.573333
0.573045
0.57298
0.569416
0.568656
0.568248
0.568175
0.564138
0.563115
0.562596
0.562547
0.559729
0.558502
0.557918
0.557938
0.551686
0.551593
0.550995
0.550214
0.590015
0.589604
0.589493
0.589683
0.589806
0.589781
0.589766
0.589762
0.588088
0.588036
0.588007
0.588001
0.58509
0.584986
0.584926
0.584909
0.582169
0.581989
0.581883
0.581852
0.578277
0.577986
0.577817
0.577766
0.574912
0.57448
0.574232
0.574164
0.570767
0.570179
0.569855
0.569782
0.567622
0.566907
0.566528
0.566471
0.560803
0.561231
0.560866
0.56001
0.589789
0.589379
0.58927
0.589461
0.590003
0.589988
0.589978
0.589975
0.588787
0.588759
0.588743
0.588739
0.586571
0.586512
0.586476
0.586466
0.584387
0.584285
0.584223
0.584204
0.581342
0.581174
0.581073
0.581039
0.578838
0.578585
0.578435
0.578386
0.575556
0.575213
0.575014
0.574955
0.57335
0.572928
0.572689
0.57263
0.567473
0.568186
0.567978
0.567143
0.58949
0.58908
0.58897
0.589163
0.589973
0.589963
0.589956
0.589954
0.58908
0.589064
0.589055
0.589053
0.587472
0.587437
0.587415
0.587408
0.585841
0.585781
0.585744
0.585732
0.583469
0.583369
0.583308
0.583286
0.581664
0.581512
0.58142
0.581387
0.579038
0.578834
0.578711
0.57867
0.57757
0.577315
0.577167
0.577123
0.572424
0.573278
0.573169
0.572382
0.589174
0.588762
0.588653
0.588846
0.589831
0.589823
0.589818
0.589815
0.589121
0.589113
0.589108
0.589107
0.587998
0.587976
0.587962
0.587957
0.58677
0.586734
0.586712
0.586705
0.584933
0.584872
0.584834
0.58482
0.583698
0.583605
0.583547
0.583526
0.581555
0.581432
0.581356
0.581329
0.580695
0.580538
0.580447
0.580418
0.576116
0.577023
0.576974
0.576241
0.588869
0.588454
0.588345
0.588541
0.589648
0.589642
0.589637
0.589634
0.589012
0.589008
0.589006
0.589005
0.588288
0.588273
0.588264
0.58826
0.58734
0.587319
0.587306
0.587301
0.585924
0.585887
0.585863
0.585854
0.585153
0.585094
0.585058
0.585044
0.583345
0.58327
0.583223
0.583205
0.583008
0.58291
0.582853
0.582836
0.578862
0.579767
0.579751
0.579076
0.588586
0.588168
0.58806
0.588258
0.589471
0.589465
0.58946
0.589456
0.588812
0.588811
0.588811
0.588811
0.588436
0.588426
0.58842
0.588417
0.587669
0.587657
0.587649
0.587647
0.586583
0.586559
0.586544
0.586538
0.586183
0.586146
0.586123
0.586114
0.584578
0.584532
0.584503
0.584492
0.584716
0.584653
0.584617
0.58461
0.580886
0.581752
0.581753
0.581139
0.58832
0.587899
0.587793
0.587995
0.589332
0.589325
0.589319
0.589316
0.588559
0.58856
0.588561
0.588561
0.58851
0.588503
0.588498
0.588495
0.587843
0.587836
0.587832
0.587831
0.587014
0.586999
0.58699
0.586986
0.586905
0.586882
0.586868
0.586863
0.585384
0.585357
0.585339
0.585331
0.58598
0.585937
0.585916
0.585915
0.58235
0.583147
0.583156
0.582608
0.588039
0.587617
0.587515
0.587721
0.589258
0.58925
0.589244
0.58924
0.588274
0.588276
0.588278
0.588279
0.588553
0.588548
0.588544
0.588543
0.587929
0.587926
0.587924
0.587923
0.587305
0.587295
0.587289
0.587286
0.58741
0.587396
0.587388
0.587386
0.585869
0.585852
0.585841
0.585835
0.586934
0.586903
0.586891
0.586895
0.583354
0.584059
0.584069
0.583594
0.587646
0.587228
0.587134
0.587345
0.589289
0.589279
0.589271
0.589266
0.58798
0.587983
0.587985
0.587987
0.588597
0.588594
0.588592
0.588591
0.587983
0.587981
0.58798
0.58798
0.587527
0.58752
0.587515
0.587513
0.587773
0.587767
0.587763
0.587762
0.586142
0.586131
0.586122
0.586118
0.587706
0.587683
0.587676
0.587684
0.583909
0.584501
0.584509
0.584116
0.586914
0.586513
0.586434
0.586645
0.589502
0.589489
0.58948
0.589476
0.587732
0.587734
0.587734
0.587735
0.588658
0.588656
0.588656
0.588656
0.588048
0.588047
0.588045
0.588045
0.587735
0.587729
0.587725
0.587724
0.588055
0.588055
0.588055
0.588055
0.586357
0.586344
0.586337
0.586334
0.58846
0.588441
0.588438
0.58845
0.583894
0.584351
0.584354
0.584051
0.585501
0.585147
0.585092
0.585287
0.590062
0.590046
0.590039
0.590039
0.587633
0.58763
0.587626
0.587623
0.588725
0.588727
0.588729
0.588731
0.588139
0.588137
0.588135
0.588134
0.587944
0.587938
0.587935
0.587935
0.588286
0.58829
0.588292
0.588292
0.586713
0.586692
0.586683
0.586685
0.589435
0.589422
0.589422
0.589437
0.583082
0.583371
0.583369
0.583174
0.583431
0.583211
0.583185
0.583309
0.591078
0.591073
0.591077
0.59109
0.587749
0.587736
0.587726
0.58772
0.588764
0.58877
0.588774
0.588777
0.588226
0.588223
0.588221
0.58822
0.588107
0.588102
0.588099
0.5881
0.588429
0.588436
0.588439
0.588438
0.58726
0.587223
0.587212
0.587224
0.590755
0.590767
0.590773
0.590777
0.5816
0.581674
0.581669
0.581626
0.595281
0.603738
0.60774
0.610843
0.613968
0.616725
0.618963
0.620711
0.622077
0.623223
0.596212
0.599549
0.606971
0.612021
0.616486
0.619874
0.622338
0.624103
0.625347
0.62629
0.600072
0.59643
0.607414
0.61313
0.618413
0.622011
0.624579
0.626402
0.627655
0.628546
0.603487
0.592555
0.60717
0.612743
0.618603
0.622152
0.624708
0.626486
0.627703
0.628567
0.607979
0.590545
0.607917
0.613217
0.619522
0.622922
0.625449
0.627143
0.628271
0.629054
0.611065
0.587888
0.607658
0.612484
0.619241
0.622456
0.624997
0.626643
0.627776
0.6286
0.615065
0.586625
0.608482
0.612592
0.619753
0.622705
0.625261
0.62685
0.627956
0.628756
0.616634
0.583573
0.607487
0.610829
0.618498
0.621251
0.62397
0.625643
0.626948
0.627985
0.618298
0.582089
0.607936
0.609943
0.617756
0.620042
0.622989
0.62481
0.626318
0.627547
0.602752
0.566223
0.594715
0.597068
0.606754
0.610622
0.61527
0.618382
0.620944
0.622964
0.537861
0.559929
0.576276
0.587903
0.595867
0.601411
0.605418
0.608409
0.610718
0.612637
0.524151
0.554696
0.576783
0.590731
0.599585
0.605576
0.609819
0.612895
0.615137
0.6168
0.513887
0.551566
0.577888
0.592906
0.60236
0.608624
0.613013
0.616155
0.618391
0.619986
0.505499
0.548535
0.578062
0.593401
0.60326
0.609601
0.613999
0.617105
0.619296
0.620848
0.501041
0.547717
0.579326
0.594717
0.604865
0.611157
0.615498
0.618505
0.620594
0.622057
0.497845
0.546645
0.579739
0.594895
0.605284
0.611455
0.615738
0.61866
0.620709
0.622174
0.497447
0.547076
0.581244
0.595875
0.606427
0.612376
0.616584
0.619407
0.621395
0.622821
0.496651
0.546128
0.581198
0.59513
0.605875
0.611609
0.615843
0.618684
0.620796
0.622394
0.497142
0.546448
0.582377
0.595052
0.605592
0.610854
0.615184
0.618145
0.620424
0.622208
0.488058
0.536412
0.573092
0.58528
0.596842
0.603123
0.608644
0.612535
0.615576
0.617844
0.56898
0.575254
0.581331
0.586707
0.591291
0.595124
0.598298
0.600919
0.603112
0.605003
0.555744
0.567137
0.577323
0.58565
0.592318
0.597567
0.601662
0.604844
0.607306
0.609181
0.542659
0.559834
0.574203
0.585093
0.593403
0.599654
0.604362
0.607911
0.610566
0.612511
0.529502
0.552409
0.570764
0.58376
0.593343
0.600256
0.605316
0.609048
0.611797
0.613787
0.519578
0.547554
0.569339
0.583918
0.59442
0.601718
0.606947
0.610725
0.613473
0.615435
0.510734
0.543023
0.567749
0.583453
0.594629
0.60213
0.607439
0.611221
0.613972
0.615956
0.504706
0.540499
0.567678
0.584067
0.595698
0.603233
0.608546
0.612284
0.615007
0.616971
0.499014
0.537465
0.566709
0.583411
0.595359
0.602845
0.608187
0.611952
0.614767
0.616865
0.495306
0.536125
0.567105
0.583473
0.595309
0.60251
0.607911
0.611775
0.614721
0.616968
0.485215
0.527232
0.559419
0.575731
0.588265
0.596191
0.602408
0.606936
0.610415
0.612939
0.578793
0.581202
0.584107
0.587055
0.589832
0.592345
0.594567
0.596509
0.598223
0.599782
0.570021
0.574787
0.580201
0.585344
0.58988
0.59374
0.596962
0.599616
0.601772
0.603476
0.559501
0.567579
0.575989
0.583413
0.589635
0.594703
0.598778
0.602017
0.604553
0.606482
0.547185
0.559288
0.571032
0.580716
0.588471
0.594536
0.599258
0.602916
0.605726
0.607828
0.536492
0.552888
0.567916
0.579605
0.58864
0.595452
0.600615
0.604524
0.607479
0.609657
0.525875
0.54658
0.564729
0.578124
0.588205
0.595562
0.601027
0.605098
0.608159
0.610418
0.517343
0.542172
0.563171
0.577915
0.588798
0.5965
0.602144
0.606291
0.609399
0.611682
0.508967
0.537555
0.561095
0.576825
0.588303
0.596204
0.601986
0.606224
0.609438
0.611842
0.502452
0.53467
0.560411
0.576544
0.588223
0.596105
0.601999
0.606346
0.609667
0.61219
0.491553
0.526367
0.553559
0.57008
0.582398
0.590845
0.597314
0.602132
0.605823
0.608472
0.585288
0.586049
0.587213
0.588579
0.590014
0.59143
0.592777
0.59403
0.59521
0.596363
0.579956
0.581811
0.584329
0.587052
0.589724
0.592205
0.594432
0.596378
0.598034
0.599391
0.572419
0.575821
0.58013
0.584518
0.588609
0.592236
0.595351
0.597964
0.600103
0.601798
0.562602
0.568214
0.574782
0.58104
0.586592
0.591308
0.595218
0.598406
0.60096
0.602944
0.553481
0.56177
0.57083
0.578964
0.585879
0.591531
0.596078
0.599691
0.602536
0.604704
0.543685
0.554978
0.566635
0.576554
0.584694
0.591125
0.596174
0.600113
0.603183
0.605515
0.535235
0.549714
0.563945
0.575457
0.584634
0.591666
0.597082
0.60124
0.604455
0.606875
0.526541
0.544231
0.560908
0.573756
0.583767
0.591236
0.596934
0.601279