/*--------------------------------*- C++ -*----------------------------------*\
| =========                 |                                                 |
| \\      /  F ield         | foam-extend: Open Source CFD                    |
|  \\    /   O peration     | Version:     4.0                                |
|   \\  /    A nd           | Web:         http://www.foam-extend.org         |
|    \\/     M anipulation  |                                                 |
\*---------------------------------------------------------------------------*/
FoamFile
{
    version     2.0;
    format      ascii;
    class       surfaceScalarField;
    location    "2750";
    object      phi;
}
// * * * * * * * * * * * * * * * * * * * * * * * * * * * * * * * * * * * * * //

dimensions      [1 0 -1 0 0 0 0];

internalField   nonuniform List<scalar> 
97302
(
-0.000109786
9.51719e-07
-0.000869496
0.000878772
-0.0001196
1.14105e-06
-0.000870499
0.000879173
-0.000129523
1.20017e-06
-0.000871024
0.000879747
-0.000140125
1.1382e-06
-0.000871063
0.000880527
-0.000152232
9.4609e-07
-0.000870611
0.000881772
-0.000167325
6.1372e-07
-0.000869444
0.000883924
-0.000188496
1.14609e-07
-0.000866957
0.000888013
-0.000222747
-5.95549e-07
-0.00086133
0.000896177
-0.000271325
-1.63913e-06
-0.000851542
0.000901759
-4.39604e-06
-0.000824042
-0.000352996
0.000910109
-0.000150901
1.60324e-06
-0.00116596
0.00117606
-0.000161173
1.96551e-06
-0.00116691
0.00117636
-0.000171518
2.08404e-06
-0.0011675
0.00117697
-0.000182473
1.99207e-06
-0.00116753
0.00117763
-0.000194834
1.67461e-06
-0.00116673
0.00117836
-0.000210315
1.12039e-06
-0.00116472
0.0011797
-0.000232766
2.71832e-07
-0.00116113
0.00118342
-0.000271568
-9.66236e-07
-0.00115433
0.00119351
-0.00032835
-2.89677e-06
-0.00114203
0.00120007
-7.45965e-06
-0.00110414
-0.00043277
0.00121162
-0.000191208
1.89673e-06
-0.00146133
0.00147218
-0.000201778
2.39292e-06
-0.00146234
0.00147248
-0.000212297
2.57443e-06
-0.00146296
0.00147299
-0.000223274
2.498e-06
-0.00146276
0.00147323
-0.000235634
2.14551e-06
-0.00146141
0.0014733
-0.000251511
1.50638e-06
-0.00145874
0.00147423
-0.000275388
5.01375e-07
-0.00145486
0.00147851
-0.000318359
-9.67935e-07
-0.00144829
0.00149126
-0.000381693
-3.35331e-06
-0.00143513
0.00149892
-9.13493e-06
-0.00138641
-0.000500693
0.00150709
-0.000231437
2.08624e-06
-0.00175271
0.00176398
-0.000242301
2.72214e-06
-0.00175394
0.00176448
-0.000253115
2.98242e-06
-0.00175482
0.00176522
-0.000264406
2.94685e-06
-0.00175482
0.00176566
-0.000277164
2.5867e-06
-0.00175364
0.00176596
-0.000293713
1.89319e-06
-0.00175121
0.00176737
-0.000318864
7.64013e-07
-0.00174765
0.00177253
-0.00036497
-8.92409e-07
-0.00174142
0.00178745
-0.000432991
-3.67973e-06
-0.00172781
0.00179616
-1.0629e-05
-0.00166796
-0.000560755
0.00179722
-0.000271568
2.31893e-06
-0.00204524
0.00205669
-0.000282602
3.02415e-06
-0.00204685
0.00205758
-0.000293585
3.3222e-06
-0.00204823
0.00205887
-0.000305071
3.30289e-06
-0.0020487
0.00205983
-0.000318118
2.93525e-06
-0.00204805
0.00206075
-0.000335169
2.21014e-06
-0.00204624
0.00206298
-0.000361326
1.01102e-06
-0.00204332
0.00206924
-0.000409968
-7.46032e-07
-0.00203779
0.00208628
-0.000481932
-3.81466e-06
-0.00202453
0.00209663
-1.18635e-05
-0.00195288
-0.000615169
0.00208735
-0.000312271
2.40461e-06
-0.00233637
0.00234812
-0.000323408
3.13541e-06
-0.00233843
0.00234945
-0.000334459
3.4213e-06
-0.0023402
0.00235116
-0.000346003
3.37432e-06
-0.00234109
0.00235256
-0.00035915
2.97241e-06
-0.00234096
0.00235407
-0.000376428
2.21532e-06
-0.00233991
0.00235718
-0.000403211
9.85175e-07
-0.00233791
0.00236472
-0.000453747
-7.84243e-07
-0.00233348
0.00238406
-0.000529016
-3.91233e-06
-0.00232173
0.0023971
-1.28331e-05
-0.00223797
-0.000665773
0.0023757
-0.000352796
2.3839e-06
-0.00262733
0.0026392
-0.000363875
3.02245e-06
-0.00262998
0.00264118
-0.00037485
3.23749e-06
-0.00263232
0.00264348
-0.000386303
3.10457e-06
-0.00263367
0.00264539
-0.000399399
2.62856e-06
-0.00263412
0.00264756
-0.000416696
1.80206e-06
-0.00263388
0.00265159
-0.000443818
5.61235e-07
-0.00263302
0.00266057
-0.000495694
-1.10949e-06
-0.00263019
0.00268239
-0.000573748
-3.86115e-06
-0.0026211
0.0026991
-1.29895e-05
-0.002525
-0.00071251
0.00266392
-0.000394591
2.02493e-06
-0.00291886
0.00293116
-0.000405723
2.47424e-06
-0.00292211
0.00293379
-0.000416697
2.50288e-06
-0.00292456
0.00293626
-0.000428101
2.16409e-06
-0.00292585
0.0029382
-0.000441061
1.49401e-06
-0.0029262
0.00294029
-0.000458083
4.90726e-07
-0.00292612
0.00294445
-0.000484931
-8.17537e-07
-0.00292596
0.00295419
-0.000536998
-2.35997e-06
-0.00292457
0.00297789
-0.000616519
-4.14946e-06
-0.00291883
0.00299864
-1.21412e-05
-0.00281223
-0.00075568
0.00295055
-0.000435788
1.06843e-06
-0.00320674
0.00321918
-0.000446493
1.13588e-06
-0.00321085
0.00322289
-0.000457072
8.44954e-07
-0.00321391
0.00322615
-0.000468173
1.11365e-07
-0.00321582
0.00322897
-0.000480963
-9.48095e-07
-0.00321695
0.00323219
-0.000497827
-2.30817e-06
-0.00321788
0.00323755
-0.000524529
-3.78321e-06
-0.00321913
0.0032488
-0.000576323
-5.09813e-06
-0.00322004
0.00327457
-0.000655776
-5.50568e-06
-0.00321668
0.00329749
-1.01951e-05
-0.00309932
-0.000792425
0.00323402
-0.000477199
-0.00347532
0.00348833
-0.000488544
-0.00347892
0.0034914
-0.000499733
-0.00347963
0.00349166
-0.000511446
-0.00347707
0.00348889
-0.000524721
-0.00347191
0.00348424
-0.000541688
-0.00346521
0.00347987
-0.000567579
-0.00345815
0.00348026
-0.000616584
-0.00345221
0.00349612
-0.000689674
-0.0034486
0.00351618
-0.00333961
-0.000818674
0.00345842
1.43957e-05
8.89054e-07
-0.00086104
5.31247e-06
1.11369e-06
-0.000862529
-3.79157e-06
1.19441e-06
-0.000863115
-1.31001e-05
1.13674e-06
-0.000862891
-2.28123e-05
9.30735e-07
-0.000861829
-3.31464e-05
5.5806e-07
-0.000859668
-4.42496e-05
-1.54338e-08
-0.000855838
-5.55406e-05
-8.68537e-07
-0.000849171
-6.62354e-05
-2.19714e-06
-0.00083865
-3.96816e-06
-0.000822397
-6.39128e-05
1.54089e-05
1.51398e-06
-0.00115611
5.39053e-06
1.93021e-06
-0.00115771
-4.61743e-06
2.0839e-06
-0.00115839
-1.49323e-05
2.00467e-06
-0.00115808
-2.58193e-05
1.67063e-06
-0.00115658
-3.76409e-05
1.05951e-06
-0.0011534
-5.12338e-05
1.09536e-07
-0.00114766
-6.76412e-05
-1.29545e-06
-0.0011375
-8.82617e-05
-3.54253e-06
-0.00112007
-6.60861e-06
-0.00109112
-9.86424e-05
1.67379e-05
1.82491e-06
-0.00145028
6.00707e-06
2.38892e-06
-0.00145207
-4.6311e-06
2.61242e-06
-0.00145285
-1.55085e-05
2.55015e-06
-0.00145242
-2.6963e-05
2.169e-06
-0.00145045
-3.97283e-05
1.44532e-06
-0.00144636
-5.55499e-05
2.8715e-07
-0.00143922
-7.71568e-05
-1.42746e-06
-0.00142655
-0.000108636
-4.28333e-06
-0.00140291
-8.39566e-06
-0.00135938
-0.000133882
1.79544e-05
2.03318e-06
-0.00174097
6.73997e-06
2.7545e-06
-0.00174309
-4.3835e-06
3.06548e-06
-0.00174415
-1.58115e-05
3.04937e-06
-0.00174389
-2.79997e-05
2.65876e-06
-0.00174194
-4.19398e-05
1.87209e-06
-0.0017377
-5.99425e-05
5.56697e-07
-0.00172991
-8.61301e-05
-1.40102e-06
-0.00171526
-0.000128053
-4.79426e-06
-0.00168538
-9.90556e-06
-0.00162551
-0.000168998
1.90694e-05
2.27946e-06
-0.0020331
7.56853e-06
3.07945e-06
-0.00203567
-3.83544e-06
3.43429e-06
-0.00203719
-1.5599e-05
3.44044e-06
-0.00203733
-2.83156e-05
3.04648e-06
-0.00203572
-4.31631e-05
2.23025e-06
-0.00203175
-6.29174e-05
8.20055e-07
-0.00202383
-9.29969e-05
-1.28803e-06
-0.00200782
-0.000144892
-5.07593e-06
-0.00197236
-1.10638e-05
-0.00189522
-0.000201392
1.97736e-05
2.39781e-06
-0.00232381
8.09554e-06
3.23247e-06
-0.0023269
-3.43912e-06
3.58284e-06
-0.00232882
-1.53454e-05
3.57166e-06
-0.00232932
-2.83368e-05
3.1545e-06
-0.00232808
-4.37546e-05
2.31916e-06
-0.00232458
-6.48032e-05
8.74028e-07
-0.00231692
-9.80695e-05
-1.27479e-06
-0.00230023
-0.000159356
-5.20849e-06
-0.00226031
-1.18827e-05
-0.00216571
-0.000230799
2.0186e-05
2.36888e-06
-0.0026145
8.5307e-06
3.10971e-06
-0.00261821
-2.9537e-06
3.39454e-06
-0.00262065
-1.47989e-05
3.31017e-06
-0.00262157
-2.78485e-05
2.85165e-06
-0.00262077
-4.3554e-05
1.98961e-06
-0.00261784
-6.54984e-05
5.48593e-07
-0.00261075
-0.000101308
-1.56514e-06
-0.00259409
-0.000171275
-5.24582e-06
-0.00255109
-1.22483e-05
-0.00243911
-0.000256801
1.99277e-05
2.03398e-06
-0.00290561
8.27072e-06
2.58931e-06
-0.00290993
-3.10715e-06
2.71809e-06
-0.0029125
-1.47854e-05
2.48059e-06
-0.00291335
-2.76628e-05
1.90768e-06
-0.00291238
-4.32647e-05
9.66381e-07
-0.0029095
-6.5474e-05
-4.35637e-07
-0.00290276
-0.000102751
-2.40739e-06
-0.00288645
-0.000180119
-5.22061e-06
-0.00284148
-1.1899e-05
-0.00271328
-0.000279418
1.93974e-05
1.07397e-06
-0.00319322
8.21036e-06
1.21886e-06
-0.00319829
-2.66293e-06
1.05883e-06
-0.00320138
-1.3833e-05
4.74247e-07
-0.00320264
-2.63531e-05
-4.03925e-07
-0.00320212
-4.18591e-05
-1.58502e-06
-0.00319982
-6.44382e-05
-3.01062e-06
-0.00319398
-0.00010304
-4.67521e-06
-0.00317917
-0.000186368
-6.14897e-06
-0.00313242
-1.00752e-05
-0.00298565
-0.00030186
1.8242e-05
-0.00346151
6.8035e-06
-0.00346626
-4.11897e-06
-0.00346765
-1.52137e-05
-0.0034655
-2.7421e-05
-0.00346011
-4.23451e-05
-0.00345188
-6.39064e-05
-0.0034396
-0.000101289
-0.00341951
-0.000186016
-0.00337002
-0.0032157
-0.000320006
1.20259e-05
7.77693e-07
-0.000854369
4.42319e-06
1.01773e-06
-0.000855944
-3.29473e-06
1.10574e-06
-0.000856502
-1.10378e-05
1.04128e-06
-0.00085619
-1.86828e-05
8.17788e-07
-0.000855002
-2.59847e-05
4.19459e-07
-0.000852786
-3.23915e-05
-1.75719e-07
-0.000849256
-3.65994e-05
-1.00566e-06
-0.000843957
-3.67275e-05
-2.15411e-06
-0.000836368
-3.43231e-06
-0.000826722
-2.89703e-05
1.3878e-05
1.36219e-06
-0.0011476
4.85242e-06
1.80232e-06
-0.00114947
-4.23418e-06
1.96538e-06
-0.00115016
-1.34727e-05
1.87472e-06
-0.00114968
-2.28693e-05
1.50882e-06
-0.00114788
-3.2273e-05
8.43149e-07
-0.00114442
-4.12831e-05
-1.75748e-07
-0.00113865
-4.87474e-05
-1.62037e-06
-0.00112942
-5.22014e-05
-3.70579e-06
-0.00111506
-6.12789e-06
-0.00109587
-4.47546e-05
1.59825e-05
1.70844e-06
-0.00144012
5.78022e-06
2.30352e-06
-0.00144237
-4.41649e-06
2.53708e-06
-0.00144323
-1.4803e-05
2.45684e-06
-0.00144262
-2.54748e-05
2.02482e-06
-0.0014403
-3.64948e-05
1.20578e-06
-0.0014357
-4.7977e-05
-9.51106e-08
-0.00142782
-5.94529e-05
-1.97568e-06
-0.00141472
-6.8512e-05
-4.8458e-06
-0.00139271
-8.36568e-06
-0.00136071
-6.49449e-05
1.76322e-05
1.96731e-06
-0.00172977
6.64083e-06
2.7308e-06
-0.00173253
-4.34195e-06
3.05393e-06
-0.00173368
-1.5627e-05
3.01524e-06
-0.00173316
-2.74601e-05
2.56065e-06
-0.00173064
-4.01709e-05
1.65249e-06
-0.00172543
-5.43203e-05
1.42737e-07
-0.001716
-7.01002e-05
-2.08924e-06
-0.00169937
-8.58011e-05
-5.70589e-06
-0.00166882
-1.03345e-05
-0.00162111
-8.82321e-05
1.90373e-05
2.25881e-06
-0.00202122
7.53708e-06
3.10776e-06
-0.00202455
-3.93398e-06
3.47876e-06
-0.00202615
-1.57946e-05
3.46355e-06
-0.00202591
-2.84701e-05
3.00322e-06
-0.00202349
-4.25424e-05
2.05584e-06
-0.00201808
-5.90246e-05
4.1828e-07
-0.00200763
-7.8906e-05
-2.0583e-06
-0.00198797
-0.000101936
-6.30165e-06
-0.00194873
-1.19699e-05
-0.0018834
-0.000112116
1.99752e-05
2.42616e-06
-0.00231132
8.13825e-06
3.31417e-06
-0.00231527
-3.61585e-06
3.68531e-06
-0.00231727
-1.57999e-05
3.66019e-06
-0.00231733
-2.89967e-05
3.1824e-06
-0.00231506
-4.40384e-05
2.21856e-06
-0.0023097
-6.24245e-05
5.35397e-07
-0.00229865
-8.6049e-05
-2.0393e-06
-0.00227662
-0.000116871
-6.63813e-06
-0.00222916
-1.31799e-05
-0.00214515
-0.000136227
2.05273e-05
2.4206e-06
-0.00260159
8.60973e-06
3.2147e-06
-0.00260619
-3.18675e-06
3.52623e-06
-0.00260869
-1.54207e-05
3.44129e-06
-0.00260911
-2.88415e-05
2.94669e-06
-0.00260711
-4.4491e-05
1.99624e-06
-0.00260197
-6.43532e-05
3.54379e-07
-0.00259071
-9.12584e-05
-2.20161e-06
-0.00256702
-0.000129976
-6.76605e-06
-0.00251225
-1.3949e-05
-0.00240905
-0.000159273
2.0351e-05
2.09697e-06
-0.00289221
8.40319e-06
2.70177e-06
-0.00289747
-3.30971e-06
2.87398e-06
-0.00290014
-1.54092e-05
2.67686e-06
-0.00290048
-2.87391e-05
2.12629e-06
-0.00289823
-4.4531e-05
1.17557e-06
-0.00289288
-6.52373e-05
-3.27214e-07
-0.00288138
-9.45837e-05
-2.64747e-06
-0.00285666
-0.000140685
-6.40218e-06
-0.00279575
-1.3738e-05
-0.0026736
-0.000180577
1.97379e-05
1.15077e-06
-0.0031795
8.24286e-06
1.32813e-06
-0.00318542
-2.96985e-06
1.24796e-06
-0.00318854
-1.45265e-05
7.72686e-07
-0.00318918
-2.74287e-05
2.58687e-08
-0.00318712
-4.31508e-05
-1.01348e-06
-0.00318191
-6.46506e-05
-2.33683e-06
-0.00317047
-9.64406e-05
-4.09054e-06
-0.00314594
-0.000148897
-6.37116e-06
-0.00308
-1.15129e-05
-0.00293619
-0.000200578
1.85758e-05
-0.00344765
6.99872e-06
-0.00345336
-4.10579e-06
-0.00345529
-1.54476e-05
-0.00345339
-2.79187e-05
-0.00344761
-4.30036e-05
-0.0034378
-6.37008e-05
-0.00342124
-9.54115e-05
-0.00339189
-0.00015068
-0.00332112
-0.00316254
-0.000215349
9.33369e-06
6.08783e-07
-0.000849538
3.46346e-06
8.5231e-07
-0.000850927
-2.58789e-06
9.44426e-07
-0.000851396
-8.54702e-06
8.78353e-07
-0.000851109
-1.41072e-05
6.52691e-07
-0.000850095
-1.88457e-05
2.58557e-07
-0.000848306
-2.21201e-05
-3.1099e-07
-0.00084567
-2.28923e-05
-1.05814e-06
-0.000842127
-1.95793e-05
-1.97934e-06
-0.000837701
-2.863e-06
-0.000832856
-1.05823e-05
1.17249e-05
1.11609e-06
-0.00114077
4.10693e-06
1.56646e-06
-0.00114257
-3.63963e-06
1.73472e-06
-0.0011432
-1.13772e-05
1.6366e-06
-0.0011427
-1.88896e-05
1.25492e-06
-0.00114097
-2.57879e-05
5.71668e-07
-0.00113784
-3.13125e-05
-4.44651e-07
-0.00113299
-3.39459e-05
-1.81619e-06
-0.00112603
-3.08494e-05
-3.60299e-06
-0.00111654
-5.41802e-06
-0.00110601
-1.81518e-05
1.44341e-05
1.48729e-06
-0.00143135
5.25739e-06
2.09881e-06
-0.00143372
-3.98594e-06
2.33523e-06
-0.00143459
-1.32964e-05
2.23443e-06
-0.00143391
-2.25677e-05
1.76014e-06
-0.00143153
-3.15048e-05
8.77662e-07
-0.00142707
-3.94303e-05
-4.9045e-07
-0.00141985
-4.47344e-05
-2.39697e-06
-0.00140883
-4.3491e-05
-5.03597e-06
-0.00139252
-7.89312e-06
-0.00137302
-2.87079e-05
1.65211e-05
1.79873e-06
-0.00171967
6.22576e-06
2.59127e-06
-0.00172273
-4.13284e-06
2.91819e-06
-0.00172391
-1.4692e-05
2.84901e-06
-0.00172322
-2.54968e-05
2.33009e-06
-0.00172041
-3.64584e-05
1.31948e-06
-0.00171491
-4.71094e-05
-3.18878e-07
-0.00170552
-5.58656e-05
-2.67736e-06
-0.00169033
-5.78753e-05
-6.17816e-06
-0.00166566
-1.01733e-05
-0.00163382
-4.28843e-05
1.82718e-05
2.14125e-06
-0.00201014
7.19077e-06
3.02858e-06
-0.0020139
-3.92252e-06
3.40721e-06
-0.00201552
-1.53443e-05
3.35866e-06
-0.002015
-2.73116e-05
2.82243e-06
-0.00201201
-3.99858e-05
1.74726e-06
-0.00200584
-5.32041e-05
-6.75608e-08
-0.00199466
-6.55998e-05
-2.7679e-06
-0.00197548
-7.19267e-05
-7.05473e-06
-0.00194153
-1.21923e-05
-0.00189468
-5.86282e-05
1.95044e-05
2.3688e-06
-0.0022994
7.87317e-06
3.30127e-06
-0.00230392
-3.73276e-06
3.68486e-06
-0.00230594
-1.57157e-05
3.63243e-06
-0.00230562
-2.84892e-05
3.08111e-06
-0.00230255
-4.24905e-05
1.98321e-06
-0.00229593
-5.7959e-05
9.44417e-08
-0.00228334
-7.39575e-05
-2.78326e-06
-0.00226061
-8.55259e-05
-7.60706e-06
-0.00221704
-1.37666e-05
-0.0021533
-7.58002e-05
2.02609e-05
2.4073e-06
-0.00258903
8.39414e-06
3.24739e-06
-0.00259427
-3.4014e-06
3.57673e-06
-0.00259679
-1.56063e-05
3.47564e-06
-0.00259675
-2.88218e-05
2.92169e-06
-0.00259374
-4.37448e-05
1.85709e-06
-0.00258692
-6.1076e-05
2.20809e-08
-0.0025733
-8.04485e-05
-2.86673e-06
-0.00254757
-9.78695e-05
-7.85519e-06
-0.00249458
-1.48965e-05
-0.00241266
-9.31304e-05
2.0241e-05
2.11196e-06
-0.00287906
8.27147e-06
2.75945e-06
-0.00288501
-3.51523e-06
2.96181e-06
-0.00288774
-1.56847e-05
2.78387e-06
-0.00288762
-2.89512e-05
2.22361e-06
-0.00288426
-4.42604e-05
1.22634e-06
-0.00287694
-6.284e-05
-4.01374e-07
-0.00286237
-8.50382e-05
-3.02066e-06
-0.00283431
-0.000108507
-7.33063e-06
-0.0027728
-1.48306e-05
-0.00267209
-0.00011009
1.96933e-05
1.19971e-06
-0.00316593
8.11849e-06
1.40487e-06
-0.00317249
-3.22938e-06
1.38961e-06
-0.00317562
-1.49165e-05
9.99325e-07
-0.00317571
-2.77958e-05
3.45891e-07
-0.00317236
-4.30467e-05
-6.07586e-07
-0.00316483
-6.25184e-05
-1.89514e-06
-0.00314951
-8.76699e-05
-3.752e-06
-0.00312005
-0.000117051
-6.49577e-06
-0.00305145
-1.22158e-05
-0.00292921
-0.000126645
1.8606e-05
-0.00343398
7.07062e-06
-0.00344042
-4.05816e-06
-0.00344278
-1.54504e-05
-0.00344099
-2.78757e-05
-0.00343484
-4.25532e-05
-0.00342373
-6.14333e-05
-0.00340425
-8.70673e-05
-0.00337
-0.000119681
-0.003295
-0.00315504
-0.000139403
6.84917e-06
4.23762e-07
-0.000846192
2.5747e-06
6.54344e-07
-0.000847306
-1.89887e-06
7.45033e-07
-0.000847667
-6.24116e-06
6.82698e-07
-0.000847449
-1.01075e-05
4.70868e-07
-0.000846699
-1.30929e-05
1.08643e-07
-0.000845429
-1.47038e-05
-3.95557e-07
-0.000843664
-1.43362e-05
-1.02044e-06
-0.000841474
-1.13196e-05
-1.72029e-06
-0.000838997
-2.32864e-06
-0.000836483
-5.36403e-06
9.38714e-06
8.21728e-07
-0.00113556
3.2972e-06
1.26138e-06
-0.00113708
-2.96878e-06
1.42806e-06
-0.00113762
-9.13086e-06
1.32893e-06
-0.00113718
-1.48465e-05
9.52586e-07
-0.00113573
-1.96462e-05
2.92341e-07
-0.00113322
-2.28143e-05
-6.5687e-07
-0.00112956
-2.32474e-05
-1.87319e-06
-0.00112474
-1.92824e-05
-3.31351e-06
-0.00111891
-4.63233e-06
-0.00111323
-9.76443e-06
1.24559e-05
1.18757e-06
-0.00142418
4.59115e-06
1.79569e-06
-0.00142639
-3.40657e-06
2.02864e-06
-0.00142719
-1.13544e-05
1.9123e-06
-0.00142654
-1.89771e-05
1.41567e-06
-0.00142437
-2.58026e-05
5.14199e-07
-0.00142047
-3.09547e-05
-8.38421e-07
-0.00141451
-3.28544e-05
-2.64446e-06
-0.00140616
-2.86145e-05
-4.92399e-06
-0.00139515
-7.14034e-06
-0.00138374
-1.53859e-05
1.48905e-05
1.53337e-06
-0.00171098
5.63893e-06
2.33885e-06
-0.00171402
-3.75174e-06
2.66409e-06
-0.00171515
-1.32152e-05
2.56655e-06
-0.00171441
-2.25873e-05
1.99757e-06
-0.00171162
-3.15024e-05
9.21667e-07
-0.0017064
-3.90682e-05
-7.63762e-07
-0.00169803
-4.33523e-05
-3.10087e-06
-0.00168559
-4.00334e-05
-6.26962e-06
-0.00166764
-9.53698e-06
-0.00164761
-2.38428e-05
1.69727e-05
1.91889e-06
-0.00200021
6.66645e-06
2.8325e-06
-0.00200409
-3.74492e-06
3.21391e-06
-0.00200566
-1.43387e-05
3.13074e-06
-0.00200497
-2.5121e-05
2.52517e-06
-0.00200176
-3.59145e-05
1.34648e-06
-0.00199547
-4.59411e-05
-5.76147e-07
-0.00198482
-5.30691e-05
-3.3456e-06
-0.00196811
-5.16608e-05
-7.37605e-06
-0.00194183
-1.17702e-05
-0.00191047
-3.36386e-05
1.85159e-05
2.20694e-06
-0.00228843
7.43e-06
3.17587e-06
-0.00229317
-3.70338e-06
3.5678e-06
-0.00229516
-1.51054e-05
3.48421e-06
-0.00229457
-2.69533e-05
2.8598e-06
-0.00229103
-3.93133e-05
1.64057e-06
-0.00228387
-5.1659e-05
-3.98988e-07
-0.00227118
-6.18719e-05
-3.4316e-06
-0.00225031
-6.3368e-05
-8.12165e-06
-0.00221479
-1.35877e-05
-0.00216984
-4.50067e-05
1.95094e-05
2.30261e-06
-0.0025772
8.00644e-06
3.18494e-06
-0.00258277
-3.49318e-06
3.52929e-06
-0.00258525
-1.53157e-05
3.40765e-06
-0.00258485
-2.78318e-05
2.78982e-06
-0.00258115
-4.13655e-05
1.60927e-06
-0.00257336
-5.57438e-05
-3.88979e-07
-0.00255894
-6.90373e-05
-3.47937e-06
-0.00253423
-7.42164e-05
-8.48646e-06
-0.00248903
-1.49511e-05
-0.00242865
-5.68547e-05
1.96922e-05
2.0466e-06
-0.00286651
7.98127e-06
2.73758e-06
-0.00287285
-3.61876e-06
2.96582e-06
-0.00287557
-1.55464e-05
2.7987e-06
-0.00287508
-2.8298e-05
2.21748e-06
-0.00287094
-4.2452e-05
1.15892e-06
-0.00286234
-5.83085e-05
-5.88965e-07
-0.00284632
-7.43919e-05
-3.40833e-06
-0.00281829
-8.38711e-05
-7.91062e-06
-0.0027639
-1.50075e-05
-0.00268686
-6.90449e-05
1.92696e-05
1.19972e-06
-0.00315284
7.86643e-06
1.43345e-06
-0.00315978
-3.387e-06
1.47507e-06
-0.00316288
-1.49378e-05
1.15384e-06
-0.00316252
-2.74303e-05
5.7065e-07
-0.00315822
-4.16494e-05
-3.27221e-07
-0.00314912
-5.8393e-05
-1.60665e-06
-0.00313174
-7.72892e-05
-3.53825e-06
-0.00310103
-9.15603e-05
-6.47534e-06
-0.00303861
-1.2078e-05
-0.00294222
-8.14821e-05
1.82914e-05
-0.00342081
7.00151e-06
-0.00342769
-3.96649e-06
-0.00343033
-1.51895e-05
-0.00342862
-2.72613e-05
-0.0034222
-4.10523e-05
-0.00341027
-5.75075e-05
-0.0033894
-7.70925e-05
-0.00335396
-9.41521e-05
-0.00328442
-0.00317041
-9.08523e-05
4.81643e-06
2.50786e-07
-0.000843933
1.84257e-06
4.55462e-07
-0.000844788
-1.31467e-06
5.39814e-07
-0.00084505
-4.34629e-06
4.85278e-07
-0.000844903
-6.94564e-06
2.99261e-07
-0.000844399
-8.79006e-06
-1.32363e-08
-0.000843571
-9.55037e-06
-4.33922e-07
-0.00084247
-8.91207e-06
-9.30821e-07
-0.000841182
-6.64593e-06
-1.44753e-06
-0.000839816
-1.86601e-06
-0.000838417
-2.84598e-06
7.16925e-06
5.20542e-07
-0.00113173
2.51917e-06
9.28762e-07
-0.00113291
-2.32272e-06
1.08676e-06
-0.00113332
-7.02499e-06
9.93514e-07
-0.00113299
-1.1215e-05
6.43176e-07
-0.00113189
-1.44513e-05
4.02507e-08
-0.00113004
-1.61746e-05
-7.9872e-07
-0.00112747
-1.57043e-05
-1.8254e-06
-0.00112432
-1.22592e-05
-2.95137e-06
-0.00112085
-3.90759e-06
-0.00111779
-5.65211e-06
1.03344e-05
8.48294e-07
-0.00141854
3.86885e-06
1.42941e-06
-0.00142043
-2.7748e-06
1.65157e-06
-0.00142111
-9.29145e-06
1.52805e-06
-0.00142056
-1.53073e-05
1.03472e-06
-0.00141875
-2.03022e-05
1.61495e-07
-0.0014156
-2.34788e-05
-1.10376e-06
-0.00141103
-2.36623e-05
-2.72147e-06
-0.00140508
-1.91471e-05
-4.61236e-06
-0.001398
-6.31284e-06
-0.00139139
-9.09064e-06
1.29532e-05
1.19972e-06
-0.00170381
4.94838e-06
1.9959e-06
-0.00170658
-3.26104e-06
2.31277e-06
-0.0017076
-1.14352e-05
2.19438e-06
-0.0017069
-1.92469e-05
1.60025e-06
-0.00170437
-2.61813e-05
5.08795e-07
-0.00169982
-3.12794e-05
-1.13843e-06
-0.0016929
-3.28877e-05
-3.33049e-06
-0.00168337
-2.80245e-05
-6.07365e-06
-0.00167104
-8.68517e-06
-0.00165872
-1.45454e-05
1.52829e-05
1.60957e-06
-0.00199166
6.01549e-06
2.53016e-06
-0.00199536
-3.42932e-06
2.90824e-06
-0.00199681
-1.2932e-05
2.79538e-06
-0.00199607
-2.22881e-05
2.14059e-06
-0.00199294
-3.10799e-05
9.02734e-07
-0.00198707
-3.82934e-05
-1.04138e-06
-0.0019777
-4.18769e-05
-3.73482e-06
-0.00196412
-3.73981e-05
-7.34507e-06
-0.00194504
-1.0985e-05
-0.0019247
-2.08734e-05
1.71002e-05
1.94806e-06
-0.00227867
6.84778e-06
2.93863e-06
-0.00228333
-3.53055e-06
3.33361e-06
-0.00228521
-1.40554e-05
3.22061e-06
-0.00228447
-2.46644e-05
2.53672e-06
-0.00228082
-3.51117e-05
1.23108e-06
-0.00227375
-4.44662e-05
-8.79447e-07
-0.00226198
-5.04417e-05
-3.91222e-06
-0.00224416
-4.72131e-05
-8.23797e-06
-0.00221713
-1.29079e-05
-0.00218661
-2.85173e-05
1.83247e-05
2.10606e-06
-0.00256643
7.47604e-06
3.0213e-06
-0.00257201
-3.448e-06
3.377e-06
-0.00257437
-1.45843e-05
3.23507e-06
-0.00257373
-2.60514e-05
2.56161e-06
-0.00256971
-3.78169e-05
1.28899e-06
-0.00256165
-4.91489e-05
-8.08222e-07
-0.00254767
-5.7687e-05
-3.95135e-06
-0.00252565
-5.64448e-05
-8.68914e-06
-0.00248982
-1.43507e-05
-0.00244717
-3.64853e-05
1.87297e-05
1.89536e-06
-0.00285486
7.55178e-06
2.62666e-06
-0.00286128
-3.59975e-06
2.87621e-06
-0.00286392
-1.49953e-05
2.71469e-06
-0.00286317
-2.68834e-05
2.11028e-06
-0.0028586
-3.94579e-05
9.98097e-07
-0.00284947
-5.23275e-05
-8.26854e-07
-0.00283343
-6.33401e-05
-3.71006e-06
-0.00280752
-6.48618e-05
-8.09804e-06
-0.00276297
-1.44351e-05
-0.00270666
-4.49759e-05
1.84647e-05
1.14401e-06
-0.00314055
7.48917e-06
1.40474e-06
-0.00314758
-3.42717e-06
1.49472e-06
-0.00315058
-1.45709e-05
1.22796e-06
-0.00314989
-2.63523e-05
6.96197e-07
-0.00314503
-3.91569e-05
-1.64463e-07
-0.00313516
-5.29371e-05
-1.43832e-06
-0.00311735
-6.63027e-05
-3.3788e-06
-0.00308799
-7.12608e-05
-6.28896e-06
-0.00303547
-1.12878e-05
-0.00296302
-5.36122e-05
1.76239e-05
-0.00340842
6.79111e-06
-0.00341546
-3.81539e-06
-0.00341823
-1.46391e-05
-0.00341657
-2.60689e-05
-0.00341007
-3.86065e-05
-0.0033979
-5.23918e-05
-0.00337706
-6.65667e-05
-0.00334316
-7.36967e-05
-0.00328358
-0.00319582
-5.95778e-05
3.29099e-06
1.06886e-07
-0.000842409
1.28804e-06
2.78636e-07
-0.000843064
-8.66485e-07
3.53483e-07
-0.000843249
-2.92019e-06
3.088e-07
-0.000843158
-4.63259e-06
1.54618e-07
-0.000842841
-5.77056e-06
-1.01032e-07
-0.000842332
-6.12985e-06
-4.35557e-07
-0.000841675
-5.55921e-06
-8.15668e-07
-0.000840937
-4.01133e-06
-1.18934e-06
-0.000840175
-1.47564e-06
-0.000839307
-1.64568e-06
5.24903e-06
2.44435e-07
-0.00112897
1.83116e-06
6.05631e-07
-0.00112982
-1.7673e-06
7.49127e-07
-0.00113012
-5.22961e-06
6.67101e-07
-0.00112988
-8.21497e-06
3.58192e-07
-0.00112911
-1.03601e-05
-1.64794e-07
-0.00112783
-1.12715e-05
-8.71777e-07
-0.00112613
-1.05667e-05
-1.70309e-06
-0.00112414
-7.94657e-06
-2.56201e-06
-0.0011221
-3.2527e-06
-0.00112043
-3.53708e-06
8.28506e-06
5.07035e-07
-0.00141424
3.15587e-06
1.03858e-06
-0.00141573
-2.16829e-06
1.24257e-06
-0.00141628
-7.33238e-06
1.12063e-06
-0.00141585
-1.19358e-05
6.55312e-07
-0.00141444
-1.5492e-05
-1.49478e-07
-0.00141206
-1.7373e-05
-1.27782e-06
-0.00140874
-1.68205e-05
-2.66168e-06
-0.00140468
-1.29825e-05
-4.17786e-06
-0.00140023
-5.46957e-06
-0.00139638
-5.777e-06
1.09001e-05
8.33001e-07
-0.00169809
4.20948e-06
1.59448e-06
-0.00170045
-2.72864e-06
1.89516e-06
-0.00170132
-9.56159e-06
1.76573e-06
-0.00170071
-1.58696e-05
1.17541e-06
-0.00169858
-2.10948e-05
1.19386e-07
-0.00169486
-2.43881e-05
-1.41744e-06
-0.00168946
-2.4546e-05
-3.37917e-06
-0.0016825
-1.98145e-05
-5.66784e-06
-0.00167428
-7.72313e-06
-0.00166674
-9.54043e-06
1.33485e-05
1.24199e-06
-0.00198454
5.27996e-06
2.1443e-06
-0.00198784
-3.02419e-06
2.51106e-06
-0.00198912
-1.12884e-05
2.37719e-06
-0.00198842
-1.91567e-05
1.70137e-06
-0.0019856
-2.60807e-05
4.58394e-07
-0.00198049
-3.1047e-05
-1.42148e-06
-0.00197273
-3.24057e-05
-3.92095e-06
-0.00196222
-2.72132e-05
-7.0299e-06
-0.00194887
-9.98184e-06
-0.00193583
-1.38201e-05
1.53599e-05
1.61243e-06
-0.00227027
6.15674e-06
2.60253e-06
-0.00227458
-3.2437e-06
2.99313e-06
-0.00227629
-1.26809e-05
2.85652e-06
-0.00227551
-2.18964e-05
2.13645e-06
-0.00227204
-3.04299e-05
7.93872e-07
-0.00226555
-3.72138e-05
-1.2986e-06
-0.00225532
-4.02437e-05
-4.19102e-06
-0.00224086
-3.525e-05
-8.01264e-06
-0.00222114
-1.18944e-05
-0.0022008
-1.9155e-05
1.67724e-05
1.82939e-06
-0.00255692
6.82297e-06
2.7609e-06
-0.00256222
-3.28015e-06
3.12194e-06
-0.00256439
-1.34848e-05
2.96318e-06
-0.00256363
-2.36836e-05
2.25143e-06
-0.00255963
-3.35638e-05
9.26906e-07
-0.0025519
-4.21058e-05
-1.18835e-06
-0.00253924
-4.70694e-05
-4.23733e-06
-0.00252064
-4.28698e-05
-8.50863e-06
-0.00249353
-1.32799e-05
-0.00246409
-2.45662e-05
1.73928e-05
1.66344e-06
-0.00284435
6.99498e-06
2.42552e-06
-0.00285055
-3.4636e-06
2.69014e-06
-0.00285303
-1.40727e-05
2.53155e-06
-0.00285213
-2.48456e-05
1.90917e-06
-0.00284748
-3.56491e-05
7.64288e-07
-0.00283851
-4.56548e-05
-1.08012e-06
-0.00282353
-5.2616e-05
-3.8897e-06
-0.00280091
-4.99888e-05
-7.91754e-06
-0.00276619
-1.32843e-05
-0.00272615
-3.04918e-05
1.72974e-05
1.03256e-06
-0.00312932
6.99059e-06
1.31499e-06
-0.00313617
-3.35203e-06
1.44413e-06
-0.00313899
-1.38373e-05
1.21942e-06
-0.00313809
-2.46464e-05
7.26133e-07
-0.00313304
-3.58164e-05
-1.04219e-07
-0.00312312
-4.67385e-05
-1.35908e-06
-0.00310615
-5.55503e-05
-3.23931e-06
-0.00307983
-5.51162e-05
-5.95531e-06
-0.00303786
-1.01072e-05
-0.00298517
-3.61375e-05
1.66148e-05
-0.00339708
6.44332e-06
-0.00340397
-3.60036e-06
-0.00340674
-1.38041e-05
-0.00340514
-2.4348e-05
-0.0033988
-3.53958e-05
-0.00338695
-4.65286e-05
-0.00336728
-5.61806e-05
-0.00333675
-5.73758e-05
-0.00328834
-0.00322362
-3.96873e-05
2.21187e-06
-1.61087e-09
-0.000841366
8.93557e-07
1.36218e-07
-0.000841882
-5.42975e-07
2.00449e-07
-0.000842012
-1.90623e-06
1.65848e-07
-0.000841961
-3.02093e-06
4.40456e-08
-0.000841771
-3.72703e-06
-1.56274e-07
-0.00084147
-3.90064e-06
-4.12443e-07
-0.000841089
-3.47112e-06
-6.94933e-07
-0.000840671
-2.44937e-06
-9.61271e-07
-0.000840235
-1.15653e-06
-0.00083963
-9.69412e-07
3.69415e-06
1.27117e-08
-0.00112699
1.2609e-06
3.18846e-07
-0.00112757
-1.32606e-06
4.44332e-07
-0.00112778
-3.79931e-06
3.76527e-07
-0.00112762
-5.87775e-06
1.17156e-07
-0.0011271
-7.28498e-06
-3.16544e-07
-0.00112626
-7.75929e-06
-8.88874e-07
-0.00112518
-7.09732e-06
-1.53969e-06
-0.00112395
-5.21297e-06
-2.18135e-06
-0.00112276
-2.67462e-06
-0.00112183
-2.29044e-06
6.44967e-06
1.93406e-07
-0.00141101
2.5023e-06
6.58141e-07
-0.00141212
-1.63127e-06
8.3791e-07
-0.00141254
-5.60409e-06
7.24703e-07
-0.00141223
-9.04156e-06
3.06374e-07
-0.00141119
-1.15315e-05
-4.02926e-07
-0.00140948
-1.26146e-05
-1.36875e-06
-0.00140718
-1.18349e-05
-2.51015e-06
-0.00140449
-8.8253e-06
-3.69449e-06
-0.00140172
-4.6601e-06
-0.00139947
-3.74681e-06
8.89274e-06
4.67295e-07
-0.00169366
3.47487e-06
1.17005e-06
-0.00169554
-2.20626e-06
1.44675e-06
-0.00169625
-7.74965e-06
1.31609e-06
-0.00169576
-1.27103e-05
7.56697e-07
-0.00169407
-1.65609e-05
-2.20621e-07
-0.00169119
-1.86212e-05
-1.59697e-06
-0.00168718
-1.80877e-05
-3.28612e-06
-0.00168226
-1.40467e-05
-5.13993e-06
-0.00167688
-6.72592e-06
-0.00167227
-6.45175e-06
1.13192e-05
8.4868e-07
-0.00197877
4.50705e-06
1.70525e-06
-0.00198156
-2.57553e-06
2.05176e-06
-0.00198264
-9.55502e-06
1.90716e-06
-0.00198203
-1.59937e-05
1.24091e-06
-0.00197964
-2.13085e-05
4.59158e-08
-0.00197544
-2.46098e-05
-1.69884e-06
-0.00196933
-2.46919e-05
-3.92669e-06
-0.0019615
-1.98185e-05
-6.51747e-06
-0.00195236
-8.85842e-06
-0.00194406
-9.456e-06
1.34189e-05
1.22761e-06
-0.00226326
5.39576e-06
2.19028e-06
-0.00226705
-2.87788e-06
2.56741e-06
-0.00226853
-1.11043e-05
2.4156e-06
-0.00226779
-1.88931e-05
1.68814e-06
-0.0022647
-2.56755e-05
3.63064e-07
-0.00225909
-3.04246e-05
-1.62928e-06
-0.00225064
-3.15583e-05
-4.27494e-06
-0.00223938
-2.63096e-05
-7.52988e-06
-0.00222538
-1.06711e-05
-0.00221196
-1.33376e-05
1.49473e-05
1.49246e-06
-0.00254878
6.07688e-06
2.41745e-06
-0.00255357
-3.01356e-06
2.77573e-06
-0.00255551
-1.21107e-05
2.60607e-06
-0.00255473
-2.0934e-05
1.87974e-06
-0.00255099
-2.89926e-05
5.51859e-07
-0.00254403
-3.5195e-05
-1.5003e-06
-0.00253317
-3.76503e-05
-4.33579e-06
-0.00251812
-3.24409e-05
-8.03354e-06
-0.00249823
-1.19118e-05
-0.00247821
-1.70763e-05
1.57521e-05
1.36369e-06
-0.00283514
6.33317e-06
2.1409e-06
-0.00284085
-3.22552e-06
2.41278e-06
-0.00284311
-1.28462e-05
2.25703e-06
-0.00284216
-2.2347e-05
1.62869e-06
-0.00283773
-3.13615e-05
4.81949e-07
-0.00282942
-3.88667e-05
-1.31979e-06
-0.00281621
-4.28115e-05
-3.94714e-06
-0.00279735
-3.83389e-05
-7.47131e-06
-0.00277122
-1.17999e-05
-0.00274329
-2.13095e-05
1.58174e-05
8.70969e-07