/*--------------------------------*- C++ -*----------------------------------*\
| =========                 |                                                 |
| \\      /  F ield         | foam-extend: Open Source CFD                    |
|  \\    /   O peration     | Version:     4.0                                |
|   \\  /    A nd           | Web:         http://www.foam-extend.org         |
|    \\/     M anipulation  |                                                 |
\*---------------------------------------------------------------------------*/
FoamFile
{
    version     2.0;
    format      ascii;
    class       volVectorField;
    location    "2750";
    object      Urel;
}
// * * * * * * * * * * * * * * * * * * * * * * * * * * * * * * * * * * * * * //

dimensions      [0 1 -1 0 0 0 0];

internalField   nonuniform List<vector> 
34480
(
(209.006 -9.79386 -19.0913)
(209.326 -9.29355 -21.5539)
(209.483 -8.56822 -23.9805)
(209.489 -7.64373 -26.414)
(209.34 -6.55889 -28.9928)
(208.998 -5.3165 -31.8924)
(208.382 -3.89686 -35.513)
(207.216 -2.18374 -40.1992)
(204.545 0.0514767 -48.1214)
(197.607 4.2558 -75.292)
(209.939 -12.8025 -26.8101)
(210.198 -11.6753 -29.5941)
(210.325 -10.3936 -32.2539)
(210.298 -8.97161 -34.8571)
(210.063 -7.44587 -37.5207)
(209.56 -5.83622 -40.4523)
(208.752 -4.16162 -44.1115)
(207.46 -2.36807 -49.2403)
(204.324 -0.294117 -58.0613)
(196.165 3.65912 -88.6315)
(210.628 -17.0999 -33.7471)
(210.862 -15.5487 -36.8323)
(210.956 -13.8204 -39.7795)
(210.886 -11.9089 -42.6023)
(210.59 -9.87006 -45.4281)
(210.063 -7.73811 -48.5136)
(209.311 -5.5405 -52.3873)
(208.167 -3.20754 -58.078)
(204.866 -0.57233 -67.7765)
(195.656 4.13227 -101.291)
(210.635 -20.4952 -41.1594)
(210.87 -18.4132 -44.5391)
(210.979 -16.1555 -47.7258)
(210.942 -13.7039 -50.7507)
(210.708 -11.1151 -53.7484)
(210.293 -8.42634 -57.005)
(209.677 -5.67006 -61.0515)
(208.697 -2.76743 -67.1365)
(205.371 0.45451 -77.4584)
(195.357 5.84598 -112.88)
(210.794 -24.972 -48.0212)
(211.059 -22.4804 -51.6783)
(211.206 -19.7754 -55.1516)
(211.23 -16.8383 -58.4263)
(211.088 -13.7453 -61.6621)
(210.809 -10.5334 -65.1568)
(210.341 -7.22955 -69.4384)
(209.544 -3.74428 -75.9425)
(206.317 0.102496 -86.932)
(195.66 6.19705 -123.872)
(210.68 -28.2267 -55.6175)
(210.955 -25.235 -59.5114)
(211.122 -22.0156 -63.1532)
(211.181 -18.5473 -66.5715)
(211.106 -14.8975 -69.9185)
(210.943 -11.1092 -73.5164)
(210.628 -7.21095 -77.8771)
(210.047 -3.11585 -84.6084)
(207.067 1.37634 -96.0829)
(196.01 8.10827 -134.171)
(210.761 -33.0088 -62.4757)
(211.077 -29.628 -66.6098)
(211.273 -25.9841 -70.5012)
(211.37 -22.0659 -74.1262)
(211.354 -17.9487 -77.666)
(211.288 -13.6689 -81.4439)
(211.114 -9.23124 -85.9759)
(210.749 -4.53235 -92.9912)
(208.099 0.698969 -105.044)
(196.748 8.26176 -144.125)
(210.589 -36.1792 -70.3227)
(210.909 -32.3265 -74.664)
(211.084 -28.1646 -78.6834)
(211.14 -23.7085 -82.4175)
(211.083 -19.0116 -86.0104)
(211 -14.1313 -89.7905)
(210.871 -9.06508 -94.257)
(210.663 -3.70526 -101.229)
(208.421 2.37078 -113.47)
(197.105 10.8377 -153.055)
(210.534 -41.4427 -77.152)
(210.898 -37.2229 -81.6793)
(211.104 -32.6856 -85.8818)
(211.198 -27.8697 -89.7669)
(211.192 -22.8305 -93.5202)
(211.153 -17.5978 -97.4459)
(211.093 -12.1154 -102.078)
(211.024 -6.23072 -109.204)
(209.112 0.774878 -121.818)
(197.68 10.7322 -161.342)
(209.569 -44.6439 -85.1139)
(209.843 -40.0419 -89.9224)
(209.79 -35.0029 -94.3273)
(209.431 -29.6475 -98.3967)
(208.813 -23.9894 -102.257)
(208.027 -18.0692 -106.189)
(207.158 -11.8217 -110.662)
(206.371 -5.05623 -117.278)
(204.433 2.95958 -129.041)
(194.247 14.3052 -166.631)
(205.891 1.91222 3.00056)
(206.369 1.10969 1.5439)
(206.556 0.426588 -0.00997283)
(206.473 -0.117367 -1.61008)
(206.095 -0.546482 -3.31983)
(205.333 -0.86129 -5.15159)
(203.985 -1.06589 -7.15911)
(201.62 -1.17176 -9.31733)
(198.154 -1.25685 -11.245)
(193.579 -1.15902 -14.3934)
(207.19 2.8686 2.79791)
(207.621 2.16428 1.16179)
(207.793 1.51942 -0.49227)
(207.704 0.94391 -2.18912)
(207.292 0.416535 -3.99635)
(206.437 -0.0687535 -5.97184)
(204.943 -0.527074 -8.20874)
(202.358 -0.99335 -10.9582)
(198.189 -1.58378 -14.0068)
(192.505 -1.82406 -20.5815)
(208.139 2.57763 3.30712)
(208.548 1.77156 1.54473)
(208.705 1.04489 -0.256784)
(208.606 0.422737 -2.09024)
(208.169 -0.133467 -4.02985)
(207.295 -0.636249 -6.15937)
(205.811 -1.11492 -8.66773)
(203.233 -1.58618 -12.0869)
(198.689 -2.15704 -16.3332)
(192.07 -2.07109 -26.7166)
(208.382 3.17801 3.30356)
(208.797 2.40348 1.45616)
(208.976 1.69446 -0.403414)
(208.918 1.08829 -2.29704)
(208.545 0.546462 -4.31008)
(207.773 0.0572834 -6.56894)
(206.401 -0.41237 -9.29946)
(203.916 -0.855353 -13.2587)
(199.143 -1.3635 -18.4766)
(191.71 -0.933497 -32.4541)
(208.736 2.66844 3.83841)
(209.178 1.80903 1.93579)
(209.396 1.04217 -0.0203631)
(209.403 0.40861 -2.00867)
(209.121 -0.146895 -4.14618)
(208.485 -0.635634 -6.58672)
(207.264 -1.09249 -9.57247)
(204.941 -1.48861 -14.063)
(200.089 -1.90224 -20.2309)
(191.949 -1.07294 -37.6931)
(208.771 3.39309 3.63432)
(209.228 2.54122 1.71996)
(209.472 1.7836 -0.206785)
(209.521 1.16373 -2.1756)
(209.313 0.634911 -4.29773)
(208.805 0.182717 -6.7731)
(207.75 -0.224102 -9.8435)
(205.648 -0.547992 -14.6623)
(200.884 -0.830099 -21.5476)
(192.218 0.36468 -42.21)
(208.977 2.56685 4.16009)
(209.469 1.61607 2.23759)
(209.744 0.786412 0.259127)
(209.839 0.114215 -1.74955)
(209.699 -0.450699 -3.93584)
(209.306 -0.919924 -6.51577)
(208.412 -1.30998 -9.74447)
(206.556 -1.56823 -14.9178)
(201.998 -1.6562 -22.5677)
(192.908 0.00109861 -46.245)
(208.891 3.37382 3.69577)
(209.392 2.40957 1.80354)
(209.656 1.59813 -0.0881883)
(209.725 0.950785 -2.02435)
(209.569 0.441186 -4.12039)
(209.197 0.0372424 -6.62283)
(208.398 -0.263972 -9.78132)
(206.762 -0.418406 -15.0053)
(202.533 -0.208121 -23.0527)
(193.316 1.83443 -49.2174)
(208.903 2.05542 4.24516)
(209.436 0.977352 2.40201)
(209.728 0.0661285 0.526009)
(209.834 -0.688947 -1.37769)
(209.735 -1.31843 -3.48069)
(209.437 -1.83476 -6.03047)
(208.759 -2.19007 -9.33541)
(207.35 -2.32163 -14.7937)
(203.46 -1.74188 -23.4885)
(193.992 1.00291 -51.498)
(207.981 2.86378 3.63696)
(208.458 1.69309 1.78959)
(208.575 0.796304 -0.0346725)
(208.362 0.0677855 -1.90546)
(207.834 -0.474202 -3.92988)
(207.026 -0.855637 -6.35387)
(205.826 -1.0133 -9.46977)
(204.024 -0.832118 -14.5641)
(200.282 0.222238 -23.038)
(191.635 4.03739 -51.3446)
(203.517 1.42792 2.33437)
(204.02 0.833579 1.21629)
(204.201 0.302548 -0.0132722)
(204.097 -0.131734 -1.26341)
(203.696 -0.48234 -2.55463)
(202.95 -0.746693 -3.83245)
(201.764 -0.934571 -5.04906)
(199.988 -1.07149 -6.0548)
(197.434 -1.24286 -6.4985)
(194.217 -1.43223 -6.5169)
(204.912 2.4143 2.31325)
(205.407 1.87197 0.946129)
(205.587 1.34568 -0.448807)
(205.464 0.855037 -1.86579)
(205 0.389947 -3.33137)
(204.111 -0.0549339 -4.84816)
(202.638 -0.492919 -6.37975)
(200.31 -0.955639 -7.86299)
(196.687 -1.55448 -8.80245)
(191.847 -2.13655 -9.81072)
(205.947 2.21206 2.94809)
(206.447 1.52887 1.39543)
(206.627 0.890661 -0.208768)
(206.502 0.327205 -1.83809)
(206.014 -0.193548 -3.53885)
(205.061 -0.681521 -5.32777)
(203.445 -1.16147 -7.21466)
(200.8 -1.66356 -9.29204)
(196.299 -2.33213 -11.0028)
(189.857 -2.91115 -13.584)
(206.344 2.89697 2.99422)
(206.866 2.22033 1.31811)
(207.072 1.57957 -0.380872)
(206.982 1.01448 -2.11237)
(206.531 0.491555 -3.94035)
(205.615 0.00105861 -5.92308)
(203.983 -0.488908 -8.10652)
(201.17 -0.995775 -10.7406)
(195.931 -1.68089 -13.2006)
(187.995 -2.1662 -17.5586)
(206.846 2.42643 3.56884)
(207.4 1.64998 1.80548)
(207.643 0.940748 -0.0195595)
(207.609 0.340547 -1.87743)
(207.228 -0.201087 -3.86953)
(206.401 -0.692654 -6.08634)
(204.828 -1.16964 -8.60264)
(201.97 -1.63806 -11.8317)
(196.184 -2.28609 -15.1301)
(186.926 -2.57767 -21.5717)
(207.012 3.20019 3.38978)
(207.585 2.41739 1.59389)
(207.855 1.70782 -0.222477)
(207.863 1.11492 -2.08443)
(207.545 0.594122 -4.09229)
(206.815 0.133093 -6.38756)
(205.342 -0.303613 -9.06306)
(202.542 -0.715552 -12.7147)
(196.409 -1.27659 -16.715)
(186.061 -1.33999 -25.3329)
(207.33 2.39049 3.93884)
(207.935 1.50288 2.11669)
(208.234 0.720187 0.231305)
(208.288 0.0785694 -1.68946)
(208.032 -0.470384 -3.78535)
(207.402 -0.93498 -6.22108)
(206.047 -1.33766 -9.12172)
(203.367 -1.66923 -13.2321)
(197.06 -2.06865 -18.0275)
(185.783 -1.79921 -28.9562)
(207.337 3.23553 3.47888)
(207.95 2.33245 1.68356)
(208.243 1.5658 -0.117599)
(208.28 0.948625 -1.97011)
(208.017 0.454343 -3.98472)
(207.414 0.0566696 -6.36734)
(206.145 -0.257225 -9.26058)
(203.617 -0.487871 -13.5544)
(197.326 -0.620563 -18.8722)
(185.387 -0.0696673 -31.8725)
(207.429 1.90358 4.0328)
(208.061 0.887439 2.27503)
(208.376 0.0349077 0.472708)
(208.441 -0.660684 -1.36159)
(208.22 -1.23123 -3.38784)
(207.68 -1.68698 -5.81521)
(206.521 -1.99264 -8.87653)
(204.188 -2.1267 -13.515)
(198.029 -1.86074 -19.6421)
(185.306 -0.799295 -34.2637)
(206.573 2.76958 3.39227)
(207.153 1.67668 1.66375)
(207.338 0.850641 -0.0526445)
(207.166 0.187346 -1.82457)
(206.629 -0.293662 -3.74854)
(205.717 -0.61538 -6.03824)
(204.201 -0.726515 -8.92243)
(201.631 -0.547162 -13.3058)
(195.609 0.217591 -19.5469)
(182.828 2.30022 -34.6944)
(201.781 0.94912 1.70179)
(202.218 0.547718 0.911411)
(202.369 0.165651 0.00790104)
(202.27 -0.157856 -0.896416)
(201.922 -0.428577 -1.80008)
(201.306 -0.641153 -2.62149)
(200.395 -0.807809 -3.29566)
(199.161 -0.952055 -3.68718)
(197.602 -1.12928 -3.58049)
(195.871 -1.36487 -2.75287)
(203.103 1.9075 1.79139)
(203.57 1.53203 0.718126)
(203.733 1.13486 -0.387723)
(203.602 0.741835 -1.49712)
(203.154 0.354153 -2.6017)
(202.344 -0.0309723 -3.67095)
(201.095 -0.424197 -4.62884)
(199.303 -0.847989 -5.34701)
(196.838 -1.37054 -5.40303)
(194.04 -1.93787 -4.6197)
(204.092 1.75991 2.50355)
(204.602 1.22003 1.20607)
(204.778 0.69021 -0.150834)
(204.636 0.204649 -1.51801)
(204.136 -0.260125 -2.91217)
(203.208 -0.712437 -4.31343)
(201.717 -1.17171 -5.65532)
(199.468 -1.66421 -6.84636)
(196.113 -2.29565 -7.29998)
(192.034 -2.99149 -6.92402)
(204.551 2.52658 2.58712)
(205.108 1.97219 1.13179)
(205.313 1.42081 -0.354575)
(205.19 0.916123 -1.8612)
(204.69 0.432892 -3.42373)
(203.723 -0.0381767 -5.05639)
(202.095 -0.526161 -6.71337)
(199.508 -1.0535 -8.37937)
(195.292 -1.75932 -9.29351)
(189.827 -2.52565 -9.54029)
(205.137 2.101 3.20277)
(205.738 1.43199 1.62536)
(205.978 0.800238 -0.0199678)
(205.897 0.249936 -1.68742)
(205.432 -0.261433 -3.45168)
(204.489 -0.741808 -5.35628)
(202.811 -1.22415 -7.38188)
(200.008 -1.72772 -9.61126)
(195.04 -2.44203 -11.1402)
(188.235 -3.1812 -12.3679)
(205.394 2.92936 3.05271)
(206.023 2.23929 1.4184)
(206.29 1.59624 -0.243821)
(206.243 1.04566 -1.94382)
(205.817 0.548769 -3.75866)
(204.923 0.0930828 -5.78009)
(203.254 -0.359089 -8.01116)
(200.343 -0.826346 -10.6685)
(194.77 -1.50679 -12.7413)
(186.758 -2.16649 -15.1349)
(205.797 2.14606 3.6309)
(206.458 1.34319 1.94759)
(206.753 0.623359 0.194428)
(206.746 0.0242327 -1.58898)
(206.368 -0.498198 -3.52106)
(205.538 -0.951724 -5.71768)
(203.916 -1.36288 -8.22171)
(200.976 -1.74468 -11.3675)
(194.945 -2.30045 -14.1235)
(185.843 -2.77401 -17.9493)
(205.884 3.04182 3.18187)
(206.553 2.21934 1.51797)
(206.846 1.51089 -0.159331)
(206.828 0.933848 -1.88664)
(206.444 0.463298 -3.7559)
(205.631 0.0769962 -5.92616)
(204.048 -0.247008 -8.4676)
(201.147 -0.535986 -11.8565)
(194.857 -0.880726 -15.1101)
(184.869 -1.19391 -20.3181)
(206.044 1.7084 3.76452)
(206.724 0.770871 2.12357)
(207.034 -0.0164506 0.423882)
(207.039 -0.652878 -1.30799)
(206.689 -1.16974 -3.2103)
(205.919 -1.57418 -5.43811)
(204.393 -1.84576 -8.14337)
(201.582 -1.99542 -11.8892)
(195.221 -1.94755 -15.9862)
(184.257 -1.89923 -22.3804)
(205.256 2.64802 3.10259)
(205.889 1.6452 1.5147)
(206.107 0.893051 -0.0759185)
(205.943 0.293627 -1.72675)
(205.373 -0.131744 -3.51646)
(204.349 -0.40314 -5.6128)
(202.583 -0.481758 -8.16709)
(199.582 -0.316639 -11.7257)
(193.24 0.228206 -16.0578)
(181.785 1.20164 -22.863)
(200.571 0.551126 1.19394)
(200.913 0.294924 0.666107)
(201.028 0.0340628 0.0357591)
(200.953 -0.195274 -0.58309)
(200.694 -0.396649 -1.18743)
(200.256 -0.562389 -1.69751)
(199.643 -0.702057 -2.06662)
(198.881 -0.830791 -2.20479)
(198.016 -0.975068 -2.02032)
(197.164 -1.14158 -1.42912)
(201.727 1.43453 1.31136)
(202.121 1.20004 0.510248)
(202.258 0.920754 -0.321244)
(202.144 0.622186 -1.14562)
(201.771 0.313537 -1.93592)
(201.123 -0.00394217 -2.64897)
(200.178 -0.334764 -3.21066)
(198.934 -0.688733 -3.5126)
(197.411 -1.09411 -3.32757)
(195.914 -1.51126 -2.51764)
(202.577 1.29271 2.05043)
(203.048 0.89062 1.01564)
(203.209 0.470813 -0.0832991)
(203.076 0.069 -1.18039)
(202.623 -0.329595 -2.26759)
(201.814 -0.72961 -3.30342)
(200.583 -1.14426 -4.20336)
(198.865 -1.59105 -4.83741)
(196.582 -2.12525 -4.81327)
(194.193 -2.69419 -3.92696)
(203.017 2.11734 2.14837)
(203.559 1.69109 0.935486)
(203.755 1.23756 -0.315481)
(203.626 0.803257 -1.5742)
(203.135 0.372907 -2.8471)
(202.225 -0.0600198 -4.11447)
(200.775 -0.519657 -5.29415)
(198.642 -1.02521 -6.27061)
(195.552 -1.66461 -6.46641)
(192.083 -2.36903 -5.60752)
(203.616 1.72875 2.79425)
(204.221 1.17895 1.43095)
(204.453 0.635777 -0.00656585)
(204.349 0.145935 -1.45388)
(203.858 -0.322871 -2.95357)
(202.908 -0.776605 -4.50653)
(201.317 -1.24378 -6.04465)
(198.86 -1.74672 -7.49225)
(194.996 -2.42631 -8.08612)
(190.379 -3.1938 -7.53434)
(203.913 2.60713 2.66959)
(204.561 2.02454 1.22687)
(204.822 1.46014 -0.251857)
(204.742 0.962252 -1.75773)
(204.264 0.500794 -3.33668)
(203.308 0.0646023 -5.02975)
(201.637 -0.383711 -6.78409)
(198.952 -0.870429 -8.60572)
(194.393 -1.55924 -9.55977)
(188.652 -2.35304 -9.45945)
(204.362 1.85338 3.27562)
(205.05 1.15109 1.7611)
(205.338 0.505807 0.169073)
(205.29 -0.0419403 -1.44484)
(204.84 -0.529036 -3.16833)
(203.907 -0.962437 -5.06306)
(202.205 -1.37095 -7.11183)
(199.37 -1.77957 -9.39675)
(194.214 -2.37968 -10.8781)
(187.39 -3.09954 -11.5021)
(204.504 2.80595 2.83929)
(205.204 2.07977 1.33391)
(205.495 1.44067 -0.193545)
(205.439 0.912175 -1.76645)
(204.98 0.473528 -3.44902)
(204.044 0.10613 -5.34441)
(202.327 -0.218599 -7.4584)
(199.42 -0.543152 -9.99069)
(193.839 -0.991216 -11.8663)
(186.055 -1.65653 -13.2454)
(204.717 1.47464 3.45728)
(205.425 0.630493 1.95861)
(205.729 -0.0843222 0.386405)
(205.692 -0.659598 -1.21511)
(205.257 -1.12418 -2.95751)
(204.348 -1.48264 -4.93718)
(202.645 -1.72717 -7.22514)
(199.715 -1.89029 -10.0745)
(193.889 -1.98183 -12.6837)
(185.057 -2.39471 -14.8185)
(203.991 2.50146 2.77471)
(204.656 1.59933 1.34467)
(204.897 0.92513 -0.103763)
(204.741 0.389859 -1.61327)
(204.154 0.0174493 -3.2403)
(203.069 -0.20934 -5.10203)
(201.2 -0.264032 -7.27269)
(198.102 -0.118997 -10.0005)
(192.174 0.260005 -12.811)
(182.634 0.640324 -15.1308)
(199.739 0.251691 0.824879)
(199.993 0.093137 0.488407)
(200.075 -0.0795424 0.0636002)
(200.023 -0.236483 -0.342713)
(199.848 -0.382069 -0.735395)
(199.56 -0.507316 -1.0465)
(199.175 -0.618466 -1.25087)
(198.723 -0.722997 -1.29412)
(198.247 -0.831637 -1.14383)
(197.791 -0.943188 -0.777497)
(200.717 1.04045 0.910864)
(201.019 0.911088 0.336729)
(201.126 0.728235 -0.260153)
(201.038 0.512489 -0.845171)
(200.754 0.277261 -1.38649)
(200.276 0.0267786 -1.84332)
(199.612 -0.237711 -2.15829)
(198.793 -0.516775 -2.25868)
(197.885 -0.815338 -2.03778)
(197.078 -1.10363 -1.43094)
(201.39 0.861578 1.63603)
(201.788 0.575045 0.842238)
(201.926 0.254821 -0.015274)
(201.813 -0.0660463 -0.863779)
(201.436 -0.395739 -1.68088)
(200.784 -0.734746 -2.41796)
(199.839 -1.08965 -2.99864)
(198.61 -1.46913 -3.31459)
(197.136 -1.89524 -3.14388)
(195.749 -2.32525 -2.34647)
(201.758 1.71206 1.7204)
(202.246 1.40389 0.746231)
(202.423 1.04626 -0.269247)
(202.301 0.685482 -1.28317)
(201.86 0.315187 -2.28034)
(201.068 -0.0669878 -3.22109)
(199.871 -0.477708 -4.01849)
(198.23 -0.929459 -4.5453)
(196.096 -1.46849 -4.43725)
(193.954 -2.0407 -3.43905)
(202.316 1.34313 2.37751)
(202.884 0.910904 1.23665)
(203.097 0.459463 0.0179842)
(202.986 0.0360116 -1.20019)
(202.514 -0.381506 -2.43267)
(201.634 -0.795714 -3.64945)
(200.239 -1.22835 -4.76371)
(198.235 -1.69894 -5.64698)
(195.416 -2.29713 -5.77441)
(192.408 -2.96202 -4.76566)
(202.61 2.25827 2.26785)
(203.236 1.78728 1.03187)
(203.482 1.30764 -0.246569)
(203.383 0.869457 -1.54191)
(202.897 0.452085 -2.87082)
(201.964 0.0473236 -4.23245)
(200.423 -0.377631 -5.54365)
(198.122 -0.84922 -6.712)
(194.641 -1.48311 -7.0464)
(190.724 -2.22636 -6.09534)
(203.07 1.53071 2.89455)
(203.747 0.936756 1.56774)
(204.02 0.37337 0.15681)
(203.945 -0.116317 -1.26716)
(203.464 -0.5608 -2.76058)
(202.511 -0.965119 -4.33686)
(200.874 -1.35695 -5.93765)
(198.341 -1.76595 -7.50452)
(194.246 -2.34316 -8.22477)
(189.396 -3.07467 -7.55855)
(203.24 2.54059 2.46828)
(203.937 1.92022 1.1402)
(204.218 1.35844 -0.217922)
(204.135 0.885177 -1.6153)
(203.639 0.485199 -3.08705)
(202.659 0.144001 -4.6843)
(200.957 -0.168893 -6.36135)
(198.267 -0.501236 -8.14045)
(193.685 -0.973328 -9.13444)
(187.954 -1.71693 -8.79334)
(203.488 1.21048 3.12312)
(204.196 0.469752 1.78554)
(204.487 -0.167023 0.3608)
(204.418 -0.679448 -1.08805)
(203.935 -1.09254 -2.64478)
(202.963 -1.40836 -4.35251)
(201.236 -1.62841 -6.21897)
(198.442 -1.79477 -8.27891)
(193.523 -1.95811 -9.8322)
(186.815 -2.51403 -9.91441)
(202.813 2.33617 2.41847)
(203.482 1.54218 1.15875)
(203.733 0.949061 -0.134023)
(203.582 0.478216 -1.48548)
(202.994 0.156471 -2.92837)
(201.899 -0.0308388 -4.53213)
(200.048 -0.0680777 -6.30676)
(197.093 0.0555966 -8.29695)
(191.995 0.31371 -9.98368)
(184.568 0.412593 -10.0824)
(199.165 0.0421336 0.576356)
(199.35 -0.0565679 0.369757)
(199.406 -0.170409 0.087629)
(199.374 -0.275797 -0.172446)
(199.263 -0.379254 -0.425537)
(199.085 -0.471388 -0.616464)
(198.855 -0.556053 -0.736408)
(198.596 -0.635518 -0.752734)
(198.335 -0.71279 -0.658274)
(198.074 -0.784018 -0.451625)
(199.987 0.740713 0.599024)
(200.205 0.682392 0.20023)
(200.283 0.572083 -0.211216)
(200.22 0.423593 -0.609823)
(200.019 0.251731 -0.966818)
(199.689 0.0621872 -1.25029)
(199.247 -0.1397 -1.42133)
(198.73 -0.349567 -1.43692)
(198.196 -0.562284 -1.25228)
(197.759 -0.754263 -0.850816)
(200.485 0.495523 1.28423)
(200.799 0.296427 0.694333)
(200.909 0.0590798 0.0457474)
(200.82 -0.189333 -0.591075)
(200.528 -0.453063 -1.18891)
(200.034 -0.729381 -1.70221)
(199.348 -1.01955 -2.07147)
(198.506 -1.32478 -2.22261)
(197.579 -1.64854 -2.04286)
(196.775 -1.9576 -1.47323)
(200.757 1.34208 1.33066)
(201.169 1.13255 0.573956)
(201.319 0.861552 -0.222732)
(201.215 0.571858 -1.01234)
(200.845 0.263704 -1.76785)
(200.199 -0.0613183 -2.44286)
(199.265 -0.411789 -2.96163)
(198.062 -0.792671 -3.22039)
(196.637 -1.22216 -3.01373)
(195.324 -1.65797 -2.19301)
(201.238 0.972686 1.97819)
(201.741 0.64644 1.05178)
(201.928 0.28306 0.0480925)
(201.823 -0.0725543 -0.948045)
(201.401 -0.433709 -1.93192)
(200.638 -0.799315 -2.85721)
(199.486 -1.18347 -3.63817)
(197.931 -1.59947 -4.14865)
(195.952 -2.09689 -4.06604)
(194.019 -2.6278 -3.11849)
(201.497 1.90627 1.86995)
(202.07 1.54175 0.841996)
(202.292 1.14714 -0.231718)
(202.189 0.772174 -1.31391)
(201.731 0.404861 -2.39861)
(200.88 0.0407077 -3.4575)
(199.546 -0.345495 -4.39854)
(197.675 -0.775072 -5.09976)
(195.127 -1.31992 -5.10525)
(192.504 -1.94569 -4.03103)
(201.938 1.19696 2.50642)
(202.573 0.711095 1.37481)
(202.824 0.232233 0.155134)
(202.735 -0.19534 -1.06964)
(202.262 -0.59173 -2.3291)
(201.356 -0.9593 -3.60164)
(199.882 -1.32165 -4.80837)
(197.74 -1.70679 -5.82717)
(194.631 -2.22172 -6.09922)
(191.266 -2.86456 -5.0734)
(202.11 2.25996 2.08455)
(202.774 1.74816 0.943388)
(203.037 1.26776 -0.233644)
(202.94 0.854133 -1.44321)
(202.442 0.497867 -2.69431)
(201.488 0.188606 -3.9975)
(199.91 -0.102017 -5.27598)
(197.561 -0.417636 -6.4533)
(193.978 -0.857833 -6.88314)
(189.88 -1.53912 -5.9233)
(202.378 0.926453 2.77515)
(203.058 0.29349 1.60957)
(203.331 -0.262304 0.345884)
(203.243 -0.711174 -0.935477)
(202.747 -1.07367 -2.29248)
(201.781 -1.34941 -3.72571)
(200.147 -1.54597 -5.20101)
(197.646 -1.70589 -6.629)
(193.705 -1.88954 -7.46374)
(188.791 -2.41859 -6.70007)
(201.741 2.16026 2.04526)
(202.387 1.47794 0.962289)
(202.636 0.967423 -0.165705)
(202.492 0.560753 -1.34765)
(201.924 0.287418 -2.59385)
(200.867 0.134968 -3.93394)
(199.132 0.110293 -5.33125)
(196.475 0.213103 -6.7145)
(192.319 0.384837 -7.61551)
(186.787 0.372406 -6.78108)
(198.759 -0.0985 0.417775)
(198.896 -0.162723 0.295555)
(198.934 -0.239684 0.107029)
(198.915 -0.310317 -0.0578451)
(198.848 -0.383473 -0.222986)
(198.743 -0.449995 -0.343346)
(198.609 -0.512444 -0.420361)
(198.463 -0.570402 -0.432977)
(198.317 -0.623679 -0.383266)
(198.15 -0.668237 -0.273328)
(199.463 0.530702 0.367254)
(199.611 0.516942 0.0967107)
(199.665 0.457864 -0.176583)
(199.623 0.36081 -0.43799)
(199.489 0.240389 -0.66491)
(199.271 0.1026 -0.835113)
(198.989 -0.0453553 -0.924325)
(198.671 -0.197153 -0.90871)
(198.359 -0.34479 -0.771816)
(198.117 -0.470624 -0.513377)
(199.805 0.204894 1.00205)
(200.038 0.0667165 0.574558)
(200.122 -0.106027 0.0960979)
(200.057 -0.293453 -0.370779)
(199.843 -0.498111 -0.800164)
(199.488 -0.715643 -1.15462)
(199.011 -0.943934 -1.39157)
(198.452 -1.17945 -1.46532)
(197.876 -1.41711 -1.32178)
(197.406 -1.63212 -0.94631)
(199.982 1.02644 0.994569)
(200.311 0.892913 0.424442)
(200.432 0.695107 -0.180673)
(200.349 0.470002 -0.776286)
(200.056 0.221818 -1.33176)
(199.557 -0.0450535 -1.8032)
(198.861 -0.332444 -2.13148)
(198.009 -0.639459 -2.24268)
(197.075 -0.967791 -2.02958)
(196.271 -1.28564 -1.4235)
(200.369 0.63916 1.61502)
(200.791 0.401522 0.883275)
(200.949 0.117544 0.0789874)
(200.858 -0.172796 -0.713862)
(200.502 -0.476228 -1.47949)
(199.876 -0.788498 -2.16742)
(198.969 -1.11701 -2.70374)
(197.809 -1.46802 -2.98659)
(196.453 -1.86399 -2.83143)
(195.218 -2.26678 -2.08454)
(200.573 1.57167 1.49516)
(201.072 1.30159 0.66471)
(201.265 0.987235 -0.211047)
(201.168 0.675473 -1.08916)
(200.762 0.361273 -1.94901)
(200.029 0.0436743 -2.74881)
(198.93 -0.294048 -3.40237)
(197.471 -0.666037 -3.79556)
(195.657 -1.11001 -3.64697)
(193.921 -1.60336 -2.71221)
(200.977 0.87066 2.12903)
(201.546 0.485723 1.18915)
(201.769 0.0894581 0.161018)
(201.677 -0.274854 -0.865973)
(201.24 -0.619881 -1.90117)
(200.428 -0.945116 -2.90243)
(199.168 -1.26871 -3.78745)
(197.434 -1.61285 -4.42103)
(195.149 -2.04658 -4.44745)
(192.849 -2.56756 -3.45688)
(201.127 1.97914 1.70436)
(201.734 1.57217 0.750241)
(201.972 1.17317 -0.242398)
(201.87 0.820972 -1.26112)
(201.401 0.511525 -2.29431)
(200.524 0.238292 -3.32551)
(199.138 -0.0225363 -4.26586)
(197.18 -0.305829 -5.00177)
(194.477 -0.68361 -5.08972)
(191.604 -1.24164 -4.02933)
(201.403 0.634422 2.42787)
(202.032 0.107767 1.43666)
(202.28 -0.367112 0.340279)
(202.184 -0.753149 -0.767082)
(201.705 -1.06635 -1.92178)
(200.799 -1.30417 -3.09463)
(199.335 -1.47734 -4.22895)
(197.207 -1.62394 -5.18396)
(194.167 -1.79831 -5.56507)
(190.666 -2.23198 -4.57254)
(200.79 1.98328 1.6678)
(201.391 1.41181 0.761359)
(201.627 0.983324 -0.198142)
(201.493 0.639595 -1.20546)
(200.963 0.412113 -2.2518)
(199.986 0.29028 -3.33739)
(198.433 0.274578 -4.39691)
(196.157 0.358302 -5.31038)
(192.901 0.468957 -5.695)
(188.926 0.424343 -4.59117)
(198.46 -0.191759 0.321276)
(198.567 -0.236984 0.252214)
(198.592 -0.291962 0.122489)
(198.582 -0.340127 0.0170243)
(198.543 -0.392366 -0.0945618)
(198.483 -0.440071 -0.174414)
(198.407 -0.485285 -0.229687)
(198.325 -0.526531 -0.245343)
(198.241 -0.562579 -0.226319)
(198.122 -0.590005 -0.173602)
(199.082 0.396302 0.199425)
(199.179 0.408974 0.0190423)
(199.215 0.38439 -0.155801)
(199.189 0.324872 -0.320392)
(199.102 0.244156 -0.458594)
(198.965 0.147907 -0.556189)
(198.789 0.043391 -0.598978)
(198.598 -0.0628716 -0.574079)
(198.416 -0.163148 -0.477326)
(198.28 -0.244474 -0.311626)
(199.297 -0.0129469 0.785436)
(199.463 -0.111523 0.481372)
(199.523 -0.23647 0.13475)
(199.478 -0.375126 -0.202077)
(199.328 -0.52975 -0.507351)
(199.083 -0.695857 -0.752842)
(198.764 -0.869592 -0.909795)
(198.402 -1.04537 -0.952068)
(198.047 -1.21543 -0.854313)
(197.771 -1.36179 -0.621803)
(199.394 0.772719 0.717085)
(199.644 0.693818 0.299589)
(199.738 0.554534 -0.145915)
(199.675 0.385096 -0.581616)
(199.454 0.191544 -0.978611)
(199.085 -0.0201906 -1.30019)
(198.587 -0.247589 -1.50354)
(198.001 -0.486237 -1.54014)
(197.395 -0.729945 -1.35772)
(196.902 -0.955075 -0.931547)
(199.685 0.356104 1.29887)
(200.023 0.187957 0.735202)
(200.15 -0.0281427 0.106961)
(200.076 -0.25887 -0.50855)
(199.791 -0.506568 -1.09112)
(199.301 -0.764904 -1.59404)
(198.615 -1.03642 -1.95892)
(197.777 -1.32147 -2.11244)
(196.862 -1.62674 -1.9542)
(196.077 -1.92105 -1.41126)
(199.825 1.26978 1.15769)
(200.241 1.07822 0.505685)
(200.402 0.835621 -0.18785)
(200.318 0.583889 -0.879829)
(199.976 0.322916 -1.54232)
(199.375 0.0544884 -2.13057)
(198.507 -0.230285 -2.57195)
(197.408 -0.539162 -2.77556)
(196.142 -0.886707 -2.57469)
(195.003 -1.25723 -1.84128)
(200.182 0.567737 1.77725)
(200.672 0.271707 1.01655)
(200.862 -0.0477098 0.171321)
(200.777 -0.350467 -0.668487)
(200.394 -0.643274 -1.49884)
(199.702 -0.923068 -2.2693)
(198.671 -1.20266 -2.90499)
(197.318 -1.497 -3.28526)
(195.677 -1.84702 -3.1966)
(194.125 -2.2454 -2.37603)
(200.294 1.7122 1.3426)
(200.826 1.40097 0.567049)
(201.034 1.07964 -0.246111)
(200.937 0.788031 -1.07971)
(200.516 0.526433 -1.90799)
(199.749 0.291537 -2.69978)
(198.585 0.0652406 -3.36782)
(197.018 -0.178083 -3.80029)
(195.032 -0.485344 -3.70297)
(193.052 -0.910361 -2.75645)
(200.569 0.346108 2.09531)
(201.13 -0.0808718 1.27276)
(201.348 -0.477962 0.342415)
(201.253 -0.803555 -0.592752)
(200.815 -1.06952 -1.55273)
(200.007 -1.27151 -2.49086)
(198.754 -1.42127 -3.34288)
(197.018 -1.5501 -3.96244)
(194.741 -1.70149 -4.08202)
(192.304 -2.03016 -3.14716)
(199.969 1.81517 1.29872)
(200.506 1.34963 0.562051)
(200.721 1.00025 -0.231129)
(200.6 0.716966 -1.06539)
(200.123 0.532283 -1.91751)
(199.258 0.437126 -2.76897)
(197.924 0.42779 -3.54128)
(196.053 0.494874 -4.10949)
(193.583 0.562945 -4.17924)
(190.809 0.519247 -3.11544)
(198.232 -0.255804 0.265841)
(198.319 -0.290743 0.22954)
(198.337 -0.333197 0.135469)
(198.332 -0.367328 0.0657999)
(198.31 -0.405653 -0.0140067)
(198.276 -0.440139 -0.0711384)
(198.233 -0.472752 -0.115479)
(198.187 -0.501785 -0.135259)
(198.137 -0.525875 -0.13599)
(198.043 -0.542319 -0.116915)
(198.8 0.320922 0.0782197)
(198.862 0.34876 -0.0402989)
(198.886 0.346666 -0.147103)
(198.87 0.313616 -0.245248)
(198.816 0.262375 -0.324156)
(198.731 0.197923 -0.375331)
(198.625 0.12663 -0.390986)
(198.511 0.0543354 -0.363991)
(198.405 -0.0126066 -0.295272)
(198.326 -0.0646527 -0.18594)
(198.916 -0.16799 0.624926)
(199.028 -0.242243 0.411076)
(199.07 -0.333262 0.162492)
(199.04 -0.434581 -0.0787428)
(198.939 -0.54884 -0.295606)
(198.777 -0.672411 -0.468024)
(198.569 -0.800843 -0.577344)
(198.34 -0.928365 -0.609503)
(198.123 -1.04747 -0.552201)
(197.96 -1.14553 -0.417673)
(198.954 0.579833 0.495817)
(199.137 0.537818 0.198415)
(199.207 0.443177 -0.119643)
(199.161 0.319576 -0.428797)
(199.002 0.173353 -0.70464)
(198.739 0.0109809 -0.918876)
(198.393 -0.163037 -1.04216)
(198 -0.342757 -1.04428)
(197.611 -0.519508 -0.902058)
(197.308 -0.676248 -0.609709)
(199.156 0.129428 1.03353)
(199.416 0.0128516 0.608905)
(199.515 -0.147809 0.12949)
(199.457 -0.326553 -0.337734)
(199.239 -0.523137 -0.772491)
(198.87 -0.730476 -1.13574)
(198.37 -0.947868 -1.38416)
(197.781 -1.1719 -1.46911)
(197.172 -1.40165 -1.33823)
(196.674 -1.61139 -0.963671)
(199.235 1.00974 0.866138)
(199.568 0.879687 0.368473)
(199.697 0.698186 -0.164651)
(199.627 0.50084 -0.694161)
(199.353 0.290536 -1.19043)
(198.88 0.0708741 -1.61234)
(198.22 -0.160926 -1.90292)
(197.417 -0.408019 -1.99707)
(196.547 -0.671588 -1.79858)
(195.805 -0.940702 -1.25425)
(199.543 0.300161 1.46164)
(199.948 0.0784799 0.861093)
(200.106 -0.172553 0.183112)
(200.031 -0.417923 -0.48708)
(199.711 -0.660007 -1.13801)
(199.147 -0.893841 -1.71956)
(198.335 -1.12798 -2.16946)
(197.314 -1.37038 -2.3923)
(196.156 -1.64415 -2.2674)
(195.12 -1.93653 -1.63859)
(199.605 1.47061 1.01132)
(200.053 1.24247 0.399047)
(200.228 0.992037 -0.246681)
(200.141 0.75775 -0.908241)
(199.781 0.542981 -1.55198)
(199.139 0.346859 -2.14158)
(198.2 0.157241 -2.59941)
(196.989 -0.0438269 -2.83415)
(195.562 -0.284675 -2.65422)
(194.219 -0.594796 -1.88853)
(199.876 0.0717138 1.78968)
(200.359 -0.266196 1.12322)
(200.545 -0.591336 0.350734)
(200.458 -0.860557 -0.421495)
(200.075 -1.08225 -1.20235)
(199.386 -1.25078 -1.93801)
(198.356 -1.37756 -2.56668)
(196.99 -1.48632 -2.95999)
(195.327 -1.60996 -2.94808)
(193.664 -1.84764 -2.17773)
(199.279 1.66538 0.949167)
(199.741 1.29739 0.369858)
(199.929 1.02194 -0.264848)
(199.823 0.795286 -0.93394)
(199.41 0.649785 -1.60484)
(198.672 0.577639 -2.24967)
(197.57 0.572806 -2.78836)
(196.088 0.625861 -3.1146)
(194.265 0.664535 -3.01089)
(192.377 0.633191 -2.10692)
(198.051 -0.304379 0.23755)
(198.126 -0.333756 0.220995)
(198.139 -0.369451 0.147725)
(198.137 -0.39515 0.0987492)
(198.125 -0.424543 0.0372718)
(198.105 -0.450112 -0.00769673)
(198.081 -0.473915 -0.0468944)
(198.055 -0.494361 -0.0705255)
(198.024 -0.51029 -0.0839962)
(197.945 -0.519627 -0.0851086)
(198.587 0.289415 -0.0112679)
(198.626 0.326102 -0.0878322)
(198.642 0.338383 -0.148354)
(198.632 0.32362 -0.201467)
(198.6 0.293645 -0.240953)
(198.549 0.252586 -0.261999)
(198.485 0.205673 -0.260764)
(198.418 0.157753 -0.232982)
(198.355 0.113641 -0.181741)
(198.308 0.0805385 -0.105153)
(198.624 -0.273124 0.509455)
(198.699 -0.333075 0.359347)
(198.726 -0.400734 0.181148)
(198.707 -0.474534 0.0078015)
(198.641 -0.557714 -0.1478)
(198.536 -0.647629 -0.272106)
(198.404 -0.740189 -0.353213)
(198.262 -0.830358 -0.384053)
(198.131 -0.911988 -0.3577)
(198.035 -0.976486 -0.28827)
(198.63 0.441135 0.324007)
(198.758 0.422558 0.118192)
(198.808 0.360642 -0.101759)
(198.777 0.273321 -0.314201)
(198.666 0.166391 -0.500173)
(198.485 0.0460072 -0.638973)
(198.252 -0.0829272 -0.711381)
(197.993 -0.214342 -0.699088)
(197.746 -0.339826 -0.593727)
(197.559 -0.447613 -0.395098)