/*--------------------------------*- C++ -*----------------------------------*\
  =========                 |
  \\      /  F ield         | OpenFOAM: The Open Source CFD Toolbox
   \\    /   O peration     | Website:  https://openfoam.org
    \\  /    A nd           | Version:  6
     \\/     M anipulation  |
\*---------------------------------------------------------------------------*/
FoamFile
{
    version     2.0;
    format      ascii;
    class       volScalarField;
    location    "300";
    object      epsilon;
}
// * * * * * * * * * * * * * * * * * * * * * * * * * * * * * * * * * * * * * //

dimensions      [0 2 -3 0 0 0 0];

internalField   nonuniform List<scalar> 
3072
(
2.34728
4.66695
4.90061
4.66202
3.82889
3.82381
5.89642
26.5854
52.2102
64.8522
72.4232
77.6331
12.3192
8.7374
8.21826
8.01437
13.7373
27.0284
30.7023
38.4965
46.1958
48.4742
49.5319
50.1486
14.7632
13.0218
18.8907
22.8511
23.4385
26.7424
30.8458
36.1571
38.775
40.3715
41.4995
42.1306
20.6165
17.0848
20.5504
21.7366
23.1853
26.8247
30.8008
34.0144
35.73
37.1014
38.1545
38.7535
22.7812
18.8964
20.8904
21.6933
23.6968
27.2434
30.564
32.9571
34.4735
35.6537
36.5881
37.1631
23.3317
18.5442
20.2378
21.548
24.0976
27.4426
30.4045
32.428
33.7878
34.8294
35.6534
36.2438
21.6039
16.8802
18.6498
21.2744
24.5439
27.9083
30.6634
32.5896
33.8942
34.8624
35.6095
36.1716
20.1518
15.0324
17.8993
21.92
26.0888
29.6601
32.3056
34.0931
35.2652
36.0828
36.6948
37.1628
19.5702
15.0038
19.8515
25.9862
31.5191
35.4306
37.8396
39.1612
39.8015
40.078
40.1732
40.1977
20.4233
18.1329
29.8377
40.11
46.9004
50.3729
51.465
51.1318
50.0903
48.7902
47.4824
46.2839
24.4405
35.3022
60.3541
75.2033
80.1716
79.7406
76.3198
71.806
67.1256
62.7211
58.8161
55.4563
115.972
112.785
124.589
126.96
122.807
113.803
104.033
94.5708
85.8787
78.1021
71.3533
65.5786
80.2307
81.0245
80.301
78.5398
75.5153
70.5576
63.9581
55.5207
45.285
34.1331
22.7128
30.0017
50.3562
50.1867
49.6808
49.1885
49.1014
49.8846
52.2192
56.5578
62.2347
68.2565
73.592
92.0672
42.4182
42.3064
41.8864
41.5945
41.7547
43.0094
45.8771
51.0721
59.7042
73.1948
94.6109
140.837
39.0303
39.0584
38.9069
38.8305
39.1326
40.3915
43.2357
48.6092
58.0068
74.475
105.935
177.215
37.4346
37.4969
37.422
37.3945
37.7218
38.8866
41.5356
46.7037
56.2042
74.0001
111.771
203.975
36.5989
36.7523
36.7864
36.8689
37.2704
38.4153
40.9542
45.9023
55.2466
73.4132
115.15
228.425
36.5607
36.7959
36.938
37.1281
37.5816
38.6722
41.0307
45.7395
54.7563
72.6635
116.403
249.353
37.5083
37.7581
37.9619
38.2128
38.6767
39.6785
41.8118
46.1542
54.8048
72.4451
116.757
274.979
40.1852
40.1622
40.1694
40.2748
40.6047
41.414
43.2385
47.135
55.2805
72.5289
117.583
304.358
45.2404
44.3787
43.7176
43.3349
43.3672
43.8732
45.264
48.58
56.0623
72.6801
118.304
334.932
52.6449
50.3672
48.5895
47.3225
46.6696
46.8198
47.7188
50.3259
56.7776
72.6208
119.318
372.54
60.7472
56.842
53.7836
51.5386
50.0763
49.6103
50.1268
51.9425
56.9882
71.1041
117.716
433.929
2.33035
4.64009
4.88879
4.65384
3.82552
3.8189
5.87483
26.4778
52.1157
64.7663
72.331
77.5432
12.3296
8.73915
8.21603
8.00659
13.698
26.9922
30.6759
38.4334
46.143
48.4232
49.48
50.0987
14.7391
13.0018
18.8715
22.8434
23.4238
26.7078
30.8047
36.1116
38.7319
40.3259
41.4552
42.0886
20.5972
17.0702
20.5391
21.7259
23.1594
26.7901
30.7628
33.9758
35.6909
37.0605
38.1145
38.7146
22.7628
18.8823
20.8786
21.6792
23.6693
27.2111
30.5308
32.9227
34.4378
35.6168
36.5506
37.1262
23.3154
18.5331
20.2237
21.5273
24.0724
27.4137
30.3754
32.397
33.7554
34.7952
35.6184
36.2083
21.5924
16.8704
18.6371
21.2564
24.5215
27.8828
30.636
32.5604
33.8632
34.83
35.5766
36.1384
20.141
15.0245
17.8881
21.9039
26.0695
29.6379
32.2805
34.0657
35.2359
36.0521
36.6634
37.1313
19.5605
14.9966
19.8417
25.9737
31.504
35.4121
37.8173
39.1357
39.7738
40.0486
40.1434
40.1684
20.4145
18.127
29.8327
40.105
46.8927
50.3607
51.4474
51.1094
50.0647
48.7627
47.4547
46.2568
24.4327
35.2997
60.3584
75.2098
80.1737
79.7376
76.3096
71.7894
67.1043
62.6972
58.7913
55.4321
115.968
112.781
124.587
126.96
122.807
113.8
104.025
94.5584
85.8619
78.0825
71.3326
65.5585
80.1425
80.9422
80.2226
78.4732
75.4579
70.5101
63.9206
55.493
45.2661
34.1221
22.7068
29.9915
50.3086
50.1451
49.6429
49.1555
49.0713
49.8598
52.1969
56.5364
62.2139
68.2365
73.5723
92.041
42.378
42.2703
41.8538
41.5657
41.7284
42.9862
45.856
51.0524
59.6849
73.1742
94.5864
140.801
38.9927
39.0229
38.8747
38.8006
39.1059
40.3675
43.2139
48.5889
57.9872
74.4542
105.909
177.166
37.3985
37.4623
37.3899
37.3645
37.6946
38.862
41.5132
46.6829
56.1843
73.9792
111.746
203.921
36.564
36.7189
36.755
36.8396
37.2434
38.3908
40.9316
45.8815
55.2264
73.3931
115.123
228.368
36.5279
36.7641
36.9081
37.1001
37.5558
38.6485
41.0089
45.719
54.7371
72.6432
116.379
249.294
37.4775
37.7286
37.9341
38.187
38.6529
39.6568
41.7917
46.1353
54.7864
72.4267
116.733
274.919
40.1569
40.1356
40.1448
40.2522
40.5839
41.3951
43.2212
47.1186
55.2646
72.5122
117.561
304.301
45.2147
44.355
43.6962
43.3162
43.3505
43.8579
45.2502
48.5669
56.0497
72.6659
118.285
334.876
52.6223
50.3468
48.5716
47.3071
46.6569
46.8088
47.7087
50.3165
56.7681
72.6106
119.302
372.492
60.7284
56.8254
53.7693
51.5268
50.0667
49.6028
50.12
51.9363
56.982
71.0968
117.707
433.881
2.25376
4.55538
4.86356
4.64512
3.80489
3.80658
5.90043
26.6703
52.2628
64.8859
72.4605
77.6649
2.40768
7.79048
8.03139
7.9786
13.7232
27.0202
30.7027
38.5317
46.2155
48.4915
49.5499
50.1656
15.0372
13.0893
18.9239
22.8279
23.4268
26.7534
30.8646
36.1766
38.7903
40.389
41.5164
42.1464
20.592
17.1176
20.5696
21.7371
23.1895
26.8393
30.8172
34.0287
35.7437
37.1164
38.1694
38.768
22.7882
18.9095
20.8982
21.6983
23.7063
27.2579
30.576
32.9681
34.4844
35.6659
36.6009
37.1762
23.3477
18.5539
20.244
21.5555
24.1078
27.4543
30.4127
32.4354
33.7956
34.8387
35.664
36.2552
21.62
16.8889
18.656
21.2817
24.5524
27.9164
30.6696
32.595
33.9
34.8694
35.6174
36.1808
20.1625
15.0387
17.9045
21.9255
26.0935
29.6633
32.3076
34.0945
35.2669
36.0858
36.6995
37.1691
19.5747
15.0061
19.8536
25.9862
31.5165
35.4257
37.8336
39.1548
39.7957
40.0742
40.1717
40.1986
20.4239
18.132
29.8329
40.1001
46.8858
50.3547
51.4456
51.1126
50.0726
48.7752
47.471
46.2763
24.4378
35.2982
60.3425
75.1823
80.143
79.7098
76.2879
71.7746
67.0959
62.6947
58.7939
55.439
115.963
112.774
124.572
126.936
122.774
113.768
103.996
94.5344
85.8432
78.0691
71.3242
65.5545
80.2632
81.0511
80.3269
78.5625
75.5358
70.5736
63.9739
55.5316
45.2953
34.1381
22.7157
30.0038
50.3729
50.2
49.6935
49.1988
49.1113
49.8928
52.227
56.5659
62.2433
68.2661
73.5999
92.0766
42.4334
42.3196
41.8988
41.6061
41.7658
43.0203
45.8882
51.0839
59.7171
73.2095
94.6274
140.859
39.0445
39.0719
38.9198
38.843
39.1449
40.404
43.2487
48.623
58.022
74.4923
105.959
177.25
37.4479
37.51
37.435
37.4075
37.735
38.9002
41.5499
46.7191
56.2216
74.0209
111.799
204.022
36.611
36.7648
36.7992
36.882
37.2838
38.4293
40.969
45.9186
55.2651
73.4357
115.18
228.485
36.571
36.8072
36.95
37.1407
37.5948
38.6862
41.0457
45.756
54.7755
72.6873
116.436
249.424
37.5163
37.7673
37.9722
38.2241
38.6889
39.6918
41.8264
46.1706
54.8241
72.4697
116.792
275.063
40.1884
40.1677
40.1769
40.284
40.6151
41.4258
43.252
47.1506
55.2995
72.5536
117.621
304.457
45.2365
44.3783
43.7203
43.3407
43.375
43.8825
45.2754
48.5939
56.0799
72.7041
118.342
335.044
52.6326
50.3597
48.5863
47.3231
46.674
46.8265
47.7271
50.3371
56.7928
72.6426
119.356
372.667
60.7284
56.8286
53.7751
51.5346
50.0761
49.6138
50.1316
51.9496
56.9995
71.1217
117.75
434.077
2.3305
4.64065
4.88957
4.65471
3.82641
3.81991
5.87728
26.493
52.1359
64.7876
72.3535
77.566
12.3304
8.74075
8.21723
8.00848
13.7026
27.0033
30.6877
38.4475
46.1577
48.4374
49.4941
50.1122
14.7396
13.0026
18.8753
22.8538
23.4355
26.7169
30.8142
36.1219
38.742
40.3359
41.4645
42.0974
20.5962
17.0736
20.547
21.7354
23.1671
26.7974
30.7701
33.9831
35.698
37.0675
38.121
38.7208
22.7604
18.8865
20.886
21.6864
23.6747
27.216
30.5358
32.9281
34.4431
35.6219
36.5554
37.1307
23.3133
18.5371
20.2304
21.5327
24.0765
27.4177
30.3792
32.4008
33.7589
34.7986
35.6216
36.2113
21.5902
16.8736
18.6423
21.2602
24.5247
27.8858
30.6389
32.5631
33.8656
34.832
35.578
36.1394
20.1382
15.0262
17.891
21.9066
26.0714
29.6392
32.2815
34.0663
35.2361
36.0519
36.6629
37.1305
19.5585
14.9974
19.8434
25.975
31.5042
35.4111
37.8154
39.1332
39.7711
40.0456
40.1403
40.1651
20.4138
18.1283
29.8343
40.1055
46.8912
50.3571
51.4424
51.1038
50.0591
48.757
47.4492
46.2515
24.4343
35.3037
60.3625
75.2109
80.1713
79.7333
76.3033
71.7824
67.0972
62.6902
58.7846
55.4257
115.981
112.793
124.597
126.966
122.808
113.798
104.021
94.5525
85.8552
78.0757
71.3259
65.552
80.1654
80.965
80.2453
78.4951
75.4787
70.5296
63.938
55.5079
45.2772
34.1313
22.7139
30.0035
50.3218
50.1577
49.6553
49.1676
49.0833
49.872
52.2097
56.5501
62.2287
68.2518
73.5912
92.0681
42.3865
42.2783
41.8613
41.5728
41.7354
42.9932
45.8633
51.0605
59.6944
73.1863
94.6042
140.83
38.9986
39.0285
38.8798
38.8055
39.1105
40.372
43.2187
48.5944
57.9941
74.4643
105.925
177.198
37.4026
37.4661
37.3932
37.3675
37.6973
38.8645
41.5159
46.6861
56.1887
73.9861
111.758
203.952
36.5666
36.7211
36.7568
36.8412
37.2448
38.3922
40.9331
45.8834
55.2294
73.3983
115.135
228.398
36.5286
36.7647
36.9083
37.1002
37.5558
38.6485
41.0092
45.7198
54.7388
72.6469
116.388
249.323
37.4765
37.7273
37.9326
38.1854
38.6513
39.6553
41.7907
46.1349
54.787
72.4291
116.74
274.946
40.1535
40.1322
40.1414
40.2489
40.5807
41.3922
43.2188
47.1169
55.264
72.5136
117.567
304.325
45.2096
44.35
43.6914
43.3115
43.3461
43.8538
45.2465
48.5639
56.0476
72.6659
118.289
334.894
52.6162
50.3409
48.5659
47.3018
46.652
46.8041
47.7042
50.3125
56.7648
72.6088
119.304
372.502
60.7223
56.8197
53.764
51.5218
50.0621
49.5984
50.1158
51.9322
56.978
71.0934
117.705
433.88
163.802
157.115
149.374
140.269
131.591
122.36
113.006
103.857
94.9809
86.5416
78.8674
72.001
99.298
101.665
103.086
103.093
102.371
100.521
97.8317
94.0655
88.7681
82.7351
76.7549
70.8965
68.1028
70.1158
71.8289
73.069
74.07
74.4952
74.2286
73.2907
71.6152
69.4809
66.7086
63.1264
52.0247
53.092
53.9294
54.5169
54.9935
55.3921
55.4476
55.2724
54.8045
54.0457
52.9967
51.7492
66.0549
61.1834
57.322
54.4261
52.4647
51.4188
51.5691
52.6506
55.8844
64.917
89.5021
177.448
65.5231
61.053
57.4683
54.7617
52.8833
51.692
51.4468
51.8686
53.4991
57.8081
68.6765
94.3254
59.5242
56.5149
54.046
52.1014
50.5937
49.4188
48.7046
48.5545
49.2557
50.9094
55.7574
64.8508
50.5354
49.2395
47.7832
46.2893
44.847
43.5578
42.7536
42.4608
43.0797
44.014
46.5801
50.3236
163.795
157.099
149.358
140.256
131.582
122.353
112.998
103.848
94.969
86.5276
78.8525
71.986
99.3033
101.665
103.082
103.09
102.368
100.52
97.8311
94.0642
88.7639
82.7288
76.7471
70.8872
68.1152
70.125
71.8364
73.0755
74.0775
74.5028
74.236
73.2974
71.621
69.4846
66.7094
63.1231
52.0376
53.1032
53.9394
54.5263
55.0036
55.4025
55.4573
55.2812
54.8121
54.0515
53.0003
51.7513
66.0407
61.1707
57.3111
54.4172
52.4576
51.4132
51.5642
52.6461
55.88
64.9125
89.4961
177.442
65.5134
61.0438
57.4603
54.7548
52.8774
51.687
51.4425
51.8645
53.4954
57.8043
68.6726
94.3208
59.5196
56.5096
54.0405
52.0959
50.5882
49.4136
48.6999
48.5503
49.2525
50.9069
55.7552
64.8491
50.5356
49.2377
47.7798
46.2848
44.8417
43.5534
42.7504
42.459
43.0796
44.0147
46.5817
50.3254
163.789
157.099
149.358
140.251
131.57
122.336
112.98
103.829
94.9516
86.5125
78.8402
71.9768
99.2992
101.664
103.085
103.092
102.368
100.516
97.8255
94.0559
88.7525
82.7177
76.737
70.8785
68.1138
70.1249
71.8377
73.0775
74.0795
74.5032
74.2352
73.2955
71.6182
69.4807
66.7047
63.1175
52.0397
53.1058
53.9428
54.53
55.0073
55.4057
55.4594
55.2826
54.8128
54.0514
52.9994
51.75
66.0347
61.1677
57.3108
54.419
52.461
51.4183
51.5701
52.6538
55.8906
64.9281
89.5224
177.507
65.5067
61.0394
57.4576
54.7537
52.8774
51.688
51.4448
51.8675
53.5004
57.8133
68.688
94.3504
59.515
56.506
54.0376
52.0936
50.5864
49.4124
48.6998
48.5515
49.2559
50.913
55.7666
64.867
50.5336
49.2353
47.7772
46.2825
44.8401
43.5531
42.7518
42.4624
43.0855
44.0231
46.5934
50.3411
163.839
157.129
149.382
140.274
131.595
122.361
113.002
103.849
94.9672
86.5243
78.8484
71.9817
99.3328
101.694
103.113
103.117
102.393
100.54
97.8481
94.0765
88.7699
82.7324
76.7492
70.8881
68.1363
70.1489
71.8626
73.1019
74.1033
74.5261
74.2573
73.3164
71.638
69.4988
66.7208
63.1312
52.0583
53.1262
53.9639
54.5508
55.0282
55.4265
55.4793
55.3019
54.8313
54.069
53.016
51.7656
66.0366
61.1669
57.3078
54.4143
52.4549
51.4105
51.5612
52.6427
55.876
64.9078
89.4916
177.44
65.5142
61.0447
57.4612
54.7556
52.8777
51.6867
51.441
51.8623
53.4919
57.799
68.6646
94.3102
59.5273
56.5166
54.0465
52.1008
50.5916
49.4153
48.6997
48.5485
49.248
50.9001
55.7445
64.835
50.5476
49.2475
47.7873
46.29
44.8442
43.5536
42.7482
42.4541
43.0713
44.0037
46.567
50.3065
42.681
42.8071
42.8612
42.8497
42.8525
42.8302
42.7004
42.4989
42.2042
41.8327
41.3833
40.9106
35.3212
35.1963
35.0502
34.8988
34.7751
34.6425
34.49
34.3403
34.1769
33.9495
33.5411
32.8557
29.684
29.6134
29.5117
29.376
29.2028
28.9834
28.7497
28.5452
28.3894
28.2619
28.0855
27.6809
25.2805
25.3525
25.3711
25.2859
25.0562
24.6998
24.2755
23.8645
23.5701
23.5689
24.2457
25.8581
40.366
38.5432
36.6653
35.5328
34.8805
34.8892
35.5748
36.7312
38.2755
39.7939
41.5181
42.5785
31.9151
29.0479
27.0898
26.5185
26.79
27.8138
29.4085
31.2853
33.1017
34.4767
35.4384
35.7103
27.0976
22.2059
20.2678
20.0795
20.8839
22.3857
24.3258
26.4046
28.1197
29.2461
29.9052
29.9958
27.3584
17.6226
15.4823
15.4185
16.4502
18.0741
20.025
22.0211
23.576
24.5778
25.1606
25.3282
42.6907
42.8163
42.8702
42.8586
42.8615
42.8389
42.7081
42.5052
42.209
41.8359
41.3853
40.912
35.328
35.2033
35.0572
34.9061
34.7824
34.6493
34.4959
34.3451
34.1807
33.9525
33.544
32.8592
29.6886
29.6183
29.517
29.3815
29.2084
28.9888
28.7547
28.5498
28.3937
28.2662
28.0908
27.6885
25.2832
25.3553
25.3742
25.2896
25.0603
24.7042
24.2802
23.8695
23.5755
23.5751
24.2538
25.8708
40.3667
38.5424
36.664
35.5318
34.8807
34.8905
35.5777
36.7352
38.2803
39.7991
41.5236
42.5841
31.9194
29.0505
27.0926
26.5219
26.7945
27.8195
29.4153
31.2929
33.11
34.4853
35.4471
35.7188
27.1074
22.2124
20.2743
20.0862
20.8913
22.3939
24.3349
26.4144
28.1301
29.2568
29.9158
30.0063
27.3775
17.6328
15.4912
15.4272
16.4592
18.0837
20.0352
22.0319
23.5874
24.5894
25.1722
25.3395
42.6963
42.8219
42.8755
42.8635
42.8658
42.8423
42.7106
42.5071
42.2102
41.8363
41.3848
40.9106
35.3363
35.2111
35.0643
34.9119
34.787
34.6529
34.4986
34.347
34.1819
33.953
33.5439
32.8589
29.6985
29.6274
29.5248
29.3878
29.2132
28.9923
28.7572
28.5515
28.3948
28.267
28.0917
27.6898
25.2939
25.3651
25.3827
25.2961
25.0651
24.7075
24.2824
23.871
23.5766
23.5765
24.2561
25.8749
40.3651
38.5416
36.6647
35.5342
34.8849
34.8963
35.5852
36.7442
38.291
39.8115
41.5386
42.6005
31.9198
29.0527
27.0968
26.5277
26.8021
27.8283
29.4253
31.3038
33.122
34.4984
35.461
35.7332
27.1096
22.2162
20.2798
20.0927
20.8994
22.4031
24.3449
26.425
28.1411
29.2682
29.9274
30.0178
27.382
17.6372
15.4963
15.4331
16.4664
18.0918
20.044
22.0411
23.5966
24.5984
25.1811
25.348
42.7137
42.8396
42.8928
42.8773
42.8815
42.8584
42.7258
42.5215
42.2236
41.8484
41.395
40.9182
35.3506
35.2252
35.0777
34.9243
34.7992
34.6643
34.5088
34.3559
34.1891
33.9578
33.5451
32.8562
29.7095
29.6379
29.5348
29.3967
29.2212
28.999
28.7622
28.5545
28.394
28.2641
28.0841
27.6771
25.3016
25.3725
25.3895
25.3015
25.0693
24.71
24.2827
23.8673
23.5622
23.5655
24.2407
25.8514
40.3696
38.5439
36.6635
35.5291
34.8755
34.8837
35.5685
36.7236
38.2659
39.7822
41.5037
42.5631
31.9129
29.0449
27.0861
26.5143
26.7858
27.8096
29.404
31.2799
33.0943
34.4673
35.4274
35.6991
27.0924
22.2015
20.2641
20.076
20.8811
22.3833
24.3235
26.4018
28.1154
29.2405
29.8986
29.9896
27.3503
17.6181
15.4792
15.416
16.4485
18.0732
20.0244
22.0203
23.5745
24.5756
25.1582
25.3264
21.6851
21.9146
22.045
22.0095
21.6983
21.1407
20.3867
19.5017
18.5554
17.623
17.2388
19.623
18.6387
18.9942
19.2096
19.2029
18.7993
18.0084
16.8408
15.3007
13.3174
10.624
6.44324
2.88712
15.9967
16.4284
16.6988
16.7044
16.2285
15.2443
13.7317
11.6808
9.05649
5.85237
2.73956
1.82926
13.6625
14.1414
14.4446
14.4585
13.9539
12.8743
11.197
8.96637
6.3175
3.63558
1.84642
1.73247
11.5993
12.1047
12.426
12.4538
11.9709
10.9065
9.25312
7.12739
4.80332
2.78713
1.61422
1.68303
9.79924
10.3098
10.6414
10.6915
10.271
9.30895
7.81022
5.93948
4.01598
2.4807
1.57471
1.61545
8.26302
8.76151
9.09794
9.17576
8.83959
8.03167
6.74918
5.17474
3.60786
2.389
1.59632
1.45668
6.9981
7.47355
7.811
7.91561
7.66709
7.03472
5.97625
4.67906
3.39916
2.38112
1.64456
1.25097
6.03036
6.48032
6.81656
6.94583
6.77831
6.30272
5.44852
4.3829
3.31842
2.42556
1.67939
0.999427
5.44639
5.88373
6.22636
6.3825
6.28164
5.91528
5.21806
4.32009
3.38113
2.53329
1.69025
0.727487
5.64395
6.13192
6.52797
6.73068
6.67016
6.31961
5.68412
4.83392
3.86295
2.85421
1.67708
0.479607
10.4571
11.4981
12.4149
12.9497
12.8538
12.1772
10.9612
9.20029
6.9533
4.3643
1.94739
0.272907
40.6341
14.1496
11.8754
11.938
13.0045
14.5629
16.3661
18.1667
19.5839
20.5467
21.1551
21.4847
22.4714
10.2645
9.0118
9.26435
10.2736
11.6819
13.2774
14.8534
16.1469
17.0937
17.7678
18.2488
15.1852
7.53313
6.8308
7.18988
8.09909
9.32694
10.703
12.0607
13.2293
14.1468
14.8736
15.4747
10.7959
5.62018
5.20051
5.58205
6.37465
7.41967
8.58719
9.74742
10.7835
11.6552
12.399
13.0648
7.81294
4.24569
3.98257
4.34151
5.01762
5.89253
6.87159
7.85614
8.76451
9.56855
10.2924
10.9729
5.65579
3.23006
3.06557
3.38822
3.95938
4.68471
5.49942
6.32999
7.1181
7.84392
8.52318
9.17918
4.05538
2.4688
2.36853
2.65794
3.14263
3.74259
4.41872
5.11816
5.79781
6.4432
7.06449
7.67484
2.88646
1.88815
1.83338
2.10091
2.52152
3.02169
3.58577
4.1786
4.76649
5.3376
5.89834
6.45604
1.9907
1.41362
1.41837
1.68303
2.06403
2.49059
2.97045
3.48442
4.00336
4.51518
5.02378
5.53314
1.28613
1.01083
1.1
1.40194
1.77477
2.15848
2.58693
3.05615
3.53367
4.01167
4.49239
4.97457
0.720622
0.647814
0.92496
1.314
1.71327
2.0971
2.53471
3.03617
3.55385
4.07587
4.60237
5.12879
0.30484
0.33237
1.63796
2.23815
2.80022
3.37921
4.16734
5.16302
6.22298
7.28364
8.33788
9.40083
21.6865
21.9157
22.0464
22.0116
21.701
21.1443
20.3911
19.507
18.5615
17.6299
17.2461
19.6302
18.6391
18.994
19.2095
19.2036
18.8009
18.0111
16.8446
15.3055
13.3229
10.6294
6.44636
2.88743
15.9963
16.4273
16.6977
16.7039
16.229
15.2459
13.7344
11.6844
9.06029
5.85518
2.74022
1.82901
13.6619
14.1399
14.443
14.4572
13.9534
12.8748
11.1985
8.9685
6.3195
3.63656
1.84632
1.7321
11.5988
12.1031
12.4241
12.452
11.9697
10.9061
9.25353
7.12823
4.80398
2.78718
1.61387
1.68269
9.7991
10.3084
10.6395
10.6895
10.2693
9.3079
7.80978
5.93938
4.01582
2.48029
1.57429
1.61503
8.26333
8.76047
9.09633
9.17378
8.83775
8.0302
6.74817
5.17403
3.60722
2.38836
1.59584
1.45631
6.99885
7.47297
7.8098
7.91383
7.66526
7.03305
5.9749
4.678
3.39826
2.38039
1.64406
1.2507
6.03155
6.48019
6.81589
6.94439
6.77664
6.30101
5.44701
4.38168
3.31739
2.42478
1.67895
0.999257
5.44788
5.8842
6.22625
6.3815
6.28023
5.91364
5.21653
4.3188
3.38005
2.53251
1.68988
0.727437
5.6459
6.1331
6.52843
6.73005
6.66883
6.31796
5.68248
4.83247
3.86175
2.85343
1.67682
0.479595
10.4614
11.501
12.416
12.948
12.8509
12.1738
10.9578
9.19745
6.95124
4.36323
1.94721
0.272896
40.6722
14.1621
11.8853
11.9475
13.0141
14.5729
16.3767
18.1778
19.5956
20.5586
21.1668
21.4961
22.5011
10.2767
9.0218
9.27386
10.2831
11.6918
13.2878
14.8643
16.1583
17.1052
17.7792
18.2598
15.21
7.54419
6.84027
7.19896
8.10825
9.33637
10.7129
12.071
13.24
14.1576
14.8843
15.4852
10.8156
5.62987
5.20909
5.59042
6.38312
7.4284
8.59628
9.75688
10.7932
11.6651
12.4089
13.0746
7.829
4.25396
3.99012
4.34905
5.02531
5.90044
6.87982
7.86469
8.77334
9.57753
10.3014
10.9818
5.66813
3.23701
3.07212
3.39489
3.96625
4.6918
5.50677
6.33763
7.12599
7.85197
8.5313
9.18732
4.06465
2.47453
2.3742
2.6638
3.14873
3.7489
4.42526
5.12495
5.80483
6.4504
7.07178
7.68221
2.89351
1.89269
1.83817
2.10606
2.52695
3.02732
3.5916
4.18467
4.77278
5.34406
5.90494
6.46276
1.99534
1.41606
1.4212
1.68757
2.06893
2.49568
2.97573
3.48993
4.0091
4.5211
5.02988
5.53941
1.2898
1.00871
1.09874
1.40627
1.7794
2.16329
2.59193
3.0614
3.53916
4.01737
4.49831
4.98079
0.724172
0.64193
0.918175
1.31857
1.71811
2.1021
2.53996
3.04178
3.55983
4.08212
4.60896
5.13582
0.305665
0.368874
1.66545
2.2473
2.80831
3.38763
4.17636
5.17295
6.23383
7.29521
8.35053
9.41417
21.6973
21.9256
22.055
22.0182
21.7059
21.1476
20.3932
19.5084
18.5628
17.6322
17.2504
19.64
18.6496
19.0037
19.218
19.2102
18.8058
18.0145
16.8468
15.3071
13.3247
10.6321
6.45018
2.89043
16.0062
16.4366
16.706
16.7106
16.2341
15.2496
13.7371
11.6867
9.06275
5.85825
2.7429
1.83117
13.6713
14.1486
14.4509
14.4639
13.9588
12.879
11.2018
8.97141
6.32242
3.63941
1.84833
1.73415
11.6075
12.1113
12.4317
12.4586
11.9752
10.9106
9.25731
7.13157
4.80704
2.78969
1.61552
1.68458
9.80703
10.316
10.6467
10.696
10.275
9.31264
7.81384
5.94292
4.01882
2.48251
1.57576
1.61669
8.2706
8.76751
9.10314
9.18006
8.8434
8.03507
6.75233
5.17763
3.6101
2.39035
1.59711
1.45768
7.00555
7.47949
7.81621
7.91985
7.67084
7.03797
5.97907
4.68159
3.40103
2.38224
1.6452
1.2517
6.03791
6.48625
6.82202
6.95013
6.78215
6.306
5.45114
4.38528
3.32008
2.42648
1.67993
0.999876
5.45415
5.89019
6.23226
6.38722
6.28582
5.91877
5.22083
4.32245
3.38276
2.53416
1.69072
0.727806
5.65294
6.13984
6.53511
6.7365
6.67521
6.32387
5.68749
4.83664
3.86477
2.85512
1.67753
0.47976
10.4743
11.5142
12.4292
12.9611
12.8639
12.1855
10.968
9.20548
6.9566
4.36576
1.94792
0.272951
40.6838
14.166
11.8894
11.9521
13.0197
14.5793
16.3836
18.1851
19.6026
20.5652
21.1732
21.5018
22.5077
10.2793
9.02443
9.27696
10.287
11.6963
13.2928
14.8696
16.1633
17.1099
17.7833
18.2632
15.213
7.54559
6.84159
7.20063
8.11045
9.3391
10.716
12.0744
13.2432
14.1605
14.8867
15.4869
10.8172
5.63033
5.20939
5.59091
6.38398
7.42964
8.59784
9.75862
10.7949
11.6666
12.4099
13.0749
7.82913
4.25384
3.98973
4.34865
5.02512
5.90052
6.88012
7.86513
8.77374
9.57776
10.3013
10.9812
5.66789
3.23655
3.07127
3.39388
3.96532
4.69101
5.50612
6.33708
7.12542
7.85126
8.53032
9.18592
4.06427
2.47397
2.37303
2.6624
3.14729
3.74751
4.42394
5.12367
5.80353
6.44899
7.07015
7.68021
2.89292
1.89225
1.83693
2.1044
2.5252
3.02555
3.58982
4.18288
4.77095
5.34214
5.90283
6.46031
1.99525
1.41677
1.42115
1.68579
2.067
2.49368
2.97366
3.48779
4.0069
4.51881
5.02742
5.53663
1.28915
1.01313
1.10216
1.40421
1.77732
2.16115
2.58964
3.05896
3.53664
4.01476
4.49552
4.97762
0.722346
0.649279
0.926722
1.31614
1.71579
2.09978
2.53737
3.03892
3.55679
4.07899
4.60561
5.132
0.305423
0.332958
1.64104
2.24211
2.80481
3.38395
4.17195
5.16795
6.22843
7.28972
8.34429
9.40729
21.7023
21.93
22.0588
22.0206
21.7069
21.1467
20.3899
19.5019
18.5518
17.6192
17.2342
19.6191
18.6523
19.0058
19.2196
19.2105
18.8044
18.0112
16.8414
15.2995
13.3152
10.6223
6.44321
2.88768
16.0071
16.4369
16.7063
16.71
16.231
15.2449
13.7309
11.6793
9.05522
5.85228
2.7401
1.82963
13.6709
14.1475
14.4492
14.4614
13.9547
12.8736
11.1956
8.96489
6.31678
3.63578
1.8466
1.73269
11.6061
12.1092
12.429
12.4551
11.9706
10.9052
9.2514
7.12601
4.80273
2.78712
1.61414
1.68321
9.805
10.3133
10.6434
10.692
10.2701
9.30732
7.80843
5.93814
4.01533
2.48043
1.57451
1.61542
8.26809
8.76445
9.09951
9.17584
8.83854
8.03
6.7474
5.17342
3.60709
2.38853
1.59595
1.45657
7.00271
7.47625
7.81244
7.91557
7.66611
7.03315
5.97454
4.67776
3.3983
2.38053
1.64406
1.25082
6.03476
6.48298
6.81816
6.94594
6.77758
6.30134
5.44693
4.38165
3.31749
2.42485
1.6788
0.999259
5.45075
5.88677
6.22838
6.38303
6.28129
5.91415
5.21672
4.31893
3.38015
2.53247
1.68964
0.727341
5.64898
6.13595
6.53085
6.7319
6.67016
6.3188
5.68296
4.83281
3.86182
2.8532
1.67646
0.479449
10.4677
11.507
12.4213
12.9519
12.8539
12.1758
10.959
9.19793
6.95099
4.36252
1.94667
0.27282
40.6193
14.1455
11.8729
11.9363
13.0036
14.5628
16.3666
18.1672
19.5842
20.547
21.1556
21.486
22.4626
10.2614
9.00992
9.26313
10.2731
11.6822
13.2783
14.8545
16.1482
17.0953
17.7701
18.2513
15.1792
7.53086
6.82934
7.18897
8.09878
9.32728
10.7039
12.0619
13.2308
14.1487
14.8763
15.4776
10.7917
5.61849
5.19938
5.58133
6.37437
7.41991
8.5879
9.74844
10.7847
11.6568
12.4013
13.0674
7.80992
4.2444
3.9817
4.34093
5.01733
5.8926
6.87201
7.85679
8.76532
9.56953
10.2939
10.9749
5.65374
3.22906
3.06491
3.38775
3.95908
4.68463
5.49955
6.33026
7.11842
7.84428
8.52378
9.18026
4.05394
2.468
2.36804
2.65758
3.14232
3.74238
4.41862
5.11809
5.7977
6.443
7.06432
7.67498
2.88552
1.88755
1.83303
2.10066
2.52124
3.0214
3.58549
4.17829
4.76606
5.33696
5.89755
6.45538
1.99009
1.41321
1.41816
1.68288
2.06378
2.49024
2.97006
3.48394
4.00271
4.51422
5.02254
5.53185
1.28583
1.01061
1.09993
1.40187
1.77454
2.15807
2.58643
3.05553
3.53285
4.0105
4.49083
4.97282
0.720512
0.647766
0.925048
1.31398
1.71301
2.0966
2.53412
3.03543
3.55286
4.07442
4.60039
5.12643
0.304802
0.332393
1.63822
2.23797
2.79959
3.37835
4.1665
5.1619
6.22104
7.28048
8.33302
9.39398
)
;

boundaryField
{
    rotor
    {
        Cmu             0.09;
        kappa           0.41;
        E               9.8;
        type            epsilonWallFunction;
        value           nonuniform List<scalar> 
192
(
2.34728
4.66695
4.90061
4.66202
3.82889
3.82381
5.89642
26.5854
52.2102
64.8522
72.4232
77.6331
80.2307
81.0245
80.301
78.5398
75.5153
70.5576
63.9581
55.5207
45.285
34.1331
22.7128
30.0017
2.33035
4.64009
4.88879
4.65384
3.82552
3.8189
5.87483
26.4778
52.1157
64.7663
72.331
77.5432
80.1425
80.9422
80.2226
78.4732
75.4579
70.5101
63.9206
55.493
45.2661
34.1221
22.7068
29.9915
2.25376
4.55538
4.86356
4.64512
3.80489
3.80658
5.90043
26.6703
52.2628
64.8859
72.4605
77.6649
80.2632
81.0511
80.3269
78.5625
75.5358
70.5736
63.9739
55.5316
45.2953
34.1381
22.7157
30.0038
2.3305
4.64065
4.88957
4.65471
3.82641
3.81991
5.87728
26.493
52.1359
64.7876
72.3535
77.566
80.1654
80.965
80.2453
78.4951
75.4787
70.5296
63.938
55.5079
45.2772
34.1313
22.7139
30.0035
2.34728
12.3192
14.7632
20.6165
22.7812
23.3317
21.6039
20.1518
19.5702
20.4233
24.4405
115.972
30.0035
92.0681
140.83
177.198
203.952
228.398
249.323
274.946
304.325
334.894
372.502
433.88
2.33035
12.3296
14.7391
20.5972
22.7628
23.3154
21.5924
20.141
19.5605
20.4145
24.4327
115.968
30.0017
92.0672
140.837
177.215
203.975
228.425
249.353
274.979
304.358
334.932
372.54
433.929
2.25376
2.40768
15.0372
20.592
22.7882
23.3477
21.62
20.1625
19.5747
20.4239
24.4378
115.963
29.9915
92.041
140.801
177.166
203.921
228.368
249.294
274.919
304.301
334.876
372.492
433.881
2.3305
12.3304
14.7396
20.5962
22.7604
23.3133
21.5902
20.1382
19.5585
20.4138
24.4343
115.981
30.0038
92.0766
140.859
177.25
204.022
228.485
249.424
275.063
304.457
335.044
372.667
434.077
)
;
    }
    stator
    {
        Cmu             0.09;
        kappa           0.41;
        E               9.8;
        type            epsilonWallFunction;
        value           nonuniform List<scalar> 
192
(
10.4571
11.4981
12.4149
12.9497
12.8538
12.1772
10.9612
9.20029
6.9533
4.3643
1.94739
0.272907
0.30484
0.33237
1.63796
2.23815
2.80022
3.37921
4.16734
5.16302
6.22298
7.28364
8.33788
9.40083
10.4614
11.501
12.416
12.948
12.8509
12.1738
10.9578
9.19745
6.95124
4.36323
1.94721
0.272896
0.305665
0.368874
1.66545
2.2473
2.80831
3.38763
4.17636
5.17295
6.23383
7.29521
8.35053
9.41417
10.4743
11.5142
12.4292
12.9611
12.8639
12.1855
10.968
9.20548
6.9566
4.36576
1.94792
0.272951
0.305423
0.332958
1.64104
2.24211
2.80481
3.38395
4.17195
5.16795
6.22843
7.28972
8.34429
9.40729
10.4677
11.507
12.4213
12.9519
12.8539
12.1758
10.959
9.19793
6.95099
4.36252
1.94667
0.27282
0.304802
0.332393
1.63822
2.23797
2.79959
3.37835
4.1665
5.1619
6.22104
7.28048
8.33302
9.39398
40.6341
22.4714
15.1852
10.7959
7.81294
5.65579
4.05538
2.88646
1.9907
1.28613
0.720622
0.30484
19.623
2.88712
1.82926
1.73247
1.68303
1.61545
1.45668
1.25097
0.999427
0.727487
0.479607
0.272907
40.6722
22.5011
15.21
10.8156
7.829
5.66813
4.06465
2.89351
1.99534
1.2898
0.724172
0.305665
19.6302
2.88743
1.82901
1.7321
1.68269
1.61503
1.45631
1.2507
0.999257
0.727437
0.479595
0.272896
40.6838
22.5077
15.213
10.8172
7.82913
5.66789
4.06427
2.89292
1.99525
1.28915
0.722346
0.305423
19.64
2.89043
1.83117
1.73415
1.68458
1.61669
1.45768
1.2517
0.999876
0.727806
0.47976
0.272951
40.6193
22.4626
15.1792
10.7917
7.80992
5.65374
4.05394
2.88552
1.99009
1.28583
0.720512
0.304802
19.6191
2.88768
1.82963
1.73269
1.68321
1.61542
1.45657
1.25082
0.999259
0.727341
0.479449
0.27282
)
;
    }
    front
    {
        type            empty;
    }
    back
    {
        type            empty;
    }
}


// ************************************************************************* //
