/*--------------------------------*- C++ -*----------------------------------*\
  =========                 |
  \\      /  F ield         | OpenFOAM: The Open Source CFD Toolbox
   \\    /   O peration     | Website:  https://openfoam.org
    \\  /    A nd           | Version:  6
     \\/     M anipulation  |
\*---------------------------------------------------------------------------*/
FoamFile
{
    version     2.0;
    format      ascii;
    class       volScalarField;
    location    "300";
    object      k;
}
// * * * * * * * * * * * * * * * * * * * * * * * * * * * * * * * * * * * * * //

dimensions      [0 2 -2 0 0 0 0];

internalField   nonuniform List<scalar> 
3072
(
0.0580938
0.0608929
0.0627918
0.0605736
0.0529541
0.0527406
0.0697576
0.189725
0.300154
0.347578
0.374241
0.392203
0.0798671
0.127566
0.133615
0.116229
0.114667
0.201526
0.237857
0.315755
0.413684
0.495057
0.578606
0.654178
0.098667
0.194583
0.244968
0.251432
0.242368
0.298731
0.384942
0.495627
0.603173
0.699356
0.783729
0.850898
0.13249
0.256916
0.285622
0.287421
0.327192
0.419527
0.528858
0.638172
0.737333
0.824108
0.897359
0.954456
0.149592
0.302205
0.340883
0.357572
0.423303
0.524953
0.634163
0.736668
0.826271
0.903592
0.968655
1.02
0.160053
0.326052
0.378074
0.419871
0.499586
0.602519
0.706781
0.80076
0.881992
0.951973
1.01123
1.05919
0.159536
0.329341
0.397214
0.466023
0.559908
0.663484
0.762054
0.848821
0.923169
0.986909
1.04112
1.0859
0.159364
0.331259
0.421594
0.519593
0.631086
0.736511
0.828829
0.906739
0.972003
1.0272
1.07406
1.11325
0.163045
0.346941
0.484726
0.62517
0.754637
0.859005
0.93985
1.00244
1.0519
1.09222
1.12597
1.15429
0.174513
0.402281
0.639073
0.833162
0.971052
1.06228
1.11992
1.15614
1.17962
1.1959
1.20834
1.21845
0.204169
0.54729
0.942388
1.17542
1.29329
1.34867
1.36674
1.36434
1.35205
1.33591
1.31964
1.30477
0.597216
0.968836
1.3907
1.57499
1.63198
1.63572
1.60994
1.56984
1.52408
1.47728
1.43309
1.39286
0.400954
0.403686
0.401262
0.395458
0.385304
0.368306
0.345003
0.314013
0.274165
0.227099
0.173084
0.139182
0.714689
0.759786
0.781931
0.782281
0.767517
0.746441
0.719837
0.68398
0.628861
0.511445
0.37322
0.316599
0.899127
0.925885
0.931921
0.926347
0.911983
0.894128
0.874448
0.85015
0.811522
0.733715
0.550244
0.449376
0.995521
1.02081
1.03146
1.03175
1.02519
1.0169
1.00903
1.00072
0.984252
0.936011
0.778859
0.556465
1.05792
1.08291
1.09636
1.10134
1.10134
1.10066
1.10343
1.11072
1.11393
1.09063
0.966719
0.646078
1.09598
1.12201
1.13852
1.14813
1.15467
1.16291
1.17754
1.20052
1.22634
1.23206
1.15587
0.733375
1.12145
1.14817
1.16724
1.18105
1.19339
1.20936
1.23452
1.2724
1.31958
1.35259
1.32039
0.815425
1.14518
1.17034
1.18981
1.20573
1.22168
1.24297
1.27633
1.32772
1.39639
1.45822
1.45953
0.90992
1.17782
1.19713
1.21323
1.22793
1.24418
1.26724
1.30507
1.36703
1.45689
1.55069
1.57631
1.01509
1.22707
1.23483
1.24275
1.25223
1.26501
1.28577
1.32301
1.38881
1.49623
1.63022
1.70122
1.12533
1.29229
1.28303
1.27842
1.27966
1.28593
1.30107
1.33281
1.39619
1.5114
1.68392
1.84138
1.25378
1.35811
1.33048
1.31081
1.30067
1.30224
1.31159
1.33665
1.39181
1.49994
1.69836
1.9658
1.43785
0.0577601
0.0606679
0.0626851
0.0604986
0.0529259
0.0526951
0.0695903
0.189207
0.299787
0.347272
0.373924
0.391902
0.0798839
0.12754
0.133587
0.116252
0.114517
0.201235
0.237593
0.315278
0.413196
0.494464
0.577974
0.653517
0.09857
0.194328
0.244809
0.251386
0.242202
0.298296
0.38441
0.494972
0.602464
0.698583
0.782927
0.850091
0.13241
0.256736
0.285384
0.287134
0.326775
0.418961
0.528213
0.637454
0.736562
0.82329
0.896512
0.953597
0.149514
0.302021
0.340609
0.357183
0.422816
0.524364
0.633503
0.735954
0.825504
0.902778
0.967807
1.01914
0.15998
0.325896
0.377819
0.419506
0.499109
0.601959
0.706156
0.800075
0.881257
0.951186
1.0104
1.05834
0.15948
0.329193
0.396989
0.465684
0.559472
0.662971
0.761471
0.84818
0.922472
0.986164
1.04034
1.0851
0.15931
0.331131
0.421379
0.519283
0.630692
0.736041
0.828292
0.906141
0.971353
1.02651
1.07334
1.11251
0.162995
0.346828
0.484532
0.624905
0.754306
0.858599
0.939373
1.00191
1.05131
1.0916
1.12532
1.15362
0.174469
0.402191
0.638945
0.833007
0.970843
1.06199
1.11954
1.1557
1.17912
1.19536
1.20778
1.21789
0.204133
0.54725
0.942387
1.17541
1.29324
1.34854
1.36652
1.36403
1.35167
1.33548
1.3192
1.30432
0.59721
0.968864
1.39075
1.57504
1.63202
1.63571
1.60985
1.56967
1.52384
1.47699
1.43277
1.39252
0.400662
0.403416
0.401006
0.395238
0.385112
0.368144
0.344871
0.313911
0.274091
0.227052
0.173055
0.139151
0.714027
0.759148
0.78135
0.781742
0.76706
0.746044
0.719499
0.683699
0.628635
0.511289
0.373134
0.31654
0.898332
0.92513
0.9312
0.925695
0.911406
0.893627
0.874021
0.84979
0.811228
0.733489
0.550102
0.449301
0.994666
1.01997
1.03068
1.03102
1.02452
1.01632
1.00853
1.00028
0.983888
0.935725
0.778663
0.556365
1.05705
1.08205
1.09553
1.10057
1.10062
1.09999
1.10285
1.11022
1.11351
1.0903
0.966487
0.645968
1.09513
1.12116
1.1377
1.14734
1.15393
1.16223
1.17693
1.19998
1.22589
1.2317
1.1556
0.733256
1.12063
1.14736
1.16645
1.18029
1.19267
1.20869
1.2339
1.27185
1.3191
1.35221
1.32012
0.8153
1.14443
1.16959
1.18908
1.20503
1.22101
1.24233
1.27574
1.32719
1.39592
1.45784
1.45926
0.909793
1.17715
1.19648
1.21259
1.22731
1.24359
1.26668
1.30453
1.36653
1.45645
1.55033
1.57606
1.01497
1.22651
1.23428
1.24222
1.25172
1.26452
1.28531
1.32257
1.38839
1.49585
1.62989
1.701
1.1252
1.29184
1.28259
1.278
1.27927
1.28555
1.30071
1.33247
1.39586
1.51107
1.68365
1.84118
1.25368
1.35777
1.33016
1.3105
1.30039
1.30197
1.31133
1.33641
1.39156
1.4997
1.69814
1.96566
1.43775
0.0562424
0.0600124
0.0621588
0.0601641
0.0527929
0.0526579
0.0697525
0.190003
0.300327
0.347692
0.374364
0.392307
0.0827894
0.132299
0.133759
0.116115
0.11442
0.201515
0.23797
0.316053
0.413939
0.495376
0.578911
0.654481
0.0996163
0.196171
0.244963
0.251187
0.24224
0.298991
0.385254
0.49601
0.603549
0.69975
0.784113
0.851262
0.132375
0.257254
0.285783
0.287479
0.327409
0.419891
0.529229
0.638559
0.737723
0.824506
0.897753
0.95484
0.149627
0.302401
0.341057
0.357792
0.423611
0.525314
0.634528
0.737033
0.826637
0.903969
0.969039
1.02038
0.160137
0.326233
0.378274
0.420138
0.499899
0.602852
0.707109
0.801084
0.882322
0.95232
1.01159
1.05956
0.159616
0.329501
0.397425
0.46629
0.560191
0.663765
0.762328
0.849093
0.923451
0.987211
1.04145
1.08625
0.159419
0.331376
0.421763
0.519791
0.631281
0.736698
0.829013
0.906927
0.972207
1.02743
1.07433
1.11355
0.163071
0.346995
0.484796
0.625218
0.754673
0.859037
0.939888
1.0025
1.05198
1.09234
1.12614
1.1545
0.17452
0.402252
0.638997
0.833054
0.970923
1.06214
1.11979
1.15603
1.17954
1.19587
1.20837
1.21855
0.204164
0.547236
0.942283
1.17524
1.29308
1.34843
1.36649
1.36409
1.35183
1.33574
1.31954
1.30475
0.597259
0.968859
1.39065
1.57484
1.6318
1.6355
1.60969
1.56957
1.52382
1.47705
1.4329
1.39274
0.401058
0.403773
0.401347
0.395533
0.385373
0.368362
0.34506
0.314055
0.274207
0.227122
0.1731
0.139187
0.714971
0.760037
0.782156
0.782487
0.7677
0.746606
0.719992
0.684116
0.628974
0.511531
0.373263
0.316619
0.89947
0.9262
0.932219
0.926615
0.912232
0.894359
0.874665
0.850351
0.811703
0.733864
0.550344
0.449421
0.995892
1.02116
1.03179
1.03207
1.02549
1.01719
1.0093
1.00098
0.984493
0.936219
0.77901
0.556538
1.0583
1.08328
1.09672
1.1017
1.10169
1.10099
1.10376
1.11104
1.11423
1.0909
0.966926
0.646179
1.09636
1.12239
1.1389
1.14851
1.15504
1.16329
1.17792
1.20089
1.22669
1.23239
1.15612
0.733503
1.12181
1.14854
1.16762
1.18144
1.19379
1.20976
1.23492
1.27281
1.31998
1.35297
1.3207
0.81558
1.14551
1.17068
1.19017
1.20612
1.22208
1.24338
1.27676
1.32817
1.39683
1.45865
1.45989
0.910106
1.17807
1.19743
1.21356
1.22828
1.24456
1.26765
1.3055
1.3675
1.45737
1.55116
1.57672
1.01531
1.22723
1.23505
1.24302
1.25254
1.26535
1.28615
1.32343
1.38928
1.49674
1.63074
1.70167
1.12558
1.29234
1.28315
1.27861
1.27991
1.28621
1.30139
1.33319
1.39665
1.51191
1.68447
1.84186
1.25407
1.35806
1.33051
1.31091
1.30085
1.30245
1.31185
1.33697
1.39222
1.50043
1.69891
1.96629
1.43817
0.0577637
0.0606723
0.0626913
0.060506
0.0529336
0.0527044
0.0696094
0.189279
0.299864
0.347348
0.374001
0.391979
0.0798879
0.12755
0.133603
0.116279
0.114546
0.201284
0.23764
0.315346
0.413276
0.494557
0.578077
0.65363
0.0985727
0.194318
0.244845
0.251462
0.242267
0.298316
0.384447
0.495031
0.602541
0.698674
0.783027
0.850196
0.132406
0.256755
0.285416
0.287159
0.326762
0.418949
0.528232
0.637497
0.73662
0.82336
0.896591
0.95368
0.149505
0.302028
0.340605
0.35715
0.422771
0.524338
0.633503
0.735974
0.825538
0.902823
0.967858
1.01919
0.159969
0.325891
0.377801
0.419452
0.499048
0.601914
0.706133
0.800067
0.88126
0.951196
1.01042
1.05836
0.159469
0.329177
0.396951
0.465608
0.559386
0.662895
0.761411
0.848131
0.922433
0.986133
1.04031
1.08508
0.159294
0.331108
0.421323
0.519184
0.630581
0.735933
0.828192
0.90605
0.971271
1.02644
1.07327
1.11245
0.162983
0.346803
0.484472
0.624818
0.754206
0.858491
0.939261
1.00179
1.0512
1.09149
1.12522
1.15353
0.174464
0.402188
0.638928
0.832983
0.970799
1.06192
1.11946
1.1556
1.17901
1.19525
1.20767
1.21779
0.20414
0.547312
0.94246
1.17547
1.29327
1.34853
1.36648
1.36397
1.3516
1.33541
1.31911
1.30423
0.597252
0.96902
1.39092
1.57519
1.63214
1.63579
1.60991
1.5697
1.52384
1.47697
1.43274
1.39248
0.400738
0.403491
0.40108
0.395311
0.385183
0.368212
0.344933
0.313967
0.274135
0.227092
0.17309
0.139188
0.714146
0.759271
0.78147
0.781858
0.767171
0.746152
0.719603
0.6838
0.628736
0.511369
0.3732
0.316602
0.898439
0.925234
0.931302
0.925795
0.911503
0.893723
0.874115
0.849882
0.811319
0.733578
0.550175
0.449363
0.994751
1.02006
1.03076
1.0311
1.0246
1.0164
1.0086
1.00036
0.983968
0.935808
0.778744
0.556432
1.0571
1.08211
1.09559
1.10062
1.10067
1.10005
1.10291
1.11029
1.11357
1.09037
0.966569
0.646032
1.09515
1.12118
1.13772
1.14737
1.15395
1.16226
1.17696
1.20003
1.22595
1.23177
1.15568
0.73332
1.12061
1.14735
1.16644
1.18028
1.19267
1.20869
1.23391
1.27188
1.31915
1.35226
1.3202
0.815361
1.14438
1.16954
1.18903
1.20499
1.22098
1.24231
1.27573
1.32719
1.39594
1.45788
1.45932
0.909851
1.17706
1.19639
1.21252
1.22724
1.24353
1.26663
1.3045
1.36652
1.45646
1.55036
1.57612
1.01502
1.22641
1.23418
1.24213
1.25164
1.26445
1.28524
1.32252
1.38836
1.49583
1.62991
1.70105
1.12524
1.29176
1.28251
1.27792
1.27919
1.28548
1.30064
1.33241
1.39581
1.51103
1.68363
1.84121
1.2537
1.35773
1.33011
1.31045
1.30035
1.30192
1.31129
1.33635
1.3915
1.49963
1.69807
1.96565
1.43774
1.75096
1.74856
1.7615
1.7693
1.766
1.74924
1.7133
1.66653
1.61284
1.55523
1.49833
1.44387
1.72611
1.68633
1.67018
1.66471
1.66248
1.65513
1.63933
1.61376
1.5758
1.52846
1.47839
1.42649
1.59252
1.5657
1.54004
1.51968
1.5037
1.49211
1.47846
1.46171
1.44118
1.41463
1.38197
1.34334
1.43787
1.41807
1.39378
1.3673
1.34158
1.31867
1.29906
1.28255
1.2674
1.25171
1.23625
1.22198
1.39508
1.35569
1.32668
1.30873
1.30662
1.31318
1.33329
1.37835
1.46316
1.63485
1.94724
1.87307
1.37848
1.34036
1.31299
1.29665
1.29499
1.30075
1.31816
1.35321
1.41382
1.52122
1.7644
1.78206
1.30943
1.28582
1.27048
1.26321
1.26339
1.27007
1.28438
1.30856
1.35189
1.41076
1.56027
1.61387
1.21361
1.21097
1.20719
1.20538
1.20504
1.20995
1.22283
1.24321
1.27936
1.31624
1.40128
1.44823
1.751
1.74859
1.76154
1.76937
1.76608
1.7493
1.71332
1.66649
1.61274
1.55507
1.49813
1.44366
1.72626
1.68647
1.67032
1.66486
1.66264
1.65529
1.63946
1.61386
1.57582
1.52843
1.47832
1.42638
1.59277
1.5659
1.54025
1.51989
1.50392
1.49232
1.47867
1.4619
1.44134
1.41474
1.38199
1.34332
1.43812
1.4183
1.394
1.36752
1.3418
1.3189
1.29928
1.28275
1.26757
1.25184
1.23635
1.22205
1.39486
1.35547
1.32647
1.30853
1.30644
1.31302
1.33313
1.37821
1.46302
1.63472
1.94714
1.87297
1.37835
1.34022
1.31286
1.29653
1.29489
1.30066
1.31808
1.35315
1.41377
1.52117
1.76436
1.78202
1.30938
1.28576
1.27042
1.26316
1.26335
1.27005
1.28438
1.30858
1.35192
1.41081
1.56031
1.61392
1.21363
1.21099
1.20721
1.20541
1.20508
1.21002
1.22292
1.24334
1.2795
1.3164
1.40145
1.44838
1.75093
1.74857
1.76151
1.7693
1.76598
1.74918
1.71318
1.66637
1.61266
1.55504
1.49815
1.44374
1.72622
1.68646
1.67033
1.66487
1.66262
1.65525
1.63942
1.6138
1.57576
1.52839
1.47831
1.42641
1.59281
1.56595
1.54031
1.51995
1.50397
1.49236
1.4787
1.46193
1.44135
1.41475
1.382
1.34335
1.43826
1.41844
1.39414
1.36764
1.34191
1.31899
1.29937
1.28281
1.26763
1.2519
1.23641
1.2221
1.395
1.35567
1.32673
1.30884
1.3068
1.31339
1.33355
1.3787
1.4636
1.63537
1.94774
1.8735
1.37842
1.34034
1.31302
1.29673
1.29511
1.30091
1.31839
1.3535
1.41419
1.52167
1.76493
1.78255
1.30944
1.28584
1.27052
1.2633
1.2635
1.27022
1.28459
1.30884
1.35224
1.41119
1.56081
1.61442
1.21368
1.21105
1.20728
1.2055
1.20518
1.21016
1.2231
1.24357
1.27978
1.31675
1.40188
1.44885
1.75132
1.74885
1.7618
1.76962
1.76633
1.74952
1.71349
1.66662
1.61284
1.55515
1.49818
1.4437
1.7267
1.68688
1.67071
1.66524
1.663
1.65562
1.63977
1.61412
1.57602
1.5286
1.47846
1.42651
1.5933
1.56642
1.54074
1.52037
1.50438
1.49274
1.47906
1.46227
1.44167
1.41504
1.38224
1.34356
1.43872
1.41889
1.39456
1.36805
1.3423
1.31936
1.29971
1.28313
1.26793
1.25218
1.23666
1.22231
1.39489
1.35549
1.32649
1.30854
1.30644
1.313
1.3331
1.37814
1.46292
1.6346
1.94704
1.87288
1.37847
1.34033
1.31295
1.29659
1.29493
1.30067
1.31805
1.35307
1.41363
1.521
1.76416
1.78184
1.30959
1.28594
1.27055
1.26324
1.2634
1.27004
1.28431
1.30845
1.35172
1.41055
1.56
1.6136
1.21382
1.21112
1.20728
1.20542
1.20505
1.20991
1.22274
1.24308
1.27917
1.316
1.401
1.44793
1.27784
1.24736
1.2161
1.18583
1.15925
1.13712
1.11964
1.10621
1.09611
1.0894
1.08776
1.09256
1.14717
1.11558
1.08422
1.05464
1.02869
1.00677
0.989084
0.975184
0.964481
0.956438
0.951431
0.952586
1.04169
1.01432
0.986103
0.958208
0.931736
0.907099
0.884651
0.864144
0.844867
0.825854
0.808059
0.7975
0.95405
0.933206
0.9094
0.883133
0.854832
0.824826
0.793553
0.760784
0.725571
0.686288
0.645137
0.616008
1.10434
1.10723
1.09734
1.09826
1.10822
1.12877
1.15936
1.19595
1.23646
1.27288
1.30643
1.31058
0.964368
0.966496
0.953817
0.960816
0.983992
1.02067
1.0663
1.11406
1.15526
1.18217
1.19661
1.18392
0.811172
0.827471
0.820785
0.834381
0.867532
0.914178
0.967826
1.02047
1.05904
1.08078
1.08844
1.07284
0.633534
0.694378
0.701779
0.722518
0.761665
0.812878
0.869264
0.922369
0.959292
0.979813
0.986952
0.976036
1.27804
1.24756
1.2163
1.18603
1.15946
1.13732
1.11982
1.10636
1.09624
1.0895
1.08784
1.09265
1.14733
1.11574
1.08438
1.05481
1.02886
1.00693
0.989231
0.975311
0.964591
0.956537
0.951534
0.952711
1.04181
1.01444
0.986223
0.958335
0.931868
0.907231
0.884776
0.864262
0.84498
0.825967
0.808187
0.797671
0.954129
0.93327
0.909469
0.883213
0.854925
0.824929
0.793663
0.760901
0.725696
0.68642
0.645278
0.616182
1.10444
1.10734
1.09748
1.09842
1.10841
1.12898
1.1596
1.1962
1.23672
1.27314
1.30668
1.31082
0.964533
0.966701
0.954067
0.961091
0.984291
1.02099
1.06663
1.11441
1.15561
1.18252
1.19695
1.18424
0.811404
0.827766
0.821136
0.834754
0.867921
0.914579
0.968237
1.02088
1.05946
1.0812
1.08885
1.07323
0.633802
0.694746
0.702203
0.722962
0.762117
0.813334
0.869724
0.922835
0.959759
0.980276
0.987407
0.976474
1.27827
1.24778
1.21649
1.1862
1.1596
1.13744
1.11992
1.10645
1.09631
1.08957
1.0879
1.0927
1.14764
1.11602
1.08463
1.05502
1.02903
1.00707
0.989343
0.975404
0.964669
0.956602
0.951589
0.952763
1.04218
1.01478
0.986517
0.958581
0.932064
0.907384
0.884895
0.864355
0.845054
0.826028
0.808244
0.797733
0.954545
0.933651
0.909803
0.883492
0.855147
0.825099
0.79379
0.760995
0.725767
0.686481
0.645343
0.616261
1.10448
1.10739
1.09756
1.09853
1.10856
1.12917
1.15983
1.19648
1.23703
1.2735
1.30709
1.31124
0.964589
0.966776
0.954182
0.961238
0.984476
1.02121
1.06688
1.11468
1.15592
1.18284
1.1973
1.18458
0.811476
0.827851
0.821253
0.8349
0.8681
0.914786
0.968466
1.02113
1.05971
1.08146
1.08912
1.07348
0.633894
0.694832
0.7023
0.72308
0.76226
0.813502
0.86991
0.923028
0.959954
0.980472
0.987597
0.976643
1.27867
1.24815
1.21685
1.18653
1.15991
1.13773
1.12018
1.10668
1.09652
1.08973
1.08799
1.09273
1.14795
1.11631
1.0849
1.05527
1.02926
1.00727
0.989515
0.975539
0.964759
0.956627
0.951522
0.952617
1.0424
1.01498
0.9867
0.958745
0.932207
0.907499
0.884974
0.86439
0.845034
0.825934
0.808057
0.79744
0.954685
0.933768
0.909901
0.883575
0.855208
0.825129
0.793781
0.760941
0.72566
0.686299
0.645084
0.615909
1.10443
1.10726
1.09731
1.09821
1.10814
1.12865
1.15922
1.19577
1.23623
1.27261
1.30613
1.31028
0.964342
0.966437
0.953732
0.96072
0.983885
1.02055
1.06616
1.1139
1.15505
1.18193
1.19636
1.18367
0.811079
0.827365
0.82068
0.834277
0.86743
0.914073
0.967714
1.02033
1.05887
1.0806
1.08824
1.07266
0.633414
0.694257
0.701672
0.722422
0.761576
0.812793
0.869178
0.922268
0.959171
0.979679
0.986817
0.975931
0.877384
0.863759
0.844869
0.820257
0.78963
0.752854
0.710035
0.660414
0.601107
0.523829
0.403156
0.235948
0.806713
0.800162
0.786355
0.763756
0.731287
0.688045
0.633492
0.566308
0.482601
0.372759
0.20877
0.0670553
0.739002
0.738948
0.730212
0.710221
0.677184
0.629436
0.565969
0.485904
0.387689
0.270861
0.139067
0.0504457
0.673351
0.6784
0.674591
0.65785
0.625912
0.576629
0.508975
0.423597
0.323339
0.217761
0.122768
0.0496759
0.609318
0.618283
0.618767
0.605763
0.576541
0.528802
0.461812
0.378034
0.284044
0.193242
0.119477
0.0497508
0.546847
0.558659
0.562582
0.553512
0.528227
0.48455
0.421972
0.344295
0.259871
0.181476
0.118411
0.0493754
0.485734
0.49948
0.506107
0.500721
0.480031
0.442119
0.386268
0.316903
0.242517
0.173732
0.116487
0.046996
0.425668
0.440489
0.449065
0.44675
0.430766
0.399607
0.351587
0.291252
0.226347
0.16529
0.111544
0.0432731
0.365686
0.380724
0.39038
0.390442
0.378706
0.354338
0.314963
0.263594
0.207449
0.153074
0.101816
0.0379554
0.303076
0.317236
0.327058
0.328781
0.32055
0.30226
0.27221
0.229985
0.182109
0.134094
0.0853247
0.0312729
0.228675
0.24059
0.249418
0.252012
0.246794
0.233606
0.213118
0.183186
0.143654
0.102907
0.0584512
0.0241059
0.101711
0.108294
0.113918
0.117083
0.11646
0.112306
0.10468
0.0931379
0.0772661
0.0566294
0.0330727
0.0210246
0.38321
0.563707
0.594569
0.623155
0.665358
0.717574
0.773439
0.825232
0.861811
0.883218
0.892941
0.889543
0.264219
0.452266
0.499503
0.53469
0.577883
0.628948
0.682513
0.732137
0.768922
0.792518
0.805835
0.809715
0.208032
0.367246
0.418203
0.456442
0.499003
0.54758
0.597955
0.644786
0.681682
0.707753
0.724738
0.734692
0.169308
0.300597
0.349613
0.387824
0.428508
0.473751
0.520435
0.564162
0.600563
0.628359
0.648893
0.663517
0.139343
0.246693
0.291604
0.328009
0.36597
0.407378
0.45011
0.490601
0.525715
0.554342
0.57731
0.595573
0.114626
0.201585
0.242059
0.275921
0.310699
0.348018
0.386687
0.423858
0.457094
0.485576
0.509798
0.530299
0.0936473
0.162448
0.199145
0.230354
0.261772
0.294916
0.329509
0.363305
0.394285
0.421766
0.446122
0.467599
0.0760899
0.127402
0.16132
0.190048
0.218058
0.24702
0.277569
0.307971
0.336413
0.362257
0.385768
0.407093
0.060503
0.0959648
0.127345
0.153649
0.178134
0.202867
0.229383
0.256366
0.282027
0.30569
0.327546
0.347711
0.0460545
0.0679059
0.0961203
0.119297
0.13972
0.159934
0.18227
0.205729
0.228331
0.24925
0.268612
0.286668
0.0318767
0.0431489
0.0656437
0.0831465
0.0978473
0.112433
0.129849
0.149158
0.167943
0.185057
0.200646
0.215254
0.0235578
0.0274476
0.0295819
0.0364748
0.0423693
0.0480415
0.0552319
0.0636903
0.0721064
0.0800589
0.0875637
0.0947979
0.877433
0.863779
0.844892
0.820292
0.789683
0.752928
0.710128
0.660527
0.601235
0.523964
0.403277
0.236011
0.806746
0.800151
0.786337
0.76375
0.731302
0.688086
0.63356
0.566402
0.48271
0.372865
0.208837
0.0670618
0.739037
0.738922
0.730166
0.710182
0.677165
0.629444
0.566006
0.485965
0.38776
0.270918
0.139085
0.0504421
0.673375
0.678362
0.674527
0.657785
0.625864
0.576605
0.508977
0.423619
0.323365
0.217773
0.122763
0.0496696
0.60934
0.618242
0.618696
0.605684
0.576472
0.528753
0.461784
0.378022
0.284035
0.193227
0.119461
0.0497448
0.546875
0.558625
0.562514
0.553426
0.528145
0.484481
0.421921
0.344258
0.25984
0.181447
0.11839
0.0493676
0.485772
0.499456
0.506047
0.500637
0.479945
0.442041
0.386202
0.31685
0.242472
0.173697
0.116465
0.0469889
0.425717
0.440479
0.449019
0.446675
0.430683
0.399526
0.351516
0.291192
0.226298
0.165253
0.111523
0.0432677
0.365746
0.380727
0.390353
0.390381
0.378634
0.354262
0.314893
0.263535
0.2074
0.153039
0.101798
0.0379519
0.303136
0.317254
0.32705
0.328738
0.320492
0.302197
0.272149
0.229933
0.182067
0.134066
0.0853121
0.0312722
0.228729
0.240618
0.249425
0.251989
0.246755
0.233561
0.213073
0.183146
0.143622
0.102887
0.0584453
0.024106
0.101739
0.108313
0.113925
0.117073
0.116444
0.112287
0.10466
0.0931199
0.077252
0.056621
0.0330711
0.0210242
0.383437
0.564124
0.595038
0.623642
0.665848
0.718064
0.773929
0.825725
0.862303
0.883708
0.893421
0.890009
0.264442
0.452696
0.499991
0.535196
0.57839
0.629452
0.683015
0.732639
0.769423
0.793014
0.806324
0.810192
0.208248
0.367667
0.418687
0.456948
0.49951
0.548082
0.598454
0.645284
0.682177
0.708243
0.725221
0.735164
0.169505
0.300995
0.350078
0.388314
0.429001
0.47424
0.520919
0.564644
0.601041
0.628832
0.64936
0.663975
0.139525
0.247059
0.29204
0.328473
0.366439
0.407842
0.450569
0.491057
0.526169
0.55479
0.577753
0.596009
0.114785
0.201915
0.242458
0.27635
0.311135
0.348449
0.387114
0.424282
0.457515
0.485994
0.510211
0.530707
0.0937838
0.162739
0.199504
0.230743
0.262169
0.29531
0.329899
0.363692
0.394671
0.422149
0.446502
0.467975
0.0762079
0.127646
0.161637
0.190393
0.218412
0.247372
0.277918
0.308318
0.336759
0.362602
0.386112
0.407434
0.0605938
0.0961411
0.127604
0.153945
0.17844
0.203171
0.229685
0.256669
0.282331
0.305994
0.32785
0.348015
0.0461235
0.0679719
0.0963071
0.119542
0.139971
0.160184
0.182521
0.205982
0.228587
0.249508
0.268871
0.28693
0.0319586
0.0434092
0.0659538
0.0833388
0.0980301
0.112615
0.130034
0.149349
0.168139
0.185254
0.200847
0.215459
0.0238538
0.0292882
0.0302351
0.0366046
0.042451
0.0481195
0.055311
0.0637717
0.07219
0.0801436
0.087652
0.0948871
0.877876
0.864187
0.845252
0.820598
0.789931
0.753118
0.71027
0.66063
0.601315
0.524034
0.403352
0.236084
0.807201
0.800574
0.786717
0.764078
0.731573
0.6883
0.633725
0.566528
0.482814
0.372963
0.208938
0.0671062
0.739492
0.73935
0.730554
0.710524
0.677457
0.629683
0.566199
0.486122
0.387898
0.271048
0.139192
0.0504806
0.673819
0.678785
0.674917
0.658135
0.62617
0.576864
0.509196
0.423806
0.323531
0.217918
0.122864
0.0497075
0.609764
0.618651
0.61908
0.606034
0.576786
0.529025
0.46202
0.378227
0.284214
0.193372
0.119556
0.0497808
0.547273
0.559012
0.562883
0.553768
0.528458
0.484758
0.422164
0.34447
0.260019
0.181585
0.118479
0.0494002
0.486141
0.499815
0.506395
0.500963
0.480248
0.442313
0.386443
0.31706
0.242643
0.173823
0.116546
0.0470171
0.426053
0.440805
0.449338
0.446977
0.430968
0.399785
0.351744
0.291391
0.226456
0.165365
0.111594
0.0432895
0.366046
0.381014
0.390639
0.390651
0.378893
0.354501
0.3151
0.263717
0.207541
0.153134
0.101857
0.0379667
0.303393
0.317499
0.327292
0.328969
0.320716
0.302405
0.272329
0.230088
0.182185
0.134142
0.0853558
0.0312818
0.228929
0.240806
0.24961
0.252166
0.246928
0.233722
0.213216
0.183266
0.143712
0.102941
0.0584723
0.0241109
0.101823
0.108396
0.114005
0.117151
0.11652
0.112358
0.104724
0.0931729
0.0772905
0.056642
0.0330787
0.021028
0.383517
0.56419
0.5951
0.623716
0.665941
0.718179
0.77406
0.825859
0.862435
0.883835
0.89354
0.890105
0.264499
0.452727
0.50001
0.53522
0.57843
0.62951
0.683087
0.732717
0.769495
0.793078
0.806378
0.810227
0.208283
0.367664
0.418664
0.456924
0.499498
0.548086
0.59847
0.645307
0.682196
0.708253
0.72522
0.735145
0.169528
0.300963
0.350019
0.38825
0.428944
0.474195
0.520887
0.564619
0.601014
0.628799
0.649315
0.663912
0.139533
0.247006
0.291954
0.328376
0.366346
0.407759
0.450496
0.490991
0.526105
0.554722
0.577674
0.595915
0.114788
0.201849
0.242355
0.276232
0.311018
0.348339
0.387012
0.424186
0.457421
0.485898
0.510107
0.530589
0.0937832
0.162665
0.19939
0.230613
0.262038
0.295183
0.329777
0.363575
0.394556
0.422033
0.446381
0.467842
0.0762027
0.127574
0.161518
0.19026
0.218277
0.247238
0.277786
0.308189
0.336632
0.362476
0.385981
0.407293
0.0605948
0.0960957
0.1275
0.153819
0.178311
0.203042
0.229555
0.256539
0.282202
0.305865
0.327718
0.347873
0.0461262
0.0679999
0.0962355
0.119429
0.139859
0.160071
0.182402
0.205861
0.228466
0.249386
0.268747
0.286797
0.0319273
0.0432097
0.0657213
0.0832402
0.0979471
0.11253
0.12994
0.149249
0.168038
0.185155
0.200743
0.215348
0.0236026
0.0274965
0.0296194
0.036518
0.0424156
0.0480865
0.0552729
0.0637313
0.0721489
0.0801041
0.087609
0.0948416
0.877945
0.864233
0.84528
0.820608
0.789918
0.753074
0.710188
0.660507
0.60115
0.523826
0.403133
0.235915
0.807209
0.80056
0.786682
0.764025
0.731498
0.688196
0.633588
0.566362
0.482627
0.372777
0.208813
0.0670641
0.739452
0.739288
0.730469
0.71042
0.67733
0.629533
0.566026
0.485935
0.387713
0.270894
0.139111
0.0504531
0.673738
0.678685
0.674794
0.657992
0.626007
0.576683
0.509002
0.423612
0.323358
0.217789
0.122794
0.0496806
0.609651
0.618522
0.618929
0.605862
0.576596
0.528825
0.461816
0.378035
0.284054
0.193258
0.119489
0.0497548
0.54714
0.558863
0.562714
0.553579
0.528253
0.484548
0.421958
0.344284
0.25987
0.18148
0.118414
0.0493751
0.485995
0.499657
0.506217
0.500767
0.480038
0.442102
0.386241
0.316881
0.242504
0.173726
0.116483
0.0469941
0.425901
0.440646
0.44916
0.446783
0.430763
0.399579
0.351551
0.291221
0.226326
0.165276
0.111536
0.0432701
0.365896
0.380864
0.390468
0.39047
0.3787
0.354308
0.314923
0.263559
0.207421
0.153055
0.101804
0.0379515
0.303256
0.317363
0.327141
0.328808
0.320544
0.302235
0.272172
0.22995
0.18208
0.134073
0.0853133
0.031269
0.228816
0.240697
0.249492
0.252039
0.246792
0.233587
0.213091
0.183155
0.143625
0.102887
0.0584428
0.0241009
0.101781
0.108351
0.113958
0.117097
0.116461
0.112299
0.104667
0.0931229
0.0772499
0.0566146
0.0330649
0.0210182
0.383119
0.563599
0.594472
0.62307
0.665281
0.717506
0.773372
0.825156
0.861723
0.883124
0.892854
0.889495
0.26415
0.452177
0.499421
0.534616
0.577817
0.628889
0.682457
0.732074
0.768851
0.792449
0.805781
0.809701
0.207978
0.367175
0.418134
0.456378
0.498944
0.547526
0.597902
0.644729
0.681617
0.707693
0.724698
0.734691
0.169263
0.30054
0.349556
0.387769
0.428454
0.4737
0.520383
0.564104
0.600497
0.628295
0.648851
0.663509
0.139307
0.246649
0.291559
0.327962
0.365922
0.407328
0.450057
0.490541
0.525645
0.554269
0.577251
0.595542
0.114598
0.201552
0.242025
0.275882
0.310656
0.34797
0.386634
0.423796
0.45702
0.485493
0.509719
0.530242
0.0936249
0.162426
0.199121
0.230324
0.261735
0.294872
0.329458
0.363243
0.39421
0.421677
0.446025
0.467518
0.076073
0.12739
0.161305
0.190026
0.218027
0.246981
0.277523
0.307913
0.33634
0.362167
0.385662
0.406995
0.060491
0.0959608
0.127339
0.153634
0.17811
0.202834
0.229343
0.256315
0.281962
0.305604
0.327441
0.347606
0.0460469
0.0679079
0.0961219
0.119288
0.139701
0.159908
0.18224
0.205689
0.228278
0.249176
0.268518
0.286569
0.0318732
0.0431538
0.0656496
0.0831424
0.0978348
0.112417
0.129832
0.149136
0.167908
0.185003
0.200574
0.215174
0.0235554
0.0274494
0.0295845
0.0364725
0.0423626
0.0480331
0.0552242
0.0636812
0.0720916
0.0800363
0.0875303
0.0947522
)
;

boundaryField
{
    rotor
    {
        type            kqRWallFunction;
        value           nonuniform List<scalar> 
192
(
0.0580938
0.0608929
0.0627918
0.0605736
0.0529541
0.0527406
0.0697576
0.189725
0.300154
0.347578
0.374241
0.392203
0.400954
0.403686
0.401262
0.395458
0.385304
0.368306
0.345003
0.314013
0.274165
0.227099
0.173084
0.139182
0.0577601
0.0606679
0.0626851
0.0604986
0.0529259
0.0526951
0.0695903
0.189207
0.299787
0.347272
0.373924
0.391902
0.400662
0.403416
0.401006
0.395238
0.385112
0.368144
0.344871
0.313911
0.274091
0.227052
0.173055
0.139151
0.0562424
0.0600124
0.0621588
0.0601641
0.0527929
0.0526579
0.0697525
0.190003
0.300327
0.347692
0.374364
0.392307
0.401058
0.403773
0.401347
0.395533
0.385373
0.368362
0.34506
0.314055
0.274207
0.227122
0.1731
0.139187
0.0577637
0.0606723
0.0626913
0.060506
0.0529336
0.0527044
0.0696094
0.189279
0.299864
0.347348
0.374001
0.391979
0.400738
0.403491
0.40108
0.395311
0.385183
0.368212
0.344933
0.313967
0.274135
0.227092
0.17309
0.139188
0.0580938
0.0798671
0.098667
0.13249
0.149592
0.160053
0.159536
0.159364
0.163045
0.174513
0.204169
0.597216
0.139188
0.316602
0.449363
0.556432
0.646032
0.73332
0.815361
0.909851
1.01502
1.12524
1.2537
1.43774
0.0577601
0.0798839
0.09857
0.13241
0.149514
0.15998
0.15948
0.15931
0.162995
0.174469
0.204133
0.59721
0.139182
0.316599
0.449376
0.556465
0.646078
0.733375
0.815425
0.90992
1.01509
1.12533
1.25378
1.43785
0.0562424
0.0827894
0.0996163
0.132375
0.149627
0.160137
0.159616
0.159419
0.163071
0.17452
0.204164
0.597259
0.139151
0.31654
0.449301
0.556365
0.645968
0.733256
0.8153
0.909793
1.01497
1.1252
1.25368
1.43775
0.0577637
0.0798879
0.0985727
0.132406
0.149505
0.159969
0.159469
0.159294
0.162983
0.174464
0.20414
0.597252
0.139187
0.316619
0.449421
0.556538
0.646179
0.733503
0.81558
0.910106
1.01531
1.12558
1.25407
1.43817
)
;
    }
    stator
    {
        type            kqRWallFunction;
        value           nonuniform List<scalar> 
192
(
0.101711
0.108294
0.113918
0.117083
0.11646
0.112306
0.10468
0.0931379
0.0772661
0.0566294
0.0330727
0.0210246
0.0235578
0.0274476
0.0295819
0.0364748
0.0423693
0.0480415
0.0552319
0.0636903
0.0721064
0.0800589
0.0875637
0.0947979
0.101739
0.108313
0.113925
0.117073
0.116444
0.112287
0.10466
0.0931199
0.077252
0.056621
0.0330711
0.0210242
0.0238538
0.0292882
0.0302351
0.0366046
0.042451
0.0481195
0.055311
0.0637717
0.07219
0.0801436
0.087652
0.0948871
0.101823
0.108396
0.114005
0.117151
0.11652
0.112358
0.104724
0.0931729
0.0772905
0.056642
0.0330787
0.021028
0.0236026
0.0274965
0.0296194
0.036518
0.0424156
0.0480865
0.0552729
0.0637313
0.0721489
0.0801041
0.087609
0.0948416
0.101781
0.108351
0.113958
0.117097
0.116461
0.112299
0.104667
0.0931229
0.0772499
0.0566146
0.0330649
0.0210182
0.0235554
0.0274494
0.0295845
0.0364725
0.0423626
0.0480331
0.0552242
0.0636812
0.0720916
0.0800363
0.0875303
0.0947522
0.38321
0.264219
0.208032
0.169308