/*--------------------------------*- C++ -*----------------------------------*\
  =========                 |
  \\      /  F ield         | OpenFOAM: The Open Source CFD Toolbox
   \\    /   O peration     | Website:  https://openfoam.org
    \\  /    A nd           | Version:  6
     \\/     M anipulation  |
\*---------------------------------------------------------------------------*/
FoamFile
{
    version     2.0;
    format      ascii;
    class       volScalarField;
    location    "300";
    object      nut;
}
// * * * * * * * * * * * * * * * * * * * * * * * * * * * * * * * * * * * * * //

dimensions      [0 2 -1 0 0 0 0];

internalField   nonuniform List<scalar> 
3072
(
0.000129401
7.15061e-05
7.24099e-05
7.08329e-05
6.59127e-05
6.5469e-05
7.42739e-05
0.000121857
0.000155302
0.000167658
0.000174047
0.000178327
4.66012e-05
0.000167621
0.000195513
0.000151705
8.61424e-05
0.000135233
0.000165845
0.00023309
0.000333409
0.000455031
0.000608309
0.000768026
5.9348e-05
0.000261687
0.000285899
0.000248987
0.00022556
0.000300333
0.000432352
0.000611445
0.000844449
0.00109035
0.00133209
0.00154668
7.66296e-05
0.000347709
0.000357277
0.00034205
0.000415562
0.00059051
0.000817255
0.00107759
0.00136942
0.00164748
0.00189945
0.00211565
8.84057e-05
0.000434976
0.000500618
0.000530449
0.000680542
0.000910379
0.00118422
0.00148197
0.00178239
0.00206102
0.00230803
0.0025196
9.88157e-05
0.000515951
0.000635672
0.000736319
0.00093216
0.00119058
0.00147868
0.00177962
0.00207211
0.00234178
0.00258131
0.00278584
0.000106029
0.000578304
0.000761406
0.000918759
0.00114956
0.00141961
0.00170448
0.00198973
0.00226297
0.00251443
0.00273955
0.00293398
0.000113425
0.000656975
0.000893707
0.00110849
0.00137394
0.00164599
0.00191379
0.0021704
0.00241119
0.00263181
0.00282942
0.00300139
0.000122254
0.000722026
0.00106522
0.00135362
0.00162609
0.00187437
0.00210094
0.00230944
0.00250204
0.00267892
0.00284027
0.0029831
0.000134206
0.000803218
0.00123191
0.00155758
0.00180947
0.00201615
0.00219332
0.00235274
0.00250019
0.00263813
0.00276749
0.00288689
0.000153502
0.000763617
0.00132433
0.00165346
0.00187765
0.00205292
0.00220282
0.00233306
0.00245097
0.00256083
0.00266477
0.00276288
0.000276792
0.000749015
0.00139711
0.00175844
0.00195186
0.00211595
0.0022423
0.00234529
0.00243428
0.0025148
0.00259044
0.00266251
0.000180339
0.000181015
0.000180459
0.000179206
0.000176936
0.000173028
0.000167491
0.000159839
0.000149387
0.000135987
0.000118709
5.81114e-05
0.000912901
0.00103523
0.00110762
0.00111971
0.00107976
0.00100523
0.00089306
0.000744452
0.000571899
0.000344903
0.00017035
9.79841e-05
0.00171527
0.00182369
0.00186607
0.00185675
0.00179271
0.00167293
0.00150008
0.00127365
0.000992748
0.000661938
0.000288013
0.000129046
0.00228529
0.00240113
0.00246106
0.00246729
0.00241718
0.00230415
0.00211938
0.00185415
0.00150306
0.00105875
0.00051537
0.00015726
0.00269075
0.00281468
0.00289081
0.00291931
0.00289398
0.00280379
0.00263824
0.0023774
0.00198696
0.00144666
0.000752511
0.000184177
0.00295381
0.00308284
0.00317131
0.00321786
0.00321953
0.00316833
0.00304718
0.00282584
0.00244996
0.00186095
0.00104423
0.00021191
0.00309589
0.00322446
0.00331964
0.00338124
0.00341063
0.00340373
0.00334292
0.00318567
0.00286205
0.00226601
0.00134798
0.000239992
0.00314676
0.00326478
0.00335619
0.00342402
0.00347305
0.00350434
0.00350645
0.00343754
0.00320211
0.00264167
0.00164206
0.000270988
0.00310693
0.00321151
0.00329788
0.00336941
0.00343111
0.00348992
0.00354517
0.00356826
0.00345561
0.00298387
0.00190187
0.000304698
0.00299541
0.0030923
0.00317945
0.00325668
0.003321
0.00339135
0.00348032
0.00357333
0.00359391
0.00329095
0.00220175
0.000340285
0.002855
0.0029415
0.00302722
0.00311434
0.00318894
0.00325397
0.00335037
0.00348612
0.00362095
0.00351418
0.00255755
0.000379765
0.00273266
0.00280279
0.00287521
0.00295425
0.00304782
0.0031208
0.00320782
0.00335643
0.00355307
0.00365095
0.00295449
0.000428794
0.000128848
7.13895e-05
7.23385e-05
7.0782e-05
6.59005e-05
6.54401e-05
7.419e-05
0.000121684
0.000155202
0.000167584
0.000173974
0.00017826
4.65814e-05
0.00016752
0.000195483
0.000151913
8.61647e-05
0.000135024
0.000165619
0.000232767
0.000333003
0.000454421
0.000607616
0.000767237
5.93281e-05
0.000261403
0.000285818
0.000248981
0.000225394
0.000299847
0.000431733
0.0006106
0.000843405
0.00108917
0.00133078
0.00154529
7.66084e-05
0.000347519
0.000356878
0.000341535
0.000414965
0.00058968
0.000816274
0.00107639
0.00136806
0.00164603
0.00189786
0.00211396
8.83856e-05
0.000434772
0.000500097
0.000529638
0.000679766
0.000909416
0.00118304
0.00148063
0.00178092
0.00205945
0.00230635
0.00251783
9.87941e-05
0.000515764
0.000635257
0.000735749
0.000931352
0.00118962
0.00147748
0.00177827
0.00207064
0.0023402
0.00257964
0.0027841
0.000106013
0.000578121
0.000761063
0.000918195
0.00114882
0.00141871
0.0017034
0.00198851
0.00226163
0.00251297
0.00273797
0.00293232
0.000113409
0.000656815
0.000893355
0.00110797
0.00137323
0.00164513
0.0019128
0.00216929
0.00240997
0.0026305
0.00282803
0.00299993
0.000122239
0.000721902
0.0010649
0.00135312
0.00162544
0.00187358
0.00210005
0.00230846
0.00250097
0.00267781
0.0028391
0.00298186
0.000134197
0.000803121
0.00123162
0.00155719
0.00180899
0.00201555
0.00219262
0.00235196
0.00249934
0.00263724
0.00276655
0.00288591
0.000153496
0.000763559
0.00132423
0.00165329
0.00187746
0.0020526
0.00220239
0.00233253
0.00245037
0.00256018
0.00266408
0.00276215
0.000276795
0.000749084
0.00139722
0.00175856
0.00195195
0.00211597
0.00224221
0.0023451
0.002434
0.00251445
0.00259003
0.00266206
0.000180275
0.000180956
0.000180404
0.000179159
0.000176894
0.000172992
0.000167462
0.000159815
0.000149368
0.000135975
0.000118701
5.81057e-05
0.000912073
0.00103435
0.00110682
0.00111891
0.00107913
0.00100466
0.000892603
0.000744123
0.00057168
0.000344793
0.000170317
9.79759e-05
0.00171386
0.00182227
0.00186463
0.00185543
0.00179157
0.00167196
0.0014993
0.00127306
0.000992347
0.000661716
0.000287939
0.000129036
0.00228357
0.00239939
0.00245936
0.00246567
0.00241567
0.00230288
0.00211832
0.0018533
0.00150245
0.0010584
0.000515238
0.000157247
0.00268892
0.00281283
0.00288895
0.00291753
0.00289225
0.0028022
0.00263689
0.00237633
0.00198615
0.00144618
0.000752323
0.000184163
0.00295201
0.00308099
0.00316943
0.003216
0.00321773
0.00316664
0.00304567
0.00282458
0.00244905
0.00186036
0.00104399
0.000211894
0.00309417
0.00322269
0.00331783
0.00337942
0.00340884
0.00340202
0.00334136
0.00318433
0.00286101
0.00226534
0.0013477
0.000239975
0.00314522
0.00326318
0.00335453
0.00342234
0.00347137
0.00350269
0.00350488
0.00343616
0.00320102
0.00264095
0.00164177
0.000270971
0.00310562
0.00321011
0.00329643
0.00336791
0.00342961
0.00348841
0.00354366
0.00356689
0.00345451
0.00298317
0.00190161
0.000304681
0.00299437
0.00309119
0.00317829
0.00325542
0.00331971
0.00339006
0.00347903
0.00357213
0.0035929
0.00329026
0.00220152
0.000340269
0.00285424
0.00294069
0.00302638
0.00311342
0.00318792
0.00325292
0.00334935
0.00348508
0.00362
0.00351356
0.00255735
0.000379751
0.00273216
0.00280225
0.00287462
0.00295363
0.00304715
0.00312006
0.00320707
0.00335566
0.00355235
0.00365039
0.00295433
0.000428782
0.000126317
7.11541e-05
7.14978e-05
7.01327e-05
6.59253e-05
6.55593e-05
7.42127e-05
0.000121825
0.000155324
0.000167681
0.000174072
0.000178348
0.000256209
0.000202204
0.000200491
0.000152088
8.586e-05
0.000135259
0.000166001
0.000233316
0.000333678
0.000455456
0.000608728
0.000768477
5.93933e-05
0.000264603
0.000285386
0.000248755
0.000225436
0.000300732
0.000432789
0.000612064
0.00084517
0.0010911
0.00133285
0.00154742
7.65869e-05
0.000347955
0.000357346
0.000342179
0.000416038
0.000591215
0.000817968
0.00107845
0.00137034
0.00164841
0.00190038
0.00211656
8.84197e-05
0.000435238
0.000500942
0.00053098
0.00068126
0.000911146
0.00118512
0.00148294
0.0017834
0.00206204
0.00230905
0.00252061
9.88509e-05
0.000516253
0.000636148
0.000737001
0.000932933
0.00119139
0.00147965
0.00178066
0.00207318
0.00234286
0.00258238
0.00278691
0.000106057
0.000578567
0.000761964
0.000919493
0.00115033
0.0014204
0.00170536
0.00199068
0.00226397
0.00251547
0.00274066
0.0029351
0.000113443
0.000657165
0.000894162
0.00110905
0.00137453
0.00164665
0.00191452
0.00217122
0.00241208
0.00263278
0.00283045
0.00300248
0.000122264
0.000722141
0.00106542
0.00135382
0.00162638
0.00187477
0.00210144
0.00231006
0.00250279
0.00267976
0.00284122
0.00298415
0.000134213
0.000803144
0.00123181
0.00155756
0.00180955
0.00201637
0.00219363
0.00235317
0.00250076
0.00263883
0.00276833
0.00288784
0.000153511
0.000763551
0.00132429
0.00165341
0.0018777
0.00205299
0.00220293
0.00233325
0.00245128
0.00256128
0.00266537
0.00276363
0.000276853
0.000749125
0.0013972
0.00175846
0.00195194
0.00211604
0.00224238
0.0023454
0.00243445
0.00251508
0.00259083
0.00266305
0.00018036
0.000181033
0.000180477
0.000179223
0.000176951
0.000173042
0.000167505
0.00015985
0.000149399
0.000135995
0.000118716
5.8112e-05
0.000913319
0.00103564
0.00110798
0.00112006
0.00108005
0.00100551
0.000893309
0.000744642
0.000572025
0.00034497
0.00017037
9.79867e-05
0.00171596
0.00182436
0.00186671
0.00185731
0.00179321
0.00167337
0.00150046
0.00127396
0.000992974
0.000662073
0.000288067
0.000129052
0.00228616
0.00240197
0.00246183
0.00246801
0.00241783
0.00230474
0.00211989
0.00185459
0.0015034
0.00105898
0.000515458
0.00015727
0.00269172
0.00281562
0.00289171
0.00292016
0.00289479
0.00280453
0.0026389
0.00237797
0.00198742
0.00144696
0.000752645
0.000184192
0.00295486
0.00308388
0.00317232
0.00321883
0.00322047
0.00316922
0.00304801
0.00282657
0.00245054
0.00186135
0.00104442
0.000211928
0.00309701
0.00322556
0.00332073
0.00338232
0.00341168
0.00340476
0.00334391
0.00318657
0.00286279
0.00226653
0.00134823
0.000240014
0.00314788
0.00326593
0.00335735
0.00342518
0.00347421
0.00350549
0.00350758
0.0034386
0.00320303
0.00264232
0.00164236
0.000271015
0.00310805
0.00321266
0.00329907
0.0033706
0.00343233
0.00349115
0.00354643
0.0035695
0.00345671
0.00298468
0.00190224
0.00030473
0.00299646
0.00309342
0.00318064
0.00325786
0.00332218
0.00339259
0.00348163
0.00357469
0.00359522
0.00329195
0.00220218
0.000340322
0.00285588
0.0029425
0.00302836
0.0031155
0.00319001
0.0032551
0.00335166
0.0034876
0.00362244
0.0035154
0.00255807
0.000379807
0.00273332
0.00280358
0.00287613
0.0029553
0.00304884
0.00312181
0.00320906
0.00335795
0.00355471
0.00365242
0.00295515
0.000428842
0.000128855
7.13912e-05
7.23412e-05
7.07858e-05
6.59044e-05
6.54459e-05
7.41996e-05
0.000121707
0.000155222
0.000167602
0.000173992
0.000178278
4.65831e-05
0.000167516
0.000195502
0.000151948
8.61791e-05
0.000135034
0.000165622
0.000232782
0.000333027
0.00045446
0.000607661
0.000767296
5.93295e-05
0.000261359
0.000285845
0.000249016
0.000225402
0.000299784
0.000431681
0.00061057
0.0008434
0.00108918
0.00133082
0.00154535
7.66068e-05
0.0003475
0.000356821
0.000341445
0.000414794
0.000589483
0.000816138
0.0010763
0.001368
0.001646
0.00189787
0.00211399
8.83842e-05
0.000434694
0.000499906
0.000529366
0.000679466
0.00090916
0.00118285
0.00148047
0.0017808
0.00205935
0.00230629
0.0025178
9.87897e-05
0.000515639
0.000634984
0.000735373
0.000930968
0.00118927
0.0014772
0.00177803
0.00207043
0.00234002
0.00257949
0.00278398
0.000106007
0.000577953
0.000760705
0.000917734
0.00114832
0.00141824
0.00170297
0.00198812
0.00226128
0.00251267
0.00273773
0.00293212
0.000113402
0.000656647
0.000892973
0.00110741
0.00137265
0.00164457
0.00191228
0.00216882
0.00240955
0.00263013
0.00282772
0.00299966
0.000122234
0.000721757
0.00106454
0.00135268
0.001625
0.00187316
0.00209965
0.00230809
0.00250063
0.00267751
0.00283882
0.00298162
0.000134193
0.000803053
0.00123149
0.00155708
0.00180888
0.00201543
0.00219249
0.00235182
0.00249919
0.00263708
0.00276639
0.00288575
0.000153497
0.000763646
0.00132435
0.00165343
0.0018776
0.0020527
0.00220246
0.00233258
0.00245039
0.00256018
0.00266406
0.00276212
0.000276804
0.00074925
0.00139745
0.00175881
0.00195222
0.00211624
0.00224246
0.00234531
0.00243418
0.00251461
0.00259016
0.00266217
0.000180292
0.000180973
0.00018042
0.000179175
0.00017691
0.000173008
0.000167476
0.000159829
0.00014938
0.000135986
0.000118713
5.81132e-05
0.000912139
0.00103442
0.00110688
0.00111897
0.00107918
0.00100471
0.000892641
0.000744163
0.000571727
0.000344824
0.000170333
9.79851e-05
0.00171393
0.00182234
0.00186471
0.00185551
0.00179165
0.00167205
0.00149939
0.00127313
0.000992411
0.000661766
0.000287961
0.000129045
0.00228361
0.00239944
0.00245943
0.00246574
0.00241576
0.00230297
0.00211842
0.00185339
0.00150252
0.00105844
0.00051527
0.000157256
0.00268891
0.00281284
0.00288898
0.00291758
0.00289233
0.00280229
0.00263699
0.00237643
0.00198624
0.00144624
0.000752366
0.000184172
0.00295192
0.00308093
0.0031694
0.00321599
0.00321775
0.00316668
0.00304575
0.00282468
0.00244915
0.00186043
0.00104403
0.000211902
0.00309401
0.00322256
0.00331774
0.00337937
0.00340883
0.00340204
0.00334141
0.00318441
0.00286111
0.00226542
0.00134776
0.000239983
0.003145
0.00326301
0.00335441
0.00342226
0.00347133
0.00350269
0.00350492
0.00343623
0.00320111
0.00264104
0.00164182
0.000270979
0.00310542
0.00320995
0.00329631
0.00336782
0.00342956
0.0034884
0.00354369
0.00356695
0.00345458
0.00298324
0.00190166
0.000304688
0.00299423
0.00309107
0.00317819
0.00325535
0.00331966
0.00339005
0.00347904
0.00357216
0.00359294
0.00329031
0.00220156
0.000340274
0.0028542
0.00294065
0.00302635
0.0031134
0.00318789
0.00325292
0.00334937
0.00348511
0.00362001
0.00351354
0.00255737
0.000379754
0.00273226
0.00280235
0.00287472
0.00295372
0.00304722
0.00312012
0.00320709
0.00335563
0.00355226
0.00365028
0.00295431
0.00042878
0.00168453
0.00175141
0.00186953
0.00200855
0.00213303
0.00225061
0.0023378
0.00240675
0.00246484
0.00251539
0.00256187
0.00260593
0.00270047
0.00251743
0.00243538
0.0024193
0.00242985
0.00245274
0.00247226
0.00249167
0.00251759
0.00254131
0.00256281
0.0025832
0.00335156
0.00314661
0.00297171
0.00284454
0.00274741
0.00268976
0.00265028
0.00262371
0.0026102
0.00259218
0.00257665
0.00257277
0.00357662
0.00340884
0.00324194
0.0030863
0.00294552
0.00282532
0.00273918
0.00267843
0.00263786
0.00260908
0.0025954
0.00259699
0.00265177
0.00270354
0.00276347
0.00283226
0.00292869
0.00301837
0.00310241
0.00324759
0.00344777
0.00370545
0.00381283
0.00177943
0.00261006
0.00264838
0.00269984
0.00276319
0.00285404
0.00294582
0.00303962
0.00317738
0.00336266
0.00360278
0.0040797
0.00303012
0.00259247
0.00263295
0.0026879
0.00275641
0.00283936
0.00293767
0.00304833
0.00317398
0.0033394
0.00351846
0.0039295
0.00361465
0.00262305
0.00268038
0.00274486
0.00282495
0.00291414
0.00302491
0.00314776
0.00327602
0.00341942
0.00354259
0.00379397
0.003751
0.00168467
0.00175164
0.00186981
0.00200889
0.00213337
0.00225091
0.00233801
0.00240686
0.00246484
0.0025153
0.0025617
0.0026057
0.00270079
0.00251784
0.00243587
0.00241983
0.00243036
0.00245321
0.00247268
0.00249201
0.00251778
0.00254142
0.00256281
0.00258314
0.00335199
0.00314702
0.00297221
0.00284509
0.00274793
0.00269027
0.00265076
0.00262417
0.00261056
0.00259243
0.00257671
0.00257286
0.00357695
0.00340923
0.00324237
0.00308676
0.00294595
0.00282575
0.00273963
0.00267884
0.00263821
0.00260936
0.00259567
0.00259716
0.00265149
0.00270321
0.00276311
0.00283186
0.00292829
0.00301792
0.00310199
0.00324718
0.00344734
0.00370511
0.00381268
0.0017793
0.00260994
0.00264823
0.00269968
0.00276303
0.00285389
0.00294569
0.00303953
0.00317733
0.00336264
0.00360277
0.00407975
0.00303013
0.00259249
0.00263295
0.00268792
0.0027565
0.0028395
0.00293789
0.00304862
0.00317433
0.00333979
0.00351887
0.00392989
0.00361495
0.00262311
0.00268054
0.00274516
0.00282538
0.0029147
0.00302556
0.00314848
0.00327681
0.0034202
0.00354338
0.00379472
0.00375163
0.0016846
0.0017516
0.00186976
0.0020088
0.00213333
0.0022509
0.00233801
0.00240694
0.00246504
0.00251563
0.00256217
0.00260632
0.00270079
0.00251783
0.00243585
0.00241979
0.00243034
0.00245321
0.00247269
0.00249205
0.00251791
0.00254163
0.00256311
0.00258356
0.00335226
0.00314723
0.00297238
0.00284523
0.00274806
0.00269038
0.00265089
0.00262431
0.0026107
0.0025926
0.00257693
0.00257319
0.00357751
0.00340975
0.0032428
0.00308712
0.00294626
0.00282601
0.00273988
0.00267904
0.00263842
0.00260959
0.00259593
0.00259744
0.00265227
0.00270415
0.0027642
0.00283312
0.00292969
0.00301934
0.00310357
0.00324903
0.00344944
0.00370719
0.00381393
0.00177965
0.00261049
0.0026489
0.00270047
0.00276396
0.00285487
0.00294679
0.00304079
0.00317879
0.00336435
0.00360459
0.00408146
0.00303096
0.0025929
0.00263345
0.0026885
0.00275719
0.00284025
0.00293875
0.0030496
0.00317548
0.00334111
0.00352035
0.00393161
0.00361619
0.00262344
0.00268093
0.00274562
0.00282592
0.0029153
0.00302626
0.0031493
0.00327775
0.00342124
0.00354459
0.00379612
0.00375288
0.00168483
0.00175184
0.00187008
0.00200921
0.00213376
0.00225133
0.00233839
0.00240723
0.00246519
0.00251563
0.00256201
0.00260599
0.00270137
0.00251832
0.0024363
0.00242028
0.00243086
0.00245372
0.00247317
0.00249249
0.00251826
0.00254189
0.00256324
0.00258357
0.00335322
0.00314801
0.00297301
0.00284585
0.00274865
0.00269091
0.0026514
0.00262481
0.00261115
0.00259299
0.0025772
0.00257342
0.00357854
0.0034106
0.00324352
0.00308778
0.00294683
0.00282652
0.00274035
0.00267944
0.00263879
0.00260991
0.00259619
0.00259757
0.00265176
0.00270347
0.00276334
0.00283205
0.00292842
0.00301801
0.00310201
0.00324708
0.00344713
0.00370484
0.00381251
0.00177915
0.00261036
0.00264861
0.0027
0.00276326
0.00285407
0.00294577
0.00303945
0.00317708
0.00336223
0.00360229
0.00407928
0.00302984
0.00259297
0.00263333
0.00268819
0.00275658
0.00283953
0.00293774
0.00304829
0.0031738
0.00333909
0.00351805
0.00392905
0.00361429
0.00262332
0.00268061
0.00274505
0.0028251
0.00291436
0.00302498
0.00314768
0.00327582
0.00341912
0.00354215
0.00379352
0.0037507
0.00344317
0.00327122
0.00310539
0.0029535
0.00282243
0.00271711
0.00264221
0.00259142
0.0025621
0.00255331
0.00257324
0.00262604
0.00335323
0.00318234
0.00301847
0.00286842
0.0027387
0.00263326
0.00255279
0.00249237
0.00244961
0.00242506
0.00242896
0.00248565
0.00329002
0.00312686
0.00296546
0.00281299
0.00267549
0.00255507
0.00244993
0.00235441
0.00226289
0.00217194
0.00209241
0.00206787
0.00324041
0.00309155
0.00293368
0.00277598
0.00262476
0.00247898
0.00233467
0.00218279
0.00201021
0.00179852
0.00154494
0.00132074
0.00271917
0.00286265
0.00295575
0.00305511
0.00316895
0.00328672
0.00340048
0.00350458
0.00359486
0.00366437
0.00369978
0.00363062
0.0026226
0.00289419
0.0030225
0.0031331
0.00325277
0.00337098
0.00347956
0.00357044
0.00362871
0.00364817
0.00363644
0.00353259
0.00218544
0.00277511
0.00299154
0.00312046
0.00324341
0.00335996
0.00346553
0.00354945
0.00358966
0.00359458
0.00356538
0.00345344
0.00132036
0.00246244
0.00286291
0.00304717
0.00317394
0.0032903
0.00339604
0.00347707
0.00351296
0.00351549
0.00348428
0.00338509
0.0034435
0.00327159
0.00310578
0.0029539
0.00282282
0.0027175
0.00264259
0.00259175
0.0025624
0.00255358
0.00257352
0.00262634
0.00335352
0.00318263
0.00301877
0.00286875
0.00273903
0.0026336
0.00255311
0.00249266
0.0024499
0.00242535
0.00242928
0.00248604
0.00329026
0.00312704
0.00296565
0.00281321
0.00267574
0.00255533
0.00245019
0.00235467
0.00226315
0.0021722
0.00209268
0.0020682
0.00324059
0.00309163
0.00293377
0.00277608
0.0026249
0.00247916
0.00233487
0.00218301
0.00201044
0.00179874
0.0015451
0.00132084
0.00271957
0.00286329
0.0029566
0.00305606
0.00316997
0.00328781
0.00340157
0.00350567
0.00359591
0.00366538
0.00370072
0.00363147
0.00262315
0.00289516
0.00302378
0.00313449
0.00325419
0.0033724
0.00348095
0.00357179
0.00363001
0.00364941
0.00363761
0.00353367
0.00218589
0.00277627
0.00299313
0.00312221
0.00324517
0.00336167
0.00346718
0.00355104
0.00359119
0.00359605
0.00356678
0.00345476
0.00132055
0.00246362
0.00286474
0.00304921
0.00317598
0.00329226
0.00339791
0.00347887
0.00351468
0.00351715
0.00348589
0.00338662
0.00344427
0.00327227
0.00310636
0.0029544
0.00282323
0.00271786
0.00264291
0.00259204
0.00256269
0.00255388
0.00257382
0.00262667
0.00335453
0.00318353
0.00301956
0.00286941
0.00273957
0.00263405
0.0025535
0.002493
0.00245021
0.00242564
0.00242957
0.00248633
0.00329151
0.00312817
0.00296664
0.00281406
0.00267643
0.00255589
0.00245065
0.00235504
0.00226346
0.00217246
0.00209291
0.00206841
0.00324205
0.00309296
0.00293494
0.00277712
0.00262576
0.00247984
0.00233541
0.00218341
0.00201074
0.00179895
0.00154526
0.00132097
0.00271991
0.00286363
0.00295701
0.00305648
0.00317045
0.0032884
0.00340222
0.00350641
0.00359675
0.00366634
0.00370168
0.00363237
0.00262342
0.00289539
0.00302404
0.00313477
0.0032545
0.00337279
0.0034814
0.00357231
0.00363061
0.00365005
0.00363826
0.00353426
0.0021861
0.00277637
0.00299318
0.00312228
0.00324524
0.00336181
0.00346739
0.00355131
0.00359151
0.00359641
0.00356715
0.00345505
0.00132072
0.00246362
0.00286457
0.00304903
0.00317579
0.00329214
0.00339788
0.00347887
0.00351474
0.00351727
0.003486
0.00338665
0.00344501
0.00327289
0.00310693
0.00295511
0.00282372
0.00271821
0.00264321
0.00259226
0.00256283
0.00255389
0.00257364
0.00262634
0.00335499
0.0031839
0.00301988
0.00286975
0.00273983
0.00263424
0.00255363
0.00249305
0.00245015
0.00242543
0.00242913
0.00248577
0.0032917
0.00312828
0.00296673
0.00281417
0.00267652
0.00255595
0.00245065
0.00235498
0.00226341
0.00217219
0.0020925
0.00206785
0.00324201
0.00309284
0.00293479
0.00277705
0.0026257
0.00247978
0.00233532
0.00218344
0.00201137
0.00179884
0.00154501
0.00132066
0.00271933
0.00286275
0.00295575
0.00305512
0.00316891
0.00328656
0.00340022
0.00350423
0.00359445
0.00366391
0.00369938
0.00363025
0.00262264
0.00289414
0.00302238
0.00313297
0.00325257
0.00337068
0.00347918
0.00356998
0.00362823
0.00364769
0.003636
0.00353219
0.00218535
0.00277494
0.00299132
0.00312022
0.00324309
0.00335955
0.00346505
0.0035489
0.0035891
0.00359404
0.00356487
0.003453
0.00132025
0.0024622
0.00286262
0.00304686
0.00317352
0.0032898
0.00339548
0.00347644
0.00351231
0.00351484
0.00348367
0.0033846
0.00319493
0.00306403
0.00291415
0.00275126
0.00258622
0.00241293
0.00222564
0.00201281
0.00175258
0.00140134
0.000848558
0.000255334
0.00314242
0.00303373
0.00289709
0.00273391
0.00256022
0.00236592
0.00214468
0.00188642
0.00157397
0.00117709
0.000608802
0.000140166
0.00307259
0.0029914
0.0028738
0.00271769
0.00254319
0.00233904
0.00209945
0.00181916
0.00149366
0.00112825
0.000635347
0.000125204
0.00298671
0.00292901
0.00283542
0.00269384
0.00252682
0.00232441
0.00208225
0.00180108
0.0014894
0.0011739
0.000734654
0.000128194
0.00288069
0.00284224
0.00277311
0.00265184
0.00249906
0.00230752
0.00207436
0.00180457
0.00151172
0.00120584
0.000795881
0.000132358
0.00274651
0.00272449
0.00267681
0.00257905
0.00244497
0.00226996
0.00205185
0.0017962
0.00151345
0.00119483
0.000801355
0.000135822
0.00256981
0.00256271
0.00253387
0.00245919
0.00234611
0.00219036
0.00198961
0.00174666
0.00146716
0.00113707
0.000765031
0.000136458
0.00233026
0.00233661
0.00232356
0.00226927
0.00217818
0.00204297
0.00186157
0.00163163
0.00135651
0.00103265
0.000680908
0.00013472
0.00199579
0.00201311
0.00201212
0.00197529
0.00190426
0.00179287
0.00163864
0.00142676
0.00116717
0.000869427
0.000555545
0.00012973
0.00151787
0.00153941
0.00154618
0.00152428
0.00147218
0.00139004
0.00127804
0.00110192
0.000882763
0.000638819
0.00038765
0.000120991
0.00083387
0.000849572
0.000857666
0.000849232
0.000821819
0.000777175
0.00071915
0.000624783
0.000480794
0.000333922
0.000183348
0.000109044
8.90368e-05
9.17971e-05
9.40768e-05
9.52725e-05
9.49649e-05
9.32189e-05
8.99734e-05
8.48582e-05
7.72734e-05
6.6132e-05
5.05511e-05
0.000145775
0.000325256
0.00202119
0.00267916
0.00292753
0.00306379
0.00318221
0.00328964
0.0033738
0.00341324
0.00341693
0.00339214
0.00331473
0.000279601
0.00179346
0.00249177
0.00277736
0.00292551
0.00304759
0.00315756
0.00324788
0.00329547
0.00330692
0.00328929
0.0032335
0.000256498
0.00161132
0.00230433
0.00260791
0.00276702
0.00289333
0.00300657
0.00310243
0.00316132
0.00318675
0.00317826
0.00313928
0.000238966
0.00144698
0.00211529
0.00242504
0.00259241
0.00272244
0.00283873
0.00293874
0.00301024
0.00304886
0.00305635
0.0030328
0.000223664
0.00129005
0.00192162
0.00223035
0.00240235
0.00253475
0.00265352
0.00275734
0.00283803
0.00289036
0.00291436
0.00290933
0.00020908
0.00113227
0.00172019
0.00202228
0.0021943
0.00232682
0.00244706
0.00255435
0.00264173
0.00270535
0.00274433
0.00275728
0.000194626
0.000962019
0.00150696
0.00179676
0.00196244
0.00209154
0.00221147
0.00232098
0.00241324
0.00248476
0.00253553
0.00256401
0.000180522
0.000773675
0.00127752
0.00154726
0.00169717
0.00181743
0.00193376
0.00204282
0.00213692
0.00221274
0.00227072
0.00231027
0.000165497
0.000586317
0.001029
0.00126244
0.00138363
0.00148717
0.0015942
0.00169759
0.00178813
0.00186265
0.00192201
0.00196656
0.000148423
0.000410563
0.000755928
0.000913638
0.000989956
0.00106654
0.00115582
0.0012464
0.00132784
0.00139376
0.00144549
0.00148678
0.000126906
0.000258662
0.000419282
0.000473516
0.000502937
0.000542514
0.000598674
0.000659492
0.000714277
0.00075619
0.000787264
0.000813076
0.000163847
0.000204
4.80829e-05
5.34983e-05
5.76971e-05
6.14696e-05
6.58813e-05
7.07108e-05
7.51954e-05
7.91978e-05
8.27628e-05
8.60346e-05
0.00319507
0.00306403
0.00291412
0.00275123
0.00258624
0.00241299
0.00222574
0.00201295
0.00175275
0.00140151
0.00084871
0.000255376
0.00314262
0.00303369
0.00289697
0.00273377
0.00256011
0.00236586
0.00214466
0.00188645
0.00157404
0.00117717
0.000608896
0.000140178
0.00307295
0.00299139
0.00287361
0.00271746
0.00254297
0.00233886
0.0020993
0.00181906
0.00149357
0.00112818
0.000635358
0.000125202
0.00298706
0.002929
0.00283521
0.00269356
0.00252652
0.00232412
0.00208199
0.00180084
0.00148918
0.00117371
0.000734636
0.000128189
0.00288102
0.00284225
0.0027729
0.00265153
0.00249871
0.00230716
0.00207402
0.00180424
0.00151142
0.00120563
0.000795843
0.000132353
0.00274684
0.00272452
0.00267662
0.00257873
0.00244459
0.00226958
0.00205147
0.00179584
0.00151314
0.00119465
0.000801291
0.000135815
0.00257012
0.00256276
0.00253372
0.00245889
0.00234576
0.00218999
0.00198924
0.00174631
0.00146688
0.00113691
0.000764972
0.000136452
0.00233055
0.00233668
0.00232344
0.00226902
0.00217787
0.00204262
0.00186123
0.00163133
0.00135627
0.00103251
0.000680859
0.000134715
0.00199605
0.00201318
0.00201203
0.00197509
0.001904
0.0017926
0.00163836
0.00142652
0.00116698
0.000869313
0.000555497
0.000129728
0.00151807
0.00153946
0.00154612
0.00152412
0.00147198
0.00138985
0.00127783
0.00110174
0.000882634
0.000638741
0.000387623
0.000120994
0.00083397
0.000849605
0.000857658
0.000849155
0.000821722
0.000777078
0.000719056
0.000624698
0.000480731
0.000333887
0.000183339
0.000109048
8.90497e-05
9.18058e-05
9.40807e-05
9.52702e-05
9.49596e-05
9.32125e-05
8.99664e-05
8.48516e-05
7.72679e-05
6.61285e-05
5.05508e-05
0.000145776
0.000325337
0.00202239
0.00268115
0.00292979
0.00306605
0.00318436
0.00329168
0.00337576
0.00341511
0.00341875
0.00339391
0.00331643
0.000279703
0.00179474
0.00249387
0.00277977
0.00292792
0.00304989
0.00315973
0.00324995
0.00329745
0.00330884
0.00329117
0.00323535
0.000256611
0.00161265
0.00230648
0.00261039
0.00276952
0.00289572
0.00300883
0.00310457
0.00316337
0.00318873
0.0031802
0.00314119
0.000239087
0.00144832
0.00211744
0.00242753
0.00259493
0.00272485
0.00284101
0.0029409
0.00301231
0.00305086
0.00305831
0.00303472
0.000223789
0.00129137
0.00192371
0.00223279
0.00240482
0.00253712
0.00265576
0.00275946
0.00284006
0.00289232
0.00291628
0.00291121
0.000209206
0.00113354
0.00172218
0.00202458
0.00219664
0.00232907
0.0024492
0.00255638
0.00264368
0.00270723
0.00274617
0.00275907
0.000194749
0.000963234
0.00150879
0.00179886
0.00196458
0.00209361
0.00221343
0.00232285
0.00241503
0.0024865
0.00253723
0.00256568
0.000180641
0.000774786
0.00127919
0.00154909
0.00169902
0.00181922
0.00193547
0.00204446
0.0021385
0.00221428
0.00227223
0.00231174
0.000165608
0.000587459
0.00103114
0.0012639
0.00138511
0.0014886
0.00159557
0.00169892
0.00178942
0.00186391
0.00192325
0.00196777
0.000148445
0.000412227
0.000759741
0.000914561
0.000990936
0.0010675
0.00115677
0.00124733
0.00132876
0.00139466
0.00144638
0.00148763
0.000126933
0.000264191
0.00042638
0.00047406
0.000503398
0.000542972
0.000599145
0.000659961
0.000714743
0.000756649
0.000787716
0.000813512
0.000167538
0.000209291
4.94007e-05
5.36604e-05
5.77528e-05
6.15161e-05
6.59276e-05
7.07554e-05
7.52387e-05
7.92395e-05
8.28042e-05
8.60746e-05
0.0031967
0.00306554
0.00291547
0.00275247
0.00258728
0.00241383
0.0022264
0.00201344
0.00175308
0.0014017
0.000848811
0.000255408
0.00314439
0.00303534
0.00289848
0.00273518
0.00256133
0.00236688
0.00214549
0.00188709
0.00157451
0.00117749
0.000609123
0.000140219
0.00307483
0.00299316
0.00287525
0.00271899
0.00254436
0.00234006
0.00210031
0.00181988
0.00149423
0.00112867
0.000635708
0.000125245
0.00298896
0.00293085
0.00283693
0.00269517
0.00252802
0.00232546
0.00208316
0.00180184
0.00149001
0.00117435
0.000735044
0.000128233
0.00288289
0.0028441
0.00277464
0.00265317
0.00250027
0.00230859
0.00207529
0.00180535
0.00151236
0.00120635
0.000796296
0.000132396
0.00274861
0.00272629
0.00267832
0.00258035
0.00244615
0.00227102
0.00205277
0.00179699
0.00151409
0.00119539
0.00080175
0.000135854
0.00257176
0.0025644
0.0025353
0.00246042
0.00234722
0.00219135
0.00199049
0.00174741
0.00146778
0.00113761
0.000765425
0.000136488
0.00233199
0.00233811
0.00232484
0.00227037
0.00217917
0.00204384
0.00186236
0.00163231
0.00135706
0.0010331
0.000681244
0.000134744
0.00199723
0.00201433
0.00201317
0.00197619
0.00190506
0.00179359
0.00163927
0.00142732
0.00116762
0.000869778
0.000555822
0.000129749
0.00151889
0.00154027
0.00154691
0.00152489
0.00147272
0.00139055
0.00127847
0.0011023
0.000883077
0.000639058
0.000387827
0.000121007
0.000834388
0.000850004
0.000858052
0.000849531
0.000822091
0.000777426
0.000719381
0.000624973
0.000480954
0.00033404
0.000183431
0.000109055
8.9086e-05
9.184e-05
9.41127e-05
9.53006e-05