/*--------------------------------*- C++ -*----------------------------------*\
  =========                 |
  \\      /  F ield         | OpenFOAM: The Open Source CFD Toolbox
   \\    /   O peration     | Website:  https://openfoam.org
    \\  /    A nd           | Version:  6
     \\/     M anipulation  |
\*---------------------------------------------------------------------------*/
FoamFile
{
    version     2.0;
    format      ascii;
    class       volScalarField;
    location    "300";
    object      p;
}
// * * * * * * * * * * * * * * * * * * * * * * * * * * * * * * * * * * * * * //

dimensions      [0 2 -2 0 0 0 0];

internalField   nonuniform List<scalar> 
3072
(
0.00093662
-0.142882
-0.270004
-0.3507
-0.371117
-0.352523
-0.310997
-0.195747
-0.000411651
-0.0729263
-0.375901
-0.678828
0.659975
0.433248
0.302539
0.250782
0.296326
0.498124
0.696237
1.22326
1.93219
2.25385
2.42705
2.49849
1.3975
1.11639
1.03177
1.07479
1.27426
1.68799
2.11144
2.50365
2.87336
3.10481
3.28447
3.39975
2.37197
2.16727
2.18384
2.39413
2.76803
3.19158
3.5908
3.95034
4.25017
4.47409
4.65399
4.79032
3.42695
3.34678
3.47978
3.79234
4.19614
4.60101
4.96781
5.29603
5.56127
5.76298
5.91866
6.03271
4.47716
4.52083
4.74651
5.11381
5.52771
5.91688
6.25544
6.53612
6.75993
6.93197
7.0636
7.16072
5.50402
5.68379
5.97934
6.37936
6.7911
7.1573
7.45905
7.69782
7.88183
8.02043
8.1239
8.19913
6.53792
6.85823
7.20331
7.61623
8.0072
8.33373
8.58833
8.78017
8.92157
9.02413
9.09807
9.15039
7.60112
8.07013
8.44128
8.84027
9.18474
9.4512
9.64574
9.78305
9.87792
9.94263
9.98683
10.0166
8.7128
9.29634
9.67931
10.0417
10.3198
10.5072
10.6291
10.7048
10.75
10.7761
10.7915
10.8002
9.86935
10.5983
10.9392
11.1864
11.3683
11.4628
11.5065
11.5207
11.5194
11.5118
11.504
11.4969
10.887
11.9294
12.128
12.1756
12.2346
12.2408
12.2197
12.188
12.1562
12.1295
12.1117
12.0993
-0.923658
-0.981784
-0.897225
-0.642357
-0.263382
0.237265
0.811764
1.40572
1.93784
2.37744
2.60058
2.42974
2.56641
2.59585
2.64812
2.71717
2.82593
2.95856
3.11427
3.26446
3.39665
3.61593
3.56269
2.84712
3.47396
3.53244
3.60847
3.70376
3.81378
3.92694
4.0308
4.09131
4.0839
4.076
3.93048
2.90158
4.89752
4.9823
5.05154
5.10583
5.14504
5.16461
5.15659
5.08679
4.93183
4.7327
4.44993
3.13758
6.11709
6.17853
6.22145
6.24617
6.25103
6.23022
6.17265
6.06252
5.85967
5.57367
5.23437
3.72831
7.23104
7.2794
7.30891
7.32002
7.31117
7.27798
7.20901
7.09238
6.89812
6.60315
6.2457
4.75059
8.25234
8.28754
8.30748
8.31321
8.30424
8.27782
8.22713
8.1408
7.99721
7.7698
7.49119
6.16068
9.1866
9.2103
9.22441
9.23108
9.23138
9.22508
9.20945
9.17891
9.12379
9.02291
8.9165
7.9442
10.0368
10.0503
10.0604
10.0705
10.0838
10.1029
10.1297
10.1665
10.2185
10.2841
10.4385
10.0261
10.8061
10.8104
10.8165
10.8291
10.8537
10.8965
10.9635
11.0659
11.2229
11.4622
11.9898
12.3329
11.4929
11.4903
11.493
11.5051
11.5349
11.5934
11.6888
11.8405
12.0755
12.4606
13.4002
14.6648
12.0938
12.089
12.0898
12.0997
12.1274
12.188
12.2915
12.4615
12.7174
13.1518
14.1971
16.1759
0.00193029
-0.142035
-0.268971
-0.34949
-0.369863
-0.351137
-0.309733
-0.194597
0.0011823
-0.0704088
-0.373349
-0.676278
0.6606
0.434003
0.303219
0.251397
0.296885
0.498744
0.697182
1.22294
1.93236
2.25473
2.42806
2.49969
1.3977
1.11642
1.03162
1.07453
1.27371
1.68736
2.11119
2.50351
2.87359
3.10536
3.28516
3.40059
2.37184
2.16685
2.18317
2.39325
2.76721
3.19098
3.59047
3.95021
4.25035
4.47449
4.65452
4.79093
3.42687
3.34639
3.47912
3.79163
4.19554
4.60062
4.96764
5.29602
5.56149
5.76332
5.91912
6.03323
4.47725
4.52057
4.74609
5.11335
5.52738
5.91672
6.25542
6.53626
6.76017
6.93234
7.064
7.16118
5.50429
5.68373
5.97911
6.37914
6.79099
7.1573
7.45919
7.69803
7.88215
8.02079
8.1243
8.19955
6.53832
6.8583
7.20327
7.61621
8.00727
8.33389
8.58858
8.78048
8.92193
9.02451
9.09847
9.1508
7.60154
8.07032
8.44138
8.84042
9.18496
9.4515
9.64608
9.78343
9.87831
9.94303
9.98724
10.017
8.71317
9.29654
9.67948
10.0419
10.3201
10.5076
10.6295
10.7052
10.7504
10.7765
10.7919
10.8006
9.86966
10.5985
10.9393
11.1867
11.3686
11.4632
11.5069
11.5211
11.5198
11.5122
11.5044
11.4973
10.8873
11.9296
12.1281
12.1758
12.2349
12.2411
12.2201
12.1884
12.1566
12.1299
12.1121
12.0997
-0.921417
-0.979753
-0.895529
-0.640904
-0.262232
0.2382
0.812482
1.4063
1.93831
2.37782
2.60083
2.43002
2.56759
2.59697
2.64911
2.71802
2.82664
2.95916
3.11477
3.26489
3.39703
3.61624
3.563
2.84747
3.47487
3.53335
3.60931
3.70452
3.81445
3.92752
4.03131
4.09176
4.0843
4.07638
3.93088
2.902
4.89814
4.98294
5.05218
5.10645
5.14561
5.16513
5.15706
5.08721
4.93222
4.73307
4.45031
3.13798
6.11764
6.1791
6.22202
6.24672
6.25154
6.23071
6.17308
6.06293
5.86005
5.57404
5.23472
3.72869
7.23152
7.27989
7.30942
7.3205
7.31166
7.27842
7.20945
7.09275
6.89851
6.60344
6.24603
4.75091
8.25278
8.28799
8.30793
8.31367
8.30467
8.27826
8.22753
8.1412
7.99753
7.77013
7.49143
6.16092
9.18703
9.21073
9.22485
9.2315
9.23181
9.22548
9.20985
9.17927
9.12414
9.02315
8.9167
7.94439
10.0372
10.0507
10.0608
10.071
10.0842
10.1033
10.1301
10.1669
10.2189
10.2843
10.4388
10.0263
10.8065
10.8108
10.8169
10.8295
10.8541
10.8969
10.9639
11.0663
11.2233
11.4626
11.99
12.3331
11.4933
11.4908
11.4934
11.5055
11.5353
11.5938
11.6892
11.8409
12.0759
12.4608
13.4005
14.6651
12.0943
12.0894
12.0902
12.1001
12.1278
12.1884
12.2919
12.4618
12.7178
13.1522
14.1973
16.1761
0.00356924
-0.135679
-0.262266
-0.344006
-0.365313
-0.347584
-0.306159
-0.191013
0.00343738
-0.0703746
-0.373564
-0.67669
0.658285
0.436303
0.307943
0.256525
0.301854
0.503431
0.700888
1.22894
1.9368
2.25728
2.43002
2.50101
1.39504
1.11381
1.03261
1.07771
1.27821
1.69221
2.11529
2.50736
2.87662
3.10769
3.28711
3.40211
2.37015
2.16576
2.18363
2.39563
2.77049
3.19431
3.59354
3.95302
4.2526
4.47639
4.65616
4.79236
3.42547
3.34577
3.47956
3.79311
4.19752
4.60269
4.96963
5.2979
5.56306
5.76474
5.92037
6.03436
4.47586
4.52005
4.74633
5.11419
5.52845
5.91785
6.25655
6.53735
6.7612
6.93328
7.06493
7.16204
5.50279
5.68313
5.97914
6.3795
6.79146
7.15783
7.45973
7.69863
7.88273
8.0214
8.12492
8.20018
6.53686
6.85765
7.20307
7.61622
8.00735
8.33403
8.58877
8.78073
8.92223
9.02488
9.09888
9.15124
7.60024
8.06959
8.44102
8.84018
9.18478
9.45138
9.64604
9.78347
9.87844
9.94323
9.9875
10.0174
8.71212
9.29592
9.67908
10.0416
10.3198
10.5073
10.6293
10.7052
10.7504
10.7766
10.7921
10.8009
9.86882
10.598
10.939
11.1863
11.3683
11.4629
11.5067
11.521
11.5198
11.5123
11.5046
11.4975
10.8866
11.9291
12.1277
12.1755
12.2346
12.2409
12.2199
12.1884
12.1566
12.13
12.1123
12.0998
-0.921407
-0.979582
-0.894986
-0.640224
-0.261298
0.239184
0.813571
1.40734
1.93934
2.3788
2.60185
2.43102
2.56873
2.598
2.65015
2.71912
2.82776
2.9603
3.1159
3.26599
3.39809
3.61727
3.56393
2.84841
3.47616
3.5345
3.61042
3.70561
3.81552
3.92859
4.03235
4.09278
4.08531
4.07735
3.93175
2.90292
4.89947
4.98414
5.05327
5.10748
5.14662
5.16612
5.15805
5.0882
4.9332
4.73405
4.45122
3.13895
6.11869
6.18008
6.22295
6.24762
6.25243
6.23159
6.17399
6.06384
5.86098
5.57498
5.23565
3.72969
7.23235
7.28069
7.31019
7.32127
7.31241
7.27921
7.21023
7.0936
6.89935
6.60442
6.24698
4.75198
8.2534
8.28861
8.30856
8.31429
8.30532
8.27891
8.22824
8.14193
7.99838
7.77103
7.49247
6.16209
9.18749
9.21121
9.22534
9.23202
9.23234
9.22606
9.21046
9.17995
9.12488
9.02409
8.91778
7.94562
10.0376
10.0511
10.0612
10.0714
10.0846
10.1037
10.1307
10.1675
10.2195
10.2852
10.4398
10.0276
10.8068
10.8111
10.8173
10.8298
10.8545
10.8973
10.9644
11.0667
11.2239
11.4633
11.9911
12.3343
11.4935
11.491
11.4937
11.5058
11.5357
11.5941
11.6896
11.8413
12.0763
12.4615
13.4014
14.6662
12.0944
12.0896
12.0904
12.1004
12.1281
12.1887
12.2922
12.4622
12.7182
13.1526
14.198
16.177
0.00183401
-0.142143
-0.269086
-0.349598
-0.369971
-0.35125
-0.309825
-0.194638
0.00113775
-0.0706471
-0.373772
-0.676864
0.66048
0.433848
0.303045
0.251228
0.296726
0.498626
0.697143
1.22308
1.93254
2.25484
2.42811
2.49964
1.39752
1.11615
1.03129
1.0742
1.27343
1.68716
2.11106
2.50342
2.87355
3.1053
3.28507
3.40047
2.37163
2.16652
2.18276
2.39283
2.76689
3.19079
3.59038
3.95018
4.25034
4.47448
4.6545
4.7909
3.4267
3.3461
3.47878
3.79132
4.19536
4.60054
4.96763
5.29606
5.56155
5.76338
5.91918
6.03327
4.47718
4.52037
4.74588
5.11321
5.52736
5.91678
6.25554
6.5364
6.76031
6.93247
7.06412
7.16128
5.50432
5.68362
5.97902
6.37914
6.79111
7.15749
7.45942
7.69826
7.88236
8.02098
8.12448
8.1997
6.53843
6.85827
7.20329
7.61633
8.0075
8.33419
8.58889
8.78078
8.9222
9.02476
9.09869
9.15098
7.6017
8.07037
8.44149
8.84063
9.18527
9.45185
9.64644
9.78376
9.87862
9.9433
9.98747
10.0172
8.71337
9.29666
9.67967
10.0422
10.3204
10.5079
10.6298
10.7056
10.7507
10.7768
10.7921
10.8008
9.86989
10.5987
10.9396
11.187
11.369
11.4635
11.5072
11.5214
11.5201
11.5125
11.5046
11.4975
10.8876
11.9298
12.1284
12.1762
12.2353
12.2415
12.2205
12.1888
12.1569
12.1302
12.1124
12.0999
-0.922099
-0.980479
-0.896238
-0.641555
-0.262778
0.237793
0.81224
1.40623
1.93841
2.37811
2.60126
2.43038
2.56748
2.59682
2.64894
2.71786
2.82651
2.95908
3.11477
3.26497
3.39719
3.61655
3.56334
2.84769
3.47472
3.53318
3.60914
3.70437
3.81434
3.92746
4.0313
4.09179
4.08439
4.07651
3.93104
2.90202
4.8981
4.98289
5.05213
5.1064
5.14558
5.16511
5.15706
5.08723
4.93225
4.73311
4.45036
3.13787
6.11766
6.17911
6.22201
6.24671
6.25153
6.23071
6.17308
6.06295
5.86005
5.57404
5.23471
3.72853
7.2316
7.27994
7.30946
7.32053
7.31168
7.27843
7.20946
7.09277
6.89853
6.60344
6.24602
4.75076
8.2529
8.28809
8.308
8.31372
8.30472
8.2783
8.22756
8.14124
7.99756
7.77015
7.49146
6.16085
9.18718
9.21085
9.22494
9.23157
9.23187
9.22554
9.20991
9.17934
9.12421
9.02323
8.9168
7.94444
10.0374
10.0509
10.0609
10.071
10.0842
10.1033
10.1302
10.167
10.219
10.2845
10.439
10.0265
10.8067
10.8109
10.817
10.8296
10.8541
10.897
10.964
11.0664
11.2234
11.4628
11.9903
12.3335
11.4934
11.4909
11.4935
11.5056
11.5354
11.5938
11.6893
11.841
12.0761
12.461
13.4008
14.6656
12.0944
12.0895
12.0903
12.1002
12.1279
12.1884
12.292
12.4619
12.7179
13.1524
14.1976
16.1765
12.9357
13.1288
13.0208
12.8992
12.838
12.7809
12.7241
12.6743
12.6369
12.613
12.6043
12.6018
13.2927
13.1633
13.161
13.1174
13.0889
13.0523
13.0123
12.9812
12.9665
12.9684
12.9885
13.0122
13.4262
13.3407
13.3167
13.2663
13.2289
13.196
13.1718
13.1662
13.1848
13.2261
13.2902
13.3552
13.5113
13.4397
13.3839
13.321
13.271
13.2383
13.2298
13.2557
13.3213
13.4252
13.5631
13.7084
12.6076
12.6066
12.6082
12.6152
12.6352
12.6843
12.7741
12.9283
13.1404
13.4515
13.8114
14.7832
13.0433
13.0514
13.056
13.0573
13.0631
13.0887
13.1465
13.2619
13.4152
13.6413
13.7476
14.0375
13.4237
13.4403
13.4478
13.4372
13.42
13.4099
13.4191
13.4749
13.5553
13.7097
13.7387
13.8244
13.8385
13.8496
13.8535
13.8164
13.7572
13.6871
13.6175
13.5774
13.5555
13.6191
13.6096
13.6857
12.9359
13.1288
13.0207
12.8993
12.8381
12.7811
12.7243
12.6746
12.6373
12.6134
12.6047
12.6022
13.293
13.1633
13.161
13.1175
13.089
13.0525
13.0125
12.9814
12.9667
12.9687
12.9889
13.0126
13.4264
13.3407
13.3166
13.2663
13.2289
13.1961
13.1719
13.1663
13.185
13.2263
13.2905
13.3556
13.5117
13.4397
13.3839
13.3209
13.271
13.2382
13.2298
13.2557
13.3214
13.4253
13.5634
13.7088
12.608
12.607
12.6086
12.6156
12.6356
12.6847
12.7744
12.9286
13.1407
13.4517
13.8117
14.7833
13.0437
13.0518
13.0564
13.0576
13.0635
13.089
13.1468
13.2622
13.4154
13.6416
13.7477
14.0376
13.4242
13.4407
13.4482
13.4376
13.4204
13.4102
13.4194
13.4751
13.5555
13.7099
13.7388
13.8244
13.839
13.8501
13.8539
13.8167
13.7575
13.6873
13.6177
13.5775
13.5556
13.6192
13.6096
13.6857
12.9354
13.1286
13.0206
12.8991
12.838
12.781
12.7243
12.6747
12.6374
12.6136
12.6049
12.6024
13.2928
13.1632
13.1609
13.1174
13.089
13.0525
13.0126
12.9816
12.967
12.969
12.9891
13.0128
13.4264
13.3407
13.3166
13.2663
13.229
13.1963
13.1721
13.1666
13.1853
13.2267
13.2907
13.3558
13.5116
13.4397
13.3839
13.3211
13.2712
13.2386
13.2302
13.2562
13.3219
13.4257
13.5637
13.709
12.6082
12.6072
12.6088
12.6158
12.6358
12.685
12.7748
12.929
13.141
13.4521
13.812
14.7841
13.0439
13.052
13.0566
13.0578
13.0637
13.0893
13.1471
13.2625
13.4158
13.6418
13.748
14.0382
13.4243
13.4409
13.4484
13.4378
13.4206
13.4105
13.4197
13.4754
13.5559
13.7103
13.7392
13.825
13.8391
13.8502
13.854
13.8168
13.7576
13.6875
13.6179
13.5779
13.556
13.6197
13.6101
13.6863
12.9363
13.1293
13.0213
12.8998
12.8387
12.7816
12.7248
12.6751
12.6377
12.6138
12.605
12.6025
13.2936
13.1639
13.1617
13.1182
13.0897
13.0531
13.0131
12.9821
12.9673
12.9692
12.9893
13.0129
13.427
13.3414
13.3173
13.267
13.2297
13.1969
13.1727
13.1671
13.1857
13.2269
13.2909
13.3559
13.5123
13.4404
13.3846
13.3217
13.2719
13.2392
13.2309
13.2567
13.3224
13.4261
13.5639
13.7091
12.6082
12.6071
12.6087
12.6156
12.6356
12.6848
12.7745
12.9287
13.1408
13.4519
13.8119
14.7835
13.0439
13.0519
13.0565
13.0577
13.0635
13.089
13.1468
13.2622
13.4155
13.6417
13.7478
14.0376
13.4244
13.4408
13.4483
13.4376
13.4204
13.4102
13.4194
13.4751
13.5555
13.7099
13.7389
13.8243
13.8391
13.8502
13.854
13.8167
13.7575
13.6873
13.6176
13.5775
13.5555
13.6192
13.6096
13.6855
13.6046
13.5541
13.4948
13.4337
13.3798
13.3418
13.3281
13.3479
13.4067
13.5047
13.6343
13.7868
13.716
13.6701
13.6174
13.5644
13.5155
13.4766
13.4544
13.4564
13.4882
13.5505
13.6375
13.7476
13.7988
13.7559
13.7077
13.6587
13.6107
13.5681
13.5367
13.524
13.5372
13.5791
13.6463
13.7393
13.859
13.8179
13.7717
13.7233
13.6727
13.6235
13.5814
13.555
13.5541
13.5852
13.6454
13.6911
13.9751
14.0059
14.0325
14.0044
13.9515
13.8788
13.7973
13.7262
13.6654
13.6618
13.6237
13.6669
13.962
13.9914
14.0337
14.0263
14.0008
13.9602
13.9138
13.8729
13.8357
13.8234
13.7843
13.7795
14.0102
14.0132
14.06
14.0629
14.0509
14.026
13.9956
13.9666
13.9373
13.9184
13.8801
13.8566
14.1556
14.0737
14.0996
14.1028
14.0953
14.078
14.0552
14.0307
14.0034
13.9794
13.9411
13.9099
13.6049
13.5542
13.4948
13.4336
13.3797
13.3417
13.3281
13.3479
13.4068
13.5048
13.6345
13.7872
13.7163
13.6702
13.6175
13.5644
13.5155
13.4766
13.4544
13.4564
13.4883
13.5506
13.6377
13.7479
13.799
13.756
13.7077
13.6587
13.6107
13.5681
13.5367
13.524
13.5373
13.5791
13.6464
13.7395
13.8592
13.818
13.7717
13.7233
13.6727
13.6236
13.5814
13.555
13.5542
13.5852
13.6454
13.6912
13.9756
14.0064
14.033
14.0048
13.9518
13.879
13.7975
13.7264
13.6655
13.6619
13.6238
13.667
13.9624
13.9918
14.0342
14.0267
14.0012
13.9605
13.914
13.8731
13.8359
13.8236
13.7844
13.7796
14.0107
14.0137
14.0605
14.0633
14.0513
14.0264
13.9959
13.9669
13.9375
13.9186
13.8803
13.8568
14.1562
14.0742
14.1001
14.1033
14.0957
14.0784
14.0555
14.031
14.0036
13.9797
13.9413
13.9101
13.6049
13.5543
13.4949
13.4338
13.38
13.3421
13.3285
13.3484
13.4072
13.5052
13.6348
13.7874
13.7164
13.6703
13.6176
13.5646
13.5158
13.477
13.4548
13.4569
13.4887
13.551
13.638
13.7482
13.7992
13.7561
13.7079
13.659
13.611
13.5685
13.5371
13.5244
13.5377
13.5795
13.6468
13.7398
13.8593
13.8181
13.7719
13.7235
13.673
13.6239
13.5818
13.5554
13.5546
13.5856
13.6458
13.6915
13.9757
14.0065
14.033
14.0049
13.9519
13.8792
13.7978
13.7267
13.6659
13.6624
13.6243
13.6675
13.9626
13.9919
14.0343
14.0268
14.0014
13.9608
13.9144
13.8735
13.8363
13.824
13.7849
13.7801
14.0109
14.0139
14.0606
14.0635
14.0515
14.0267
13.9963
13.9673
13.9379
13.9191
13.8807
13.8573
14.1564
14.0744
14.1003
14.1035
14.0959
14.0787
14.0559
14.0313
14.0041
13.9801
13.9418
13.9106
13.6056
13.5549
13.4955
13.4345
13.3807
13.3427
13.3291
13.3489
13.4078
13.5057
13.6351
13.7876
13.717
13.671
13.6183
13.5652
13.5164
13.4775
13.4553
13.4574
13.4892
13.5514
13.6383
13.7484
13.7997
13.7567
13.7084
13.6595
13.6115
13.569
13.5375
13.5249
13.5381
13.5799
13.6471
13.74
13.8599
13.8187
13.7724
13.724
13.6735
13.6243
13.5822
13.5558
13.555
13.586
13.6461
13.6918
13.9757
14.0064
14.0329
14.0048
13.9517
13.879
13.7974
13.7263
13.6654
13.6618
13.6237
13.6667
13.9625
13.9919
14.0342
14.0266
14.0012
13.9605
13.914
13.873
13.8358
13.8235
13.7843
13.7793
14.0107
14.0137
14.0604
14.0633
14.0513
14.0263
13.9959
13.9668
13.9374
13.9185
13.8802
13.8565
14.156
14.0742
14.1
14.1032
14.0956
14.0783
14.0554
14.0309
14.0035
13.9796
13.9412
13.9098
13.9023
13.8611
13.8145
13.764
13.7082
13.6505
13.5961
13.5545
13.536
13.542
13.571
13.4901
13.9321
13.8892
13.8404
13.7857
13.7233
13.656
13.5893
13.5332
13.4983
13.4839
13.5117
13.4997
13.9516
13.9063
13.8539
13.7942
13.7248
13.6486
13.5718
13.5055
13.4628
13.447
13.4724
13.4912
13.9637
13.9157
13.8596
13.7948
13.7193
13.6362
13.5527
13.4818
13.4387
13.4288
13.4557
13.4889
13.9707
13.9204
13.861
13.7919
13.7118
13.6242
13.5375
13.4665
13.4265
13.4231
13.4555
13.4966
13.9747
13.9227
13.8608
13.7884
13.7053
13.6155
13.5282
13.4596
13.4244
13.4276
13.4676
13.512
13.9773
13.9242
13.8608
13.7864
13.7017
13.6112
13.5249
13.4599
13.4295
13.439
13.4859
13.5324
13.9798
13.9262
13.8623
13.7871
13.7018
13.6116
13.5269
13.4655
13.4392
13.4544
13.507
13.5538
13.9835
13.9302
13.8666
13.7916
13.7065
13.6168
13.5333
13.4747
13.451
13.4704
13.5267
13.5734
13.9902
13.9386
13.8764
13.8024
13.7179
13.6283
13.5443
13.4865
13.4621
13.4831
13.5412
13.59
14.0017
13.9535
13.8943
13.8224
13.7389
13.6484
13.5616
13.5013
13.4714
13.4911
13.551
13.6013
14.0115
13.9669
13.9116
13.8432
13.7622
13.6724
13.5858
13.5152
13.4835
13.4999
13.5563
13.6017
14.438
14.2049
14.1465
14.1392
14.1305
14.1168
14.098
14.0756
14.049
14.0222
13.9842
13.9492
14.4255
14.2603
14.1803
14.1666
14.1572
14.1453
14.1284
14.1068
14.0802
14.0516
14.0144
13.9773
14.3856
14.2604
14.2012
14.1855
14.1771
14.1658
14.1498
14.1282
14.1012
14.0713
14.0345
13.9964
14.3442
14.2483
14.2134
14.1983
14.1914
14.1806
14.1647
14.1426
14.1152
14.0842
14.0474
14.0085
14.3099
14.2379
14.2206
14.2074
14.2017
14.1911
14.1749
14.1522
14.1242
14.0924
14.0555
14.0159
14.2865
14.2317
14.2251
14.2141
14.2091
14.1986
14.1817
14.1584
14.1298
14.0974
14.0606
14.0204
14.2748
14.2305
14.2285
14.2192
14.2143
14.2037
14.1862
14.1621
14.1332
14.1005
14.0638
14.0233
14.2725
14.2351
14.2318
14.2233
14.2178
14.2069
14.1887
14.1641
14.1349
14.1024
14.0661
14.0258
14.2762
14.245
14.2352
14.2261
14.2192
14.2081
14.1896
14.1646
14.1357
14.1037
14.0683
14.0287
14.2836
14.2578
14.2387
14.2264
14.2173
14.2061
14.1879
14.1635
14.1356
14.1051
14.0714
14.0337
14.2915
14.2683
14.242
14.2242
14.2121
14.2003
14.1827
14.16
14.1346
14.107
14.0764
14.0419
14.3003
14.2789
14.2465
14.2238
14.2086
14.195
14.1774
14.1564
14.1334
14.1082
14.0802
14.0485
13.9024
13.8611
13.8146
13.764
13.7083
13.6505
13.5962
13.5546
13.536
13.542
13.5709
13.49
13.9322
13.8893
13.8404
13.7857
13.7233
13.656
13.5894
13.5332
13.4984
13.4839
13.5116
13.4997
13.9517
13.9062
13.8539
13.7942
13.7248
13.6486
13.5718
13.5055
13.4628
13.447
13.4724
13.4912
13.9637
13.9157
13.8596
13.7948
13.7193
13.6362
13.5528
13.4818
13.4388
13.4288
13.4557
13.4889
13.9707
13.9204
13.8609
13.7918
13.7118
13.6242
13.5376
13.4665
13.4266
13.4231
13.4555
13.4966
13.9746
13.9226
13.8607
13.7884
13.7053
13.6155
13.5283
13.4597
13.4244
13.4276
13.4676
13.512
13.9772
13.9241
13.8607
13.7864
13.7016
13.6112
13.5249
13.4599
13.4295
13.439
13.4859
13.5324
13.9797
13.9262
13.8622
13.7871
13.7018
13.6116
13.5269
13.4655
13.4392
13.4544
13.507
13.5538
13.9833
13.9302
13.8665
13.7915
13.7065
13.6168
13.5333
13.4747
13.451
13.4704
13.5268
13.5735
13.9901
13.9385
13.8763
13.8023
13.7179
13.6283
13.5443
13.4865
13.4621
13.4831
13.5412
13.59
14.0016
13.9534
13.8942
13.8224
13.7388
13.6483
13.5616
13.5013
13.4714
13.4911
13.551
13.6014
14.0114
13.9668
13.9115
13.8431
13.7622
13.6723
13.5858
13.5152
13.4835
13.4999
13.5563
13.6018
14.4388
14.2056
14.147
14.1396
14.1309
14.1172
14.0983
14.0759
14.0493
14.0225
13.9845
13.9494
14.4263
14.261
14.1809
14.1671
14.1577
14.1457
14.1287
14.1071
14.0806
14.0519
14.0146
13.9776
14.3864
14.2611
14.2018
14.186
14.1775
14.1663
14.1502
14.1285
14.1016
14.0716
14.0347
13.9966
14.345
14.249
14.214
14.1989
14.1918
14.181
14.1651
14.143
14.1155
14.0845
14.0477
14.0088
14.3107
14.2386
14.2212
14.2079
14.2021
14.1916
14.1753
14.1526
14.1246
14.0927
14.0558
14.0162
14.2873
14.2324
14.2257
14.2146
14.2095
14.199
14.1822
14.1588
14.1302
14.0978
14.0609
14.0207
14.2756
14.2312
14.2291
14.2197
14.2148
14.2041
14.1866
14.1625
14.1335
14.1009
14.0641
14.0236
14.2733
14.2359
14.2323
14.2238
14.2183
14.2074
14.1892
14.1645
14.1353
14.1027
14.0664
14.0261
14.277
14.2458
14.2357
14.2265
14.2196
14.2085
14.19
14.165
14.1361
14.1041
14.0686
14.0291
14.2845
14.2586
14.2391
14.2267
14.2177
14.2065
14.1883
14.1639
14.136
14.1055
14.0718
14.034
14.2923
14.269
14.2424
14.2246
14.2124
14.2007
14.1831
14.1604
14.135
14.1073
14.0768
14.0422
14.3009
14.2798
14.2474
14.2243
14.209
14.1953
14.1778
14.1568
14.1337
14.1086
14.0806
14.0489
13.9026
13.8613
13.8148
13.7642
13.7085
13.6508
13.5965
13.555
13.5364
13.5424
13.5713
13.4903
13.9324
13.8895
13.8407
13.786
13.7236
13.6563
13.5897
13.5336
13.4987
13.4843
13.512
13.5
13.9519
13.9065
13.8542
13.7944
13.7251
13.6489
13.5722
13.5059
13.4632
13.4474
13.4727
13.4914
13.9639
13.9159
13.8598
13.795
13.7196
13.6366
13.5531
13.4822
13.4391
13.4291
13.456
13.4892
13.9709
13.9207
13.8612
13.7921
13.7121
13.6245
13.5379
13.4669
13.4269
13.4234
13.4558
13.4969
13.9749
13.9229
13.861
13.7887
13.7056
13.6158
13.5286
13.46
13.4247
13.4279
13.4679
13.5123
13.9775
13.9244
13.861
13.7867
13.702
13.6115
13.5253
13.4603
13.4299
13.4394
13.4862
13.5327
13.98
13.9265
13.8625
13.7874
13.7021
13.6119
13.5272
13.4658
13.4396
13.4547
13.5073
13.5541
13.9836
13.9305
13.8668
13.7919
13.7068
13.6172
13.5336
13.475
13.4513
13.4708
13.527
13.5737
13.9904
13.9388
13.8766
13.8026
13.7182
13.6287
13.5447
13.4869
13.4624
13.4834
13.5415
13.5903
14.002
13.9537
13.8946
13.8227
13.7392
13.6487
13.5619
13.5016
13.4717
13.4914
13.5513
13.6016
14.0118
13.9672
13.9118
13.8435
13.7625
13.6727
13.5861
13.5156
13.4838
13.5002
13.5566
13.602
14.439
14.2057
14.1472
14.1398
14.1312
14.1175
14.0987
14.0763
14.0497
14.0229
13.9849
13.9499
14.4265
14.2611
14.181
14.1673
14.1579
14.146
14.1291
14.1075
14.081
14.0524
14.0151
13.978
14.3865
14.2611
14.2019
14.1862
14.1778
14.1666
14.1505
14.1289
14.102
14.072
14.0352
13.997
14.3451
14.249
14.2141
14.1991
14.1921
14.1813
14.1654
14.1434
14.1159
14.0849
14.0481
14.0092
14.3107
14.2386
14.2213
14.2081
14.2024
14.1919
14.1756
14.153
14.125
14.0931
14.0562
14.0166
14.2873
14.2324
14.2258
14.2148
14.2098
14.1993
14.1825
14.1591
14.1306
14.0982
14.0613
14.0211
14.2756
14.2312
14.2292
14.22
14.2151
14.2045
14.1869
14.1629
14.1339
14.1012
14.0645
14.024
14.2733
14.2359
14.2325
14.224
14.2186
14.2077
14.1895
14.1648
14.1357
14.1031
14.0668
14.0265
14.277
14.2458
14.236
14.2268
14.22
14.2089
14.1903
14.1654
14.1364
14.1044
14.069
14.0294
14.2845
14.2586
14.2394
14.2271
14.218
14.2068
14.1886
14.1642
14.1363
14.1058
14.0721
14.0344
14.2924
14.2691
14.2428
14.225
14.2128
14.201
14.1834
14.1607
14.1353
14.1077
14.0771
14.0426
14.3012
14.2798
14.2473
14.2246
14.2094
14.1957
14.1782
14.1572
14.1341
14.109
14.0809
14.0492
13.9031
13.8618
13.8153
13.7647
13.709
13.6512
13.5969
13.5553
13.5368
13.5428
13.5717
13.4908
13.9329
13.8899
13.8411
13.7864
13.724
13.6567
13.5901
13.534
13.4992
13.4847
13.5124
13.5004
13.9523
13.9069
13.8546
13.7948
13.7255
13.6493
13.5726
13.5063
13.4636
13.4478
13.4732
13.4919
13.9643
13.9163
13.8602
13.7954
13.72
13.6369
13.5535
13.4826
13.4396
13.4296
13.4565
13.4896
13.9713
13.921
13.8616
13.7925
13.7124
13.6249
13.5383
13.4673
13.4274
13.4239
13.4563
13.4973
13.9752
13.9232
13.8613
13.789
13.7059
13.6161
13.529
13.4605
13.4252
13.4284
13.4684
13.5128
13.9778
13.9247
13.8613
13.787
13.7023
13.6118
13.5257
13.4607
13.4303
13.4398
13.4867
13.5332
13.9803
13.9268
13.8628
13.7877
13.7024
13.6122
13.5276
13.4663
13.4401
13.4552
13.5078
13.5546
13.984
13.9308
13.8671
13.7921
13.7071
13.6175
13.534
13.4754
13.4518
13.4712
13.5275
13.5742
13.9907
13.9391
13.8769
13.8029
13.7185
13.629
13.5451
13.4873
13.4629
13.4839
13.5419
13.5908
14.0023
13.954
13.8948
13.823
13.7395
13.649
13.5623
13.502
13.4722
13.4919
13.5518
13.6021
14.0121
13.9675
13.9121
13.8437
13.7628
13.673
13.5865
13.516
13.4843
13.5007
13.5571
13.6025
14.4383
14.2053
14.1469
14.1395
14.1308
14.1171
14.0982
14.0758
14.0492
14.0223
13.9844
13.9491
14.4258
14.2607
14.1807
14.167
14.1576
14.1456
14.1286
14.107
14.0804
14.0518
14.0145
13.9773
14.3859
14.2607
14.2016
14.1859
14.1774
14.1661
14.15
14.1284
14.1014
14.0714
14.0346
13.9964
14.3445
14.2486
14.2138
14.1987
14.1917
14.1809
14.1649
14.1429
14.1154
14.0843
14.0475
14.0085
14.3102
14.2382
14.2209
14.2077
14.202
14.1914
14.1751
14.1525
14.1244
14.0925
14.0556
14.016
14.2868
14.232
14.2254
14.2144
14.2094
14.1989
14.182
14.1586
14.13
14.0976
14.0607
14.0205
14.2751
14.2308
14.2288
14.2195
14.2146
14.204
14.1864
14.1623
14.1333
14.1007
14.0639
14.0234
14.2728
14.2354
14.2321
14.2236
14.2181
14.2072
14.189
14.1643
14.1351
14.1025
14.0662
14.0259
14.2765
14.2453
14.2355
14.2264
14.2195
14.2084
14.1898
14.1648
14.1358
14.1039
14.0684
14.0289
14.2839
14.2581
14.239
14.2267
14.2175
14.2064
14.1881
14.1637
14.1358
14.1052
14.0715
14.0338
14.2918
14.2685
14.2423
14.2245
14.2123
14.2006
14.1829
14.1602
14.1348
14.1071
14.0765
14.042
14.3006
14.2792
14.2468
14.2241
14.2089
14.1952
14.1777
14.1566
14.1336
14.1084
14.0803
14.0486
)
;

boundaryField
{
    rotor
    {
        type            zeroGradient;
    }
    stator
    {
        type            zeroGradient;
    }
    front
    {
        type            empty;
    }
    back
    {
        type            empty;
    }
}


// ************************************************************************* //
