/*--------------------------------*- C++ -*----------------------------------*\
  =========                 |
  \\      /  F ield         | OpenFOAM: The Open Source CFD Toolbox
   \\    /   O peration     | Website:  https://openfoam.org
    \\  /    A nd           | Version:  6
     \\/     M anipulation  |
\*---------------------------------------------------------------------------*/
FoamFile
{
    version     2.0;
    format      ascii;
    class       surfaceScalarField;
    location    "300";
    object      phi;
}
// * * * * * * * * * * * * * * * * * * * * * * * * * * * * * * * * * * * * * //

dimensions      [0 3 -1 0 0 0 0];

internalField   nonuniform List<scalar> 
5952
(
5.12162e-06
-5.16325e-06
8.96142e-06
-3.84222e-06
1.18325e-05
-2.86783e-06
1.30165e-05
-1.18348e-06
1.20606e-05
9.60201e-07
8.17847e-06
3.89273e-06
1.86114e-06
6.32146e-06
-1.09295e-05
1.27971e-05
-2.62609e-05
1.53311e-05
-3.81141e-05
1.18529e-05
-4.7577e-05
9.46151e-06
6.88709e-06
-5.44658e-05
1.86716e-06
-7.03207e-06
3.33166e-06
-5.30701e-06
2.21144e-06
-1.74603e-06
-1.485e-06
2.51654e-06
-9.13234e-06
8.61004e-06
-2.07152e-05
1.54783e-05
-3.30185e-05
1.8626e-05
-3.97056e-05
1.94858e-05
-4.23164e-05
1.7942e-05
-4.50901e-05
1.46262e-05
-4.74862e-05
1.18569e-05
9.05632e-06
-4.96567e-05
4.24994e-07
-7.45854e-06
-1.60267e-06
-3.27953e-06
-6.42738e-06
3.08028e-06
-1.47343e-05
1.08254e-05
-2.3875e-05
1.77524e-05
-2.98532e-05
2.14584e-05
-3.33368e-05
2.21108e-05
-3.502e-05
2.11701e-05
-3.58598e-05
1.87819e-05
-3.69731e-05
1.57393e-05
-3.79907e-05
1.28739e-05
9.96054e-06
-3.88957e-05
-3.36997e-06
-4.08994e-06
-8.09873e-06
1.44916e-06
-1.40734e-05
9.05626e-06
-1.9946e-05
1.66996e-05
-2.40539e-05
2.18618e-05
-2.62188e-05
2.3625e-05
-2.72603e-05
2.31534e-05
-2.76762e-05
2.15868e-05
-2.79364e-05
1.90423e-05
-2.83087e-05
1.61116e-05
-2.86354e-05
1.32002e-05
1.02426e-05
-2.89179e-05
-4.73921e-06
6.47452e-07
-9.91082e-06
6.62054e-06
-1.44323e-05
1.35788e-05
-1.76715e-05
1.99403e-05
-1.9252e-05
2.34439e-05
-1.97065e-05
2.40809e-05
-1.96281e-05
2.30759e-05
-1.92044e-05
2.11639e-05
-1.88524e-05
1.86905e-05
-1.86813e-05
1.59406e-05
-1.86113e-05
1.31299e-05
1.02592e-05
-1.86282e-05
-4.93597e-06
5.58109e-06
-9.12523e-06
1.08103e-05
-1.20115e-05
1.64657e-05
-1.32874e-05
2.12179e-05
-1.32437e-05
2.34015e-05
-1.25278e-05
2.33663e-05
-1.15645e-05
2.21137e-05
-1.06073e-05
2.02073e-05
-9.82493e-06
1.79085e-05
-9.27233e-06
1.5388e-05
-8.90578e-06
1.27634e-05
1.00472e-05
-8.69387e-06
-4.3172e-06
9.89804e-06
-7.50471e-06
1.39974e-05
-8.94939e-06
1.79114e-05
-8.6431e-06
2.09126e-05
-7.25737e-06
2.20169e-05
-5.50608e-06
2.16161e-05
-3.7751e-06
2.03835e-05
-2.24986e-06
1.86827e-05
-1.01785e-06
1.66768e-05
-9.22699e-08
1.44628e-05
5.69409e-07
1.21019e-05
9.60537e-06
1.01131e-06
-3.8633e-06
1.3761e-05
-5.97092e-06
1.61051e-05
-5.96308e-06
1.79038e-05
-4.18612e-06
1.91361e-05
-1.56174e-06
1.93931e-05
1.17997e-06
1.88749e-05
3.69167e-06
1.78723e-05
5.83126e-06
1.65436e-05
7.55548e-06
1.49529e-05
8.88154e-06
1.31369e-05
9.86433e-06
1.11192e-05
8.90882e-06
1.0561e-05
-3.32319e-06
1.70837e-05
-4.39665e-06
1.71783e-05
-2.76742e-06
1.62744e-05
4.51915e-07
1.59167e-05
4.23752e-06
1.56076e-05
7.91445e-06
1.51981e-05
1.11777e-05
1.46092e-05
1.39204e-05
1.38012e-05
1.61328e-05
1.27407e-05
1.78574e-05
1.14125e-05
1.91657e-05
9.81105e-06
7.94606e-06
2.01286e-05
-3.54639e-06
2.06307e-05
-2.10749e-06
1.57395e-05
2.07072e-06
1.20962e-05
6.84416e-06
1.11433e-05
1.1623e-05
1.08289e-05
1.59858e-05
1.08354e-05
1.97503e-05
1.08449e-05
2.28773e-05
1.06743e-05
2.5398e-05
1.02201e-05
2.73776e-05
9.43302e-06
2.89039e-05
8.2849e-06
6.79338e-06
3.00567e-05
2.77752e-07
2.03549e-05
6.24337e-06
9.7747e-06
1.25652e-05
5.7748e-06
1.82681e-05
5.44068e-06
2.32528e-05
5.84447e-06
2.75029e-05
6.58555e-06
3.10625e-05
7.28553e-06
3.39855e-05
7.7516e-06
3.6341e-05
7.8648e-06
3.82019e-05
7.5723e-06
3.96592e-05
6.82772e-06
5.66723e-06
4.07855e-05
2.03657e-05
-1.03942e-08
2.87108e-05
1.43028e-06
3.3971e-05
5.15178e-07
3.81082e-05
1.30385e-06
4.13513e-05
2.60181e-06
4.40182e-05
3.91892e-06
4.62587e-05
5.04536e-06
4.81245e-05
5.88615e-06
4.96512e-05
6.33825e-06
5.08722e-05
6.3515e-06
5.18539e-05
5.8462e-06
5.26394e-05
4.88191e-06
-5.94785e-05
5.0117e-06
-6.23439e-05
2.86407e-06
-6.34889e-05
1.14479e-06
-6.28121e-05
-6.77562e-07
-6.05159e-05
-2.29601e-06
-5.64265e-05
-4.08966e-06
-5.04948e-05
-5.93126e-06
-4.2561e-05
-7.93334e-06
-3.25181e-05
-1.00424e-05
-2.05257e-05
-1.19916e-05
-8.43667e-06
-1.20874e-05
-8.43612e-06
-5.09581e-05
6.3124e-06
-5.17571e-05
3.66193e-06
-5.18172e-05
1.20461e-06
-5.12712e-05
-1.22409e-06
-4.98781e-05
-3.68901e-06
-4.7589e-05
-6.37884e-06
-4.41676e-05
-9.35223e-06
-3.94063e-05
-1.2694e-05
-3.30322e-05
-1.64158e-05
-2.48238e-05
-2.01993e-05
-1.38089e-05
-2.31013e-05
-2.22446e-05
-3.96271e-05
7.04315e-06
-4.01454e-05
4.17959e-06
-4.03071e-05
1.36606e-06
-3.99994e-05
-1.53218e-06
-3.90735e-05
-4.61486e-06
-3.74616e-05
-7.99075e-06
-3.50365e-05
-1.1777e-05
-3.16964e-05
-1.60335e-05
-2.73198e-05
-2.07919e-05
-2.13886e-05
-2.613e-05
-1.29954e-05
-3.14937e-05
-3.52397e-05
-2.91629e-05
7.28776e-06
-2.93123e-05
4.32856e-06
-2.92577e-05
1.31127e-06
-2.89236e-05
-1.8665e-06
-2.82376e-05
-5.3009e-06
-2.71401e-05
-9.08813e-06
-2.55447e-05
-1.3372e-05
-2.33508e-05
-1.82271e-05
-2.03765e-05
-2.37659e-05
-1.6159e-05
-3.0347e-05
-9.83713e-06
-3.78148e-05
-4.50767e-05
-1.86863e-05
7.3456e-06
-1.87231e-05
4.36505e-06
-1.86746e-05
1.26268e-06
-1.84964e-05
-2.04484e-06
-1.81496e-05
-5.64768e-06
-1.75906e-05
-9.64698e-06
-1.67671e-05
-1.41953e-05
-1.56057e-05
-1.93882e-05
-1.39108e-05
-2.54603e-05
-1.15126e-05
-3.27449e-05
-7.53603e-06
-4.17912e-05
-5.26127e-05
-8.5896e-06
7.24122e-06
-8.54475e-06
4.32009e-06
-8.51849e-06
1.23637e-06
-8.48514e-06
-2.07811e-06
-8.42761e-06
-5.70512e-06
-8.32976e-06
-9.74449e-06
-8.19687e-06
-1.43279e-05
-7.97837e-06
-1.96061e-05
-7.58975e-06
-2.58489e-05
-6.84365e-06
-3.34907e-05
-4.99472e-06
-4.36399e-05
-5.76074e-05
1.28104e-06
6.97153e-06
1.41827e-06
4.18288e-06
1.44973e-06
1.20508e-06
1.38477e-06
-2.01299e-06
1.21772e-06
-5.53765e-06
9.30078e-07
-9.45648e-06
4.90285e-07
-1.38875e-05
-1.18322e-07
-1.89973e-05
-8.8487e-07
-2.50817e-05
-1.70727e-06
-3.2668e-05
-2.17117e-06
-4.31757e-05
-5.97782e-05
1.10255e-05
6.50714e-06
1.12955e-05
3.91303e-06
1.13897e-05
1.11104e-06
1.13051e-05
-1.92798e-06
1.10157e-05
-5.24774e-06
1.04718e-05
-8.91196e-06
9.59541e-06
-1.30106e-05
8.29269e-06
-1.76937e-05
6.45794e-06
-2.32464e-05
4.04646e-06
-3.02558e-05
1.39005e-06
-4.05182e-05
-5.83872e-05
2.08114e-05
5.82442e-06
2.12545e-05
3.47015e-06
2.14738e-05
8.92042e-07
2.14583e-05
-1.91193e-06
2.11669e-05
-4.95579e-06
2.05242e-05
-8.26851e-06
1.94018e-05
-1.18873e-05
1.76209e-05
-1.5912e-05
1.49267e-05
-2.05513e-05
1.10421e-05
-2.63697e-05
6.00429e-06
-3.54787e-05
-5.23822e-05
3.09146e-05
4.96671e-06
3.15209e-05
2.86401e-06
3.1893e-05
5.20318e-07
3.20153e-05
-2.03374e-06
3.18368e-05
-4.77666e-06
3.12649e-05
-7.69587e-06
3.01268e-05
-1.07484e-05
2.81633e-05
-1.39477e-05
2.49514e-05
-1.7338e-05
1.99687e-05
-2.13862e-05
1.23512e-05
-2.78596e-05
-4.0029e-05
4.16691e-05
4.08325e-06
4.23482e-05
2.18515e-06
4.28411e-05
2.77391e-08
4.31302e-05
-2.32236e-06
4.31573e-05
-4.80307e-06
4.28196e-05
-7.35746e-06
4.1917e-05
-9.84492e-06
4.01485e-05
-1.21783e-05
3.694e-05
-1.41289e-05
3.1525e-05
-1.59696e-05
2.13473e-05
-1.76801e-05
-1.86809e-05
5.33268e-05
3.39593e-06
5.39344e-05
1.5778e-06
5.44769e-05
-5.14596e-07
5.49309e-05
-2.776e-06
5.52288e-05
-5.10055e-06
5.52604e-05
-7.38854e-06
5.48212e-05
-9.40523e-06
5.36342e-05
-1.09907e-05
5.11541e-05
-1.16476e-05
4.63931e-05
-1.12086e-05
3.56105e-05
-6.89662e-06
1.69308e-05
5.16162e-06
-5.1666e-06
8.99138e-06
-3.83492e-06
1.18551e-05
-2.86297e-06
1.30346e-05
-1.18156e-06
1.20787e-05
9.58476e-07
8.19809e-06
3.88999e-06
1.88576e-06
6.31671e-06
-1.08888e-05
1.27819e-05
-2.62249e-05
1.53367e-05
-3.80861e-05
1.18619e-05
-4.75534e-05
9.46688e-06
6.89218e-06
-5.44464e-05
1.86075e-06
-7.03103e-06
3.33592e-06
-5.31219e-06
2.22379e-06
-1.75176e-06
-1.46581e-06
2.50917e-06
-9.10286e-06
8.59686e-06
-2.06815e-05
1.5471e-05
-3.29902e-05
1.86268e-05
-3.96955e-05
1.9489e-05
-4.23089e-05
1.79507e-05
-4.50812e-05
1.46342e-05
-4.74779e-05
1.18634e-05
9.06231e-06
-4.96487e-05
4.31962e-07
-7.46521e-06
-1.58973e-06
-3.29204e-06
-6.40672e-06
3.06562e-06
-1.47098e-05
1.08132e-05
-2.3859e-05
1.77473e-05
-2.98453e-05
2.14589e-05
-3.33328e-05
2.21154e-05
-3.50184e-05
2.11758e-05
-3.58573e-05
1.87899e-05
-3.69695e-05
1.57465e-05
-3.79866e-05
1.28802e-05
9.96642e-06
-3.88913e-05
-3.36364e-06
-4.10372e-06
-8.08959e-06
1.43274e-06
-1.40653e-05
9.04215e-06
-1.99423e-05
1.66912e-05
-2.40537e-05
2.186e-05
-2.62206e-05
2.36272e-05
-2.72623e-05
2.31581e-05
-2.76779e-05
2.15924e-05
-2.79369e-05
1.90491e-05
-2.83083e-05
1.6118e-05
-2.86345e-05
1.32062e-05
1.02481e-05
-2.89165e-05
-4.73656e-06
6.29228e-07
-9.90876e-06
6.6052e-06
-1.44339e-05
1.35669e-05
-1.76755e-05
1.99346e-05
-1.92573e-05
2.3443e-05
-1.97116e-05
2.4083e-05
-1.96323e-05
2.308e-05
-1.92079e-05
2.11686e-05
-1.88544e-05
1.8696e-05
-1.86824e-05
1.5946e-05
-1.86115e-05
1.31353e-05
1.02641e-05
-1.86278e-05
-4.93607e-06
5.56492e-06
-9.12883e-06
1.07961e-05
-1.20165e-05
1.64562e-05
-1.32944e-05
2.1213e-05
-1.32505e-05
2.34008e-05
-1.25338e-05
2.33678e-05
-1.15695e-05
2.21167e-05
-1.0611e-05
2.02112e-05
-9.82766e-06
1.7913e-05
-9.274e-06
1.53929e-05
-8.90691e-06
1.27681e-05
1.00517e-05
-8.69436e-06
-4.32045e-06
9.88462e-06
-7.5096e-06
1.39859e-05
-8.95661e-06
1.79031e-05
-8.65075e-06
2.09083e-05
-7.2643e-06
2.20156e-05
-5.51197e-06
2.16167e-05
-3.77968e-06
2.03855e-05
-2.25355e-06
1.86858e-05
-1.02059e-06
1.66808e-05
-9.44513e-08
1.44671e-05
5.67724e-07
1.21063e-05
9.60961e-06
1.00996e-06
-3.86692e-06
1.37517e-05
-5.97694e-06
1.60956e-05
-5.97056e-06
1.78969e-05
-4.19352e-06
1.91318e-05
-1.56807e-06
1.93909e-05
1.1749e-06
1.88745e-05
3.68772e-06
1.78734e-05
5.82812e-06
1.6546e-05
7.55292e-06
1.49564e-05
8.87929e-06
1.31411e-05
9.86228e-06
1.11236e-05
8.91301e-06
1.05591e-05
-3.32677e-06
1.70793e-05
-4.40251e-06
1.71717e-05
-2.77436e-06
1.62689e-05
4.45436e-07
1.59122e-05
4.23224e-06
1.56045e-05
7.91045e-06
1.51967e-05
1.11747e-05
1.46096e-05
1.3918e-05
1.38032e-05
1.61307e-05
1.2744e-05
1.78553e-05
1.14167e-05
1.91636e-05
9.81552e-06
7.95035e-06
2.01264e-05
-3.54937e-06
2.06297e-05
-2.11225e-06
1.5735e-05
2.06551e-06
1.20914e-05
6.83952e-06
1.11385e-05
1.16193e-05
1.0825e-05
1.59831e-05
1.08332e-05
1.97483e-05
1.08447e-05
2.28756e-05
1.06762e-05
2.53964e-05
1.02235e-05
2.73758e-05
9.43743e-06
2.89019e-05
8.28962e-06
6.7979e-06
3.00545e-05
2.77327e-07
2.03542e-05
6.24143e-06
9.77169e-06
1.25632e-05
5.77015e-06
1.82664e-05
5.43565e-06
2.32515e-05
5.84043e-06
2.75019e-05
6.58325e-06
3.10616e-05
7.28548e-06
3.39844e-05
7.75369e-06
3.63397e-05
7.86856e-06
3.82003e-05
7.5771e-06
3.96573e-05
6.83277e-06
5.67198e-06
4.07834e-05
2.03667e-05
-1.14278e-08
2.87129e-05
1.42641e-06
3.39727e-05
5.11076e-07
3.81094e-05
1.29953e-06
4.13518e-05
2.59845e-06
4.40182e-05
3.91735e-06
4.62582e-05
5.04599e-06
4.81234e-05
5.88883e-06
4.96498e-05
6.34254e-06
5.08705e-05
6.35667e-06
5.1852e-05
5.85151e-06
5.26375e-05
4.88673e-06
-5.9462e-05
5.01529e-06
-6.23302e-05
2.86736e-06
-6.34776e-05
1.14755e-06
-6.28028e-05
-6.75356e-07
-6.05084e-05
-2.29414e-06
-5.64206e-05
-4.08815e-06
-5.049e-05
-5.93015e-06
-4.25572e-05
-7.93257e-06
-3.25149e-05
-1.0042e-05
-2.05228e-05
-1.19915e-05
-8.43457e-06
-1.20873e-05
-8.43425e-06
-5.0951e-05
6.31727e-06
-5.17506e-05
3.66622e-06
-5.18113e-05
1.20819e-06
-5.12661e-05
-1.22111e-06
-4.98736e-05
-3.68646e-06
-4.75852e-05
-6.37674e-06
-4.41645e-05
-9.35056e-06
-3.9404e-05
-1.26928e-05
-3.30305e-05
-1.6415e-05
-2.48228e-05
-2.01988e-05
-1.38088e-05
-2.31007e-05
-2.22429e-05
-3.96228e-05
7.0484e-06
-4.01413e-05
4.18417e-06
-4.03032e-05
1.36996e-06
-3.99959e-05
-1.52882e-06
-3.90703e-05
-4.61202e-06
-3.74588e-05
-7.98837e-06
-3.50341e-05
-1.17751e-05
-3.16946e-05
-1.6032e-05
-2.73186e-05
-2.07908e-05
-2.13881e-05
-2.61292e-05
-1.29956e-05
-3.14928e-05
-3.52383e-05
-2.9161e-05
7.2926e-06
-2.931e-05
4.3328e-06
-2.92552e-05
1.31501e-06
-2.89211e-05
-1.86321e-06
-2.82351e-05
-5.298e-06
-2.71379e-05
-9.08563e-06
-2.55429e-05
-1.33699e-05
-2.33495e-05
-1.82253e-05
-2.03756e-05
-2.37645e-05
-1.61585e-05
-3.03461e-05
-9.83699e-06
-3.78139e-05
-4.50754e-05
-1.86854e-05
7.35004e-06
-1.87218e-05
4.36898e-06
-1.86731e-05
1.26621e-06
-1.84948e-05
-2.04164e-06
-1.8148e-05
-5.64486e-06
-1.75891e-05
-9.6444e-06
-1.67659e-05
-1.41931e-05
-1.56047e-05
-1.93863e-05
-1.39103e-05
-2.54588e-05
-1.15123e-05
-3.27436e-05
-7.5364e-06
-4.17902e-05
-5.26116e-05
-8.58973e-06
7.24531e-06
-8.54454e-06
4.32378e-06
-8.518e-06
1.23972e-06
-8.48453e-06
-2.07512e-06
-8.42681e-06
-5.70232e-06
-8.32908e-06
-9.74204e-06
-8.19618e-06
-1.43256e-05
-7.978e-06
-1.96042e-05
-7.58928e-06
-2.58471e-05
-6.84389e-06
-3.34895e-05
-4.99477e-06
-4.36388e-05
-5.76067e-05
1.27999e-06
6.97543e-06
1.41753e-06
4.18642e-06
1.44924e-06
1.20822e-06
1.38462e-06
-2.01012e-06
1.2177e-06
-5.5351e-06
9.30272e-07
-9.45411e-06
4.90447e-07
-1.38854e-05
-1.17998e-07
-1.89953e-05
-8.84942e-07
-2.50801e-05
-1.70724e-06
-3.26664e-05
-2.1717e-06
-4.31749e-05
-5.9778e-05
1.10237e-05
6.51099e-06
1.1294e-05
3.91642e-06
1.13886e-05
1.11402e-06
1.13043e-05
-1.92541e-06
1.10152e-05
-5.24542e-06
1.04715e-05
-8.9099e-06
9.59547e-06
-1.30087e-05
8.29283e-06
-1.7692e-05
6.45824e-06
-2.32447e-05
4.04638e-06
-3.02544e-05
1.38991e-06
-4.05173e-05
-5.83871e-05
2.08093e-05
5.82829e-06
2.12526e-05
3.47344e-06
2.14723e-05
8.94796e-07
2.14571e-05
-1.90968e-06
2.11662e-05
-4.95388e-06
2.0524e-05
-8.26688e-06
1.94019e-05
-1.18858e-05
1.76214e-05
-1.59105e-05
1.49272e-05
-2.05496e-05
1.10422e-05
-2.63682e-05
6.00447e-06
-3.54773e-05
-5.23819e-05
3.09124e-05
4.97062e-06
3.1519e-05
2.86721e-06
3.18914e-05
5.2276e-07
3.20142e-05
-2.03188e-06
3.18363e-05
-4.77531e-06
3.1265e-05
-7.69472e-06
3.01274e-05
-1.07473e-05
2.81643e-05
-1.39464e-05
2.49523e-05
-1.73365e-05
1.99698e-05
-2.13841e-05
1.23515e-05
-2.78583e-05
-4.00277e-05
4.16671e-05
4.08719e-06
4.23465e-05
2.18818e-06
4.28399e-05
2.98217e-08
4.31297e-05
-2.32104e-06
4.31573e-05
-4.80234e-06
4.28204e-05
-7.35697e-06
4.19183e-05
-9.84444e-06
4.01504e-05
-1.21774e-05
3.69421e-05
-1.41273e-05
3.15265e-05
-1.59679e-05
2.13489e-05
-1.76775e-05
-1.86777e-05
5.33252e-05
3.39975e-06
5.39332e-05
1.58043e-06
5.44764e-05
-5.13028e-07
5.49311e-05
-2.7754e-06
5.52298e-05
-5.10054e-06
5.52621e-05
-7.38884e-06
5.48237e-05
-9.40535e-06
5.36372e-05
-1.09903e-05
5.11571e-05
-1.16465e-05
4.63962e-05
-1.12058e-05
3.56127e-05
-6.89398e-06
1.69368e-05
5.53542e-06
-5.53524e-06
9.28812e-06
-3.75705e-06
1.20191e-05
-2.72953e-06
1.31151e-05
-1.09995e-06
1.21163e-05
1.00149e-06
8.20117e-06
3.92247e-06
1.86464e-06
6.34138e-06
-1.0949e-05
1.28201e-05
-2.62762e-05
1.53282e-05
-3.81215e-05
1.18456e-05
-4.75799e-05
9.45786e-06
6.8832e-06
-5.44643e-05
1.81672e-06
-7.35242e-06
3.39249e-06
-5.33381e-06
2.2784e-06
-1.6165e-06
-1.46529e-06
2.64286e-06
-9.14527e-06
8.68198e-06
-2.07332e-05
1.55122e-05
-3.30306e-05
1.864e-05
-3.96988e-05
1.94898e-05
-4.23078e-05
1.79377e-05
-4.50836e-05
1.46212e-05
-4.74794e-05
1.18532e-05
9.05268e-06
-4.96499e-05
6.58277e-08
-7.4191e-06
-1.88878e-06
-3.3798e-06
-6.57563e-06
3.07027e-06
-1.47957e-05
1.0863e-05
-2.38962e-05
1.77832e-05
-2.98569e-05
2.1474e-05
-3.33331e-05
2.21172e-05
-3.50131e-05
2.11707e-05
-3.58526e-05
1.87775e-05
-3.69665e-05
1.57351e-05
-3.7984e-05
1.28703e-05
9.95751e-06
-3.88895e-05
-3.31943e-06
-4.10075e-06
-8.13987e-06
1.44016e-06
-1.41256e-05
9.05632e-06
-1.99749e-05
1.67132e-05
-2.40638e-05
2.1873e-05
-2.62196e-05
2.36311e-05
-2.72562e-05
2.31548e-05
-2.767e-05
2.15853e-05
-2.79305e-05
1.90383e-05
-2.83031e-05
1.61078e-05
-2.86299e-05
1.3197e-05
1.024e-05
-2.89127e-05
-4.7366e-06
6.34631e-07
-9.9223e-06
6.62581e-06
-1.44499e-05
1.35848e-05
-1.76825e-05
1.9947e-05
-1.92555e-05
2.34473e-05
-1.9705e-05
2.40819e-05
-1.96237e-05
2.30745e-05
-1.91992e-05
2.11617e-05
-1.88477e-05
1.86871e-05
-1.86771e-05
1.59375e-05
-1.86075e-05
1.31274e-05
1.02573e-05
-1.86248e-05
-4.94048e-06
5.57405e-06
-9.12953e-06
1.08157e-05
-1.20156e-05
1.64718e-05
-1.32886e-05
2.12215e-05
-1.3242e-05
2.34021e-05
-1.25241e-05
2.33652e-05
-1.15603e-05
2.21118e-05
-1.06031e-05
2.02052e-05
-9.8214e-06
1.79061e-05
-9.26946e-06
1.53858e-05
-8.90344e-06
1.27616e-05
1.00458e-05
-8.69195e-06
-4.31928e-06
9.89416e-06
-7.50461e-06
1.40015e-05
-8.94735e-06
1.7916e-05
-8.63929e-06
2.09149e-05
-7.25278e-06
2.20168e-05
-5.50132e-06
2.1615e-05
-3.77081e-06
2.03822e-05
-2.24622e-06
1.86814e-05
-1.01508e-06
1.66754e-05
-9.02886e-08
1.44615e-05
5.70743e-07
1.21009e-05
9.6046e-06
1.01218e-06
-3.86215e-06
1.37569e-05
-5.96716e-06
1.61074e-05
-5.95738e-06
1.79069e-05
-4.17962e-06
1.91379e-05
-1.55547e-06
1.93934e-05
1.18563e-06
1.88745e-05
3.69645e-06
1.78719e-05
5.83505e-06
1.65434e-05
7.55819e-06
1.49528e-05
8.88328e-06
1.31369e-05
9.86528e-06
1.11192e-05
8.9088e-06
1.05614e-05
-3.31951e-06
1.70768e-05
-4.39144e-06
1.71797e-05
-2.76072e-06
1.62765e-05
4.59227e-07
1.59182e-05
4.24459e-06
1.56083e-05
7.92083e-06
1.51986e-05
1.11832e-05
1.46099e-05
1.39247e-05
1.38022e-05
1.61359e-05
1.27419e-05
1.78594e-05
1.14138e-05
1.91667e-05
9.81218e-06
7.94692e-06
2.01289e-05
-3.54384e-06
2.06219e-05
-2.10364e-06
1.574e-05
2.07611e-06
1.20971e-05
6.85046e-06
1.1144e-05
1.16294e-05
1.08296e-05
1.59917e-05
1.08364e-05
1.97555e-05
1.08464e-05
2.28815e-05
1.06765e-05
2.54011e-05
1.02227e-05
2.73796e-05
9.43558e-06
2.8905e-05
8.28717e-06
6.79513e-06
3.00571e-05
2.76792e-07
2.03473e-05
6.24536e-06
9.77232e-06
1.25683e-05
5.77456e-06
1.82721e-05
5.44062e-06
2.32569e-05
5.845e-06
2.75068e-05
6.58671e-06
3.10659e-05
7.28761e-06
3.39882e-05
7.75453e-06
3.6343e-05
7.86825e-06
3.82031e-05
7.57579e-06
3.96598e-05
6.83083e-06
5.66965e-06
4.07856e-05
2.0364e-05
-1.5631e-08
2.87101e-05
1.42702e-06
3.39712e-05
5.13949e-07
3.8109e-05
1.30319e-06
4.13523e-05
2.602e-06
4.40192e-05
3.92014e-06
4.62594e-05
5.04772e-06
4.81248e-05
5.88949e-06
4.96513e-05
6.34216e-06
5.0872e-05
6.35543e-06
5.18535e-05
5.84965e-06
5.2639e-05
4.88453e-06
-5.94746e-05
5.00972e-06
-6.23382e-05
2.86248e-06
-6.34822e-05
1.14389e-06
-6.28051e-05
-6.77785e-07
-6.05089e-05
-2.29606e-06
-5.642e-05
-4.08927e-06
-5.04889e-05
-5.93083e-06
-4.2556e-05
-7.93261e-06
-3.25141e-05
-1.00416e-05
-2.0523e-05
-1.19906e-05
-8.43571e-06
-1.20864e-05
-8.4354e-06
-5.09508e-05
6.31014e-06
-5.17496e-05
3.66038e-06
-5.18099e-05
1.20388e-06
-5.12641e-05
-1.22416e-06
-4.98715e-05
-3.68865e-06
-4.75829e-05
-6.37808e-06
-4.41623e-05
-9.35116e-06
-3.94019e-05
-1.26927e-05
-3.30288e-05
-1.64142e-05
-2.48216e-05
-2.01975e-05
-1.3808e-05
-2.30994e-05
-2.22432e-05
-3.96209e-05
7.04104e-06
-4.01394e-05
4.17827e-06
-4.03013e-05
1.36551e-06
-3.99938e-05
-1.53207e-06
-3.90683e-05
-4.6142e-06
-3.74569e-05
-7.98961e-06
-3.50324e-05
-1.17754e-05
-3.16931e-05
-1.60317e-05
-2.73172e-05
-2.07898e-05
-2.13867e-05
-2.61277e-05
-1.29944e-05
-3.14912e-05
-3.52373e-05
-2.91581e-05
7.28608e-06
-2.93078e-05
4.32763e-06
-2.92535e-05
1.31101e-06
-2.89196e-05
-1.86616e-06
-2.82339e-05
-5.3e-06
-2.71368e-05
-9.08674e-06
-2.55418e-05
-1.33702e-05
-2.33484e-05
-1.82249e-05
-2.03746e-05
-2.37633e-05
-1.61577e-05
-3.03442e-05
-9.83659e-06
-3.78119e-05
-4.50739e-05
-1.86832e-05
7.34433e-06
-1.87202e-05
4.3644e-06
-1.86719e-05
1.26259e-06
-1.84938e-05
-2.04439e-06
-1.81471e-05
-5.64673e-06
-1.75882e-05
-9.64553e-06
-1.67649e-05
-1.41933e-05
-1.56038e-05
-1.93858e-05
-1.39093e-05
-2.54574e-05
-1.15116e-05
-3.27418e-05
-7.53563e-06
-4.17879e-05
-5.26095e-05
-8.58793e-06
7.24033e-06
-8.54322e-06
4.31965e-06
-8.517e-06
1.23635e-06
-8.48362e-06
-2.07772e-06
-8.42602e-06
-5.70427e-06
-8.32813e-06
-9.74315e-06
-8.19525e-06
-1.4326e-05
-7.97691e-06
-1.96036e-05
-7.58859e-06
-2.58459e-05
-6.8429e-06
-3.34873e-05
-4.99442e-06
-4.36363e-05
-5.76041e-05
1.28164e-06
6.97102e-06
1.41876e-06
4.18262e-06
1.45025e-06
1.20504e-06
1.38545e-06
-2.01276e-06
1.2186e-06
-5.53706e-06
9.3117e-07
-9.45542e-06
4.91517e-07
-1.38858e-05
-1.17107e-07
-1.89949e-05
-8.83818e-07
-2.50786e-05
-1.70657e-06
-3.26645e-05
-2.17082e-06
-4.31721e-05
-5.97746e-05
1.10255e-05
6.5071e-06
1.12954e-05
3.91297e-06
1.13896e-05
1.11098e-06
1.13052e-05
-1.92796e-06
1.10161e-05
-5.2475e-06
1.04725e-05
-8.9113e-06
9.59648e-06
-1.30093e-05
8.29391e-06
-1.76916e-05
6.45907e-06
-2.32434e-05
4.0473e-06
-3.02521e-05
1.39051e-06
-4.05143e-05
-5.83833e-05
2.08113e-05
5.82496e-06
2.12542e-05
3.47039e-06
2.14735e-05
8.9201e-07
2.14581e-05
-1.91212e-06
2.11672e-05
-4.95594e-06
2.05249e-05
-8.26832e-06
1.94029e-05
-1.18865e-05
1.76223e-05
-1.59102e-05
1.49281e-05
-2.05483e-05
1.10432e-05
-2.63658e-05
6.00492e-06
-3.54744e-05
-5.23776e-05
3.09145e-05
4.96784e-06
3.15206e-05
2.86453e-06
3.18927e-05
5.20315e-07
3.20152e-05
-2.03413e-06
3.18371e-05
-4.7772e-06
3.12657e-05
-7.69616e-06
3.01281e-05
-1.0748e-05
2.81649e-05
-1.39462e-05
2.49531e-05
-1.73353e-05
1.99703e-05
-2.13822e-05
1.23521e-05
-2.78549e-05
-4.00237e-05
4.1669e-05
4.08476e-06
4.23481e-05
2.1858e-06
4.28411e-05
2.76453e-08
4.31305e-05
-2.32302e-06
4.31579e-05
-4.804e-06
4.28207e-05
-7.35819e-06
4.19185e-05
-9.84496e-06
4.01503e-05
-1.21771e-05
3.69419e-05
-1.41262e-05
3.15268e-05
-1.59655e-05
2.13485e-05
-1.76749e-05
-1.86743e-05
5.33265e-05
3.39742e-06
5.39344e-05
1.57824e-06
5.44773e-05
-5.15034e-07
5.49317e-05
-2.77708e-06
5.523e-05
-5.1019e-06
5.5262e-05
-7.3896e-06
5.4823e-05
-9.40545e-06
5.36361e-05
-1.09896e-05
5.11559e-05
-1.16449e-05
4.63947e-05
-1.12044e-05
3.56117e-05
-6.89104e-06
1.69386e-05
5.16234e-06
-5.1672e-06
8.99257e-06
-3.83531e-06
1.18564e-05
-2.86295e-06
1.3036e-05
-1.18156e-06
1.20804e-05
9.58258e-07
8.19897e-06
3.89087e-06
1.88439e-06
6.31908e-06
-1.08943e-05
1.2786e-05
-2.6233e-05
1.53394e-05
-3.80955e-05
1.18632e-05
-4.75639e-05
9.46802e-06
6.89268e-06
-5.44575e-05
1.86139e-06
-7.03216e-06
3.33794e-06
-5.31389e-06
2.22667e-06
-1.75245e-06
-1.4631e-06
2.50946e-06
-9.1017e-06
8.59828e-06
-2.06831e-05
1.54747e-05
-3.29949e-05
1.86322e-05
-3.9701e-05
1.9494e-05
-4.23154e-05
1.79544e-05
-4.50888e-05
1.46367e-05
-4.74861e-05
1.18651e-05
9.06327e-06
-4.96574e-05
4.33842e-07
-7.46813e-06
-1.58618e-06
-3.29533e-06
-6.40207e-06
3.0639e-06
-1.4706e-05
1.08145e-05
-2.3859e-05
1.77525e-05
-2.98488e-05
2.14661e-05
-3.33378e-05
2.21223e-05
-3.50241e-05
2.11816e-05
-3.58635e-05
1.87941e-05
-3.69763e-05
1.57495e-05
-3.79938e-05
1.28823e-05
9.96758e-06
-3.88986e-05
-3.36164e-06
-4.10853e-06
-8.08648e-06
1.4284e-06
-1.4063e-05
9.04139e-06
-1.9943e-05
1.66953e-05
-2.40569e-05
2.18679e-05
-2.62251e-05
2.36357e-05
-2.72673e-05
2.31657e-05
-2.76833e-05
2.15985e-05
-2.79426e-05
1.90537e-05
-2.83143e-05
1.61213e-05
-2.86405e-05
1.32084e-05
1.02493e-05
-2.89225e-05
-4.73503e-06
6.23028e-07
-9.90777e-06
6.60151e-06
-1.44346e-05
1.35678e-05
-1.76781e-05
1.99408e-05
-1.92611e-05
2.3452e-05
-1.97159e-05
2.4092e-05
-1.96368e-05
2.30878e-05
-1.92125e-05
2.11749e-05
-1.8859e-05
1.87008e-05
-1.8687e-05
1.59494e-05
-1.86161e-05
1.31375e-05
1.02653e-05
-1.86323e-05
-4.93573e-06
5.5587e-06
-9.12928e-06
1.07933e-05
-1.20182e-05
1.64584e-05
-1.32971e-05
2.12202e-05
-1.32536e-05
2.34102e-05
-1.2537e-05
2.3377e-05
-1.15726e-05
2.21245e-05
-1.06141e-05
2.02175e-05
-9.83074e-06
1.79177e-05
-9.27705e-06
1.53962e-05
-8.90989e-06
1.27703e-05
1.00528e-05
-8.69728e-06
-4.32092e-06
9.87903e-06
-7.51079e-06
1.39839e-05
-8.95857e-06
1.79061e-05
-8.6529e-06
2.09158e-05
-7.26627e-06
2.20249e-05
-5.51368e-06
2.16256e-05
-3.78122e-06
2.03932e-05
-2.25498e-06
1.8692e-05
-1.02194e-06
1.66854e-05
-9.57334e-08
1.44704e-05
5.66505e-07
1.21084e-05
9.61066e-06
1.0088e-06
-3.86764e-06
1.37471e-05
-5.97861e-06
1.60947e-05
-5.97265e-06
1.79005e-05
-4.19512e-06
1.91388e-05
-1.56893e-06
1.93995e-05
1.17458e-06
1.88829e-05
3.68771e-06
1.78808e-05
5.82828e-06
1.6552e-05
7.5532e-06
1.4961e-05
8.87966e-06
1.31443e-05
9.86272e-06
1.11256e-05
8.91403e-06
1.05596e-05
-3.32835e-06
1.70763e-05
-4.40483e-06
1.71716e-05
-2.77658e-06
1.62724e-05
4.44098e-07
1.59184e-05
4.23187e-06
1.56121e-05
7.91078e-06
1.52044e-05
1.11755e-05
1.46165e-05
1.3919e-05
1.38089e-05
1.6132e-05
1.27484e-05
1.78568e-05
1.14197e-05
1.91652e-05
9.81743e-06
7.95129e-06
2.01281e-05
-3.55126e-06
2.06288e-05
-2.11487e-06
1.57358e-05
2.06305e-06
1.20948e-05
6.83778e-06
1.1144e-05
1.16184e-05
1.08318e-05
1.59829e-05
1.08403e-05
1.97488e-05
1.08511e-05
2.28766e-05
1.06814e-05
2.53978e-05
1.02275e-05
2.73776e-05
9.44013e-06
2.8904e-05
8.29123e-06
6.79861e-06
3.00569e-05
2.76058e-07
2.03546e-05
6.23867e-06
9.77396e-06
1.256e-05
5.77398e-06
1.82634e-05
5.44107e-06
2.3249e-05
5.84676e-06
2.75001e-05
6.58955e-06
3.10606e-05
7.29108e-06
3.39842e-05
7.75819e-06
3.63402e-05
7.87182e-06
3.82015e-05
7.57915e-06
3.96591e-05
6.83382e-06
5.67225e-06
4.07857e-05
2.03638e-05
-8.11809e-09
2.87082e-05
1.4304e-06
3.39673e-05
5.15715e-07
3.81038e-05
1.30509e-06
4.13468e-05
2.60429e-06
4.4014e-05
3.92283e-06
4.6255e-05
5.05062e-06
4.81213e-05
5.89231e-06
4.96487e-05
6.3448e-06
5.08703e-05
6.35776e-06
5.18527e-05
5.85171e-06
5.26389e-05
4.88626e-06
-5.94733e-05
5.01556e-06
-6.23413e-05
2.86723e-06
-6.34884e-05
1.14722e-06
-6.28131e-05
-6.7588e-07
-6.0518e-05
-2.29482e-06
-5.64293e-05
-4.089e-06
-5.04978e-05
-5.93108e-06
-4.25639e-05
-7.93365e-06
-3.25204e-05
-1.00432e-05
-2.0527e-05
-1.19928e-05
-8.4371e-06
-1.20889e-05
-8.43677e-06
-5.09598e-05
6.31764e-06
-5.17593e-05
3.66608e-06
-5.18198e-05
1.20767e-06
-5.12742e-05
-1.22197e-06
-4.98813e-05
-3.68765e-06
-4.75922e-05
-6.37823e-06
-4.41706e-05
-9.35234e-06
-3.94092e-05
-1.26948e-05
-3.30346e-05
-1.64173e-05
-2.48257e-05
-2.02014e-05
-1.38103e-05
-2.31037e-05
-2.22469e-05
-3.96301e-05
7.04881e-06
-4.01485e-05
4.18394e-06
-4.03102e-05
1.3692e-06
-4.00024e-05
-1.53009e-06
-3.90763e-05
-4.61374e-06
-3.74641e-05
-7.99052e-06
-3.50387e-05
-1.17776e-05
-3.16984e-05
-1.60348e-05
-2.73214e-05
-2.0794e-05
-2.13899e-05
-2.61327e-05
-1.29964e-05
-3.14968e-05
-3.5243e-05
-2.9167e-05
7.29294e-06
-2.93158e-05
4.33241e-06
-2.92608e-05
1.31398e-06
-2.89262e-05
-1.86483e-06
-2.82399e-05
-5.30017e-06
-2.71421e-05
-9.0883e-06
-2.55465e-05
-1.33731e-05
-2.33523e-05
-1.82288e-05
-2.03778e-05
-2.37684e-05
-1.616e-05
-3.03503e-05
-9.83788e-06
-3.78185e-05
-4.5081e-05
-1.86898e-05
7.35029e-06
-1.87261e-05
4.36845e-06
-1.86772e-05
1.26496e-06
-1.84986e-05
-2.04353e-06
-1.81515e-05
-5.64735e-06
-1.75922e-05
-9.64743e-06
-1.67686e-05
-1.41967e-05
-1.56069e-05
-1.93902e-05
-1.39119e-05
-2.54632e-05
-1.15133e-05
-3.27483e-05
-7.53675e-06
-4.17955e-05
-5.26175e-05
-8.59255e-06
7.24548e-06
-8.54726e-06
4.32314e-06
-8.52056e-06
1.23834e-06
-8.48691e-06
-2.07718e-06
-8.42897e-06
-5.70501e-06
-8.331e-06
-9.7453e-06
-8.19782e-06
-1.43294e-05
-7.97928e-06
-1.96085e-05
-7.59018e-06
-2.58518e-05
-6.84441e-06
-3.34946e-05
-4.99499e-06
-4.36443e-05
-5.76128e-05
1.27888e-06
6.97557e-06
1.41648e-06
4.18574e-06
1.44824e-06
1.20679e-06
1.38368e-06
-2.01224e-06
1.21684e-06
-5.53786e-06
9.29523e-07
-9.45747e-06
4.89835e-07
-1.38893e-05
-1.18424e-07
-1.89997e-05
-8.85143e-07
-2.5085e-05
-1.70723e-06
-3.26717e-05
-2.17156e-06
-4.31804e-05
-5.97839e-05
1.10242e-05
6.51112e-06
1.12945e-05
3.91576e-06
1.13891e-05
1.11264e-06
1.13047e-05
-1.92747e-06
1.10156e-05
-5.24813e-06
1.04719e-05
-8.91322e-06
9.59582e-06
-1.30126e-05
8.2932e-06
-1.76964e-05
6.45865e-06
-2.32496e-05
4.04685e-06
-3.02596e-05
1.3903e-06
-4.05227e-05
-5.83925e-05
2.08111e-05
5.8284e-06
2.12544e-05
3.47282e-06
2.1474e-05
8.9349e-07
2.14587e-05
-1.91163e-06
2.11677e-05
-4.95645e-06
2.05253e-05
-8.27005e-06
1.94031e-05
-1.18895e-05
1.76225e-05
-1.59148e-05
1.49282e-05
-2.05544e-05
1.10431e-05
-2.63733e-05
6.00519e-06
-3.54823e-05
-5.23865e-05
3.09149e-05
4.9706e-06
3.15215e-05
2.86655e-06
3.18939e-05
5.21497e-07
3.20167e-05
-2.03373e-06
3.18386e-05
-4.77773e-06
3.12671e-05
-7.69771e-06
3.01293e-05
-1.07509e-05
2.8166e-05
-1.39506e-05
2.49538e-05
-1.73411e-05
1.99711e-05
-2.13888e-05
1.23524e-05
-2.78629e-05
-4.00314e-05
4.16697e-05
4.08685e-06
4.23493e-05
2.18733e-06
4.28428e-05
2.8483e-08
4.31325e-05
-2.32287e-06
4.31601e-05
-4.80466e-06
4.2823e-05
-7.3598e-06
4.19207e-05
-9.8478e-06
4.01525e-05
-1.21813e-05
3.69441e-05
-1.41316e-05
3.15281e-05
-1.59723e-05
2.13499e-05
-1.76814e-05
-1.86801e-05
5.33272e-05
3.39886e-06
5.39356e-05
1.5792e-06
5.44791e-05
-5.14616e-07
5.49339e-05
-2.77734e-06
5.52326e-05
-5.10286e-06
5.52649e-05
-7.3916e-06
5.48263e-05
-9.40858e-06
5.36396e-05
-1.0994e-05
5.11592e-05
-1.16506e-05
4.63979e-05
-1.12098e-05
3.56138e-05
-6.89702e-06
1.69353e-05
6.75888e-05
4.01559e-06
-7.16132e-05
6.67684e-05
2.2513e-06
6.51887e-05
2.09554e-06
6.42896e-05
2.20346e-06
6.39858e-05
2.90616e-06
6.40515e-05
3.85378e-06
6.43018e-05
4.79549e-06
6.46032e-05
5.58519e-06
6.48816e-05
6.06021e-06
6.51024e-05
6.13111e-06
6.53012e-05
5.64762e-06
4.68957e-06
6.54937e-05
8.69026e-05
3.21563e-06
-8.61028e-05
8.64353e-05
2.71902e-06
8.55851e-05
2.94611e-06
8.45437e-05
3.24536e-06
8.35604e-05
3.88981e-06
8.2674e-05
4.74062e-06
8.18614e-05
5.60852e-06
8.10919e-05
6.35498e-06
8.03532e-05
6.79933e-06
7.96572e-05
6.82734e-06
7.90816e-05
6.22347e-06
5.09352e-06
7.86778e-05
0.000100238
2.39003e-06
-9.9412e-05
0.000100387
2.57022e-06
0.000100186
3.14738e-06
9.96459e-05
3.78632e-06
9.88642e-05
4.67202e-06
9.78943e-05
5.71105e-06
9.67729e-05
6.7304e-06
9.55454e-05
7.58298e-06
9.42738e-05
8.07139e-06
9.30591e-05
8.04253e-06
9.20468e-05
7.23594e-06
5.72817e-06
9.14122e-05
0.000112079
-0.000111703
2.01408e-06
0.000112167
2.48188e-06
0.000111988
3.32666e-06
0.000111502
4.27278e-06
0.000110718
5.45625e-06
0.00010967
6.75913e-06
0.00010841
7.99088e-06
0.000107028
8.96517e-06
0.000105648
9.45158e-06
0.000104461
9.2298e-06
0.00010367
8.02719e-06
0.000103719
5.67897e-06
6.58166e-05
3.07315e-06
6.62574e-05
1.13719e-06
6.68224e-05
-1.07944e-06
6.74671e-05
-3.42044e-06
6.80999e-05
-5.73312e-06
6.85884e-05
-7.87688e-06
6.87387e-05
-9.55519e-06
6.83318e-05
-1.05834e-05
6.71318e-05
-1.04477e-05