/*--------------------------------*- C++ -*----------------------------------*\
  =========                 |
  \\      /  F ield         | OpenFOAM: The Open Source CFD Toolbox
   \\    /   O peration     | Website:  https://openfoam.org
    \\  /    A nd           | Version:  6
     \\/     M anipulation  |
\*---------------------------------------------------------------------------*/
FoamFile
{
    version     2.0;
    format      ascii;
    class       volVectorField;
    location    "300";
    object      U;
}
// * * * * * * * * * * * * * * * * * * * * * * * * * * * * * * * * * * * * * //

dimensions      [0 1 -1 0 0 0 0];

internalField   nonuniform List<vector> 
3072
(
(0.157777 2.24285 0)
(0.236504 1.94772 0)
(0.332108 1.75738 1.37449e-19)
(0.446322 1.66099 8.58059e-19)
(0.56834 1.58771 -1.59917e-18)
(0.675427 1.66113 9.35515e-19)
(1.00141 1.80478 4.60562e-19)
(1.87383 1.55718 5.19337e-19)
(2.77072 1.78041 -2.85676e-19)
(3.04012 2.2314 8.55616e-19)
(3.33093 2.38026 5.82873e-19)
(3.60117 2.5294 5.97296e-19)
(-0.394321 2.70396 -1.92222e-19)
(-0.218947 2.40053 -4.02514e-19)
(0.0409126 2.39119 5.02236e-19)
(0.380567 2.46014 0)
(0.8948 2.46342 8.31991e-19)
(1.7403 2.57905 -9.37285e-19)
(2.4735 2.90192 0)
(2.86631 2.93155 0)
(3.03186 2.99424 0)
(3.06896 3.0161 7.19139e-19)
(3.17209 3.0175 -2.51112e-18)
(3.28971 2.99552 4.26951e-19)
(-0.366128 3.0189 1.80699e-19)
(0.00370324 2.75841 0)
(0.537304 2.83508 0)
(1.20837 2.94291 -2.99335e-18)
(1.93657 3.11627 9.78633e-19)
(2.46978 3.16781 -1.90819e-18)
(2.81588 3.17044 1.94283e-18)
(3.01775 3.05653 0)
(3.13352 2.95939 0)
(3.20109 2.87774 -1.01504e-18)
(3.28724 2.79939 -1.01844e-18)
(3.37081 2.71819 3.45401e-18)
(-0.199595 3.32484 -1.42107e-18)
(0.295081 3.20064 -2.42039e-18)
(0.94328 3.33118 1.63262e-18)
(1.62085 3.41136 -1.51672e-18)
(2.19374 3.42447 3.54074e-18)
(2.57039 3.33687 -3.80743e-18)
(2.79662 3.22468 -2.38727e-18)
(2.95377 3.08077 -5.74883e-18)
(3.0429 2.96279 -2.07565e-19)
(3.10631 2.86048 3.01289e-18)
(3.17458 2.76359 3.32901e-18)
(3.23851 2.66889 -2.7398e-18)
(0.0394762 3.51163 0)
(0.56896 3.51909 1.10024e-18)
(1.18892 3.61488 -2.22236e-18)
(1.79317 3.61272 3.14782e-18)
(2.2495 3.52505 5.5541e-19)
(2.53352 3.38278 2.36618e-18)
(2.71669 3.23133 2.08655e-18)
(2.83157 3.0769 1.99928e-18)
(2.91283 2.93679 -4.09921e-18)
(2.97989 2.81216 3.55251e-18)
(3.04653 2.69685 -4.83113e-18)
(3.112 2.58833 6.46099e-18)
(0.270171 3.66476 -3.29894e-18)
(0.781883 3.75836 1.48088e-18)
(1.33462 3.80013 4.24717e-18)
(1.84436 3.73136 0)
(2.20978 3.58761 -6.58247e-18)
(2.44111 3.41245 6.57717e-18)
(2.59457 3.23546 0)
(2.70358 3.06395 -4.87002e-18)
(2.78701 2.90765 4.19359e-18)
(2.85843 2.76714 0)
(2.92634 2.63874 2.41305e-19)
(2.99231 2.52025 3.85853e-18)
(0.453138 3.82432 0)
(0.928136 3.98111 -3.47507e-18)
(1.40292 3.96333 3.19354e-18)
(1.82214 3.84668 0)
(2.12162 3.66222 -3.91966e-18)
(2.32165 3.45707 5.9844e-19)
(2.46355 3.25479 5.60171e-18)
(2.57151 3.06421 5.1305e-18)
(2.65926 2.89045 -4.52101e-18)
(2.73602 2.73376 4.45508e-18)
(2.80747 2.59165 -3.86115e-18)
(2.87565 2.46201 -1.0812e-17)
(0.611002 4.01042 0)
(1.02173 4.21391 3.11545e-18)
(1.41147 4.13648 -4.77471e-18)
(1.74985 3.97905 4.77501e-18)
(2.00165 3.75811 0)
(2.18496 3.52196 -6.15183e-18)
(2.32489 3.29259 5.95708e-18)
(2.43728 3.07909 1.00998e-19)
(2.53169 2.885 -9.73984e-18)
(2.61461 2.71039 -4.522e-18)
(2.69025 2.55322 -2.41994e-19)
(2.76089 2.41124 8.05065e-18)
(0.71309 4.19007 0)
(1.07467 4.45598 -3.97501e-18)
(1.37271 4.31139 -5.56461e-18)
(1.63793 4.11133 -3.9826e-18)
(1.85502 3.8564 7.888e-18)
(2.03101 3.59012 0)
(2.17536 3.33409 0)
(2.29613 3.09712 0)
(2.39925 2.88234 0)
(2.48933 2.6897 4.66061e-18)
(2.56975 2.51736 -4.63859e-18)
(2.64298 2.36287 4.41617e-18)
(0.811648 4.47691 0)
(1.05454 4.6928 2.91944e-18)
(1.25433 4.44193 -6.36293e-19)
(1.47271 4.18089 4.59408e-18)
(1.67163 3.89493 4.49704e-18)
(1.84735 3.60671 -7.15231e-18)
(2.00076 3.33396 0)
(2.13356 3.08268 -2.12146e-19)
(2.24828 2.85497 -1.72433e-17)
(2.34792 2.65066 0)
(2.43506 2.46814 1.05178e-17)
(2.51235 2.30494 -4.88754e-18)
(0.966077 4.56898 0)
(0.948484 4.68773 3.30411e-18)
(1.04093 4.35749 9.59279e-18)
(1.23084 4.04369 -8.13755e-18)
(1.42592 3.75699 -1.1394e-17)
(1.61185 3.47916 1.79375e-17)
(1.78152 3.21941 -2.02885e-19)
(1.93194 2.97946 -6.95936e-18)
(2.063 2.75991 5.65328e-18)
(2.17648 2.56082 -1.19071e-17)
(2.27405 2.38138 -1.63637e-17)
(2.35861 2.21968 1.63984e-17)
(0.386697 4.1691 -1.87045e-18)
(0.566798 4.10415 -1.24342e-17)
(0.700694 3.79631 2.37785e-18)
(0.903069 3.53578 0)
(1.12074 3.33029 0)
(1.3301 3.12791 3.57793e-19)
(1.52161 2.93135 1.88586e-17)
(1.69272 2.7418 1.16278e-17)
(1.84256 2.5613 0)
(1.97256 2.39201 1.08673e-17)
(2.0833 2.2352 0)
(2.17802 2.0904 4.84997e-19)
(3.87427 2.47065 6.9198e-19)
(4.07901 2.41922 -5.79335e-19)
(4.22644 2.26607 -1.56048e-19)
(4.30161 2.11678 -5.18695e-19)
(4.31038 1.91959 -2.44827e-19)
(4.25072 1.72069 0)
(4.11235 1.50442 0)
(3.89521 1.29411 7.76766e-19)
(3.59858 1.07432 -9.12698e-19)
(3.19053 0.826316 0)
(2.73955 0.420811 0)
(2.61836 -0.0997161 -4.85367e-20)
(3.40161 2.96142 1.4492e-18)
(3.5135 2.8889 0)
(3.62563 2.77965 -8.96281e-19)
(3.72691 2.63578 4.03383e-19)
(3.80478 2.46788 2.53119e-19)
(3.84131 2.29592 2.54807e-18)
(3.82858 2.12681 -4.12282e-18)
(3.76195 1.97492 6.54411e-19)
(3.63887 1.85701 0)
(3.36249 1.74494 0)
(3.08621 1.61801 0)
(3.20569 1.16959 6.8882e-19)
(3.45636 2.63269 1.37505e-18)
(3.53984 2.53976 -3.74212e-18)
(3.61929 2.43757 1.0271e-18)
(3.68395 2.33203 2.49152e-18)
(3.72687 2.22629 -2.56507e-18)
(3.74072 2.12747 0)
(3.72213 2.04595 0)
(3.67057 1.99054 -2.11925e-19)
(3.59313 1.96748 1.05645e-18)
(3.44432 1.96229 0)
(3.20845 1.9581 0)
(3.40495 1.85651 -4.48973e-19)
(3.30417 2.576 3.09261e-19)
(3.37192 2.4825 3.74599e-18)
(3.43713 2.38686 2.62936e-18)
(3.493 2.29254 -2.62392e-18)
(3.53491 2.20476 0)
(3.55947 2.12986 1.55765e-18)
(3.56365 2.07559 0)
(3.55096 2.04958 2.46409e-18)
(3.51926 2.05745 -7.31254e-19)
(3.44731 2.12015 0)
(3.26054 2.21387 -5.23785e-19)
(3.55288 2.29675 6.14237e-19)
(3.1782 2.48517 -2.65045e-18)
(3.2436 2.38597 0)
(3.30526 2.29103 0)
(3.35999 2.20325 0)
(3.40582 2.12685 0)
(3.44188 2.06693 -2.78983e-18)
(3.46657 2.0327 -1.25451e-19)
(3.48084 2.02814 -1.29238e-18)
(3.49106 2.06522 0)
(3.47861 2.1582 -1.01194e-18)
(3.35918 2.31433 4.73029e-19)
(3.76518 2.53303 -1.57724e-19)
(3.05759 2.40998 -2.1342e-19)
(3.12147 2.30696 -6.40342e-18)
(3.18259 2.21167 3.0308e-18)
(3.23969 2.12632 4.61645e-22)
(3.29231 2.05439 1.98716e-19)
(3.34064 2.00047 4.41431e-18)
(3.38621 1.97071 -1.41166e-19)
(3.43118 1.97183 -4.99331e-18)
(3.47775 2.01528 -2.01666e-18)
(3.52911 2.11717 1.02196e-18)
(3.47461 2.3159 -1.27057e-18)
(3.93325 2.65548 -5.10295e-19)
(2.94177 2.34312 1.03277e-17)
(3.00601 2.23403 3.3791e-18)
(3.06827 2.13495 0)
(3.12871 2.0474 0)
(3.18824 1.97401 1.89839e-19)
(3.24855 1.91848 -3.22783e-18)
(3.31247 1.88587 5.08621e-18)
(3.38383 1.88242 -1.19874e-19)
(3.46634 1.91885 1.73944e-18)
(3.56718 2.0138 0)
(3.59062 2.21034 -2.31952e-19)
(4.08636 2.63086 -7.80036e-20)
(2.82797 2.2825 -3.85071e-18)
(2.89251 2.16567 -3.54091e-18)
(2.95547 2.06042 3.79758e-18)
(3.01816 1.96748 -3.56616e-18)
(3.08264 1.88851 1.143e-21)
(3.15194 1.82612 7.14169e-18)
(3.23041 1.78395 -3.29963e-18)
(3.32397 1.76741 1.87426e-18)
(3.43874 1.78597 0)
(3.58777 1.8593 1.14541e-18)
(3.69195 2.04044 5.82498e-19)
(4.192 2.50215 -8.86098e-19)
(2.71081 2.22395 4.25795e-18)
(2.77503 2.0986 -4.11923e-18)
(2.83746 1.98585 -3.84879e-18)
(2.90034 1.88555 -8.02204e-18)
(2.96668 1.79836 7.74635e-18)
(3.04052 1.72554 -7.46551e-18)
(3.12776 1.66898 0)
(3.23665 1.63239 -1.7984e-18)
(3.37656 1.62253 0)
(3.56776 1.6577 0)
(3.75442 1.80029 0)
(4.24606 2.227 4.23581e-19)
(2.58175 2.15872 4.71199e-18)
(2.64572 2.02676 -9.42235e-18)
(2.70678 1.90756 9.17084e-18)
(2.76778 1.80016 8.80678e-18)
(2.83247 1.70417 4.26643e-18)
(2.90565 1.61963 0)
(2.99446 1.54617 0)
(3.10913 1.48492 4.21399e-18)
(3.2631 1.43819 0)
(3.48717 1.42098 -1.19994e-18)
(3.73817 1.48642 7.81821e-19)
(4.22924 1.79758 -1.24077e-18)
(2.43186 2.07408 -1.06695e-17)
(2.49687 1.94131 9.79437e-18)
(2.5566 1.81993 -9.52823e-18)
(2.61424 1.70847 -2.38958e-17)
(2.67379 1.60582 -2.32724e-19)
(2.74057 1.51092 1.28742e-19)
(2.82296 1.42103 -4.63159e-18)
(2.93145 1.33397 -4.26345e-18)
(3.0837 1.24545 0)
(3.31969 1.16455 3.65517e-18)
(3.60731 1.09925 8.9858e-19)
(4.09087 1.07408 -1.74627e-18)
(2.2572 1.95771 -4.79446e-19)
(2.32435 1.83336 0)
(2.38255 1.71701 0)
(2.43506 1.607 4.66747e-18)
(2.48609 1.50218 1.42535e-17)
(2.54067 1.40102 -4.66847e-18)
(2.60865 1.29889 -2.11004e-19)
(2.69826 1.19064 -2.43652e-18)
(2.82992 1.06383 -2.28e-18)
(3.03252 0.917024 -2.30212e-18)
(3.33161 0.690443 0)
(3.67823 -0.0208879 2.2893e-18)
(2.24142 -0.159772 2.43085e-22)
(1.94574 -0.237258 0)
(1.7561 -0.332239 -1.3709e-19)
(1.66011 -0.446364 0)
(1.58693 -0.568236 -7.94836e-19)
(1.66004 -0.675174 9.32157e-19)
(1.8045 -1.00025 0)
(1.5573 -1.87101 3.41837e-19)
(1.77834 -2.76962 -2.79455e-19)
(2.23034 -3.04 7.5865e-20)
(2.37918 -3.3303 -6.93109e-19)
(2.5287 -3.60089 -5.97865e-19)
(2.70323 0.393861 -2.19479e-19)
(2.4004 0.219292 -1.03857e-19)
(2.3905 -0.0403509 5.18919e-19)
(2.45943 -0.379681 0)
(2.4631 -0.893015 -8.34037e-19)
(2.57776 -1.73862 3.97811e-19)
(2.90083 -2.47255 0)
(2.93099 -2.86624 8.03857e-19)
(2.99346 -3.03217 -3.54638e-18)
(3.01552 -3.06927 1.87843e-18)
(3.0169 -3.17217 1.30553e-18)
(2.99502 -3.28978 -3.52602e-18)
(3.01866 0.366224 -1.80961e-19)
(2.75799 -0.00290053 0)
(2.83444 -0.536176 -1.72904e-18)
(2.94197 -1.20712 0)
(3.11559 -1.93596 0)
(3.16725 -2.46959 -8.03213e-19)
(3.17008 -2.81603 4.30246e-18)
(3.0563 -3.01795 -3.04986e-18)
(2.95902 -3.13384 9.20665e-19)
(2.87738 -3.20136 0)
(2.79901 -3.28741 2.54496e-18)
(2.71781 -3.37094 -1.46659e-18)
(3.32487 0.20011 9.05506e-19)
(3.2003 -0.294288 1.378e-18)
(3.33084 -0.942502 1.20106e-18)
(3.4111 -1.62035 2.27787e-18)
(3.42437 -2.19362 -1.64311e-18)
(3.33679 -2.57049 -1.34621e-18)
(3.2246 -2.79689 0)
(3.08064 -2.95407 0)
(2.96259 -3.04324 1.94211e-18)
(2.86024 -3.10659 0)
(2.76333 -3.1748 4.08135e-19)
(2.66864 -3.2387 1.18577e-18)
(3.51179 -0.0387867 1.68937e-18)
(3.519 -0.568236 -8.84743e-19)
(3.61487 -1.18836 -2.22394e-18)
(3.6128 -1.79292 0)
(3.52519 -2.24953 0)
(3.38287 -2.5337 3.19791e-18)
(3.23137 -2.71697 0)
(3.07688 -2.83185 -4.7089e-18)
(2.9367 -2.91312 -1.94329e-18)
(2.81203 -2.98014 3.55535e-18)
(2.69669 -3.04674 -4.83503e-18)
(2.58815 -3.11216 3.07508e-18)
(3.66496 -0.269525 -1.82996e-18)
(3.75842 -0.781298 -1.2932e-18)
(3.80031 -1.33422 1.84356e-18)
(3.73158 -1.84421 3.0301e-19)
(3.58784 -2.20983 3.31274e-18)
(3.41261 -2.44128 -6.32857e-18)
(3.23556 -2.59479 5.61701e-18)
(3.06398 -2.70381 5.23706e-19)
(2.90761 -2.78725 0)
(2.76706 -2.85865 0)
(2.63863 -2.92653 7.46853e-18)
(2.52012 -2.99247 3.94542e-20)
(3.82456 -0.452649 -4.61941e-20)
(3.98124 -0.927686 -1.92457e-18)
(3.96358 -1.40264 0)
(3.84696 -1.82205 -3.9358e-18)
(3.66246 -2.12168 4.15729e-18)
(3.45725 -2.32178 1.009e-17)
(3.2549 -2.46372 6.14933e-18)
(3.06426 -2.5717 7.4008e-19)
(2.89044 -2.65947 -9.49339e-18)
(2.73371 -2.73622 4.16181e-18)
(2.59158 -2.80765 4.41585e-18)
(2.46192 -2.87582 2.28382e-19)
(4.01063 -0.610662 1.98612e-19)
(4.21408 -1.02141 3.11671e-18)
(4.13675 -1.41127 0)
(3.97934 -1.74978 -4.77729e-18)
(3.75835 -2.00169 -3.50402e-18)
(3.52213 -2.18506 5.74377e-19)
(3.2927 -2.32502 -1.13097e-17)
(3.07914 -2.43744 3.74778e-19)
(2.885 -2.53187 -2.48734e-19)
(2.71036 -2.6148 4.75316e-18)
(2.55317 -2.69043 -3.82419e-18)
(2.41117 -2.76106 2.00235e-19)
(4.19021 -0.712952 -3.53381e-18)
(4.45617 -1.07449 1.60205e-18)
(4.31164 -1.37258 -8.10429e-18)
(4.1116 -1.63787 3.98414e-18)
(3.85662 -1.85502 0)
(3.59027 -2.03106 0)
(3.33417 -2.17545 6.35888e-18)
(3.09716 -2.29626 1.14567e-17)
(2.88233 -2.3994 -5.17863e-18)
(2.68967 -2.4895 -4.66272e-18)
(2.51731 -2.56992 -4.42545e-18)
(2.36282 -2.64315 0)
(4.47706 -0.81164 7.08246e-20)
(4.69295 -1.05438 4.43091e-18)
(4.44213 -1.25421 9.86188e-18)
(4.1811 -1.47262 0)
(3.89509 -1.67157 7.88616e-18)
(3.60682 -1.84734 0)
(3.33402 -2.0008 3.19333e-19)
(3.08269 -2.13365 -5.66159e-18)
(2.85494 -2.24841 6.03135e-18)
(2.65061 -2.34808 0)
(2.46809 -2.43523 0)
(2.30489 -2.51252 -1.00885e-17)
(4.56899 -0.966176 -6.73822e-18)
(4.68778 -0.948459 3.30198e-18)
(4.35755 -1.04082 5.38265e-19)
(4.04378 -1.23071 -8.95793e-18)
(3.75706 -1.42581 -3.53397e-18)
(3.47922 -1.6118 -3.58846e-18)
(3.21943 -1.78153 -6.94791e-18)
(2.97945 -1.93202 -1.94791e-17)
(2.75987 -2.06312 -5.65485e-18)
(2.56077 -2.17664 -1.19105e-17)
(2.38133 -2.27422 1.14375e-17)
(2.21963 -2.35877 1.04196e-17)
(4.16912 -0.386763 3.57822e-18)
(4.10407 -0.566718 -1.42877e-18)
(3.79623 -0.700562 3.51177e-19)
(3.53574 -0.90292 7.49233e-18)
(3.33027 -1.12063 0)
(3.12791 -1.33004 -6.779e-18)
(2.93135 -1.52162 6.0782e-18)
(2.74178 -1.6928 5.40492e-18)
(2.56126 -1.84269 -1.75032e-17)
(2.39196 -1.97272 1.08687e-17)
(2.23515 -2.08347 -1.0586e-17)
(2.09034 -2.17818 0)
(2.46995 -3.87381 -6.31747e-19)
(2.41872 -4.07873 1.54709e-18)
(2.26559 -4.22611 -1.07753e-18)
(2.11644 -4.30139 -4.78253e-19)
(1.9193 -4.31012 1.0807e-19)
(1.7205 -4.25054 4.77418e-20)
(1.50427 -4.11216 -1.1352e-19)
(1.29404 -3.89508 -2.77063e-19)
(1.07427 -3.59843 -9.13071e-19)
(0.826313 -3.19042 0)
(0.420805 -2.73947 0)
(-0.0998785 -2.61826 -4.85533e-20)
(2.96099 -3.40156 -3.70945e-20)
(2.88855 -3.51344 1.98561e-18)
(2.77936 -3.62553 -8.96281e-19)
(2.63555 -3.7268 0)
(2.46768 -3.80467 1.59229e-18)
(2.29576 -3.84121 0)
(2.12668 -3.82848 1.22594e-18)
(1.97482 -3.76187 2.17055e-18)
(1.85694 -3.6388 -1.8619e-18)
(1.74491 -3.36245 0)
(1.61797 -3.08619 0)
(1.16943 -3.20572 -1.96756e-20)
(2.63233 -3.45643 9.75807e-19)
(2.53943 -3.53989 -9.18877e-19)
(2.43727 -3.6193 1.02814e-18)
(2.33177 -3.68393 0)
(2.22607 -3.72684 -1.13089e-18)
(2.1273 -3.74067 2.9223e-18)
(2.04581 -3.72207 -4.21791e-18)
(1.99044 -3.67052 -4.86218e-18)
(1.96742 -3.59309 2.97613e-18)
(1.96225 -3.4443 0)
(1.95806 -3.20843 5.78006e-19)
(1.85647 -3.40501 1.47225e-19)
(2.57575 -3.3043 1.15599e-18)
(2.48226 -3.372 -2.60591e-18)
(2.38664 -3.43717 2.6315e-18)
(2.29234 -3.49301 -2.62598e-18)
(2.20459 -3.53489 0)
(2.12971 -3.55944 1.55858e-18)
(2.07547 -3.56361 1.13487e-18)
(2.04948 -3.55093 6.83288e-19)
(2.05738 -3.51923 -1.48389e-18)
(2.12011 -3.4473 0)
(2.21384 -3.26053 -3.40468e-19)
(2.29667 -3.55291 5.57131e-19)
(2.48498 -3.17832 2.96553e-18)
(2.38578 -3.24369 -1.55115e-18)
(2.29086 -3.30532 0)
(2.20309 -3.36002 0)
(2.1267 -3.40583 1.52381e-18)
(2.0668 -3.44188 -1.2771e-18)
(2.03259 -3.46655 -2.27406e-19)
(2.02805 -3.48083 0)
(2.06515 -3.49105 -7.71626e-19)
(2.15815 -3.4786 1.01226e-18)
(2.3143 -3.35917 -1.03395e-18)
(2.533 -3.76524 -2.54389e-19)
(2.40985 -3.05772 -6.42457e-18)
(2.30683 -3.12157 3.09255e-18)
(2.21153 -3.18266 6.26784e-18)
(2.12619 -3.23974 4.58837e-22)
(2.05427 -3.29234 -7.56796e-18)
(2.00036 -3.34066 -3.23326e-18)
(1.97062 -3.38622 -2.22601e-19)
(1.97175 -3.43118 0)
(2.01521 -3.47775 0)
(2.11712 -3.52912 -1.02221e-18)
(2.31587 -3.47462 -7.39785e-19)
(2.65544 -3.93329 2.23167e-19)
(2.34303 -2.94192 3.5269e-18)
(2.23393 -3.00613 -6.97173e-18)
(2.13485 -3.06837 -3.1078e-18)
(2.0473 -3.12879 -1.7933e-19)
(1.97392 -3.18829 3.02219e-18)
(1.91839 -3.24859 3.01242e-18)
(1.88579 -3.3125 1.71539e-18)
(1.88235 -3.38385 1.68701e-18)
(1.91878 -3.46635 -1.88699e-18)
(2.01376 -3.5672 0)
(2.21032 -3.59063 1.19234e-18)
(2.63087 -4.08641 -3.44374e-19)
(2.28244 -2.82813 0)
(2.1656 -2.89265 3.54284e-18)
(2.06035 -2.95559 0)
(1.96741 -3.01825 -1.79407e-19)
(1.88844 -3.08271 1.14698e-21)
(1.82604 -3.15199 7.14541e-18)
(1.78388 -3.23045 -6.96323e-18)
(1.76734 -3.32399 0)
(1.78591 -3.43875 -2.02401e-18)
(1.85925 -3.58778 1.14576e-18)
(2.04042 -3.69197 -2.23198e-18)
(2.50217 -4.19202 1.12714e-18)
(2.2239 -2.71097 4.25994e-18)
(2.09855 -2.77517 -4.12119e-18)
(1.9858 -2.83758 -4.16895e-18)
(1.8855 -2.90043 4.08513e-18)
(1.7983 -2.96675 3.87816e-18)
(1.72549 -3.04057 -1.14379e-17)
(1.66892 -3.12779 3.60468e-18)
(1.63233 -3.23666 0)
(1.62247 -3.37656 1.87141e-18)
(1.65765 -3.56776 0)
(1.80026 -3.75443 2.7463e-18)
(2.22702 -4.24607 -2.02026e-18)
(2.15867 -2.5819 0)
(2.02672 -2.64585 -9.42611e-18)
(1.90753 -2.70689 -4.88217e-18)
(1.80012 -2.76786 -8.55135e-18)
(1.70413 -2.83253 4.26827e-18)
(1.61959 -2.90569 4.04924e-18)
(1.54612 -2.99447 0)
(1.48487 -3.10911 0)
(1.43813 -3.26308 0)
(1.42092 -3.48716 0)
(1.48639 -3.73815 -7.83101e-19)
(1.79758 -4.22924 -1.01333e-19)
(2.07403 -2.43201 5.20102e-18)
(1.94128 -2.49699 4.74739e-18)
(1.8199 -2.55669 1.96072e-17)
(1.70845 -2.61431 5.0263e-18)
(1.6058 -2.67382 1.8992e-17)
(1.51089 -2.74057 -4.59784e-18)
(1.42099 -2.82293 -4.63319e-18)
(1.33392 -2.93141 0)
(1.24538 -3.08364 -4.48484e-18)
(1.16448 -3.31964 -2.42924e-18)
(1.09919 -3.60726 -1.83007e-18)
(1.07403 -4.09082 -1.08782e-25)
(1.95766 -2.25734 0)
(1.83332 -2.32445 0)
(1.71698 -2.38261 -1.998e-17)
(1.60698 -2.43509 -1.45147e-17)
(1.50216 -2.48608 -4.60048e-18)
(1.40099 -2.54062 0)
(1.29886 -2.60858 4.65649e-18)
(1.1906 -2.69817 0)
(1.06376 -2.82982 -1.93261e-19)
(0.91694 -3.03242 2.30253e-18)
(0.690362 -3.33151 6.63427e-19)
(-0.0209905 -3.67818 4.53479e-18)
(-0.1696 -2.23881 1.04852e-19)
(-0.245721 -1.92386 2.13689e-19)
(-0.335395 -1.7498 -1.95469e-19)
(-0.447638 -1.65897 4.7244e-20)
(-0.569635 -1.58728 0)
(-0.676417 -1.66166 9.03096e-20)
(-1.00255 -1.80454 0)
(-1.87655 -1.55664 4.46471e-19)
(-2.77147 -1.7822 1.07707e-18)
(-3.03976 -2.23196 -2.30394e-20)
(-3.33116 -2.38091 -2.8039e-20)
(-3.60093 -2.52958 9.46408e-19)
(0.41664 -2.76416 4.20993e-19)
(0.234771 -2.37781 -5.13664e-19)
(-0.0356812 -2.38207 5.42652e-19)
(-0.379356 -2.45729 -8.83799e-20)
(-0.896672 -2.46385 -8.43237e-19)
(-1.742 -2.57979 -1.75784e-19)
(-2.47446 -2.90266 -8.83851e-19)
(-2.86603 -2.93161 -1.48335e-18)
(-3.0312 -2.9946 3.45022e-18)
(-3.06828 -3.01624 -6.81181e-19)
(-3.1717 -3.01771 7.83741e-19)
(-3.2893 -2.9956 4.80917e-19)
(0.362898 -3.0399 -3.34187e-19)
(-0.00281073 -2.76345 0)
(-0.53699 -2.83669 0)
(-1.20942 -2.94334 -1.26674e-18)
(-1.93774 -3.11674 0)
(-2.47021 -3.16794 -1.10552e-18)
(-2.81577 -3.17044 7.14049e-19)
(-3.01744 -3.05636 2.53815e-18)
(-3.13297 -2.95945 -1.13537e-18)
(-3.20058 -2.87777 -1.85303e-18)
(-3.28684 -2.79945 -3.56528e-18)
(-3.37045 -2.71823 3.45563e-18)
(0.198302 -3.32223 -1.81284e-18)
(-0.295796 -3.20114 -1.37621e-18)
(-0.944021 -3.33168 2.11653e-18)
(-1.6217 -3.41154 7.60775e-19)
(-2.19414 -3.42442 0)
(-2.57035 -3.33672 -4.57211e-18)
(-2.79633 -3.2245 3.79751e-18)
(-2.95333 -3.08064 0)
(-3.04238 -2.96277 2.92494e-18)
(-3.10586 -2.86049 -4.31846e-18)
(-3.1742 -2.76361 2.92119e-18)
(-3.23819 -2.66891 3.94669e-19)
(-0.039333 -3.5111 2.52556e-18)
(-0.569688 -3.51919 2.67021e-18)
(-1.18962 -3.61492 6.93619e-19)
(-1.79369 -3.61261 0)
(-2.24958 -3.5248 -2.84449e-18)
(-2.53335 -3.38253 5.04307e-18)
(-2.71631 -3.23113 0)
(-2.83117 -3.07675 -2.55908e-18)
(-2.91242 -2.93672 -2.32588e-18)
(-2.97954 -2.81215 3.55183e-18)
(-3.04624 -2.69686 0)
(-3.11176 -2.58835 -2.77797e-18)
(-0.270352 -3.66442 1.46855e-18)
(-0.782479 -3.75828 5.80682e-19)
(-1.33514 -3.79994 -1.84143e-18)
(-1.84463 -3.73107 -8.00355e-18)
(-2.20973 -3.58729 -2.49999e-19)
(-2.44089 -3.41217 6.57503e-18)
(-2.59427 -3.23524 0)
(-2.70327 -3.0638 7.3695e-18)
(-2.78671 -2.90757 -4.31702e-18)
(-2.85818 -2.76711 3.826e-18)
(-2.92613 -2.63875 2.41127e-19)
(-2.99215 -2.52026 -3.93938e-20)
(-0.45349 -3.82403 -1.52304e-18)
(-0.928612 -3.98094 -1.2739e-18)
(-1.40328 -3.96301 0)
(-1.82227 -3.8463 8.4454e-18)
(-2.12155 -3.66185 -1.17684e-17)
(-2.32147 -3.45676 -1.90964e-19)
(-2.46333 -3.25456 -1.17419e-17)
(-2.57129 -3.06405 4.4739e-19)
(-2.65905 -2.89035 -4.51949e-18)
(-2.73585 -2.73372 -4.45366e-18)
(-2.80733 -2.59165 4.41173e-18)
(-2.87555 -2.46202 -3.6665e-18)
(-0.611278 -4.01015 -1.38408e-19)
(-1.02207 -4.21364 -1.66451e-18)
(-1.4117 -4.13609 0)
(-1.74992 -3.97863 4.77278e-18)
(-2.00159 -3.75772 3.30234e-18)
(-2.18483 -3.52163 2.90352e-18)
(-2.32473 -3.29233 -4.57213e-19)
(-2.43713 -3.0789 -1.01028e-19)
(-2.53156 -2.88488 -5.19887e-18)
(-2.6145 -2.71032 -5.26076e-19)
(-2.69017 -2.55319 2.12397e-19)
(-2.76083 -2.41123 0)
(-0.713197 -4.18979 2.19516e-18)
(-1.07485 -4.45568 0)
(-1.37286 -4.31101 0)
(-1.63798 -4.11092 -3.98196e-18)
(-1.85498 -3.856 3.47528e-18)
(-2.03092 -3.58977 -7.00944e-18)
(-2.17526 -3.3338 0)
(-2.29603 -3.09689 5.60776e-18)
(-2.39916 -2.88217 -2.29299e-19)
(-2.48927 -2.68958 4.65944e-18)
(-2.5697 -2.51729 -4.8151e-18)
(-2.64295 -2.36284 9.18546e-18)
(-0.811604 -4.4767 4.60751e-18)
(-1.05476 -4.6926 -1.51632e-18)
(-1.25445 -4.44165 -5.24879e-18)
(-1.47275 -4.18056 -8.83201e-18)
(-1.67161 -3.89458 0)
(-1.8473 -3.60639 6.49609e-18)
(-2.0007 -3.33368 -1.29794e-17)
(-2.13351 -3.08244 5.71781e-18)
(-2.24824 -2.85477 6.02797e-18)
(-2.3479 -2.65051 0)
(-2.43505 -2.46804 -5.6157e-18)
(-2.51235 -2.30488 -9.41196e-18)
(-0.965991 -4.56893 -6.69029e-18)
(-0.948535 -4.68765 1.503e-18)
(-1.04098 -4.35732 4.52754e-18)
(-1.23086 -4.04347 3.81245e-18)
(-1.42591 -3.75675 -4.76143e-20)
(-1.61184 -3.47894 -1.10785e-17)
(-1.78151 -3.21919 1.32059e-17)
(-1.93195 -2.97926 2.56144e-17)
(-2.06302 -2.75974 -1.77767e-17)
(-2.17651 -2.56069 -1.19054e-17)
(-2.27409 -2.38128 1.07922e-17)
(-2.35863 -2.21961 0)
(-0.386667 -4.16914 5.53382e-18)
(-0.566801 -4.10417 1.88191e-18)
(-0.700727 -3.79628 2.02656e-18)
(-0.903089 -3.53571 8.04244e-18)
(-1.12077 -3.33019 0)
(-1.33013 -3.12781 6.42083e-18)
(-1.52166 -2.93125 -1.27805e-17)
(-1.6928 -2.7417 -5.65649e-18)
(-1.84265 -2.5612 -5.76348e-18)
(-1.97265 -2.39193 1.08671e-17)
(-2.08338 -2.23513 5.65122e-18)
(-2.17808 -2.09034 1.61368e-17)
(-3.87426 -2.47088 2.01973e-19)
(-4.07873 -2.41922 5.18391e-19)
(-4.2263 -2.26613 4.30958e-19)
(-4.30131 -2.11669 -1.07735e-18)
(-4.31021 -1.91958 3.52449e-19)
(-4.25045 -1.72058 0)
(-4.11219 -1.50438 -4.70416e-19)
(-3.89501 -1.29402 3.52508e-19)
(-3.59847 -1.07426 0)
(-3.19041 -0.826251 1.08473e-19)
(-2.73952 -0.42077 0)
(-2.61833 0.0997332 -2.8806e-19)
(-3.40134 -2.96144 -3.90246e-18)
(-3.51323 -2.88884 2.86353e-18)
(-3.62542 -2.77956 2.11284e-18)
(-3.7267 -2.63566 -8.68045e-19)
(-3.8046 -2.46776 0)
(-3.84112 -2.2958 0)
(-3.82842 -2.1267 1.42043e-18)
(-3.76181 -1.97482 -1.54246e-18)
(-3.63875 -1.8569 0)
(-3.36241 -1.74485 5.79081e-19)
(-3.08617 -1.61793 -6.10257e-20)
(-3.20567 -1.16956 -1.05393e-18)
(-3.45606 -2.63272 1.43768e-18)
(-3.53958 -2.53975 -2.429e-18)
(-3.61907 -2.43754 0)
(-3.68375 -2.33198 -2.51808e-18)
(-3.7267 -2.22621 -2.64165e-18)
(-3.74058 -2.12739 5.76184e-18)
(-3.722 -2.04585 -5.15151e-18)
(-3.67047 -1.99044 0)
(-3.59305 -1.96737 0)
(-3.44427 -1.96218 0)
(-3.20842 -1.95799 -5.16949e-19)
(-3.4049 -1.85642 1.54651e-19)
(-3.30392 -2.576 -1.15525e-18)
(-3.37172 -2.48248 -3.51368e-19)
(-3.43697 -2.38682 0)
(-3.49287 -2.29248 -3.28938e-19)
(-3.5348 -2.20469 0)
(-3.55938 -2.12977 0)
(-3.56357 -2.07549 1.2844e-18)
(-3.5509 -2.04947 -1.57052e-18)
(-3.51921 -2.05733 1.62769e-18)
(-3.44728 -2.12003 0)
(-3.26054 -2.21376 -5.2393e-19)
(-3.55285 -2.29664 -6.14506e-19)
(-3.17802 -2.48517 6.17592e-18)
(-3.24346 -2.38596 -1.54982e-18)
(-3.30515 -2.29101 2.80005e-18)
(-3.3599 -2.20322 1.26836e-18)
(-3.40575 -2.12679 -4.33174e-18)
(-3.44182 -2.06686 0)
(-3.46651 -2.0326 -1.47999e-18)
(-3.4808 -2.02803 0)
(-3.49102 -2.0651 0)
(-3.47858 -2.15807 1.01201e-18)
(-3.35919 -2.31421 3.47473e-20)
(-3.76513 -2.53292 6.96556e-19)
(-3.05747 -2.41 -2.98785e-18)
(-3.12138 -2.30697 -2.2233e-19)
(-3.18252 -2.21166 0)
(-3.23964 -2.1263 0)
(-3.29226 -2.05435 -4.78512e-18)
(-3.34061 -2.00041 3.03252e-18)
(-3.38618 -1.97063 3.11602e-18)
(-3.43115 -1.97172 1.63729e-18)
(-3.47773 -2.01516 -3.91219e-18)
(-3.52909 -2.11704 -1.02207e-18)
(-3.47463 -2.31577 0)
(-3.93321 -2.65536 7.97689e-19)
(-2.9417 -2.34314 -7.23714e-18)
(-3.00596 -2.23405 2.99049e-18)
(-3.06824 -2.13496 3.30752e-18)
(-3.12869 -2.0474 1.78517e-19)
(-3.18822 -1.97399 -3.7267e-19)
(-3.24853 -1.91844 -3.4044e-18)
(-3.31245 -1.8858 -4.99166e-18)
(-3.38381 -1.88233 -1.8082e-18)
(-3.46632 -1.91873 1.73927e-18)
(-3.56717 -2.01367 0)
(-3.59063 -2.21021 2.01742e-18)
(-4.08632 -2.63074 -5.11659e-19)
(-2.82794 -2.28251 7.52132e-18)
(-2.89249 -2.16568 -4.08114e-18)
(-2.95546 -2.06044 -3.79661e-18)
(-3.01815 -1.96749 -6.95142e-18)
(-3.08264 -1.88851 6.85563e-18)
(-3.15193 -1.82609 -1.7805e-19)
(-3.2304 -1.7839 1.04482e-17)
(-3.32395 -1.76732 1.67747e-18)
(-3.43872 -1.78586 2.02287e-18)
(-3.58775 -1.85916 0)
(-3.69196 -2.04031 -1.38741e-18)
(-4.19196 -2.50202 -6.6428e-19)
(-2.71079 -2.22395 0)
(-2.77502 -2.09861 3.94687e-18)
(-2.83746 -1.98587 3.84776e-18)
(-2.90033 -1.88556 -3.93787e-18)
(-2.96667 -1.79836 -1.48866e-19)
(-3.04051 -1.72553 -3.96581e-18)
(-3.12774 -1.66894 -3.60209e-18)
(-3.23662 -1.63231 0)
(-3.37653 -1.62242 -1.87035e-18)
(-3.56773 -1.65756 -1.17143e-18)
(-3.75441 -1.80015 4.48938e-18)
(-4.24603 -2.22686 -9.66069e-19)
(-2.58175 -2.15869 0)
(-2.64572 -2.02675 0)
(-2.70678 -1.90757 0)
(-2.76777 -1.80017 -1.33148e-17)
(-2.83246 -1.70418 8.50672e-18)
(-2.90563 -1.61962 8.23898e-18)
(-2.99443 -1.54614 0)
(-3.10909 -1.48486 -4.21269e-18)
(-3.26306 -1.43808 0)
(-3.48713 -1.42084 -2.44654e-18)
(-3.73814 -1.48627 -7.82913e-19)
(-4.22921 -1.79742 -1.24095e-18)
(-2.43188 -2.07404 0)
(-2.49687 -1.9413 0)
(-2.55659 -1.81993 1.00695e-17)
(-2.61422 -1.70849 1.40751e-17)
(-2.67376 -1.60584 3.8407e-19)
(-2.74053 -1.51092 4.72359e-18)
(-2.82291 -1.42101 -2.27202e-18)
(-2.9314 -1.33392 6.45159e-18)
(-3.08365 -1.24535 4.48199e-18)
(-3.31964 -1.16441 2.26757e-18)
(-3.60725 -1.09909 -1.82957e-18)
(-4.09084 -1.07389 -1.91839e-18)
(-2.25724 -1.95767 0)
(-2.32435 -1.83335 0)
(-2.38253 -1.717 -9.75621e-18)
(-2.43502 -1.60701 5.11811e-18)
(-2.48603 -1.50219 -4.59908e-18)
(-2.5406 -1.40102 -4.66781e-18)
(-2.60858 -1.29888 4.86591e-18)
(-2.6982 -1.1906 0)
(-2.82987 -1.06374 -4.48734e-18)
(-3.03248 -0.916893 -2.39069e-18)
(-3.33155 -0.690272 2.28747e-18)
(-3.6782 0.0210799 -4.54552e-18)
(-2.2414 0.159756 8.14118e-20)
(-1.94571 0.237244 0)
(-1.75605 0.332231 0)
(-1.66007 0.44637 6.86902e-19)
(-1.58687 0.568251 -8.40431e-19)
(-1.65999 0.675177 0)
(-1.80448 1.0003 0)
(-1.55724 1.8713 4.42612e-19)
(-1.77857 2.76995 1.00644e-18)
(-2.23056 3.04026 7.51802e-19)
(-2.37945 3.33064 -7.21842e-19)
(-2.52896 3.60122 7.8081e-19)
(-2.70322 -0.393896 -4.46117e-19)
(-2.40036 -0.219336 0)
(-2.39038 0.0403413 0)
(-2.45929 0.37967 -1.15931e-18)
(-2.46306 0.892951 1.6928e-18)
(-2.57771 1.73868 -1.59323e-18)
(-2.90087 2.47284 7.57729e-19)
(-2.93105 2.86654 6.95044e-19)
(-2.99358 3.03245 -5.11186e-19)
(-3.0157 3.06952 7.18808e-19)
(-3.01711 3.17242 0)
(-2.99526 3.29002 -1.47955e-18)
(-3.01864 -0.366333 3.61815e-19)
(-2.7579 0.00269925 0)
(-2.8343 0.536002 0)
(-2.94178 1.20702 -7.84827e-19)
(-3.11546 1.93611 5.13711e-19)
(-3.1672 2.46996 -1.42216e-18)
(-3.1701 2.81647 0)
(-3.05633 3.01834 -3.40888e-18)
(-2.9591 3.13417 3.43155e-18)
(-2.87749 3.20165 -1.01537e-18)
(-2.79915 3.28769 -2.49852e-18)
(-2.71797 3.37119 3.45642e-18)
(-3.32494 -0.200341 -9.05238e-19)
(-3.20019 0.294064 1.378e-18)
(-3.33072 0.94242 0)
(-3.41102 1.6205 7.60699e-19)
(-3.42435 2.19401 -6.39474e-19)
(-3.33679 2.57097 1.34573e-18)
(-3.22462 2.79732 0)
(-3.08068 2.95445 -2.069e-18)
(-2.96265 3.04356 -4.86893e-18)
(-2.86034 3.10687 3.0153e-18)
(-2.76345 3.17504 2.92355e-18)
(-2.66877 3.23891 -5.87843e-18)
(-3.51187 0.0385318 1.25809e-18)
(-3.51895 0.568046 -1.10087e-18)
(-3.61484 1.18838 2.22402e-18)
(-3.61281 1.7932 0)
(-3.5252 2.24999 -5.97803e-18)
(-3.38287 2.53416 5.87669e-18)
(-3.23137 2.71739 2.74042e-18)
(-3.0769 2.8322 2.00121e-18)
(-2.93674 2.91341 0)
(-2.81208 2.98038 0)
(-2.69677 3.04693 0)
(-2.58825 3.11233 -6.10579e-19)
(-3.66506 0.269268 3.66258e-18)
(-3.75841 0.781161 0)
(-3.80034 1.33431 -1.8436e-18)
(-3.73159 1.84454 4.15661e-18)
(-3.58783 2.21028 3.28896e-18)
(-3.41259 2.44171 -6.2873e-18)
(-3.23553 2.59516 2.88513e-18)
(-3.06396 2.70412 -1.00879e-17)
(-2.90761 2.7875 -1.2502e-19)
(-2.76707 2.85885 -3.49006e-19)
(-2.63866 2.92669 2.41478e-19)
(-2.52017 2.99259 1.00701e-17)
(-3.82467 0.452408 -5.41337e-18)
(-3.98126 0.927596 3.47772e-18)
(-3.96362 1.40277 -5.38511e-18)
(-3.84697 1.82238 -3.93582e-18)
(-3.66243 2.12209 -7.38482e-18)
(-3.45719 2.32217 -3.90028e-18)
(-3.25483 2.46405 -5.81427e-18)
(-3.06419 2.57196 9.68231e-18)
(-2.89039 2.65966 0)
(-2.73367 2.73637 8.36889e-18)
(-2.59157 2.80775 -1.1717e-17)
(-2.46193 2.87588 3.91821e-18)
(-4.01073 0.610487 -2.93496e-18)
(-4.21412 1.02136 -4.94913e-18)
(-4.13682 1.41143 7.32961e-18)
(-3.97936 1.75009 0)
(-3.7583 2.00204 -4.07341e-18)
(-3.52203 2.18539 6.15726e-18)
(-3.29258 2.32529 -2.93349e-19)
(-3.07902 2.43765 1.01092e-19)
(-2.8849 2.53202 -4.84018e-18)
(-2.71028 2.61489 -9.02544e-18)
(-2.55311 2.69048 4.01778e-18)
(-2.41113 2.76107 -4.03764e-18)
(-4.19031 0.712801 2.19643e-18)
(-4.45625 1.0745 0)
(-4.31172 1.37274 0)
(-4.11163 1.63812 0)
(-3.85657 1.85531 3.47833e-18)
(-3.59017 2.03134 0)
(-3.33405 2.17568 -3.78446e-19)
(-3.09703 2.29643 1.11591e-17)
(-2.88221 2.39951 2.52457e-19)
(-2.68955 2.48956 4.66338e-18)
(-2.51722 2.56994 -4.64124e-18)
(-2.36275 2.64312 1.36118e-17)
(-4.47718 0.811614 7.08363e-20)
(-4.69304 1.05441 8.04495e-18)
(-4.44222 1.25435 -2.41709e-18)
(-4.18115 1.47284 0)
(-3.89508 1.67183 0)
(-3.60676 1.84759 0)
(-3.33392 2.00101 0)
(-3.08258 2.13381 5.9672e-18)
(-2.85483 2.24851 -2.26425e-17)
(-2.6505 2.34812 -1.10363e-17)
(-2.46799 2.43523 1.05225e-17)
(-2.30481 2.51248 5.56027e-18)
(-4.56907 0.966155 -6.69032e-18)
(-4.68787 0.948505 -4.57283e-18)
(-4.35766 1.04095 -2.69978e-18)
(-4.04387 1.23091 0)
(-3.75711 1.42605 0)
(-3.47923 1.61203 7.44894e-18)
(-3.2194 1.78173 -1.36929e-17)
(-2.97939 1.93217 2.58467e-17)
(-2.75981 2.06322 1.81154e-17)
(-2.5607 2.17668 1.12281e-17)
(-2.38125 2.27421 -1.07977e-17)
(-2.21956 2.35873 6.07763e-19)
(-4.16923 0.386839 -1.87056e-18)
(-4.10422 0.566837 0)
(-3.79641 0.700727 3.88479e-18)
(-3.53593 0.903143 -1.19587e-17)
(-3.33043 1.12088 1.08646e-17)
(-3.12802 1.33028 3.57778e-19)
(-2.93142 1.52184 6.07822e-18)
(-2.74182 1.69297 -5.65706e-18)
(-2.56128 1.8428 -2.87121e-17)