/*--------------------------------*- C++ -*----------------------------------*\
| =========                 |                                                 |
| \\      /  F ield         | foam-extend: Open Source CFD                    |
|  \\    /   O peration     | Version:     4.0                                |
|   \\  /    A nd           | Web:         http://www.foam-extend.org         |
|    \\/     M anipulation  |                                                 |
\*---------------------------------------------------------------------------*/
FoamFile
{
    version     2.0;
    format      ascii;
    class       volVectorField;
    location    "4050";
    object      U;
}
// * * * * * * * * * * * * * * * * * * * * * * * * * * * * * * * * * * * * * //

dimensions      [0 1 -1 0 0 0 0];

internalField   nonuniform List<vector> 
34480
(
(209.006 2.16684 3.26216)
(209.326 1.1997 1.52481)
(209.483 0.413837 -0.272706)
(209.49 -0.210314 -2.17604)
(209.34 -0.7051 -4.32565)
(208.998 -1.06674 -6.89887)
(208.382 -1.26884 -10.2974)
(207.216 -1.18843 -14.8665)
(204.545 -0.590062 -22.7773)
(197.607 1.98009 -50.0421)
(209.939 3.08105 2.87489)
(210.198 2.25953 1.05401)
(210.325 1.53436 -0.770453)
(210.298 0.899821 -2.66947)
(210.063 0.327845 -4.7632)
(209.56 -0.192627 -7.26141)
(208.753 -0.671675 -10.6256)
(207.46 -1.04633 -15.599)
(204.324 -1.14608 -24.4048)
(196.165 0.636996 -55.1002)
(210.628 2.71751 3.2899)
(210.862 1.83733 1.40633)
(210.956 1.06183 -0.498566)
(210.886 0.407424 -2.44283)
(210.59 -0.171033 -4.55753)
(210.063 -0.696768 -7.10234)
(209.311 -1.1862 -10.608)
(208.167 -1.55844 -16.1048)
(204.866 -1.6353 -25.7843)
(195.656 0.361655 -59.4547)
(210.635 3.26164 3.23991)
(210.87 2.42893 1.30077)
(210.98 1.685 -0.63649)
(210.942 1.06063 -2.60826)
(210.708 0.511888 -4.75359)
(210.294 0.0146919 -7.36195)
(209.677 -0.4502 -10.9672)
(208.697 -0.790509 -16.8198)
(205.371 -0.819754 -27.119)
(195.357 1.32585 -62.7272)
(210.795 2.72726 3.74627)
(211.059 1.8205 1.76871)
(211.206 1.02582 -0.247773)
(211.231 0.376431 -2.29455)
(211.088 -0.188696 -4.53645)
(210.809 -0.69151 -7.27536)
(210.341 -1.14344 -11.0425)
(209.544 -1.43928 -17.2756)
(206.317 -1.38323 -28.2387)
(195.66 0.926801 -65.3969)
(210.68 3.41706 3.52175)
(210.955 2.52636 1.54658)
(211.122 1.74777 -0.430934)
(211.181 1.11889 -2.44649)
(211.106 0.589496 -4.65804)
(210.943 0.134152 -7.39251)
(210.628 -0.258158 -11.1656)
(210.047 -0.482604 -17.5872)
(207.067 -0.320938 -29.0315)
(196.01 2.08754 -67.3687)
(210.761 2.58073 4.03779)
(211.077 1.59505 2.0617)
(211.273 0.742386 0.0420715)
(211.37 0.0525027 -2.00522)
(211.354 -0.530525 -4.26798)
(211.288 -1.02361 -7.07487)
(211.114 -1.41147 -10.9458)
(210.749 -1.57075 -17.6129)
(208.099 -1.20994 -29.6317)
(196.748 1.49029 -68.9926)
(210.589 3.35699 3.56672)
(210.909 2.35904 1.62277)
(211.084 1.52561 -0.317289)
(211.14 0.862738 -2.29875)
(211.083 0.338182 -4.47306)
(211 -0.0837156 -7.17438)
(210.871 -0.378139 -10.9066)
(210.663 -0.415227 -17.4916)
(208.421 0.250193 -29.6951)
(197.105 3.31536 -69.591)
(210.534 2.04082 4.11464)
(210.898 0.92563 2.22402)
(211.104 -0.0310393 0.30848)
(211.198 -0.845247 -1.64905)
(211.192 -1.5488 -3.84204)
(211.153 -2.14759 -6.58128)
(211.093 -2.56112 -10.4058)
(211.024 -2.61219 -17.1068)
(209.112 -1.55742 -29.679)
(197.68 2.45886 -69.545)
(209.569 2.78743 3.53089)
(209.843 1.57017 1.5985)
(209.79 0.616378 -0.311878)
(209.431 -0.169548 -2.27864)
(208.813 -0.775551 -4.43742)
(208.027 -1.21635 -7.07443)
(207.158 -1.40004 -10.6665)
(206.371 -1.10918 -16.8187)
(204.433 0.415542 -28.5361)
(194.247 5.28069 -66.5005)
(205.891 1.91221 3.00056)
(206.369 1.10968 1.5439)
(206.556 0.426576 -0.00997712)
(206.473 -0.11738 -1.61008)
(206.095 -0.546495 -3.31983)
(205.333 -0.861302 -5.1516)
(203.986 -1.0659 -7.15911)
(201.62 -1.17177 -9.31733)
(198.154 -1.25686 -11.245)
(193.579 -1.15903 -14.3934)
(207.19 2.86858 2.79792)
(207.621 2.16425 1.16179)
(207.793 1.5194 -0.492269)
(207.704 0.943884 -2.18912)
(207.292 0.41651 -3.99635)
(206.437 -0.0687783 -5.97184)
(204.943 -0.527098 -8.20875)
(202.359 -0.993375 -10.9582)
(198.189 -1.58381 -14.0068)
(192.505 -1.82409 -20.5815)
(208.139 2.5776 3.30713)
(208.548 1.77153 1.54474)
(208.706 1.04486 -0.25678)
(208.606 0.422713 -2.09024)
(208.169 -0.133491 -4.02985)
(207.295 -0.636275 -6.15937)
(205.811 -1.11495 -8.66773)
(203.233 -1.58621 -12.0869)
(198.689 -2.15708 -16.3332)
(192.07 -2.07113 -26.7166)
(208.382 3.17799 3.30357)
(208.797 2.40346 1.45616)
(208.976 1.69444 -0.403413)
(208.918 1.08826 -2.29704)
(208.545 0.54644 -4.31008)
(207.773 0.0572602 -6.56894)
(206.401 -0.412395 -9.29946)
(203.916 -0.855381 -13.2587)
(199.143 -1.36353 -18.4766)
(191.71 -0.933535 -32.4541)
(208.736 2.66843 3.83841)
(209.178 1.80902 1.9358)
(209.396 1.04215 -0.0203631)
(209.403 0.408591 -2.00867)
(209.121 -0.146915 -4.14619)
(208.485 -0.635656 -6.58672)
(207.264 -1.09251 -9.57247)
(204.941 -1.48864 -14.063)
(200.089 -1.90227 -20.2309)
(191.949 -1.07298 -37.6931)
(208.771 3.39308 3.63433)
(209.228 2.5412 1.71995)
(209.472 1.78359 -0.206788)
(209.521 1.16372 -2.17561)
(209.313 0.634893 -4.29773)
(208.805 0.182698 -6.7731)
(207.75 -0.224122 -9.84351)
(205.648 -0.548014 -14.6623)
(200.884 -0.830124 -21.5476)
(192.218 0.364651 -42.21)
(208.977 2.56684 4.1601)
(209.469 1.61606 2.23759)
(209.744 0.786398 0.259123)
(209.839 0.1142 -1.74956)
(209.699 -0.450716 -3.93585)
(209.306 -0.919941 -6.51578)
(208.412 -1.31 -9.74448)
(206.556 -1.56824 -14.9178)
(201.998 -1.65622 -22.5677)
(192.908 0.00107689 -46.2451)
(208.891 3.37382 3.69578)
(209.392 2.40956 1.80354)
(209.656 1.59811 -0.0881939)
(209.725 0.950772 -2.02436)
(209.569 0.441173 -4.12039)
(209.198 0.0372298 -6.62283)
(208.398 -0.263983 -9.78133)
(206.762 -0.418417 -15.0053)
(202.533 -0.208132 -23.0527)
(193.316 1.83442 -49.2174)
(208.903 2.05541 4.24517)
(209.436 0.977345 2.40201)
(209.728 0.0661189 0.526004)
(209.834 -0.688957 -1.3777)
(209.735 -1.31844 -3.48069)
(209.437 -1.83477 -6.03048)
(208.759 -2.19008 -9.33542)
(207.35 -2.32164 -14.7937)
(203.46 -1.74189 -23.4886)
(193.992 1.0029 -51.498)
(207.981 2.86378 3.63696)
(208.458 1.69308 1.78959)
(208.575 0.7963 -0.0346782)
(208.362 0.0677808 -1.90547)
(207.834 -0.474207 -3.92989)
(207.026 -0.85564 -6.35388)
(205.826 -1.01331 -9.46978)
(204.024 -0.83212 -14.5641)
(200.282 0.222237 -23.038)
(191.635 4.03739 -51.3446)
(203.517 1.42791 2.33437)
(204.02 0.833569 1.21629)
(204.201 0.302537 -0.0132739)
(204.098 -0.131745 -1.26342)
(203.697 -0.482351 -2.55463)
(202.95 -0.746704 -3.83245)
(201.764 -0.934582 -5.04907)
(199.989 -1.0715 -6.0548)
(197.434 -1.24287 -6.4985)
(194.217 -1.43224 -6.5169)
(204.912 2.41428 2.31325)
(205.407 1.87195 0.946133)
(205.587 1.34566 -0.448804)
(205.464 0.855014 -1.86579)
(205 0.389925 -3.33137)
(204.112 -0.0549562 -4.84816)
(202.639 -0.492941 -6.37975)
(200.311 -0.955662 -7.86299)
(196.687 -1.5545 -8.80245)
(191.847 -2.13657 -9.81071)
(205.947 2.21204 2.94809)
(206.447 1.52885 1.39544)
(206.627 0.89064 -0.208765)
(206.502 0.327183 -1.83808)
(206.014 -0.19357 -3.53885)
(205.061 -0.681543 -5.32777)
(203.445 -1.16149 -7.21466)
(200.801 -1.66358 -9.29204)
(196.299 -2.33216 -11.0028)
(189.857 -2.91118 -13.584)
(206.344 2.89695 2.99423)
(206.866 2.22031 1.31811)
(207.072 1.57955 -0.38087)
(206.982 1.01446 -2.11237)
(206.531 0.491536 -3.94035)
(205.615 0.0010385 -5.92309)
(203.983 -0.488929 -8.10652)
(201.17 -0.995799 -10.7406)
(195.931 -1.68092 -13.2006)
(187.995 -2.16624 -17.5586)
(206.846 2.42641 3.56885)
(207.4 1.64997 1.80548)
(207.643 0.940732 -0.0195592)
(207.609 0.340531 -1.87743)
(207.228 -0.201105 -3.86953)
(206.401 -0.692673 -6.08635)
(204.828 -1.16966 -8.60264)
(201.97 -1.63808 -11.8317)
(196.184 -2.28612 -15.1301)
(186.926 -2.5777 -21.5717)
(207.012 3.20018 3.38978)
(207.585 2.41738 1.59389)
(207.855 1.70781 -0.222479)
(207.863 1.11491 -2.08443)
(207.545 0.594107 -4.09229)
(206.815 0.133077 -6.38756)
(205.342 -0.303629 -9.06306)
(202.542 -0.71557 -12.7147)
(196.409 -1.27662 -16.715)
(186.061 -1.34002 -25.333)
(207.33 2.39048 3.93884)
(207.935 1.50287 2.11669)
(208.234 0.720175 0.231301)
(208.288 0.0785563 -1.68947)
(208.032 -0.470398 -3.78536)
(207.402 -0.934994 -6.22109)
(206.047 -1.33767 -9.12172)
(203.367 -1.66924 -13.2321)
(197.06 -2.06867 -18.0275)
(185.783 -1.79923 -28.9562)
(207.337 3.23553 3.47888)
(207.95 2.33244 1.68356)
(208.244 1.56579 -0.117603)
(208.28 0.948613 -1.97011)
(208.017 0.454331 -3.98472)
(207.414 0.0566587 -6.36734)
(206.145 -0.257235 -9.26059)
(203.617 -0.487881 -13.5544)
(197.326 -0.620573 -18.8722)
(185.387 -0.0696787 -31.8725)
(207.429 1.90357 4.0328)
(208.061 0.887432 2.27503)
(208.376 0.0348995 0.472704)
(208.441 -0.660693 -1.36159)
(208.22 -1.23124 -3.38785)
(207.68 -1.68699 -5.81522)
(206.521 -1.99264 -8.87654)
(204.188 -2.12671 -13.515)
(198.029 -1.86074 -19.6421)
(185.306 -0.799301 -34.2637)
(206.573 2.76958 3.39228)
(207.153 1.67667 1.66375)
(207.338 0.850637 -0.0526492)
(207.166 0.187342 -1.82458)
(206.629 -0.293666 -3.74855)
(205.717 -0.615383 -6.03825)
(204.201 -0.726518 -8.92243)
(201.631 -0.547164 -13.3058)
(195.609 0.21759 -19.5469)
(182.828 2.30022 -34.6944)
(201.781 0.949111 1.70179)
(202.218 0.547709 0.911412)
(202.369 0.165642 0.00790102)
(202.27 -0.157865 -0.896417)
(201.922 -0.428587 -1.80008)
(201.307 -0.641163 -2.62149)
(200.395 -0.807818 -3.29566)
(199.161 -0.952064 -3.68718)
(197.602 -1.12929 -3.58049)
(195.871 -1.36487 -2.75287)
(203.103 1.90748 1.7914)
(203.57 1.53201 0.718131)
(203.733 1.13484 -0.38772)
(203.602 0.741815 -1.49712)
(203.154 0.354133 -2.6017)
(202.344 -0.0309919 -3.67095)
(201.095 -0.424217 -4.62883)
(199.303 -0.848009 -5.34701)
(196.838 -1.37056 -5.40303)
(194.04 -1.93789 -4.6197)
(204.092 1.75989 2.50355)
(204.602 1.22001 1.20607)
(204.778 0.690191 -0.15083)
(204.636 0.20463 -1.518)
(204.136 -0.260144 -2.91217)
(203.208 -0.712457 -4.31343)
(201.717 -1.17173 -5.65532)
(199.468 -1.66424 -6.84636)
(196.114 -2.29567 -7.29998)
(192.034 -2.99151 -6.92402)
(204.551 2.52657 2.58713)
(205.108 1.97217 1.13179)
(205.313 1.4208 -0.354573)
(205.191 0.916106 -1.86119)
(204.69 0.432876 -3.42373)
(203.723 -0.0381939 -5.05639)
(202.095 -0.526179 -6.71337)
(199.508 -1.05352 -8.37937)
(195.292 -1.75935 -9.29351)
(189.827 -2.52568 -9.54029)
(205.137 2.10099 3.20278)
(205.738 1.43197 1.62537)
(205.978 0.800224 -0.0199674)
(205.897 0.249922 -1.68742)
(205.432 -0.261448 -3.45168)
(204.489 -0.741824 -5.35628)
(202.812 -1.22417 -7.38188)
(200.008 -1.72774 -9.61126)
(195.04 -2.44205 -11.1402)
(188.235 -3.18122 -12.3679)
(205.394 2.92935 3.05271)
(206.023 2.23928 1.4184)
(206.29 1.59623 -0.243823)
(206.243 1.04565 -1.94383)
(205.817 0.548756 -3.75866)
(204.923 0.0930694 -5.7801)
(203.254 -0.359103 -8.01117)
(200.343 -0.826362 -10.6685)
(194.77 -1.50681 -12.7413)
(186.758 -2.16652 -15.1349)
(205.797 2.14605 3.6309)
(206.458 1.34318 1.94759)
(206.753 0.623349 0.194425)
(206.746 0.0242216 -1.58899)
(206.368 -0.49821 -3.52107)
(205.538 -0.951736 -5.71768)
(203.916 -1.36289 -8.22172)
(200.976 -1.74469 -11.3675)
(194.945 -2.30046 -14.1235)
(185.843 -2.77403 -17.9493)
(205.884 3.04181 3.18187)
(206.553 2.21934 1.51796)
(206.846 1.51088 -0.159335)
(206.828 0.933838 -1.88664)
(206.444 0.463288 -3.75591)
(205.631 0.0769868 -5.92617)
(204.048 -0.247017 -8.4676)
(201.147 -0.535995 -11.8565)
(194.857 -0.880736 -15.1101)
(184.869 -1.19392 -20.3181)
(206.044 1.7084 3.76453)
(206.724 0.770865 2.12357)
(207.034 -0.0164575 0.423879)
(207.039 -0.652885 -1.30799)
(206.689 -1.16975 -3.21031)
(205.919 -1.57419 -5.43812)
(204.393 -1.84576 -8.14337)
(201.582 -1.99543 -11.8892)
(195.221 -1.94755 -15.9862)
(184.257 -1.89924 -22.3805)
(205.256 2.64802 3.10259)
(205.889 1.6452 1.5147)
(206.107 0.893048 -0.0759223)
(205.943 0.293623 -1.72675)
(205.373 -0.131747 -3.51646)
(204.349 -0.403143 -5.61281)
(202.583 -0.48176 -8.16709)
(199.582 -0.316641 -11.7257)
(193.24 0.228205 -16.0578)
(181.785 1.20164 -22.863)
(200.571 0.551119 1.19394)
(200.914 0.294916 0.666109)
(201.028 0.0340546 0.0357601)
(200.953 -0.195283 -0.583089)
(200.694 -0.396657 -1.18743)
(200.256 -0.562397 -1.69751)
(199.643 -0.702065 -2.06662)
(198.881 -0.830799 -2.20479)
(198.016 -0.975077 -2.02032)
(197.164 -1.14159 -1.42912)
(201.727 1.43451 1.31136)
(202.121 1.20002 0.510252)
(202.258 0.920738 -0.321241)
(202.144 0.622169 -1.14562)
(201.771 0.31352 -1.93591)
(201.123 -0.00395888 -2.64897)
(200.178 -0.33478 -3.21066)
(198.934 -0.68875 -3.5126)
(197.411 -1.09413 -3.32757)
(195.914 -1.51127 -2.51764)
(202.577 1.2927 2.05044)
(203.048 0.890603 1.01564)
(203.209 0.470797 -0.0832956)
(203.076 0.0689837 -1.18038)
(202.623 -0.329612 -2.26758)
(201.814 -0.729627 -3.30342)
(200.583 -1.14428 -4.20336)
(198.865 -1.59107 -4.83741)
(196.582 -2.12527 -4.81326)
(194.193 -2.69421 -3.92696)
(203.017 2.11733 2.14838)
(203.559 1.69108 0.935489)
(203.755 1.23754 -0.315479)
(203.626 0.803244 -1.5742)
(203.135 0.372893 -2.84709)
(202.225 -0.0600343 -4.11447)
(200.775 -0.519672 -5.29415)
(198.642 -1.02522 -6.27061)
(195.552 -1.66462 -6.46641)
(192.083 -2.36905 -5.60752)
(203.616 1.72874 2.79425)
(204.221 1.17893 1.43095)
(204.453 0.635766 -0.0065653)
(204.349 0.145923 -1.45388)
(203.858 -0.322883 -2.95357)
(202.908 -0.776619 -4.50654)
(201.317 -1.24379 -6.04465)
(198.86 -1.74674 -7.49226)
(194.996 -2.42632 -8.08612)
(190.379 -3.19382 -7.53434)
(203.913 2.60712 2.66959)
(204.561 2.02453 1.22687)
(204.822 1.46013 -0.251858)
(204.742 0.962242 -1.75773)
(204.264 0.500783 -3.33669)
(203.308 0.0645911 -5.02976)
(201.637 -0.383723 -6.78409)
(198.952 -0.870442 -8.60572)
(194.393 -1.55925 -9.55977)
(188.652 -2.35306 -9.45945)
(204.362 1.85337 3.27562)
(205.05 1.15108 1.7611)
(205.338 0.505799 0.169071)
(205.29 -0.0419494 -1.44485)
(204.84 -0.529046 -3.16834)
(203.907 -0.962448 -5.06306)
(202.205 -1.37096 -7.11184)
(199.37 -1.77958 -9.39676)
(194.214 -2.37969 -10.8781)
(187.39 -3.09955 -11.5021)
(204.504 2.80594 2.8393)
(205.204 2.07976 1.3339)
(205.495 1.44066 -0.193548)
(205.439 0.912167 -1.76645)
(204.98 0.473519 -3.44903)
(204.044 0.106122 -5.34441)
(202.327 -0.218607 -7.4584)
(199.42 -0.54316 -9.9907)
(193.839 -0.991225 -11.8663)
(186.055 -1.65654 -13.2454)
(204.717 1.47464 3.45729)
(205.425 0.630488 1.95861)
(205.729 -0.0843279 0.386403)
(205.692 -0.659604 -1.21511)
(205.257 -1.12418 -2.95751)
(204.348 -1.48265 -4.93718)
(202.645 -1.72718 -7.22515)
(199.715 -1.8903 -10.0745)
(193.889 -1.98183 -12.6837)
(185.057 -2.39472 -14.8185)
(203.991 2.50146 2.77471)
(204.656 1.59933 1.34467)
(204.897 0.925128 -0.103766)
(204.741 0.389856 -1.61327)
(204.154 0.0174468 -3.24031)
(203.069 -0.209342 -5.10204)
(201.2 -0.264034 -7.2727)
(198.102 -0.118999 -10.0005)
(192.174 0.260004 -12.811)
(182.634 0.640323 -15.1308)
(199.739 0.251685 0.824881)
(199.993 0.0931303 0.488409)
(200.075 -0.0795494 0.0636017)
(200.023 -0.23649 -0.342712)
(199.848 -0.382076 -0.735395)
(199.56 -0.507323 -1.0465)
(199.175 -0.618473 -1.25087)
(198.724 -0.723004 -1.29412)
(198.247 -0.831644 -1.14383)
(197.791 -0.943194 -0.777497)
(200.717 1.04044 0.910869)
(201.019 0.911075 0.336733)
(201.126 0.728221 -0.26015)
(201.038 0.512475 -0.845168)
(200.755 0.277248 -1.38648)
(200.276 0.0267648 -1.84331)
(199.612 -0.237725 -2.15828)
(198.794 -0.516789 -2.25868)
(197.885 -0.815352 -2.03778)
(197.078 -1.10365 -1.43094)
(201.39 0.861566 1.63604)
(201.788 0.575031 0.842243)
(201.926 0.254808 -0.0152708)
(201.813 -0.0660597 -0.863776)
(201.436 -0.395752 -1.68088)
(200.784 -0.73476 -2.41795)
(199.839 -1.08967 -2.99864)
(198.61 -1.46914 -3.31459)
(197.136 -1.89525 -3.14387)
(195.749 -2.32526 -2.34647)
(201.758 1.71205 1.7204)
(202.247 1.40387 0.746233)
(202.423 1.04625 -0.269245)
(202.301 0.685471 -1.28316)
(201.86 0.315176 -2.28034)
(201.068 -0.0669996 -3.22109)
(199.871 -0.47772 -4.01849)
(198.23 -0.929472 -4.5453)
(196.096 -1.4685 -4.43725)
(193.955 -2.04071 -3.43905)
(202.316 1.34313 2.37751)
(202.884 0.910896 1.23665)
(203.097 0.459455 0.0179848)
(202.986 0.0360022 -1.20019)
(202.514 -0.381516 -2.43267)
(201.634 -0.795725 -3.64945)
(200.239 -1.22837 -4.76371)
(198.235 -1.69895 -5.64698)
(195.416 -2.29715 -5.77441)
(192.408 -2.96204 -4.76566)
(202.61 2.25826 2.26785)
(203.236 1.78728 1.03187)
(203.482 1.30763 -0.24657)
(203.383 0.869449 -1.54191)
(202.897 0.452076 -2.87082)
(201.964 0.0473146 -4.23245)
(200.423 -0.37764 -5.54366)
(198.122 -0.84923 -6.712)
(194.641 -1.48312 -7.0464)
(190.724 -2.22637 -6.09534)
(203.07 1.53071 2.89455)
(203.747 0.936751 1.56774)
(204.02 0.373364 0.156808)
(203.945 -0.116325 -1.26716)
(203.464 -0.560808 -2.76058)
(202.511 -0.965127 -4.33686)
(200.874 -1.35696 -5.93766)
(198.341 -1.76596 -7.50453)
(194.246 -2.34317 -8.22478)
(189.396 -3.07468 -7.55856)
(203.24 2.54058 2.46828)
(203.937 1.92022 1.1402)
(204.218 1.35843 -0.217924)
(204.135 0.885171 -1.6153)
(203.639 0.485192 -3.08705)
(202.659 0.143994 -4.68431)
(200.957 -0.1689 -6.36136)
(198.267 -0.501243 -8.14046)
(193.685 -0.973336 -9.13445)
(187.954 -1.71694 -8.79335)
(203.488 1.21048 3.12312)
(204.196 0.469749 1.78554)
(204.487 -0.167028 0.360798)
(204.418 -0.679453 -1.08806)
(203.935 -1.09255 -2.64478)
(202.963 -1.40837 -4.35252)
(201.236 -1.62842 -6.21898)
(198.442 -1.79478 -8.27892)
(193.523 -1.95812 -9.83221)
(186.815 -2.51404 -9.91441)
(202.813 2.33617 2.41847)
(203.482 1.54218 1.15875)
(203.733 0.949059 -0.134026)
(203.582 0.478213 -1.48548)
(202.994 0.156469 -2.92838)
(201.899 -0.0308406 -4.53214)
(200.048 -0.0680792 -6.30677)
(197.093 0.0555954 -8.29696)
(191.995 0.313709 -9.98369)
(184.568 0.412592 -10.0824)
(199.165 0.0421283 0.576359)
(199.35 -0.0565735 0.369759)
(199.406 -0.170415 0.0876307)
(199.374 -0.275803 -0.172445)
(199.263 -0.37926 -0.425536)
(199.085 -0.471395 -0.616464)
(198.855 -0.556059 -0.736408)
(198.597 -0.635524 -0.752734)
(198.335 -0.712796 -0.658274)
(198.074 -0.784024 -0.451625)
(199.988 0.740703 0.599028)
(200.205 0.682381 0.200233)
(200.283 0.572072 -0.211214)
(200.22 0.423582 -0.609821)
(200.019 0.25172 -0.966816)
(199.689 0.0621762 -1.25029)
(199.247 -0.139711 -1.42133)
(198.73 -0.349579 -1.43692)
(198.196 -0.562296 -1.25227)
(197.759 -0.754274 -0.850816)
(200.485 0.495513 1.28423)
(200.799 0.296416 0.694337)
(200.909 0.0590694 0.0457502)
(200.821 -0.189343 -0.591073)
(200.528 -0.453074 -1.18891)
(200.034 -0.729392 -1.7022)
(199.348 -1.01956 -2.07147)
(198.506 -1.32479 -2.2226)
(197.579 -1.64855 -2.04286)
(196.775 -1.95761 -1.47323)
(200.757 1.34207 1.33066)
(201.169 1.13255 0.573958)
(201.319 0.861544 -0.222731)
(201.215 0.571849 -1.01234)
(200.845 0.263695 -1.76785)
(200.199 -0.0613273 -2.44286)
(199.266 -0.411798 -2.96163)
(198.062 -0.792681 -3.22039)
(196.637 -1.22217 -3.01373)
(195.324 -1.65798 -2.19301)
(201.238 0.97268 1.97819)
(201.741 0.646434 1.05178)
(201.928 0.283054 0.048093)
(201.824 -0.0725615 -0.948045)
(201.401 -0.433716 -1.93192)
(200.638 -0.799323 -2.85721)
(199.486 -1.18348 -3.63817)
(197.931 -1.59948 -4.14865)
(195.952 -2.0969 -4.06604)
(194.019 -2.62782 -3.11849)
(201.497 1.90626 1.86995)
(202.07 1.54174 0.841996)
(202.292 1.14714 -0.231719)
(202.189 0.772168 -1.31392)
(201.732 0.404854 -2.39861)
(200.88 0.0407007 -3.4575)
(199.546 -0.345503 -4.39854)
(197.675 -0.77508 -5.09977)
(195.127 -1.31993 -5.10525)
(192.504 -1.9457 -4.03103)
(201.938 1.19696 2.50642)
(202.573 0.711091 1.37481)
(202.824 0.232228 0.155132)
(202.735 -0.195345 -1.06964)
(202.262 -0.591736 -2.32911)
(201.356 -0.959307 -3.60164)
(199.882 -1.32166 -4.80837)
(197.74 -1.7068 -5.82717)
(194.631 -2.22173 -6.09922)
(191.266 -2.86457 -5.0734)
(202.11 2.25996 2.08455)
(202.774 1.74816 0.943388)
(203.037 1.26776 -0.233646)
(202.94 0.854128 -1.44322)
(202.442 0.497862 -2.69431)
(201.488 0.1886 -3.9975)
(199.91 -0.102023 -5.27599)
(197.561 -0.417642 -6.45331)
(193.978 -0.85784 -6.88315)
(189.88 -1.53913 -5.9233)
(202.378 0.926452 2.77516)
(203.058 0.293487 1.60957)
(203.331 -0.262308 0.345883)
(203.243 -0.711178 -0.93548)
(202.747 -1.07367 -2.29248)
(201.781 -1.34942 -3.72572)
(200.147 -1.54597 -5.20101)
(197.646 -1.7059 -6.629)
(193.705 -1.88954 -7.46375)
(188.791 -2.41859 -6.70007)
(201.741 2.16027 2.04526)
(202.387 1.47794 0.962289)
(202.636 0.967421 -0.165707)
(202.492 0.560751 -1.34766)
(201.924 0.287416 -2.59386)
(200.867 0.134967 -3.93394)
(199.132 0.110291 -5.33125)
(196.475 0.213102 -6.71451)
(192.319 0.384836 -7.61552)
(186.787 0.372405 -6.78109)
(198.759 -0.0985044 0.417777)
(198.896 -0.162728 0.295557)
(198.934 -0.239689 0.10703)
(198.915 -0.310322 -0.0578438)
(198.848 -0.383478 -0.222985)
(198.743 -0.45 -0.343345)
(198.609 -0.512449 -0.420361)
(198.463 -0.570407 -0.432977)
(198.317 -0.623684 -0.383267)
(198.15 -0.668242 -0.273328)
(199.463 0.530694 0.367257)
(199.611 0.516934 0.0967135)
(199.665 0.457856 -0.176581)
(199.623 0.360801 -0.437988)
(199.489 0.240381 -0.664908)
(199.271 0.102592 -0.835112)
(198.989 -0.0453638 -0.924324)
(198.671 -0.197161 -0.908709)
(198.359 -0.344799 -0.771815)
(198.117 -0.470632 -0.513377)
(199.805 0.204887 1.00205)
(200.038 0.0667085 0.57456)
(200.122 -0.106035 0.0961002)
(200.057 -0.29346 -0.370777)
(199.843 -0.498119 -0.800163)
(199.488 -0.715652 -1.15462)
(199.011 -0.943942 -1.39157)
(198.452 -1.17946 -1.46532)
(197.876 -1.41711 -1.32178)
(197.406 -1.63213 -0.946311)
(199.982 1.02643 0.994572)
(200.311 0.892907 0.424444)
(200.432 0.695102 -0.180672)
(200.349 0.469996 -0.776285)
(200.056 0.221811 -1.33176)
(199.557 -0.04506 -1.8032)
(198.861 -0.332451 -2.13148)
(198.01 -0.639466 -2.24268)
(197.075 -0.967799 -2.02958)
(196.271 -1.28565 -1.4235)
(200.369 0.639156 1.61503)
(200.791 0.401518 0.883276)
(200.949 0.117539 0.0789878)
(200.858 -0.172801 -0.713862)
(200.502 -0.476234 -1.47949)
(199.876 -0.788504 -2.16742)
(198.969 -1.11702 -2.70374)
(197.809 -1.46803 -2.98659)
(196.453 -1.864 -2.83143)
(195.218 -2.26679 -2.08454)
(200.573 1.57167 1.49516)
(201.072 1.30159 0.664711)
(201.265 0.987232 -0.211048)
(201.168 0.675469 -1.08916)
(200.763 0.361269 -1.94901)
(200.029 0.0436693 -2.74881)
(198.93 -0.294054 -3.40237)
(197.472 -0.666043 -3.79556)
(195.657 -1.11002 -3.64697)
(193.921 -1.60337 -2.71221)
(200.977 0.870658 2.12904)
(201.546 0.48572 1.18915)
(201.769 0.0894546 0.161016)
(201.677 -0.274858 -0.865975)
(201.24 -0.619885 -1.90117)
(200.428 -0.945122 -2.90243)
(199.168 -1.26871 -3.78746)
(197.434 -1.61286 -4.42103)
(195.149 -2.04659 -4.44745)
(192.849 -2.56757 -3.45688)
(201.127 1.97914 1.70436)
(201.734 1.57217 0.750241)
(201.972 1.17317 -0.242399)
(201.87 0.820968 -1.26113)
(201.401 0.51152 -2.29432)
(200.524 0.238288 -3.32552)
(199.138 -0.0225408 -4.26586)
(197.18 -0.305834 -5.00177)
(194.477 -0.683616 -5.08972)
(191.604 -1.24165 -4.02933)
(201.403 0.634422 2.42787)
(202.032 0.107765 1.43666)
(202.28 -0.367115 0.340278)
(202.184 -0.753152 -0.767085)
(201.705 -1.06636 -1.92179)
(200.799 -1.30418 -3.09464)
(199.335 -1.47734 -4.22896)
(197.207 -1.62394 -5.18397)
(194.167 -1.79831 -5.56507)
(190.666 -2.23199 -4.57255)
(200.79 1.98328 1.6678)
(201.391 1.41181 0.761359)
(201.627 0.983323 -0.198143)
(201.493 0.639594 -1.20546)
(200.963 0.412112 -2.2518)
(199.986 0.290279 -3.33739)
(198.433 0.274577 -4.39692)
(196.157 0.358301 -5.31039)
(192.901 0.468957 -5.695)
(188.926 0.424343 -4.59117)
(198.46 -0.191762 0.321278)
(198.567 -0.236987 0.252216)
(198.593 -0.291966 0.12249)
(198.582 -0.340131 0.0170255)
(198.543 -0.39237 -0.0945608)
(198.483 -0.440075 -0.174413)
(198.407 -0.485289 -0.229686)
(198.325 -0.526535 -0.245343)
(198.241 -0.562583 -0.226319)
(198.122 -0.590008 -0.173602)
(199.082 0.396296 0.199428)
(199.179 0.408968 0.0190445)
(199.215 0.384384 -0.155799)
(199.189 0.324866 -0.32039)
(199.102 0.24415 -0.458592)
(198.965 0.147901 -0.556188)
(198.789 0.043385 -0.598977)
(198.598 -0.0628778 -0.574078)
(198.416 -0.163154 -0.477325)
(198.28 -0.244479 -0.311626)
(199.297 -0.0129523 0.785438)
(199.463 -0.111529 0.481375)
(199.523 -0.236476 0.134752)
(199.478 -0.375132 -0.202075)
(199.328 -0.529755 -0.507349)
(199.083 -0.695863 -0.75284)
(198.764 -0.869598 -0.909793)
(198.402 -1.04538 -0.952067)
(198.047 -1.21543 -0.854312)
(197.772 -1.3618 -0.621803)
(199.394 0.772716 0.717087)
(199.644 0.693814 0.29959)
(199.738 0.554531 -0.145914)
(199.675 0.385092 -0.581615)
(199.454 0.19154 -0.978611)
(199.085 -0.0201949 -1.30019)
(198.587 -0.247594 -1.50354)
(198.001 -0.486242 -1.54014)
(197.395 -0.729951 -1.35772)
(196.902 -0.95508 -0.931547)
(199.685 0.356101 1.29888)
(200.023 0.187954 0.735203)
(200.15 -0.0281456 0.106961)
(200.076 -0.258874 -0.50855)
(199.791 -0.506571 -1.09112)
(199.301 -0.764908 -1.59404)
(198.615 -1.03643 -1.95892)
(197.777 -1.32148 -2.11244)
(196.862 -1.62675 -1.9542)
(196.077 -1.92106 -1.41126)
(199.825 1.26978 1.15769)
(200.241 1.07822 0.505686)
(200.402 0.835619 -0.187851)
(200.318 0.583886 -0.87983)
(199.977 0.322913 -1.54232)
(199.375 0.054485 -2.13057)
(198.507 -0.230289 -2.57195)
(197.408 -0.539167 -2.77556)
(196.142 -0.886712 -2.57469)
(195.003 -1.25724 -1.84128)
(200.182 0.567736 1.77725)
(200.672 0.271706 1.01655)
(200.862 -0.0477121 0.17132)
(200.777 -0.35047 -0.668489)
(200.394 -0.643277 -1.49885)
(199.702 -0.923072 -2.2693)
(198.671 -1.20267 -2.90499)
(197.318 -1.497 -3.28526)
(195.677 -1.84702 -3.1966)
(194.125 -2.2454 -2.37603)
(200.294 1.71219 1.3426)
(200.826 1.40097 0.567049)
(201.034 1.07964 -0.246112)
(200.937 0.788028 -1.07971)
(200.516 0.52643 -1.90799)
(199.749 0.291534 -2.69978)
(198.585 0.065237 -3.36782)
(197.018 -0.178087 -3.80029)
(195.032 -0.485349 -3.70297)
(193.052 -0.910367 -2.75645)
(200.569 0.346108 2.09531)
(201.13 -0.0808732 1.27276)
(201.348 -0.477964 0.342415)
(201.253 -0.803558 -0.592754)
(200.815 -1.06953 -1.55273)
(200.007 -1.27151 -2.49086)
(198.754 -1.42127 -3.34289)
(197.018 -1.5501 -3.96244)
(194.741 -1.70149 -4.08203)
(192.304 -2.03017 -3.14717)
(199.969 1.81517 1.29872)
(200.506 1.34963 0.562051)
(200.721 1.00025 -0.23113)
(200.6 0.716965 -1.06539)
(200.123 0.532282 -1.91751)
(199.258 0.437125 -2.76897)
(197.924 0.427789 -3.54129)
(196.053 0.494874 -4.1095)
(193.583 0.562945 -4.17924)
(190.809 0.519247 -3.11544)
(198.232 -0.255807 0.265843)
(198.319 -0.290746 0.229542)
(198.337 -0.3332 0.13547)
(198.332 -0.367331 0.0658009)
(198.31 -0.405656 -0.0140059)
(198.276 -0.440142 -0.0711379)
(198.233 -0.472755 -0.115479)
(198.187 -0.501788 -0.135258)
(198.137 -0.525878 -0.13599)
(198.043 -0.542321 -0.116916)
(198.8 0.320918 0.0782215)
(198.862 0.348756 -0.0402972)
(198.886 0.346662 -0.147101)
(198.87 0.313612 -0.245246)
(198.816 0.262371 -0.324155)
(198.731 0.197919 -0.375329)
(198.625 0.126625 -0.390985)
(198.511 0.0543312 -0.363989)
(198.405 -0.0126109 -0.295271)
(198.326 -0.0646561 -0.185939)
(198.916 -0.167994 0.624928)
(199.028 -0.242247 0.411077)
(199.07 -0.333265 0.162493)
(199.04 -0.434584 -0.0787416)
(198.939 -0.548844 -0.295605)
(198.777 -0.672415 -0.468022)
(198.569 -0.800847 -0.577343)
(198.34 -0.928369 -0.609502)
(198.123 -1.04747 -0.5522)
(197.96 -1.14554 -0.417673)
(198.954 0.579832 0.495819)
(199.137 0.537816 0.198415)
(199.207 0.443176 -0.119643)
(199.161 0.319574 -0.428797)
(199.002 0.173351 -0.70464)
(198.739 0.0109785 -0.918876)
(198.394 -0.163039 -1.04216)
(198 -0.34276 -1.04428)
(197.611 -0.519512 -0.902057)
(197.308 -0.676252 -0.609709)
(199.156 0.129426 1.03353)
(199.416 0.0128502 0.608905)
(199.515 -0.147811 0.12949)
(199.457 -0.326554 -0.337734)
(199.239 -0.52314 -0.772491)
(198.87 -0.730479 -1.13574)
(198.37 -0.947871 -1.38416)
(197.781 -1.17191 -1.46911)
(197.172 -1.40166 -1.33823)
(196.674 -1.61139 -0.96367)
(199.235 1.00974 0.866139)
(199.568 0.879686 0.368473)
(199.697 0.698185 -0.164651)
(199.627 0.500839 -0.694162)
(199.353 0.290534 -1.19043)
(198.88 0.0708721 -1.61234)
(198.22 -0.160929 -1.90292)
(197.417 -0.408022 -1.99707)
(196.547 -0.671592 -1.79858)
(195.805 -0.940706 -1.25425)
(199.543 0.30016 1.46164)
(199.948 0.078479 0.861093)
(200.106 -0.172554 0.183112)
(200.031 -0.417925 -0.487081)
(199.711 -0.660009 -1.13801)
(199.147 -0.893844 -1.71956)
(198.335 -1.12798 -2.16947)
(197.314 -1.37038 -2.3923)
(196.157 -1.64415 -2.2674)
(195.12 -1.93654 -1.63859)
(199.605 1.47061 1.01133)
(200.053 1.24247 0.399047)
(200.228 0.992035 -0.246682)
(200.141 0.757748 -0.908243)
(199.781 0.542979 -1.55198)
(199.139 0.346857 -2.14158)
(198.2 0.157238 -2.59941)
(196.989 -0.0438301 -2.83416)
(195.562 -0.284679 -2.65422)
(194.219 -0.594801 -1.88853)
(199.876 0.0717135 1.78968)
(200.359 -0.266197 1.12322)
(200.545 -0.591338 0.350733)
(200.458 -0.860559 -0.421496)
(200.075 -1.08225 -1.20235)
(199.386 -1.25078 -1.93802)
(198.356 -1.37756 -2.56668)
(196.99 -1.48633 -2.96)
(195.327 -1.60996 -2.94809)
(193.664 -1.84764 -2.17773)
(199.279 1.66538 0.949169)
(199.741 1.29739 0.369858)
(199.929 1.02194 -0.264849)
(199.823 0.795286 -0.933942)
(199.41 0.649784 -1.60485)
(198.672 0.577638 -2.24967)
(197.57 0.572806 -2.78836)
(196.088 0.62586 -3.11461)
(194.265 0.664535 -3.0109)
(192.377 0.633191 -2.10692)
(198.052 -0.304381 0.237552)
(198.126 -0.333758 0.220996)
(198.14 -0.369454 0.147726)
(198.137 -0.395153 0.09875)
(198.125 -0.424546 0.0372724)
(198.106 -0.450114 -0.0076963)
(198.081 -0.473917 -0.0468942)
(198.056 -0.494363 -0.0705255)
(198.024 -0.510292 -0.0839965)
(197.945 -0.519629 -0.085109)
(198.587 0.289412 -0.0112668)
(198.626 0.326099 -0.0878311)
(198.642 0.338381 -0.148353)
(198.632 0.323617 -0.201466)
(198.6 0.293643 -0.240952)
(198.549 0.252583 -0.261998)
(198.485 0.205671 -0.260763)
(198.418 0.157751 -0.23298)
(198.355 0.113638 -0.18174)
(198.309 0.0805368 -0.105152)
(198.625 -0.273126 0.509456)
(198.699 -0.333077 0.359348)
(198.726 -0.400736 0.181149)
(198.707 -0.474536 0.00780233)
(198.641 -0.557716 -0.147799)
(198.536 -0.647631 -0.272105)
(198.404 -0.740191 -0.353212)
(198.262 -0.83036 -0.384052)
(198.131 -0.911991 -0.357699)
(198.035 -0.976488 -0.288269)
(198.63 0.441134 0.324008)
(198.758 0.422557 0.118193)
(198.808 0.360642 -0.101759)
(198.777 0.27332 -0.3142)
(198.666 0.166391 -0.500173)
(198.486 0.0460063 -0.638973)
(198.252 -0.0829284 -0.71138)
(197.993 -0.214343 -0.699087)
(197.746 -0.339828 -0.593726)
(197.559 -0.447615 -0.395097)