/*--------------------------------*- C++ -*----------------------------------*\
| =========                 |                                                 |
| \\      /  F ield         | foam-extend: Open Source CFD                    |
|  \\    /   O peration     | Version:     4.0                                |
|   \\  /    A nd           | Web:         http://www.foam-extend.org         |
|    \\/     M anipulation  |                                                 |
\*---------------------------------------------------------------------------*/
FoamFile
{
    version     2.0;
    format      ascii;
    class       volScalarField;
    location    "2600";
    object      divFlux;
}
// * * * * * * * * * * * * * * * * * * * * * * * * * * * * * * * * * * * * * //

dimensions      [1 -3 -1 0 0 0 0];

internalField   nonuniform List<scalar> 
34480
(
0.0693608
0.0221049
0.0225614
0.0208039
0.018872
0.0170355
0.015326
0.0137824
0.0124547
0.0113392
0.0174865
0.00883331
0.00888009
0.00857858
0.00829803
0.0079627
0.00750872
0.00696096
0.00638834
0.00584809
0.00385921
0.00254145
0.00259154
0.00263361
0.00271495
0.00278415
0.00277474
0.002667
0.00249059
0.00228435
0.000950788
0.000715859
0.000738233
0.000767693
0.000813738
0.000862172
0.000887154
0.000873306
0.000824087
0.000751774
0.000187646
0.000159244
0.000171166
0.000185458
0.000203986
0.000223578
0.000236691
0.000237319
0.000224268
0.000200638
1.22365e-05
2.51429e-06
5.41286e-06
1.32732e-05
2.09684e-05
2.78748e-05
3.25934e-05
3.38658e-05
3.0975e-05
2.5334e-05
5.67884e-05
4.27954e-05
3.67936e-05
3.16513e-05
2.7934e-05
2.568e-05
2.44716e-05
2.39034e-05
2.39324e-05
2.44503e-05
6.36499e-05
5.04535e-05
4.50529e-05
4.07479e-05
3.81485e-05
3.71427e-05
3.691e-05
3.67001e-05
3.60724e-05
3.54787e-05
7.41779e-05
5.94136e-05
5.26149e-05
4.68595e-05
4.26978e-05
4.00891e-05
3.85463e-05
3.76422e-05
3.67762e-05
3.62224e-05
7.49502e-05
6.09902e-05
5.40445e-05
4.79216e-05
4.28933e-05
3.90818e-05
3.65407e-05
3.52028e-05
3.45908e-05
3.47319e-05
0.0895121
0.0255288
0.0260094
0.0242973
0.0223941
0.0207141
0.0192951
0.0181932
0.017513
0.0184792
0.0245502
0.0112818
0.0113624
0.0110089
0.0106575
0.010378
0.0101336
0.00989314
0.00968895
0.0103682
0.00581255
0.00356684
0.0036467
0.00371064
0.00382915
0.00395343
0.00405144
0.00409399
0.00407267
0.00436991
0.00155446
0.00110907
0.00114417
0.00118714
0.00125868
0.00133726
0.00140452
0.00144406
0.00144247
0.00153507
0.000318654
0.000261602
0.000281573
0.000304488
0.000333701
0.000365811
0.000393036
0.000408772
0.000406017
0.000422977
4.42274e-05
1.89558e-05
3.33934e-06
1.09827e-05
2.34909e-05
3.38868e-05
4.11781e-05
4.36173e-05
4.00037e-05
3.50691e-05
0.000139821
0.000102266
8.84562e-05
7.76732e-05
7.11667e-05
6.91676e-05
6.98561e-05
7.29367e-05
7.62844e-05
8.53637e-05
0.000166501
0.000128289
0.00011419
0.00010381
9.8402e-05
9.83785e-05
0.000101272
0.00010613
0.00010898
0.000117946
0.000216852
0.000168887
0.000148951
0.000132739
0.000121229
0.000115427
0.000114145
0.00011679
0.000118552
0.000127328
0.000235566
0.00018657
0.00016515
0.000146833
0.000132132
0.000122642
0.000118005
0.000118041
0.000119639
0.000129748
0.0898838
0.021945
0.0227784
0.0215596
0.0202289
0.0191194
0.0182906
0.0178165
0.0178973
0.0212237
0.0237878
0.00926762
0.00943716
0.00908193
0.00877337
0.00862249
0.00861029
0.00872165
0.00904433
0.00597014
0.00530064
0.00278849
0.00284356
0.0028447
0.00288304
0.00297769
0.00312799
0.00331225
0.00354575
0.000684816
0.00134764
0.000833657
0.000853193
0.000867565
0.000899045
0.000947449
0.00101748
0.00110119
0.00119703
0.00140117
0.000271331
0.000194832
0.000206646
0.000217649
0.000232671
0.000251437
0.00027526
0.000302154
0.000329266
0.000380987
2.09184e-05
3.99779e-06
5.98718e-06
1.5275e-05
2.33766e-05
3.03367e-05
3.61327e-05
3.99921e-05
4.02061e-05
3.71402e-05
8.84637e-05
5.75491e-05
4.86922e-05
4.06419e-05
3.50883e-05
3.23696e-05
3.27143e-05
3.68227e-05
4.54409e-05
6.48221e-05
9.9918e-05
6.96606e-05
6.13157e-05
5.3765e-05
4.87959e-05
4.70811e-05
4.89286e-05
5.51602e-05
6.60941e-05
8.9459e-05
0.000114855
8.12426e-05
7.22461e-05
6.38501e-05
5.75772e-05
5.42109e-05
5.43545e-05
5.92243e-05
6.98656e-05
9.56682e-05
0.000106026
7.50425e-05
6.73497e-05
6.02502e-05
5.4921e-05
5.18688e-05
5.12622e-05
5.44464e-05
6.43857e-05
9.48041e-05
0.0905844
0.0198666
0.0208308
0.0199707
0.0189773
0.0181644
0.0175967
0.0160332
0.00716335
0.0101217
0.0243886
0.00872661
0.00891368
0.00855844
0.00822688
0.00802665
0.0079751
0.00808212
0.00729342
0.00476424
0.00546353
0.00268328
0.0027325
0.00270263
0.0026981
0.0027456
0.00285352
0.00302006
0.00324672
0.001455
0.00140475
0.000821993
0.000839892
0.000845796
0.000861838
0.000893512
0.000946644
0.00102082
0.00111441
0.00021516
0.000286906
0.000196881
0.000208513
0.000217798
0.000229506
0.000243782
0.00026292
0.000286807
0.000313812
0.000395724
2.01082e-05
2.95026e-06
7.16654e-06
1.64478e-05
2.43558e-05
3.09763e-05
3.63052e-05
3.98922e-05
4.05665e-05
0.000148792
9.18068e-05
5.82728e-05
4.92652e-05
4.09286e-05
3.49253e-05
3.14616e-05
3.11261e-05
3.47421e-05
4.30772e-05
5.94117e-05
0.000103534
7.10439e-05
6.26976e-05
5.49642e-05
4.9576e-05
4.7016e-05
4.80454e-05
5.37343e-05
6.47101e-05
8.47575e-05
0.000116154
8.1653e-05
7.31167e-05
6.50725e-05
5.89384e-05
5.52872e-05
5.50458e-05
5.96481e-05
7.05811e-05
9.35031e-05
0.000105798
7.4668e-05
6.7471e-05
6.0832e-05
5.59051e-05
5.30094e-05
5.26503e-05
5.62013e-05
6.65265e-05
9.40696e-05
0.0892918
0.0176029
0.0186576
0.018077
0.0173202
0.0166849
0.014313
0.0106052
0.00592541
0.00244349
0.0244482
0.00803474
0.00826027
0.00795223
0.00763342
0.0073985
0.00726903
0.00726064
0.00476286
0.00178309
0.00556429
0.00254291
0.00259198
0.00254362
0.00250896
0.00251199
0.00256029
0.00265869
0.00268964
0.000364458
0.00144966
0.000798998
0.000816932
0.000816186
0.000820889
0.000836717
0.000867978
0.000916677
0.000980861
0.000451254
0.000299236
0.000195806
0.000207545
0.000215765
0.000224477
0.000234668
0.000247893
0.000264725
0.000284203
0.00050834
2.03404e-05
2.25608e-06
7.90761e-06
1.71042e-05
2.47969e-05
3.10379e-05
3.5803e-05
3.88531e-05
3.94765e-05
0.000369007
9.54059e-05
5.84442e-05
4.95193e-05
4.11342e-05
3.48526e-05
3.07909e-05
2.95375e-05
3.17835e-05
3.81671e-05
0.00018489
0.000106949
7.14946e-05
6.34115e-05
5.57951e-05
5.02316e-05
4.70242e-05
4.6942e-05
5.09496e-05
5.97627e-05
7.26812e-05
0.000116969
8.07581e-05
7.28082e-05
6.52851e-05
5.94823e-05
5.57711e-05
5.50205e-05
5.85155e-05
6.77086e-05
4.3864e-05
0.00010538
7.31213e-05
6.64558e-05
6.0299e-05
5.57272e-05
5.29946e-05
5.27233e-05
5.61089e-05
6.53441e-05
8.86631e-05
0.0861548
0.0152416
0.0163216
0.0159499
0.0152214
0.0135404
0.0115983
0.00965533
0.00739477
0.00374042
0.023852
0.00720656
0.00746489
0.00722159
0.00694646
0.00672122
0.00656098
0.00605106
0.0042411
0.000786814
0.00558694
0.00236831
0.00242002
0.00236343
0.00231132
0.00228395
0.00228612
0.00232123
0.00226121
0.000581912
0.00147811
0.000765041
0.000783563
0.000778186
0.00077471
0.000778273
0.000791547
0.000815979
0.000878417
0.000669159
0.000308074
0.000191846
0.000203889
0.000210982
0.000217444
0.000224316
0.000232569
0.000242665
0.000253607
0.00053446
2.07939e-05
1.59983e-06
8.51681e-06
1.75573e-05
2.50032e-05
3.08794e-05
3.51607e-05
3.77354e-05
3.8173e-05
0.000392506
9.84361e-05
5.78421e-05
4.91475e-05
4.08352e-05
3.43812e-05
2.98802e-05
2.7824e-05
2.86528e-05
3.27188e-05
0.000245347
0.000109587
7.0973e-05
6.32828e-05
5.59034e-05
5.02733e-05
4.66094e-05
4.55615e-05
4.78136e-05
5.38502e-05
0.000171671
0.000117081
7.88993e-05
7.15479e-05
6.45431e-05
5.90794e-05
5.54308e-05
5.43143e-05
5.66651e-05
6.35431e-05
9.49945e-05
0.000104604
7.08192e-05
6.46777e-05
5.89689e-05
5.46958e-05
5.20972e-05
5.17884e-05
5.47033e-05
6.23129e-05
6.30904e-05
0.0811244
0.0124771
0.0134412
0.0129719
0.0120274
0.0111112
0.00999319
0.0090225
0.00781886
0.00618377
0.0226501
0.00629677
0.00657118
0.00638995
0.00616679
0.00597471
0.00580519
0.00528847
0.00416377
0.00229917
0.00550811
0.00216258
0.00221957
0.00216498
0.00210833
0.00206679
0.0020433
0.00203946
0.00198655
0.00101131
0.00148377
0.000719825
0.000739771
0.000732565
0.000724748
0.000720786
0.000722238
0.000729779
0.000859236
0.000717932
0.000312422
0.000184888
0.000197243
0.000203629
0.000208634
0.000213217
0.000217978
0.000223159
0.00022764
0.00048708
2.09406e-05
7.9684e-07
9.14985e-06
1.7957e-05
2.51326e-05
3.06827e-05
3.45933e-05
3.68311e-05
3.7119e-05
0.000345472
0.000100166
5.61941e-05
4.7863e-05
3.9767e-05
3.32636e-05
2.85202e-05
2.58814e-05
2.55805e-05
2.77207e-05
0.000219747
0.00011086
6.92649e-05
6.20599e-05
5.50053e-05
4.94308e-05
4.5521e-05
4.37798e-05
4.46208e-05
4.82491e-05
0.000166836
0.000116095
7.60249e-05
6.92681e-05
6.27569e-05
5.76195e-05
5.41032e-05
5.2767e-05
5.42157e-05
5.90614e-05
0.000109831
0.000103139
6.77588e-05
6.21322e-05
5.68373e-05
5.28221e-05
5.03269e-05
4.98956e-05
5.2198e-05
5.81464e-05
8.58142e-05
0.0745694
0.00952074
0.0105451
0.0104416
0.00989513
0.00939525
0.0087165
0.00824114
0.00750871
0.00681045
0.0209957
0.00537256
0.00564541
0.00551447
0.00533692
0.00517939
0.0050111
0.00466283
0.00401513
0.00302668
0.00530033
0.00192937
0.00199163
0.00194596
0.00189433
0.00185198
0.001821
0.00183749
0.00176736
0.00118577
0.00145839
0.000662911
0.000684678
0.000678169
0.000669617
0.000662914
0.000658956
0.000657996
0.000787175
0.00068131
0.000311002
0.00017476
0.000187356
0.000193452
0.000197783
0.000201196
0.000204039
0.000206419
0.000248058
0.00041097
2.04123e-05
2.23304e-07
9.84035e-06
1.83103e-05
2.51785e-05
3.04415e-05
3.40979e-05
3.61467e-05
4.06876e-05
0.000279077
9.99902e-05
5.33356e-05
4.54981e-05
3.77546e-05
3.13973e-05
2.66283e-05
2.36571e-05
2.25885e-05
2.33837e-05
0.000171061
0.000110278
6.62292e-05
5.95754e-05
5.29482e-05
4.75552e-05
4.36185e-05
4.14734e-05
4.13401e-05
4.32285e-05
0.000132751
0.000113667
7.20644e-05
6.58994e-05
5.98678e-05
5.50566e-05
5.17098e-05
5.02475e-05
5.1036e-05
5.4376e-05
8.23211e-05
0.000100679
6.38808e-05
5.87647e-05
5.38661e-05
5.00945e-05
4.769e-05
4.70906e-05
4.87516e-05
5.32224e-05
6.3222e-05
0.0683376
0.00757039
0.00850541
0.00856504
0.00822606
0.00794262
0.00749258
0.00726049
0.00674805
0.00647891
0.0190628
0.00448962
0.00474767
0.00465521
0.00451459
0.00439792
0.00425064
0.00401829
0.00364428
0.00310589
0.00496705
0.00167835
0.00174294
0.00170767
0.00166446
0.00162741
0.00159837
0.00162676
0.00155667
0.00121622
0.00139804
0.000595544
0.000618478
0.00061374
0.000606339
0.000599789
0.000594689
0.000591148
0.000687844
0.000614912
0.000303037
0.000161572
0.000174103
0.000180039
0.00018412
0.000187106
0.000189211
0.000190476
0.000239667
0.000333166
1.89712e-05
1.44468e-06
1.054e-05
1.85236e-05
2.49923e-05
2.99559e-05
3.34191e-05
3.53948e-05
7.21994e-05
0.000214776
9.74994e-05
4.9255e-05
4.203e-05
3.47793e-05
2.87678e-05
2.41725e-05
2.11119e-05
1.96194e-05
1.96029e-05
0.000122893
0.000107515
6.18539e-05
5.5805e-05
4.96644e-05
4.45951e-05
4.08148e-05
3.85228e-05
3.782e-05
3.56884e-05
9.63664e-05
0.000109558
6.70183e-05
6.14443e-05
5.59062e-05
5.14256e-05
4.82735e-05
4.67369e-05
4.70339e-05
4.92995e-05
4.70555e-05
9.69896e-05
5.9171e-05
5.45653e-05
5.00664e-05
4.65412e-05
4.42358e-05
4.34681e-05
4.45376e-05
4.77716e-05
3.48468e-05
0.062028
0.00614302
0.00693025
0.00704957
0.00681909
0.0066488
0.00632305
0.00621401
0.0058188
0.00574683
0.0170002
0.00368302
0.00391814
0.00385464
0.00375908
0.00366358
0.00353912
0.00338168
0.00315842
0.00284656
0.00454228
0.00142472
0.00148786
0.00146141
0.00142605
0.00139485
0.00136973
0.00139451
0.00133733
0.00113841
0.00130672
0.00052149
0.000544328
0.00054122
0.000535205
0.000529555
0.000524781
0.000520966
0.000581015
0.00053587
0.000288824
0.000145935
0.000157944
0.000163561
0.000167382
0.000170119
0.000171931
0.000172842
0.000208
0.000263242
1.6535e-05
2.78802e-06
1.11596e-05
1.84794e-05
2.44099e-05
2.89796e-05
3.2207e-05
3.41109e-05
7.43911e-05
0.000158271
9.25466e-05
4.41113e-05
3.75944e-05
3.09671e-05
2.54518e-05
2.11882e-05
1.82366e-05
1.65938e-05
1.61658e-05
8.00744e-05
0.000102436
5.62734e-05
5.08652e-05
4.5271e-05
4.06277e-05
3.71197e-05
3.48604e-05
3.38866e-05
1.91998e-05
6.37818e-05
0.00010365
6.09812e-05
5.60065e-05
5.09658e-05
4.68587e-05
4.39262e-05
4.23521e-05
4.22726e-05
4.37372e-05
1.77406e-05
9.19252e-05
5.36834e-05
4.95883e-05
4.54991e-05
4.22533e-05
4.00746e-05
3.91739e-05
3.97442e-05
4.15866e-05
1.17082e-05
0.0552822
0.00495542
0.00558498
0.00571653
0.00554558
0.00543633
0.00518458
0.00514584
0.00482732
0.00485506
0.0149165
0.00301395
0.00318464
0.00315668
0.0030801
0.00298971
0.00289163
0.00278376
0.00264624
0.00245192
0.00406457
0.00118201
0.00124075
0.00122116
0.00119224
0.001166
0.00117164
0.0011634
0.00111798
0.000995644
0.00119264
0.000445417
0.000466944
0.000464931
0.000459931
0.000455007
0.000450651
0.000446953
0.000479338
0.000451528
0.000269414
0.000128757
0.000139792
0.000144843
0.000148215
0.000150584
0.000152091
0.000152766
0.000172864
0.000205176
1.31927e-05
4.12405e-06
1.15959e-05
1.80901e-05
2.33393e-05
2.73919e-05
3.02796e-05
3.20259e-05
6.58918e-05
0.000113586
8.52612e-05
3.81993e-05
3.24638e-05
2.65641e-05
2.16501e-05
1.78266e-05
1.51165e-05
1.35013e-05
1.29047e-05
4.61302e-05
9.5116e-05
4.97465e-05
4.5008e-05
4.00156e-05
3.5861e-05
3.26915e-05
3.0568e-05
2.94967e-05
1.19112e-05
3.82179e-05
9.59478e-05
5.41304e-05
4.9765e-05
4.52547e-05
4.15625e-05
3.88765e-05
3.73151e-05
3.69564e-05
3.78081e-05
1.89563e-06
8.54363e-05
4.75457e-05
4.39699e-05
4.03125e-05
3.73864e-05
3.53676e-05
3.43911e-05
3.458e-05
3.33308e-05
3.6579e-06
0.049352
0.0040615
0.0045669
0.00470017
0.00456233
0.00447164
0.00424005
0.00420747
0.00389262
0.00391427
0.0129095
0.00241462
0.00255335
0.00252641
0.00246045
0.0023862
0.00231267
0.00223926
0.00215395
0.00202621
0.00356361
0.000958344
0.00101089
0.000996595
0.000974841
0.000975438
0.000967747
0.000947294
0.000910889
0.000829728
0.00106364
0.000371093
0.000390406
0.000389016
0.000384697
0.000380278
0.000376245
0.000372694
0.000386518
0.000368644
0.000245953
0.000110886
0.000120604
0.000124897
0.000127665
0.000129542
0.000130663
0.000131063
0.000140971
0.000158525
9.20761e-06
5.28623e-06
1.17309e-05
1.72844e-05
2.17509e-05
2.51921e-05
2.76492e-05
2.91504e-05
5.5638e-05
8.09936e-05
7.60138e-05
3.18923e-05
2.69869e-05
2.18911e-05
1.76474e-05
1.43325e-05
1.19455e-05
1.04622e-05
9.82466e-06
2.25701e-05
8.58158e-05
4.26118e-05
3.85622e-05
3.42168e-05
3.05959e-05
2.78086e-05
2.58838e-05
2.48122e-05
7.85442e-06
2.09191e-05
8.65955e-05
4.67193e-05
4.29742e-05
3.90284e-05
3.57856e-05
3.3384e-05
3.18942e-05
3.13578e-05
3.17552e-05
1.31331e-05
7.75789e-05
4.09557e-05
3.79013e-05
3.47062e-05
3.21329e-05
3.03123e-05
2.93268e-05
2.92522e-05
2.75035e-05
1.20473e-05
0.0407517
0.0028071
0.00321078
0.00342132
0.00342579
0.00348338
0.003419
0.00355487
0.00341239
0.00360135
0.0110185
0.00183917
0.00196954
0.00195943
0.0019143
0.00185842
0.00180246
0.00174695
0.00168417
0.00158067
0.00309138
0.000793345
0.000838837
0.000829482
0.000812915
0.000795147
0.000775417
0.00075172
0.000721637
0.000663223
0.000925813
0.000300974
0.000317481
0.00031638
0.000312537
0.0003085
0.000304743
0.00030137
0.000303186
0.000291363
0.00021932
9.29689e-05
0.000101147
0.000104586
0.000106684
0.000108025
0.000108738
0.000108863
0.000113377
0.000121178
4.99623e-06
6.10163e-06
1.14508e-05
1.60084e-05
1.96466e-05
2.24345e-05
2.44175e-05
2.79992e-05
4.61137e-05
5.78544e-05
6.53472e-05
2.55806e-05
2.15251e-05
1.72742e-05
1.37386e-05
1.09695e-05
8.95479e-06
7.66683e-06
7.06261e-06
7.8447e-06
7.49533e-05
3.52444e-05
3.18864e-05
2.82207e-05
2.51618e-05
2.27884e-05
2.11087e-05
1.58397e-05
4.68951e-06
1.06537e-05
7.58708e-05
3.90454e-05
3.59206e-05
3.25672e-05
2.98007e-05
2.77207e-05
2.6363e-05
2.5748e-05
2.58341e-05
1.81505e-05
6.85227e-05
3.41583e-05
3.16214e-05
2.89101e-05
2.67154e-05
2.51294e-05
2.41981e-05
2.3967e-05
2.25633e-05
1.51994e-05
0.0443845
0.00255584
0.00262615
0.00248111
0.00213377
0.00181595
0.00138948
0.00117711
0.000705205
0.000595033
0.00928647
0.00132082
0.00146077
0.0014773
0.0014638
0.00144822
0.00143872
0.00143692
0.00143823
0.00141141
0.00257099
0.000625517
0.000672965
0.000667036
0.000648835
0.000628009
0.000606189
0.000583029
0.00055672
0.000509313
0.000782914
0.000236431
0.000249913
0.000248998
0.000245629
0.000242014
0.000238595
0.000235467
0.000230989
0.000221902
0.000190073
7.54754e-05
8.20276e-05
8.46072e-05
8.60597e-05
8.68971e-05
8.72415e-05
8.71301e-05
8.97852e-05
9.11654e-05
1.07063e-06
6.42513e-06
1.06747e-05
1.42447e-05
1.70672e-05
1.92106e-05
2.0721e-05
3.07722e-05
3.77042e-05
4.1355e-05
5.39141e-05
1.96228e-05
1.63996e-05
1.29965e-05
1.01703e-05
7.95602e-06
6.3338e-06
5.27693e-06
4.75551e-06
4.66515e-07
6.30669e-05
2.8015e-05
2.53313e-05
2.23537e-05
1.98655e-05
1.79225e-05
1.27582e-05
6.37122e-06
1.76553e-06
5.31172e-06
6.41751e-05
3.14297e-05
2.89115e-05
2.6161e-05
2.38854e-05
2.21523e-05
2.09762e-05
2.03634e-05
2.02649e-05
1.89159e-05
5.85479e-05
2.74249e-05
2.53882e-05
2.31718e-05
2.13697e-05
2.0044e-05
1.92198e-05
1.89201e-05
1.80258e-05
1.49659e-05
0.027479
0.00337338
0.00418712
0.00503142
0.00578215
0.0064745
0.00690064
0.00732828
0.00726991
0.00740059
0.00772301
0.000941826
0.000978453
0.00090439
0.000797112
0.00068654
0.000585103
0.00049667
0.000418075
0.000322621
0.00203617
0.000443137
0.000501033
0.000504037
0.000490932
0.000473506
0.000455465
0.000438193
0.000421236
0.000390553
0.000637032
0.000177547
0.000187951
0.000187219
0.000184473
0.000181512
0.000178692
0.000176068
0.000172279
0.000161252
0.000158501
5.87035e-05
6.36534e-05
6.54539e-05
6.63557e-05
6.67899e-05
6.68582e-05
6.65895e-05
6.94682e-05
6.68771e-05
2.03387e-06
6.17382e-06
9.37496e-06
1.2022e-05
1.40906e-05
1.75414e-05
2.54167e-05
2.90559e-05
3.01441e-05
2.9324e-05
4.24115e-05
1.43057e-05
1.18635e-05
9.2695e-06
7.12044e-06
5.43734e-06
4.20066e-06
3.38613e-06
2.97264e-06
2.88249e-06
0.000154802
4.91259e-05
5.27738e-06
2.46728e-06
2.62103e-06
1.32941e-06
3.7488e-08
2.82247e-07
9.78011e-07
3.07505e-06
5.20082e-05
2.41878e-05
2.22427e-05
2.00844e-05
1.82953e-05
1.69188e-05
1.59588e-05
1.54089e-05
1.52232e-05
1.5341e-05
4.80332e-05
2.10291e-05
1.94627e-05
1.77314e-05
1.63196e-05
1.52679e-05
1.45856e-05
1.43187e-05
1.38775e-05
1.2968e-05
0.0270846
0.00686447
0.0106465
0.0133584
0.0149189
0.0153842
0.0151304
0.0141982
0.0131884
0.011701
0.00673784
0.00125141
0.00156031
0.00180399
0.00198928
0.00211213
0.00217476
0.00218603
0.00215526
0.00211629
0.00159295
0.000291191
0.000363031
0.000367674
0.000350217
0.000325223
0.000298251
0.000271161
0.000243335
0.000204737
0.000499313
0.000127943
0.000135107
0.00013393
0.000131197
0.000128467
0.000126116
0.000124197
0.000121613
0.000112029
0.000125624
4.32702e-05
4.67901e-05
4.79424e-05
4.84026e-05
4.91647e-05
5.15395e-05
5.23005e-05
5.17318e-05
4.71716e-05
7.15694e-05
4.30756e-05
2.88129e-05
2.5268e-05
2.51115e-05
2.55623e-05
2.55761e-05
2.44782e-05
2.29411e-05
2.01541e-05
3.15102e-05
9.82108e-06
8.07614e-06
6.21427e-06
4.67675e-06
3.4758e-06
2.59427e-06
2.01024e-06
1.71247e-06
1.6762e-06
0.000594564
0.00025966
0.000107162
4.94283e-05
2.53532e-05
1.42703e-05
8.70798e-06
5.01682e-06
3.33935e-06
2.52775e-06
3.99379e-05
1.76005e-05
1.61765e-05
1.45766e-05
1.32494e-05
1.22204e-05
1.14865e-05
1.10394e-05
1.08372e-05
1.07221e-05
3.74286e-05
1.52188e-05
1.40774e-05
1.28035e-05
1.17624e-05
1.098e-05
1.04576e-05
1.03007e-05
1.01515e-05
1.03602e-05
0.315997
0.056509
0.0606184
0.0566659
0.0505473
0.0439583
0.0375642
0.0316379
0.0261445
0.0214847
0.00179821
0.00241232
0.00302166
0.00340761
0.00355061
0.0034772
0.00324115
0.00289639
0.00248237
0.00208698
0.000714137
0.000110694
0.000274701
0.000343014
0.000366512
0.000363918
0.000347379
0.000324313
0.000296963
0.000252141
0.000347823
8.16877e-05
8.69604e-05
8.69009e-05
8.53651e-05
8.33095e-05
8.10501e-05
7.88044e-05
7.60804e-05
6.88487e-05
0.00010605
4.31785e-05
4.37295e-05
4.27696e-05
4.17134e-05
4.06297e-05
3.93946e-05
3.78562e-05
3.59619e-05
3.13214e-05
9.81658e-05
6.37184e-05
4.22172e-05
3.19123e-05
2.63329e-05
2.28076e-05
2.01895e-05
1.77933e-05
1.57052e-05
1.2775e-05
2.17563e-05
6.25077e-06
5.09806e-06
3.86585e-06
2.85101e-06
2.06266e-06
1.48481e-06
1.10293e-06
9.11161e-07
9.17882e-07
0.00104314
0.000456833
0.000193227
8.88895e-05
4.44948e-05
2.3993e-05
1.36949e-05
7.67455e-06
4.60083e-06
2.32303e-06
2.85406e-05
1.18891e-05
1.09182e-05
9.81978e-06
8.9082e-06
8.19915e-06
7.68539e-06
7.35851e-06
7.18361e-06
6.97307e-06
2.72227e-05
1.01935e-05
9.41765e-06
8.55366e-06
7.84697e-06
7.31336e-06
6.95072e-06
6.75779e-06
6.74751e-06
7.55079e-06
2.11328
0.0946755
0.0944271
0.0807506
0.0659451
0.0527298
0.0415487
0.0322233
0.0245153
0.0178934
0.0293709
0.0111512
0.010952
0.010149
0.00901085
0.00772497
0.0064093
0.00512364
0.00387787
0.00276702
0.00123048
0.000275947
0.000159186
0.000123029
9.21352e-05
5.95046e-05
2.25377e-05
2.01711e-05
7.02114e-05
0.000129432
0.000249722
5.0518e-05
5.48783e-05
5.42948e-05
5.2105e-05
4.93327e-05
4.61862e-05
4.24764e-05
3.73307e-05
2.8067e-05
7.44876e-05
3.19471e-05
3.19202e-05
3.01072e-05
2.80798e-05
2.6148e-05
2.43655e-05
2.26996e-05
2.1013e-05
1.77277e-05
6.64004e-05
4.49032e-05
2.96883e-05
2.1743e-05
1.70839e-05
1.40661e-05
1.1922e-05
1.02039e-05
8.79489e-06
6.8415e-06
1.35629e-05
3.58157e-06
2.89842e-06
2.17108e-06
1.57627e-06
1.1152e-06
7.81026e-07
5.61318e-07
4.5628e-07
4.84652e-07
0.00129281
0.000557951
0.000229685
0.000101811
4.84962e-05
2.45951e-05
1.29633e-05
6.63972e-06
3.29976e-06
9.56265e-07
1.83574e-05
7.19764e-06
6.60007e-06
5.92759e-06
5.37111e-06
4.93692e-06
4.62007e-06
4.41218e-06
4.28762e-06
4.07615e-06
1.78919e-05
6.08168e-06
5.60626e-06
5.08752e-06
4.6652e-06
4.34637e-06
4.12775e-06
4.23327e-06
4.10312e-06
4.6383e-06
3.9339
0.0404309
0.0386355
0.0334551
0.0278412
0.0225664
0.017834
0.0136683
0.00973301
0.00669302
0.0256859
0.017666
0.0150414
0.0121598
0.00953563
0.00726821
0.0053308
0.00365667
0.00216172
0.000876445
0.000115635
0.000109626
0.000319492
0.000350926
0.000316372
0.000245747
0.000155767
5.36511e-05
6.02308e-05
0.000184059
9.86492e-05
1.54985e-05
1.77624e-05
2.12036e-05
2.55498e-05
3.0604e-05
3.64438e-05
4.33271e-05
5.11022e-05
5.53876e-05
3.82725e-05
1.45934e-05
1.42457e-05
1.31297e-05
1.19176e-05
1.0723e-05
9.54746e-06
8.365e-06
7.07058e-06
5.00229e-06
2.16147e-05
1.5917e-05
1.07183e-05
7.96244e-06
6.30617e-06
5.23552e-06
4.48852e-06
3.91387e-06
3.41881e-06
2.60483e-06
7.08945e-06
1.70068e-06
1.36774e-06
1.02085e-06
7.39461e-07
5.23253e-07
3.68772e-07
2.68665e-07
2.2549e-07
2.54072e-07
0.000848332
0.000380557
0.000150604
6.35968e-05
2.80428e-05
1.25406e-05
5.22745e-06
1.44234e-06
6.2889e-07
1.76954e-06
9.83428e-06
3.57586e-06
3.26904e-06
2.93625e-06
2.66132e-06
2.44872e-06
2.29279e-06
2.18893e-06
2.1209e-06
1.96636e-06
0.000100725
9.29628e-05
6.41663e-05
3.92153e-05
2.36278e-05
1.46049e-05
9.54321e-06
6.75761e-06
4.94744e-06
4.01716e-06
0.83872
0.0328279
0.0276273
0.0220878
0.0171787
0.0130469
0.00960546
0.0067157
0.00421716
0.0021933
0.00312535
0.00379225
0.00325726
0.00261702
0.00199842
0.00143166
0.000914882
0.000434459
2.86525e-05
0.000466175
0.000225155
8.61989e-05
3.91972e-05
1.65427e-05
9.44857e-06
3.80296e-05
6.96826e-05
0.000105156
0.000144704
0.000177493
3.90633e-05
8.08344e-06
6.4053e-06
4.0829e-06
1.51818e-06
1.23222e-06
4.21938e-06
7.48917e-06
1.10177e-05
1.38408e-05
1.07024e-05
3.63271e-06
3.81197e-06
3.84505e-06
3.84373e-06
3.84282e-06
3.84296e-06
3.8401e-06
3.76472e-06
3.22849e-06
1.49263e-06
1.5677e-06
1.2172e-06
1.05473e-06
9.54303e-07
8.87621e-07
8.35879e-07
7.8654e-07
7.10653e-07
4.60788e-07
2.29287e-06
5.89589e-07
4.69354e-07
3.56687e-07
2.66833e-07
1.98457e-07
1.49916e-07
1.2047e-07
1.07894e-07
1.16171e-07
6.96649e-05
5.41617e-05
2.03283e-05
7.57835e-06
2.20241e-06
1.48001e-07
1.24828e-06
1.81398e-06
2.19189e-06
2.37125e-06
3.21474e-06
1.22168e-06
1.10476e-06
9.94166e-07
9.04454e-07
8.35628e-07
7.86124e-07
7.5322e-07
7.28609e-07
6.52062e-07
0.000218835
0.000131581
8.29737e-05
5.1797e-05
3.33738e-05
2.29858e-05
1.72707e-05
1.41283e-05
1.22213e-05
1.12396e-05
1.2534
1.26786
1.46148
1.89213
0.95026
1.004
1.20054
1.77208
0.525299
0.508342
0.708774
1.16898
0.220654
0.187089
0.331912
0.587953
0.0632009
0.0485636
0.107879
0.197933
0.00178051
0.000442287
0.00268122
0.00568121
0.02485
0.0139745
0.0351149
0.0775274
0.0312046
0.0170478
0.0456466
0.107555
0.0319201
0.0166491
0.0484978
0.12107
0.0290146
0.0142788
0.0475021
0.125187
0.10689
0.0234892
0.023269
0.0627837
0.121004
0.0326994
0.0208345
0.0452603
0.083543
0.0236155
0.0108652
0.0276243
0.0430313
0.0116722
0.00110924
0.0216515
0.0147462
0.00328554
0.00143702
0.0102891
0.000989333
2.18519e-05
2.43061e-05
0.00037238
0.00832829
0.000232826
0.000347677
0.000244433
0.0114381
0.000380173
0.000464867
0.000467572
0.0131579
0.000477826
0.000542673
0.000542399
0.0134433
0.000584683
0.000692894
0.000686889
0.108444
0.103743
0.100334
0.130156
0.0919953
0.0832759
0.0796921
0.113802
0.0570187
0.0492974
0.0495587
0.071558
0.0271749
0.0225975
0.0252597
0.0370557
0.00870606
0.00735647
0.00945092
0.0145393
0.000991118
0.000230542
0.000921002
0.00188918
0.00588323
0.0031682
0.00336481
0.00479605
0.0082493
0.00465414
0.00504974
0.00742228
0.00995981
0.00541628
0.00574456
0.00850471
0.0118013
0.00607491
0.0063566
0.00840557
0.0201754
0.026949
0.0290085
0.0323972
0.0203018
0.0222963
0.0244876
0.0318997
0.0146165
0.0147097
0.0169718
0.0232309
0.00755953
0.00740299
0.00890666
0.0131275
0.0024656
0.00261604
0.00330263
0.00539379
0.000611892
8.70321e-05
0.000412861
0.000914416
0.00232843
0.00112641
0.000821189
0.00124591
0.00326049
0.00163962
0.00116087
0.0020671
0.00386199
0.00171174
0.000960517
0.00219238
0.00395856
0.00123062
0.000260566
0.00166889
0.00339286
0.00869881
0.00989598
0.0115727
0.00571159
0.00939527
0.0118199
0.0158448
0.00454784
0.00668226
0.00859202
0.0118075
0.00234187
0.0035655
0.00466656
0.00670217
0.000659225
0.00131786
0.00181756
0.00282025
0.000445206
3.79953e-05
0.00030255
0.000621324
0.00115162
0.000677609
0.000453604
0.000555819
0.00160629
0.00105138
0.000744386
0.00107774
0.00195429
0.00120452
0.000717383
0.00122452
0.00206589
0.00110974
0.000468383
0.00111742
0.00557207
0.00208826
0.0012772
0.00025466
0.000651195
0.00255616
0.00421008
0.00635002
0.000677382
0.00254445
0.00379283
0.00556959
0.000380958
0.00149727
0.00225585
0.00335082
1.67186e-06
0.000578556
0.000939065
0.00148224
0.000319745
2.72027e-06
0.000191466
0.000389297
0.000568571
0.000352228
0.000208694
0.000221166
0.000757917
0.000555885
0.000373385
0.000502268
0.000898138
0.000640612
0.000341742
0.000570667
0.000825536
0.000535745
0.000170623
0.000540499
0.00831975
0.00591074
0.00540668
0.00477785
0.00338581
0.000736526
0.000181889
0.00127517
0.000733919
0.000740681
0.00148421
0.00243224
0.000300553
0.000570627
0.00105732
0.00162242
0.000208862
0.000235984
0.00048498
0.000769985
0.000242673
1.48582e-05
0.000121552
0.000240319
0.000316265
0.000198803
0.000105525
8.66418e-05
0.000395124
0.000319235
0.000215173
0.000251618
0.000438571
0.000367621
0.000195063
0.00028735
0.000317542
0.000279206
9.41098e-05
0.00029256
0.00874115
0.00696901
0.00667759
0.00631219
0.00449771
0.00238278
0.00191371
0.0013993
0.00137241
0.000198683
0.000211435
0.000695765
0.000579969
9.09771e-05
0.000378158
0.000652798
0.000277346
5.67159e-05
0.000215105
0.000359557
0.000186597
2.3996e-05
6.92306e-05
0.000137756
0.000180683
0.000109952
4.86731e-05
2.5664e-05
0.000205462
0.000176813
0.000115545
0.00011767
0.000192674
0.000192931
9.35615e-05
0.00013016
6.80626e-05
0.000116454
3.01628e-05
0.000144665
0.00807929
0.00671695
0.00655421
0.00634337
0.00453926
0.00284256
0.0026069
0.00239885
0.00159863
0.00064435
0.000428887
0.000196799
0.000686407
0.000153909
6.36294e-06
0.000125512
0.000293346
3.67213e-05
5.83432e-05
0.000128158
0.000145936
2.81802e-05
3.35375e-05
7.22909e-05
0.0001031
6.02861e-05
1.94814e-05
3.91753e-07
0.000102016
9.58934e-05
5.82353e-05
5.00917e-05
5.77922e-05
8.75546e-05
3.02471e-05
4.49905e-05
4.75549e-05
2.61213e-05
1.16646e-05
5.8963e-05
0.00702414
0.00594799
0.00585501
0.00572889
0.00408343
0.00271575
0.00259786
0.00254741
0.00155818
0.000782914
0.000673588
0.000572422
0.000687042
0.000261187
0.000176979
0.000139863
0.000281939
8.27366e-05
2.94851e-05
8.62891e-07
0.000114634
2.937e-05
9.47993e-06
2.9819e-05
5.41496e-05
3.05436e-05
3.90744e-06
9.50599e-06
4.02701e-05
4.71479e-05
2.32745e-05
1.40126e-05
1.47282e-05
2.53059e-05
8.06391e-06
2.10973e-06
9.8083e-05
2.2028e-05
3.76163e-05
8.69665e-06
0.00586469
0.00502408
0.00498492
0.00492159
0.00345479
0.00235771
0.00229986
0.00232884
0.00137231
0.000747116
0.000691426
0.000651434
0.000620281
0.000280793
0.000238419
0.000240134
0.000251771
9.70631e-05
6.89575e-05
6.15437e-05
8.96623e-05
2.81454e-05
4.88592e-06
4.35753e-06
2.36721e-05
1.29516e-05
3.50531e-06
1.18537e-05
4.30798e-06
1.82069e-05
3.30478e-06
4.34349e-06
4.79828e-05
6.97397e-06
2.64574e-05
2.44119e-05
0.0001135
4.38214e-05
4.9806e-05
1.83901e-05
0.00460814
0.00390355
0.00384849
0.00379181
0.00281369
0.00195061
0.00192785
0.00199763
0.00113379
0.000637826
0.000608995
0.000595615
0.000522232
0.000254755
0.000234405
0.000251723
0.000211953
9.23378e-05
7.82155e-05
8.00525e-05
6.94812e-05
2.51313e-05
1.17411e-05
8.46149e-06
6.45452e-06
3.56963e-06
5.83852e-06
1.04184e-05
1.36977e-05
2.70465e-06
6.15623e-06
1.16966e-05
5.84554e-05
2.09174e-05
3.2142e-05
3.18959e-05
0.000109631
4.97666e-05
5.18097e-05
3.02883e-05
0.00444125
0.00389593
0.00391706
0.00391719
0.00212906
0.00146354
0.00145306
0.00154347
0.000888819
0.000506369
0.000491021
0.000487202
0.000416111
0.000210216
0.000201407
0.000223176
0.000169614
7.84171e-05
7.16947e-05
7.6512e-05
5.29755e-05
2.11032e-05
1.36234e-05
1.30839e-05
2.03594e-06
6.55467e-07
5.49228e-06
7.56723e-06
2.00753e-05
4.0999e-06
9.01617e-06
1.26382e-05
5.6535e-05
2.45306e-05
3.07784e-05
3.13105e-05
9.56054e-05
4.67241e-05
4.72467e-05
3.26089e-05
0.000355837
0.000211184
0.000240464
0.000344937
0.00193599
0.00141646
0.00141334
0.00141899
0.000663399
0.000375908
0.000367199
0.000367641
0.000314881
0.000161774
0.000158905
0.000180037