/*--------------------------------*- C++ -*----------------------------------*\
| =========                 |                                                 |
| \\      /  F ield         | foam-extend: Open Source CFD                    |
|  \\    /   O peration     | Version:     4.0                                |
|   \\  /    A nd           | Web:         http://www.foam-extend.org         |
|    \\/     M anipulation  |                                                 |
\*---------------------------------------------------------------------------*/
FoamFile
{
    version     2.0;
    format      ascii;
    class       volScalarField;
    location    "2600";
    object      epsilon;
}
// * * * * * * * * * * * * * * * * * * * * * * * * * * * * * * * * * * * * * //

dimensions      [0 2 -3 0 0 0 0];

internalField   nonuniform List<scalar> 
34480
(
4843.34
4836.86
4834.47
4834.07
4837.02
4853.8
4914.53
5079.94
5443.17
6228.6
5609.4
6908.34
9583.01
15792.3
32426.9
80978.3
220960
581069
1.32229e+06
2.41276e+06
7330.25
8765.15
11504.7
17306.5
31908.8
75616.5
216554
646042
1.72725e+06
3.72256e+06
6076.68
7336.52
9666
14400.4
25907.7
60960.8
183542
605749
1.83005e+06
4.45445e+06
4877.74
5999.19
8049.47
12124.2
21829.5
51601.9
161917
578800
1.92696e+06
5.17588e+06
3838.81
4777.33
6515.5
10017.6
18467.2
45077.5
149517
576207
2.08245e+06
6.05775e+06
2994.36
3749.63
5177.62
8121.82
15417.3
39133.5
136945
562581
2.17609e+06
6.75781e+06
2115.7
2636.75
3641.4
5797.11
11408.3
30729.6
115333
506571
2.08842e+06
6.87429e+06
1189.33
1386.65
1774.97
2673.87
5316.75
15637.2
65113.1
310354
1.37004e+06
4.74836e+06
5631.15
5614.62
5616.97
5644.46
5704.88
5793.85
5891.79
5996.27
6182.4
6430.36
4773.89
4772.33
4780.02
4797.48
4824.23
4861.78
4922.38
5031.99
5234.84
5629.2
3020.56
3487.52
4378.59
6076.79
9652.3
18307.1
43851.4
130494
410603
1.14524e+06
4165.77
4795.87
5924.94
7968.35
11947.5
21030.6
46853.2
142452
513707
1.67022e+06
3670.08
4285.5
5370.86
7312.01
10963.6
19052
41879.8
132824
541411
1.98644e+06
3090.64
3679.28
4720.41
6567.03
10024.6
17502.4
38433.2
126390
571449
2.31176e+06
2534.04
3048.29
3974.77
5654.48
8873.19
15849.2
35599.5
123649
619739
2.73245e+06
2052.42
2480.63
3269.7
4733.67
7629.36
13999.9
32347.4
118364
649918
3.08011e+06
1511.73
1812.73
2376.14
3458.6
5680.56
10729.9
25836.1
102000
621835
3.17111e+06
961.752
1075.85
1289.59
1710.98
2630.54
4873.44
12228.7
55845
402918
2.30048e+06
5508.04
5484.86
5476.1
5488.98
5536.89
5624.17
5724.71
5806.55
6049.61
6662.19
4694.97
4693.33
4699.05
4713.69
4737.95
4772.35
4820.02
4890.49
5002.57
5183.47
1613.55
1795.34
2123.79
2707.28
3776.82
5856.92
10330.2
20991.6
47294.9
104686
2196.2
2485.59
2989.91
3837.56
5306.97
8091.49
14066.4
29331.4
73604
189740
2084.46
2393.35
2931.59
3849.66
5407.19
8338.89
14703.6
32151.8
90806.7
270383
1870.79
2186.78
2745.52
3703.83
5342.2
8409.47
15124.2
34640.8
109314
369630
1616.06
1906
2431.18
3360.09
5006.8
8138.96
15181.8
37100
131806
500536
1371.87
1624.57
2094.07
2945.81
4518.39
7583.68
14699
38323.2
152212
639478
1065.38
1249.68
1597.34
2252.56
3515.99
6076.88
12323.1
34903.3
157246
730820
786.653
860.78
1000.52
1266.51
1811.86
3012.04
6218.4
19323.9
101802
540885
5401.55
5376.23
5361.94
5364.17
5392.42
5454.59
5542.19
5618.36
5750.33
6165.41
4605.85
4604.47
4608.45
4619.1
4637.15
4663.33
4698.81
4746.97
4817.78
4937.04
907.432
972.201
1079.1
1263.43
1573.01
2100.49
3030.04
4726.55
7877.07
13281.6
1092.9
1212.68
1414.57
1738.82
2262.62
3136.55
4675.76
7615.32
13756.3
26357.3
1123.06
1264.59
1506.41
1904.17
2541.27
3614.87
5541.18
9414.82
18532.4
40679.3
1087.98
1244.8
1519.88
1979.01
2720.45
3985.32
6294.09
11148.1
23924.7
59991
1000.81
1153.45
1429.79
1908.96
2716.35
4135.99
6826.57
12837.5
30570.1
87585.1
898.505
1039.3
1301.79
1768.84
2592.92
4091.36
7049.85
14069.4
37145.3
120318
745.258
853.015
1056.44
1433.02
2130.2
3459.14
6240.57
13396.8
39876.1
146305
651.072
697.892
786.012
946.892
1257.93
1899.49
3385.7
7621.92
25400
107149
5279.71
5255.84
5240.97
5238.99
5255.8
5298.94
5371.53
5455.44
5554.24
5829.91
4505.03
4503.61
4505.96
4512.85
4524.57
4541.52
4564.47
4595.76
4642.52
4727.51
577.05
599.677
631.316
683.009
762.344
884.495
1073.6
1361.94
1780.09
2356.93
547.006
591.041
661.763
770.571
936.044
1188.11
1578.63
2193.21
3161.9
4676.67
598.093
656.055
751.906
903.992
1135.47
1494.4
2063.83
3001.17
4620.62
7575.27
625.526
696.368
817.898
1013.26
1313.34
1787.88
2557.17
3872.29
6362.57
11684.2
614.467
688.316
820.133
1042.33
1398.24
1984.92
2979.18
4778.2
8550.57
17866.9
585.017
657.946
792.604
1025.06
1415.55
2084.92
3271.03
5537.74
10788.4
25600
522.312
581.732
692.178
890.308
1239.46
1869.49
3058.51
5514.23
11887.9
32265.9
545.114
573.73
626.858
718.803
883.754
1198.39
1852.89
3350.29
7665.32
23429.9
5153.11
5131.3
5117.07
5113.17
5123.16
5152.48
5206.56
5281.7
5369.64
5549.73
4393.65
4392.21
4393.58
4398.22
4406.19
4417.57
4432.77
4453.59
4486.37
4551.65
421.055
429.825
439.48
453.878
473.441
500.079
536.167
583.008
637.323
698.595
300.923
316.099
338.889
372.479
420.621
488.242
582.659
711.502
876.73
1079.89
335.391
357.231
391.811
444.995
522.128
633.363
793.256
1020.89
1332.65
1768.11
371.225
401.025
450.333
526.293
637.581
801.883
1044.32
1402.38
1928.35
2790.28
385.509
419.006
477.053
571.476
715.649
939.642
1288.21
1835.27
2714
4389.71
386.569
422.304
486.664
593.377
763.695
1040.02
1491.33
2239.26
3549.49
6440.13
371.449
402.89
459.417
556.527
718.164
994.317
1476.1
2340.07
4025.12
8277.65
462.55
479.706
510.785
561.595
646.013
793.667
1070.33
1616.33
2784.51
6105.61
5020.39
5001.13
4988.43
4984.38
4991.26
5012.7
5052.91
5113.14
5187.26
5302.16
4272.98
4271.54
4272.32
4275.64
4281.52
4289.97
4301.25
4316.8
4342.19
4395.99
341.582
345.483
348.707
352.802
357.427
362.663
368.386
373.642
375.784
374.69
194.642
199.814
206.847
216.681
229.871
246.959
268.676
295.064
323.938
353.376
211.255
219.049
230.687
248.14
272.226
304.641
347.32
401.438
463.573
532.059
238.787
250.756
269.562
297.134
335.495
388.371
459.997
554.348
668.916
816.74
256.469
271.017
295.059
332.471
386.839
466.269
580.803
742.637
956.543
1277.01
266.625
283.502
312.634
358.446
427.654
533.472
694.034
934.258
1276.66
1872.6
273.128
289.347
316.994
361.942
431.992
544.486
726.945
1023.37
1492.24
2427.89
399.351
409.476
427.132
454.366
496.524
564.113
677.989
877.928
1224.18
1982.67
4880.66
4864.14
4853.39
4850.08
4855.8
4872.94
4904.21
4951.34
5010.22
5082.22
4144.5
4143.06
4143.5
4146.07
4150.77
4157.62
4166.85
4179.66
4201.02
4247.76
296.574
298.529
299.78
300.975
301.861
302.352
302.199
300.551
295.56
286.354
148.161
150.023
152.215
155.042
158.532
162.656
167.408
172.576
177.458
181.869
153.489
156.227
160.001
165.577
172.878
182.046
193.135
205.803
218.328
229.454
171.299
176.05
183.014
192.631
205.229
221.363
241.415
265.245
290.073
316.273
185.518
191.728
201.339
215.533
235.024
261.675
297.314
343.388
396.181
460.521
196.023
203.87
216.639
235.42
262.16
300.386
354.214
428.127
518.827
646.922
210.474
218.771
231.91
251.915
280.906
324.242
389.397
486.933
620.376
836.03
351.378
357.299
367.049
381.252
402.022
432.834
479.946
555
670.432
869.605
4733.14
4719.34
4710.61
4708.34
4713.67
4728.2
4753.55
4790.79
4835.69
4882.39
4009.27
4007.86
4008.11
4010.22
4014.22
4020.13
4028.15
4039.31
4058.01
4099.6
267.88
268.919
269.516
269.909
269.953
269.572
268.57
266.239
261.009
251.288
126.788
127.528
128.247
129.05
129.922
130.826
131.744
132.612
133.272
133.899
126.139
127.118
128.328
130.122
132.35
134.963
137.871
140.863
143.372
145.03
136.747
138.673
141.256
144.576
148.623
153.398
158.807
164.582
169.724
174.197
146.681
149.351
153.157
158.456
165.269
173.944
184.686
197.46
210.48
223.744
154.939
158.591
164.129
171.665
181.718
195.073
212.467
234.489
258.451
286.756
171.051
175.32
181.476
190.18
201.861
217.991
240.41
271.512
310.04
362.238
315.029
318.491
323.714
330.911
341.053
355.193
375.221
404.978
450.334
515.333
4577.25
4566
4559.16
4557.86
4562.93
4575.41
4596.18
4625.68
4659.45
4691.49
3867.97
3866.6
3866.75
3868.58
3872.13
3877.42
3884.62
3894.62
3911.29
3948.6
247.339
247.878
248.233
248.433
248.392
248.053
247.25
245.355
240.907
231.882
116.338
116.662
116.916
117.131
117.303
117.424
117.5
117.536
117.518
117.627
112.842
113.202
113.587
114.178
114.873
115.636
116.42
117.142
117.619
117.723
118.779
119.586
120.563
121.715
123
124.374
125.768
127.073
127.991
128.569
125.301
126.473
127.989
129.968
132.328
135.111
138.301
141.806
145.017
147.732
131.103
132.818
135.225
138.233
141.98
146.602
152.173
158.706
165.08
171.479
146.393
148.624
151.492
155.229
159.847
165.722
173.293
183.112
194.614
208.257
287.257
289.318
292.018
295.552
300.473
307.052
315.9
328.572
349.919
376.985
4412.69
4403.71
4398.48
4397.94
4402.63
4413.19
4430.01
4453.14
4478.38
4501.38
3720.98
3719.67
3719.76
3721.4
3724.63
3729.45
3736.03
3745.1
3760.05
3793.5
231.097
231.335
231.578
231.751
231.792
231.653
231.187
229.822
226.175
218.013
110.887
111.038
111.135
111.181
111.181
111.137
111.063
110.981
110.916
111.015
106.28
106.414
106.535
106.733
106.954
107.18
107.393
107.565
107.631
107.531
109.343
109.691
110.067
110.467
110.863
111.23
111.542
111.768
111.829
111.781
113.489
114.016
114.623
115.361
116.162
117.025
117.934
118.856
119.616
120.103
117.32
118.129
119.175
120.37
121.76
123.355
125.146
127.115
128.846
130.309
131.007
132.202
133.532
135.11
136.881
138.94
141.414
144.466
148.069
152.065
265.568
266.854
268.189
269.868
272.259
275.408
279.525
285.397
297.099
310.693
4239.41
4232.36
4228.44
4228.38
4232.54
4241.25
4254.63
4272.49
4291.33
4308.37
3568.55
3567.3
3567.37
3568.86
3571.81
3576.25
3582.29
3590.55
3603.94
3633.77
217.222
217.266
217.442
217.618
217.743
217.775
217.578
216.631
213.642
206.315
107.816
107.886
107.925
107.928
107.9
107.845
107.777
107.717
107.701
107.851
103.046
103.099
103.135
103.202
103.273
103.339
103.395
103.432
103.426
103.34
104.416
104.565
104.71
104.847
104.962
105.045
105.086
105.081
105.012
104.924
107.005
107.247
107.49
107.76
108.015
108.254
108.474
108.67
108.804
108.827
109.431
109.807
110.254
110.722
111.232
111.779
112.356
112.964
113.442
113.764
121.403
122.063
122.677
123.322
123.955
124.604
125.322
126.183
127.325
128.659
247.965
248.839
249.46
250.234
251.426
253.025
255.102
258.127
265.24
272.86
4057.59
4052.12
4049.21
4049.42
4052.96
4059.97
4070.42
4084.05
4098.19
4111.15
3410.88
3409.7
3409.74
3411.11
3413.82
3417.9
3423.44
3430.94
3442.87
3469.22
204.658
204.573
204.697
204.871
205.046
205.185
205.161
204.507
202.029
195.476
105.91
105.938
105.955
105.951
105.929
105.895
105.858
105.836
105.866
106.054
101.475
101.498
101.51
101.532
101.554
101.571
101.583
101.588
101.578
101.528
101.898
101.96
102.014
102.061
102.093
102.106
102.099
102.07
102.019
101.976
103.507
103.62
103.717
103.812
103.882
103.927
103.95
103.954
103.939
103.884
105.004
105.171
105.354
105.532
105.718
105.91
106.105
106.31
106.454
106.523
115.36
115.739
116.021
116.269
116.462
116.609
116.736
116.892
117.211
117.723
232.888
233.553
233.815
234.167
234.804
235.705
236.885
238.66
243.202
247.676
3867.68
3863.45
3861.3
3861.62
3864.52
3870.05
3878.11
3888.46
3899.21
3909.34
3248.18
3247.07
3247.1
3248.35
3250.83
3254.56
3259.62
3266.39
3276.93
3299.91
192.764
192.593
192.674
192.833
193.025
193.214
193.285
192.821
190.736
184.887
104.591
104.596
104.603
104.601
104.592
104.579
104.567
104.572
104.63
104.838
100.726
100.74
100.746
100.753
100.757
100.758
100.757
100.754
100.749
100.728
100.663
100.685
100.704
100.721
100.733
100.737
100.733
100.722
100.703
100.698
101.668
101.722
101.762
101.793
101.806
101.799
101.778
101.745
101.707
101.658
102.59
102.657
102.724
102.791
102.863
102.941
103.024
103.118
103.184
103.214
111.462
111.69
111.82
111.905
111.94
111.927
111.879
111.83
111.861
112.098
219.152
219.713
219.802
219.968
220.35
220.932
221.7
222.889
225.778
228.404
3670.32
3667.04
3665.44
3665.77
3668.09
3672.4
3678.58
3686.43
3694.79
3702.91
3080.73
3079.7
3079.72
3080.85
3083.1
3086.49
3091.08
3097.15
3106.36
3126.09
181.118
180.891
180.931
181.066
181.249
181.448
181.556
181.208
179.423
174.199
103.581
103.574
103.577
103.579
103.58
103.58
103.585
103.605
103.674
103.886
100.376
100.388
100.393
100.394
100.392
100.387
100.381
100.375
100.374
100.372
100.097
100.102
100.108
100.115
100.123
100.131
100.137
100.141
100.144
100.158
100.733
100.759
100.776
100.786
100.784
100.771
100.748
100.719
100.688
100.658
101.321
101.339
101.358
101.384
101.419
101.464
101.518
101.584
101.637
101.673
108.811
108.953
109.013
109.036
109.024
108.977
108.898
108.812
108.744
108.886
205.879
206.383
206.393
206.481
206.743
207.166
207.723
208.579
210.332
211.814
3466.33
3463.78
3462.57
3462.85
3464.68
3468.01
3472.77
3478.79
3485.41
3492.06
2908.93
2907.99
2908
2909.01
2911.04
2914.09
2918.2
2923.59
2931.55
2948.16
169.411
169.15
169.154
169.26
169.417
169.598
169.707
169.423
167.863
163.157
102.748
102.737
102.738
102.742
102.748
102.757
102.77
102.796
102.864
103.067
100.214
100.226
100.23
100.23
100.226
100.218
100.21
100.203
100.204
100.213
99.8714
99.8696
99.8707
99.8753
99.8826
99.8921
99.9029
99.9144
99.926
99.9469
100.276
100.289
100.297
100.3
100.297
100.288
100.273
100.255
100.235
100.219
100.676
100.674
100.674
100.686
100.709
100.744
100.789
100.845
100.894
100.939
106.848
106.939
106.966
106.968
106.949
106.909
106.845
106.774
106.677
106.789
192.425
192.887
192.864
192.919
193.118
193.448
193.877
194.462
195.458
196.226
3256.72
3254.71
3253.77
3254.01
3255.43
3258.02
3261.7
3266.4
3271.72
3277.27
2733.37
2732.52
2732.52
2733.42
2735.22
2737.93
2741.58
2746.31
2753.08
2766.73
157.408
157.13
157.103
157.175
157.297
157.442
157.527
157.276
155.888
151.592
102.031
102.02
102.02
102.025
102.034
102.046
102.062
102.088
102.148
102.329
100.136
100.146
100.151
100.15
100.145
100.138
100.129
100.122
100.123
100.14
99.8113
99.808
99.8077
99.8107
99.8168
99.8254
99.8359
99.8476
99.8599
99.8789
100.067
100.073
100.077
100.079
100.077
100.072
100.064
100.053
100.041
100.034
100.354
100.344
100.339
100.346
100.364
100.392
100.429
100.473
100.515
100.56
105.246
105.303
105.314
105.31
105.297
105.272
105.232
105.185
105.087
105.19
178.302
178.717
178.682
178.722
178.878
179.141
179.478
179.885
180.355
180.691
3042.69
3041.08
3040.34
3040.52
3041.63
3043.65
3046.54
3050.25
3054.59
3059.26
2554.91
2554.13
2554.12
2554.91
2556.49
2558.87
2562.07
2566.17
2571.83
2582.72
144.917
144.636
144.584
144.621
144.7
144.796
144.842
144.609
143.372
139.39
101.409
101.399
101.399
101.404
101.413
101.425
101.441
101.464
101.51
101.656
100.089
100.097
100.101
100.1
100.097
100.091
100.084
100.078
100.079
100.097
99.8261
99.8236
99.8231
99.8249
99.829
99.8349
99.8423
99.8506
99.8597
99.8731
99.985
99.9889
99.9911
99.9917
99.9906
99.9877
99.9829
99.9764
99.9687
99.9646
100.18
100.17
100.166
100.17
100.183
100.202
100.227
100.258
100.287
100.324
103.831
103.866
103.869
103.866
103.858
103.845
103.821
103.792
103.709
103.801
163.067
163.42
163.382
163.411
163.533
163.736
163.994
164.295
164.501
164.593
2825.64
2824.35
2823.76
2823.9
2824.77
2826.36
2828.65
2831.62
2835.15
2839.11
2374.41
2373.75
2373.75
2374.44
2375.82
2377.89
2380.68
2384.21
2388.87
2397.28
131.83
131.565
131.493
131.489
131.513
131.545
131.536
131.312
130.26
126.605
100.884
100.877
100.877
100.881
100.888
100.899
100.913
100.931
100.962
101.062
100.049
100.054
100.056
100.056
100.054
100.05
100.046
100.042
100.043
100.058
99.8719
99.8705
99.8702
99.8711
99.8731
99.8762
99.88
99.8844
99.8893
99.8966
99.9684
99.9711
99.9725
99.9727
99.9717
99.9693
99.9656
99.9606
99.955
99.9515
100.063
100.056
100.053
100.056
100.063
100.074
100.087
100.101
100.117
100.141
102.535
102.556
102.557
102.555
102.55
102.54
102.525
102.504
102.448
102.515
146.119
146.383
146.349
146.368
146.453
146.596
146.774
146.975
147.086
147.181
2607.11
2606.05
2605.57
2605.67
2606.36
2607.63
2609.47
2611.86
2614.75
2618.09
2192.42
2191.83
2191.83
2192.42
2193.61
2195.4
2197.78
2200.79
2204.57
2211
117.387
117.217
117.182
117.182
117.195
117.214
117.218
117.116
116.488
113.44
100.466
100.463
100.463
100.466
100.472
100.48
100.491
100.505
100.524
100.573
100.017
100.019
100.021
100.021
100.02
100.018
100.016
100.014
100.014
100.022
99.9313
99.9308
99.9306
99.9309
99.9317
99.9328
99.9342
99.9357
99.9376
99.9403
99.9847
99.9865
99.9873
99.9873
99.9863
99.9844
99.9816
99.9779
99.9739
99.9709
99.992
99.9892
99.988
99.989
99.9919
99.9958
100
100.004
100.008
100.018
101.345
101.356
101.358
101.357
101.352
101.343
101.33
101.315
101.291
101.329
126.174
126.31
126.284
126.292
126.339
126.419
126.517
126.623
126.663
126.731
2387.88
2387
2386.6
2386.68
2387.23
2388.25
2389.74
2391.68
2394.07
2396.91
8538.48
9003.95
8766.76
7686.66
2.71891e+06
2.61869e+06
2.55748e+06
2.47535e+06
5.07801e+06
4.9243e+06
4.76448e+06
4.43134e+06
6.88257e+06
6.70468e+06
6.42659e+06
5.91464e+06
8.92503e+06
8.71322e+06
8.26536e+06
7.61991e+06
1.1449e+07
1.107e+07
1.031e+07
9.43555e+06
1.37949e+07
1.32154e+07
1.21877e+07
1.11863e+07
1.49158e+07
1.41783e+07
1.29948e+07
1.19091e+07
1.03472e+07
9.67501e+06
8.70511e+06
7.8169e+06
9638.24
9841.99
9743.94
9573.3
6444.65
6785.27
6928.01
6756.54
1.77e+06
1.42595e+06
1.38894e+06
1.41124e+06
2.85886e+06
2.41508e+06
2.33604e+06
2.20434e+06
3.71444e+06
3.27283e+06
3.15958e+06
2.84596e+06
4.70255e+06
4.29942e+06
4.07e+06
3.55841e+06
5.96332e+06
5.46667e+06
4.8855e+06
4.05158e+06
7.07311e+06
6.43638e+06
5.5012e+06
4.47127e+06
7.62536e+06
6.89254e+06
5.73988e+06
4.49015e+06
6.00208e+06
5.34443e+06
4.30554e+06
3.18415e+06
9233.22
9313.5
9122.6
8755.01
5639.22
5782.26
5822.81
5730.78
179405
180652
164605
132297
350157
348813
311708
239413
529110
521658
460593
348568
764742
750237
655425
492578
1.09906e+06
1.07628e+06
929107
679897
1.48393e+06
1.44827e+06
1.2378e+06
895210
1.78811e+06
1.72939e+06
1.45427e+06
1.02998e+06
1.46329e+06
1.39061e+06
1.1374e+06
761760
7065.37
7152.73
7136.27
7040.78
5376.36
5441.72
5451.89
5391.94
17747.9
17958.5
16828.9
14187
38355.4
38452.5
34881.4
28453.1
63311.5
62267.8
55206.4
44108.5
99587.1
96552.8
84054.3
65421
154530
147897
126391
96230
224819
212846
179520
135199
289986
271621
226872
169904
232766
212103
173601
125707
6145.32
6197.98
6224.13
6229.42
5166.56
5214.41
5215.73
5166.41
2764.33
2816.74
2709.71
2480.88
5818.23
5936.71
5590.74
4932.53
9945.81
10018.1
9274.55
8028.24
16248.7
16175.3
14728.1
12466.5
26438.7
26098.4
23517.3
19687
40352.7
39569.6
35419.8
29468.8
54550
53223.3
47535.8
39482.6
43930.1
42243.4
37565.5
30534.7
5628.3
5663.78
5693.35
5717.3
4984.36
5025
5025.42
4983.08
761.886
761.427
749.124
729.786
1194.62
1211.76
1176.92
1104.27
2028.81
2049.64
1973.4
1832.25
3353.32
3374.96
3217.49
2944.53
5590.58
5623.31
5340.99
4860.4
8735.38
8782.44
8322.19
7540.43
12080
12155.3
11533.7
10434.9
9704.12
9704.7
9263.93
8297.28
5276.66
5296.51
5319.03
5345.59
4816.85
4853.38
4853.48
4815.72
409.643
404.899
401.829
400.992
367.067
369.204
364.684
354.693
563.11
566.869
558.603
541.108
893.919
901.358
884.186
848.226
1467.19
1486.84
1459.66
1396.27
2275.81
2317.08
2276.75
2170.84
3155.32
3230.28
3185.47
3034.39
2696.79
2760.07
2755.19
2627.74
5010.29
5020.95
5037.23
5061.78
4653.48
4686.9
4686.88
4652.57
318.718
314.509
312.933
314.03
184.528
184.666
183.626
181.518
232.971
233.373
232.266
229.841
327.527
328.98
326.76
321.218
493.205
498.373
496.235
487.277
722.94
735.135
733.778
719.144
984.527
1008.4
1011.3
991.404
1026.25
1050.85
1066.47
1055.23
4790.76
4795.9
4807.26
4828.03
4488.18
4518.71
4518.65
4487.5
283.254
279.952
278.957
280.232
135.33
135.313
134.888
134.076
145.14
145.077
144.881
144.543
175.774
175.967
175.537
174.442
229.648
230.806
230.765
229.376
301.86
304.913
305.641
303.612
394.646
401.208
403.961
401.721
553.973
562.657
570.756
573.138
4592.85
4594.7
4602.37
4619
4318.71
4346.31
4346.25
4318.21
263.346
260.81
260.167
261.369
118.943
118.972
118.737
118.25
117.511
117.427
117.387
117.378
128.689
128.674
128.531
128.232
148.744
148.972
149.013
148.784
174.483
175.199
175.541
175.317
215.827
217.625
218.718
218.68
386.665
389.885
393.529
396.288
4402.02
4401.95
4406.98
4419.85
4144.07
4168.66
4168.6
4143.71
248.723
246.831
246.427
247.455
112.315
112.395
112.249
111.889
107.381
107.329
107.326
107.365
111.733
111.705
111.638
111.523
120.207
120.239
120.253
120.218
130.799
130.95
131.073
131.101
153.92
154.446
154.844
154.974
311.813
313.033
314.739
316.703
4211.5
4210.38
4213.6
4223.36
3963.85
3985.37
3985.3
3963.59
236.105
234.83
234.596
235.322
109.116
109.228
109.135
108.845
103.266
103.239
103.245
103.281
104.894
104.879
104.843
104.784
108.783
108.779
108.781
108.778
113.727
113.74
113.782
113.833
129.071
129.236
129.379
129.457
270.895
271.27
272.128
273.514
4018.62
4017
4019.01
4026.3
3777.97
3796.38
3796.31
3777.77
224.271
223.707
223.598
223.82
107.261
107.393
107.333
107.089
101.506
101.494
101.501
101.524
101.974
101.969
101.949
101.915
103.837
103.83
103.829
103.83
106.396
106.378
106.392
106.434
117.743
117.797
117.846
117.878
244.387
244.352
244.812
245.856
3822.3
3820.52
3821.75
3827.11
3586.54
3602.09
3602.05
3586.38
212.641
212.541
212.486
212.429
105.971
106.112
106.075
105.865
100.737
100.735
100.741
100.752
100.712
100.713
100.702
100.68
101.628
101.624
101.623
101.624
103.097
103.076
103.081
103.113
112.018
112.038
112.052
112.055
224.479
224.222
224.479
225.323
3622.12
3620.42
3621.13
3625.02
3389.94
3402.87
3402.85
3389.85
200.881
200.959
200.925
200.747
104.933
105.076
105.054
104.87
100.402
100.406
100.41
100.411
100.179
100.183
100.177
100.163
100.642
100.641
100.641
100.641
101.587
101.571
101.574
101.597
108.8
108.812
108.813
108.8
207.598
207.218
207.363
208.083
3418.04
3416.55
3416.95
3419.71
3188.78
3199.2
3199.19
3188.74
188.525
188.698
188.679
188.447
104.016
104.155
104.143
103.982
100.258
100.266
100.268
100.261
99.9672
99.9714
99.9683
99.9588
100.212
100.213
100.213
100.211
100.883
100.874
100.877
100.892
106.731
106.747
106.743
106.717
191.96
191.524
191.603
192.23
3210.35
3209.14
3209.35
3211.24
2983.75
2991.8
2991.79
2983.73
175.397
175.549
175.54
175.357
103.164
103.296
103.29
103.148
100.193
100.205
100.205
100.192
99.8953
99.8988
99.897
99.8906
100.032
100.033
100.032
100.03
100.531
100.529
100.531
100.539
105.174
105.2
105.194
105.154
176.612
176.19
176.229
176.751
2999.63
2998.72
2998.82
3000.07
2775.86
2781.72
2781.71
2775.85
161.244
161.195
161.192
161.228
102.354
102.47
102.468
102.349
100.151
100.165
100.164
100.149
99.8841
99.8864
99.8851
99.8809
99.9638
99.964
99.9628
99.9596
100.316
100.319
100.32
100.321
103.824
103.861
103.852
103.797
161.025
160.718
160.734
161.085
2786.82
2786.2
2786.24
2787
2566.42
2570.34
2570.34
2566.41
145.543
145.025
145.024
145.539
101.58
101.668
101.667
101.579
100.102
100.114
100.113
100.1
99.9022
99.9032
99.9023
99.8999
99.9497
99.9488
99.9469
99.944
100.146
100.152
100.153
100.15
102.54
102.58
102.567
102.504
144.354
144.182
144.195
144.4
2573.17
2572.84
2572.85
2573.22
2356.1
2358.48
2358.48
2356.1
126.768
125.624
125.623
126.767
100.854
100.897
100.897
100.855
100.044
100.051
100.05
100.043
99.942
99.9421
99.9415
99.9406
99.9682
99.9667
99.965
99.963
100.026
100.03
100.032
100.029
101.309
101.323
101.309
101.27
124.916
124.913
124.925
124.955
2359.32
2359.23
2359.23
2359.32
6110.86
5480.65
5193.66
5080.51
5028.35
4984.36
4939.98
4901.17
4872.45
4854.46
1.84342e+06
554609
126979
37706.6
17978
10753.9
7479.31
5868.94
5170.68
5084.04
2.33609e+06
403556
87049.6
33446.9
17941
11688.8
8776.83
7331.65
6702.72
6689.38
2.26756e+06
258591
68983
27282
14841.5
9705.06
7282.38
6062.95
5507.6
5501.26
2.05641e+06
237314
62593.9
24596
13030.6
8290.55
6064.62
4943.61
4403.89
4375.04
1.97278e+06
256551
64434.8
24243.8
12149.1
7366.26
5161.69
4066.02
3520.08
3444.25
2.07718e+06
287139
65930.5
23375.1
11036.8
6407.97
4328.83
3316.01
2798.47
2695.7
2.09946e+06
292443
59429.8
19614.6
8696.55
4861.77
3198.53
2415.45
2019.79
1923.28
1.46838e+06
179937
29522.2
8926.83
3897.08
2300.13
1625.92
1315.78
1161.2
1114.34
9368.43
7010.3
6391.23
6122.12
5954.66
5844.02
5770.51
5718.59
5675.76
5645.83
5745.11
5332.86
5132.89
5022.08
4951.61
4898.27
4854.54
4819.85
4795.63
4781.5
654898
196957
61882.5
23303.5
11211.4
6609.04
4536.63
3503.59
3019.48
2870.9
808551
197579
58143.6
22448.1
11637.7
7405.98
5446.67
4462.95
4006.42
3910.99
844202
174701
49127.2
19020.3
10027.6
6430.41
4745.97
3894.9
3487.92
3412.25
887986
165497
45461.4
17533.7
9092.31
5708.18
4128.95
3334.73
2936.14
2852.22
1.0114e+06
179499
47774.2
17786.2
8795.86
5281.54
3669.44
2869.7
2456.84
2345.55
1.18425e+06
202331
50221.4
17668.7
8268.05
4762.51
3196.07
2435.87
2034.59
1909.33
1.29493e+06
210663
46910.9
15337.3
6749.73
3745.62
2450.55
1843.17
1528.29
1421.33
953302
134268
24599.1
7358.26
3233.79
1923.59
1366.59
1106.22
975.149
926.27
8139.24
6698.26
6196.62
5962.49
5818.13
5721.08
5654.49
5605.91
5564.58
5532.14
5229.63
5050.07
4952.89
4885.14
4831.48
4787.62
4752.79
4726.78
4709.56
4700.22
63143
27613.8
13401.1
7318.16
4460.17
3007.25
2237.05
1819.18
1616.7
1552.66
95593.3
36894.7
16982.5
8928.14
5418.87
3708.75
2821.2
2349.71
2126.95
2078.73
118360
40265.9
17390.1
8742.14
5193.47
3515.89
2662.55
2214.21
1998.18
1955.44
145602
44339.2
18254.9
8777.03
5032.97
3317.34
2461.9
2019.17
1795.75
1744.76
192697
54290.9
20855.8
9453.97
5131.91
3229.43
2302.9
1830.61
1585.02
1513.58
255147
66150.8
23021.7
9794.23
5026.4
3034.95
2092.53
1623.83
1374.39
1291.34
307764
72747.2
22100.9
8792.76
4258.51
2484.13
1674.28
1285.51
1083.51
1012.65
223420
44905.2
11276.3
4396.26
2227.42
1435.6
1067.14
886.31
796.413
763.744
6967.79
6309.27
5978.98
5799.6
5683.35
5602.96
5544.99
5500.28
5460.34
5427.86
4946.48
4841.05
4778.61
4731.66
4694.02
4663.96
4640.84
4624.13
4613.64
4608.76
9584.91
5913.64
3745.36
2481.31
1754.18
1336.01
1097.27
961.238
895.812
878.878
16737.6
9252.01
5435.5
3371.05
2274.57
1671.35
1333.26
1145.4
1056.75
1040.86
23396.3
11653.3
6343.73
3720.83
2428.38
1747.69
1377.33
1175.15
1078.09
1061.56
31580.1
14340.2
7288.2
4044.12
2534.31
1772.46
1369.29
1154.44
1046.59
1023.98
45262.7
19020.5
8884.08
4628.18
2740.39
1828.57
1358.29
1111.33
983.016
946.527
63660.1
24259.2
10228.1
5014.46
2810.31
1800.92
1295.46
1037.05
899.343
853.763
81692.4
27454.6
10133.4
4695.03
2494.98
1551.71
1095.81
870.874
754.341
714.359
61093.1
16841
5371.34
2605.24
1514.95
1065.72
835.276
715.521
657.045
636.439
6302.46
5946.69
5738.87
5609.65
5521.78
5457.43
5408.83
5369.82
5333.79
5304.14
4725.04
4651.49
4610.27
4580.77
4557.54
4539.02
4524.76
4514.6
4508.62
4506.6
2061.4
1574.02
1201.92
946.415
781.583
678.472
615.963
578.717
562.258
561.966
3734.14
2537.28
1736.83
1228.99
920.76
734.339
622.732
558.234
528.436
525.522
5731.21
3583.85
2262.92
1507.52
1081.52
836.135
694.261
613.784
575.531
570.999
8365.43
4829.31
2816.67
1768.72
1214.46
911.136
741.762
649.007
602.935
595.062
12825.3
6857.06
3659.04
2152.52
1393.42
996.497
780.558
663.757
603.256
587.17
18836.2
9113.4
4408.69
2444.69
1498.78
1030.18
782.771
652.742
583.38
561.073
25085.7
10577.2
4557
2407.98
1408.13
944.468
707.581
587.205
525.071
504.621
19097.3
6590.69
2700.1
1586.69
1053.51
805.008
663.958
585.946
548.897
536.031
5821.1
5629.87
5511.48
5423.34
5358.64
5307.58
5267.13
5233.59
5201.68
5175.25
4547.78
4490.06
4460.62
4440.92
4425.73
4413.63
4404.39
4398.02
4394.73
4394.41
661.535
600.625
539.388
490.456
455.76
432.77
418.509
410.076
407.987
411.971
965.298
765.836
601.378
483.311
403.523
351.569
318.895
299.524
291.233
292.101
1549.2
1143.22
828.207
624.609
495.675
415.422
366.46
337.608
324.215
323.943
2385.42
1627.56
1087.6
772.698
586.256
476.616
412.421
376.441
358.95
357.28
3844.89
2425.61
1484.84
986.094
704.224
545.582
454.792
404.219
378.175
372.213
5832.11
3331.28
1862.83
1166.22
789.433
588.323
476.523
416.1
383.803
374.052
7935.89
3975.48
2025.71
1215.93
790.832
577.732
462.443
401.936
370.89
361.419
6187.22
2711.87
1473.23
1020.4
762.836
625.39
539.184
488.262
465.081
457.012
5461.97
5365.2
5299.99
5240.47
5192.63
5152.13
5118.72
5090.36
5062.73
5039.79
4392.69
4343.62
4320.12
4305.21
4293.97
4285.18
4278.65
4274.43
4272.67
4273.31
362.896
360.933
352.552
343.862
337.251
333.003
330.742
329.891
331.332
335.69
333.845
297.685
263.806
237.226
217.885
204.681
196.159
191.117
189.462
190.84
501.737
421.482
348.406
295.893
259.325
235.023
219.46
209.896
205.685
206.426
761.264
594.117
456.699
367.2
309.077
272.713
250.558
237.937
232.098
232.461
1228.44
889.784
630.23
473.907
376.431
317.622
282.271
261.986
251.684
250.04
1867.86
1232.72
805.719
571.691
431.714
351.259
304.126
277.913
263.879
260.128
2561.59
1512.67
922.763
630.86
460.861
368.221
314.93
285.971
271.327
267.426
2209.93
1280.94
895.74
705.198
579.704
502.502
449.341
415.709
401.271
396.076
5181.95
5135.97
5098.82
5058.11
5022.39
4990.43
4963.2
4939.75
4916.45
4897.14
4245.34
4201.47
4181.17
4168.68
4159.47
4152.44
4147.4
4144.37
4143.47
4144.6
279.393
286.309
287.398
286.635
285.906
285.751
286.147
286.975
288.885
292.623
176.315
168.802
161.574
155.649
151.202
148.151
146.24
145.225
145.276
146.37
223.818
207.163
190.122
176.767
166.722
159.653
154.905
151.835
150.631
151.36
305.613
267.595
233.358
208.789
191.648
180.356
173.276
169.245
167.609
168.359
457.122
376.191
306.899
259.669
227.616
206.941
193.903
186.212
182.446
182.349
662.445
504.007
384.785
309.329
259.952
229.334
210.4
199.589
193.829
192.628
899.655
630.246
458.415
356.621
291.356
252.394
228.494
215.068
208.52
207.189
978.445
732.797
609.228
525.377
462.5
418.05
384.73
362.103
353.054
349.537
4946.75
4925.32
4902.37
4873.94
4847.1
4822.13
4800.32
4781.43
4762.39
4746.69
4097.95
4058.06
4039.93
4028.93
4020.9
4014.9
4010.71
4008.37
4007.92
4009.27
246.693
254.775
257.521
258.22
258.538
259.026
259.723
260.634
262.227
265.207
131.483
129.496
127.829
126.505
125.568
125.005
124.756
124.757
125.121
125.87
143.61
139.929
135.763
132.273
129.471
127.394
125.931
124.927
124.622
125.137
171.057
161.845
153.188
146.503
141.588
138.232
136.122
134.978
134.686
135.323
223.428
203.637
185.077
170.94
160.585