/*--------------------------------*- C++ -*----------------------------------*\
| =========                 |                                                 |
| \\      /  F ield         | foam-extend: Open Source CFD                    |
|  \\    /   O peration     | Version:     4.0                                |
|   \\  /    A nd           | Web:         http://www.foam-extend.org         |
|    \\/     M anipulation  |                                                 |
\*---------------------------------------------------------------------------*/
FoamFile
{
    version     2.0;
    format      ascii;
    class       volScalarField;
    location    "2600";
    object      k;
}
// * * * * * * * * * * * * * * * * * * * * * * * * * * * * * * * * * * * * * //

dimensions      [0 2 -2 0 0 0 0];

internalField   nonuniform List<scalar> 
34480
(
8.71429
8.70796
8.70511
8.70321
8.70389
8.7197
8.7865
8.97517
9.38879
10.2597
28.7789
30.6199
33.1039
36.0587
39.6378
45.3838
58.5669
89.919
147.112
214.908
56.0721
58.5193
61.5511
64.8748
68.3296
72.8988
83.7544
117.051
194.834
305.715
56.978
60.284
64.5303
69.3785
74.3723
80.0131
90.5109
123.445
212.451
356.333
53.1749
57.2738
62.7235
69.172
76.0126
83.349
94.6949
128.179
227.77
404.651
47.823
52.1798
58.1789
65.6382
73.9619
83.1043
96.4268
132.969
247.144
462.691
41.8601
46.1506
52.2673
60.2052
69.5676
80.2991
95.6909
135.219
262.472
513.713
32.3914
36.0048
41.3125
48.5765
57.6716
68.799
85.2643
126.066
259.628
533.479
13.8377
15.2526
17.5259
21.0609
26.2732
33.8085
46.0401
76.1727
177.834
402.672
9.15327
9.13735
9.1408
9.17042
9.23447
9.32783
9.42912
9.53559
9.72601
9.97718
8.63079
8.63034
8.63963
8.65924
8.68854
8.72925
8.79586
8.91861
9.14766
9.59045
20.2318
21.5599
23.7373
26.8073
30.7259
35.103
40.6009
53.5661
89.4206
170.812
41.294
43.3661
46.259
49.9248
54.4095
59.68
65.288
77.795
124.889
253.881
43.1181
45.8022
49.573
54.3776
60.054
66.6944
73.4992
85.8898
139.345
302.619
41.1202
44.3707
49.0427
55.0783
62.2369
70.4857
78.8708
91.7856
151.898
350.474
37.7093
41.1367
46.2161
53.0503
61.4481
71.245
81.485
96.1782
166.289
410.888
33.6316
36.9988
42.1582
49.3488
58.579
69.6329
81.6348
98.156
177.635
467.456
26.5411
29.327
33.7431
40.2553
49.0933
60.1855
72.8834
90.4927
174.913
493.828
11.9894
12.9629
14.6512
17.4994
22.1894
29.2469
38.333
51.1746
113.064
365.331
9.01937
8.99601
8.98733
9.00124
9.05228
9.14481
9.25001
9.33338
9.58623
10.2156
8.5354
8.53483
8.54178
8.55812
8.58463
8.62188
8.67349
8.75061
8.87504
9.07726
13.8558
14.6031
15.8999
17.8654
20.5428
23.9051
28.1253
34.1963
44.7464
62.7448
28.7859
30.2922
32.4602
35.278
38.7508
42.859
47.5838
54.3252
69.2679
102.149
31.1221
33.0894
35.9488
39.7073
44.2192
49.4857
55.1991
62.6655
81.6041
130.669
30.5782
32.9665
36.5401
41.3009
47.0638
53.7587
60.7966
69.1399
92.4487
161.112
28.7697
31.3057
35.2311
40.6899
47.5653
55.7147
64.3913
74.2645
103.579
197.585
26.2946
28.8123
32.8497
38.664
46.3309
55.6884
65.9257
77.3005
112.632
234.184
21.3377
23.4117
26.8572
32.1305
39.5183
49.0062
59.936
72.3598
112.107
256.094
10.4568
11.1431
12.3754
14.4822
18.047
23.6624
31.3943
40.9299
70.4873
185.363
8.90274
8.87684
8.86198
8.86426
8.89413
8.96006
9.05234
9.1306
9.26741
9.7012
8.42705
8.42677
8.43163
8.44323
8.46244
8.49006
8.52746
8.57857
8.65512
8.78723
9.77864
10.1263
10.7429
11.7556
13.2187
15.1844
17.7227
20.9682
25.2332
30.8155
19.3994
20.3312
21.692
23.5106
25.8108
28.5856
31.8618
35.9185
41.9017
52.0549
21.7236
22.989
24.8496
27.3463
30.4213
34.0797
38.2382
43.172
51.0295
67.2385
22.1085
23.6817
26.0814
29.3275
33.3205
38.0667
43.3247
49.2306
59.238
83.6435
21.4562
23.1565
25.8563
29.6721
34.5443
40.4681
47.1076
54.4539
67.6577
103.718
20.2036
21.9278
24.7724
28.927
34.4764
41.4161
49.3587
58.0598
74.5458
124.113
17.0093
18.4399
20.8782
24.6683
30.0593
37.1684
45.7256
55.3984
74.673
136.469
9.20169
9.66529
10.5115
11.9321
14.3086
18.1508
23.875
31.3349
46.059
95.8212
8.76835
8.74382
8.72819
8.72582
8.74326
8.78878
8.86554
8.95323
9.05552
9.34599
8.30362
8.30326
8.30615
8.31326
8.32492
8.34157
8.36415
8.39541
8.44392
8.53681
7.46486
7.60513
7.84681
8.26578
8.88713
9.75283
10.9026
12.3426
13.9935
15.7928
13.0892
13.5938
14.3328
15.3384
16.6289
18.204
20.0734
22.2417
24.7081
27.8337
15.0266
15.7509
16.8179
18.2725
20.0932
22.2895
24.8486
27.7802
31.2441
36.4409
15.8317
16.7711
18.2125
20.1755
22.6189
25.5661
28.9518
32.742
37.39
45.752
15.8733
16.9146
18.5889
20.9783
24.051
27.8623
32.3205
37.3457
43.8457
57.2822
15.4295
16.519
18.3439
21.0215
24.6149
29.1999
34.6767
40.8721
49.2794
68.9905
13.5564
14.4783
16.0627
18.5304
22.0517
26.7976
32.7698
39.8083
49.9832
75.9268
8.17865
8.47899
9.03098
9.92686
11.373
13.7017
17.3337
22.449
30.311
51.1499
8.62762
8.60514
8.59008
8.58555
8.59553
8.62608
8.68307
8.76212
8.85373
9.04409
8.16618
8.16576
8.16747
8.17188
8.17906
8.18909
8.20247
8.22137
8.2535
8.32378
6.2499
6.30338
6.38925
6.54504
6.773
7.08568
7.49585
8.00319
8.56335
9.12546
9.23721
9.48352
9.83974
10.3308
10.9649
11.7377
12.6441
13.6518
14.6663
15.688
10.6382
11.0142
11.5656
12.3309
13.3005
14.4748
15.8406
17.3561
18.896
20.6392
11.4977
12.0152
12.8055
13.8865
15.2468
16.8976
18.8112
20.9241
23.1058
26.0465
11.8576
12.4507
13.4037
14.7735
16.5505
18.7844
21.4513
24.4749
27.7446
32.8482
11.8641
12.5107
13.5953
15.1851
17.3258
20.1004
23.5003
27.4219
31.8248
39.7423
10.895
11.4604
12.4232
13.9116
16.0273
18.9263
22.6868
27.261
32.7665
43.7012
7.35467
7.5432
7.8905
8.43131
9.26479
10.569
12.6092
15.6037
19.684
28.2449
8.47884
8.45899
8.4455
8.44077
8.44736
8.46935
8.5114
8.57468
8.65211
8.77309
8.01597
8.0155
8.01649
8.01933
8.02405
8.03063
8.03941
8.05214
8.07571
8.1329
5.63355
5.65336
5.68207
5.73834
5.81902
5.92523
6.0575
6.21254
6.37406
6.5325
7.08667
7.195
7.34475
7.55096
7.81567
8.13523
8.50445
8.90315
9.27957
9.60884
7.98632
8.16182
8.41405
8.77055
9.22481
9.77424
10.4076
11.0929
11.7378
12.3296
8.70782
8.97044
9.36391
9.90003
10.577
11.3978
12.3458
13.377
14.356
15.4031
9.1425
9.45768
9.95511
10.6696
11.6017
12.7799
14.1969
15.806
17.4107
19.3762
9.34343
9.70633
10.3052
11.1724
12.3392
13.8627
15.7513
17.9564
20.2246
23.4149
8.93559
9.26831
9.81842
10.6517
11.8193
13.4279
15.5481
18.1871
21.1101
25.6945
6.71089
6.82517
7.03603
7.34921
7.80812
8.49355
9.5309
11.0557
12.9951
16.3393
8.32078
8.3038
8.29239
8.28846
8.29382
8.31119
8.34359
8.39283
8.45411
8.52877
7.85447
7.85396
7.85453
7.85648
7.85984
7.8646
7.87105
7.8807
7.89972
7.94904
5.32414
5.33124
5.34027
5.361
5.39076
5.42871
5.47381
5.52357
5.57171
5.61865
5.96922
6.01404
6.07033
6.14546
6.23915
6.34893
6.47198
6.60008
6.71382
6.8046
6.49269
6.56707
6.66897
6.81527
7.00034
7.22128
7.4711
7.73346
7.96628
8.14857
7.01512
7.13938
7.31788
7.55588
7.85261
8.20736
8.61062
9.03986
9.42705
9.78214
7.39892
7.55659
7.79586
8.13447
8.57273
9.12388
9.78502
10.5334
11.2558
12.0061
7.64114
7.83541
8.14474
8.57947
9.15803
9.90925
10.841
11.934
13.0221
14.3034
7.54704
7.73666
8.03454
8.46983
9.06236
9.86904
10.9336
12.2761
13.7244
15.6322
6.22136
6.28785
6.41151
6.58604
6.82996
7.17506
7.67038
8.37528
9.2135
10.4437
8.15225
8.13818
8.12895
8.12618
8.13118
8.14579
8.17181
8.2104
8.25662
8.30371
7.68267
7.68215
7.68248
7.68392
7.68651
7.69025
7.6954
7.70327
7.7194
7.76311
5.16725
5.16952
5.17201
5.18004
5.1921
5.20747
5.22566
5.24547
5.26431
5.28302
5.41118
5.42988
5.44994
5.47456
5.50341
5.53539
5.56957
5.60347
5.63107
5.65163
5.69237
5.72201
5.75934
5.81393
5.88138
5.95945
6.04443
6.12912
6.1974
6.23971
6.03306
6.08939
6.16495
6.26116
6.37658
6.50933
6.65431
6.80169
6.92489
7.02347
6.32435
6.39999
6.50784
6.65558
6.84118
7.06889
7.33677
7.63499
7.91486
8.17365
6.53524
6.63554
6.78706
6.98964
7.25157
7.58351
7.9886
8.45972
8.91823
9.39778
6.59605
6.70171
6.85616
7.07039
7.34893
7.71539
8.1904
8.78762
9.42603
10.1768
5.85978
5.89638
5.96632
6.0599
6.18585
6.35487
6.58445
6.89676
7.24419
7.68345
7.97226
7.96093
7.95376
7.9521
7.95689
7.96934
7.99044
8.02067
8.05477
8.08583
7.50108
7.50056
7.50076
7.50191
7.50403
7.50716
7.5115
7.5182
7.5322
7.57129
5.08493
5.08537
5.08581
5.08926
5.09499
5.10267
5.11234
5.12363
5.13539
5.14751
5.13618
5.14444
5.1516
5.15893
5.1665
5.17409
5.18183
5.18954
5.19567
5.20093
5.27567
5.28714
5.29996
5.31938
5.34259
5.36829
5.39482
5.41929
5.43581
5.44034
5.48001
5.50515
5.53594
5.57252
5.61352
5.65746
5.70196
5.74331
5.77263
5.79087
5.68234
5.71784
5.76439
5.8252
5.89765
5.98241
6.07812
6.18078
6.27257
6.34725
5.83979
5.89021
5.96166
6.05102
6.16141
6.2954
6.45301
6.6312
6.79735
6.95373
5.96475
6.0228
6.10019
6.20064
6.3231
6.47561
6.66596
6.89996
7.14656
7.41448
5.60086
5.61934
5.65731
5.70551
5.76893
5.85036
5.95599
6.09412
6.24078
6.40534
7.78002
7.77116
7.76578
7.76498
7.76942
7.77984
7.79668
7.81996
7.84472
7.86589
7.30982
7.30932
7.30945
7.31041
7.31223
7.31493
7.31871
7.32453
7.33675
7.37171
5.03906
5.03884
5.03876
5.04053
5.04389
5.04881
5.0557
5.06471
5.07537
5.08687
5.001
5.0049
5.00755
5.00939
5.01071
5.01167
5.01278
5.01459
5.01695
5.02042
5.06314
5.06753
5.07171
5.07852
5.0864
5.09468
5.10276
5.10951
5.11272
5.11026
5.17572
5.18685
5.19915
5.21252
5.22609
5.23903
5.25045
5.25921
5.26275
5.26253
5.30868
5.32519
5.3447
5.36871
5.3952
5.42405
5.45467
5.48574
5.51162
5.52869
5.41531
5.44001
5.47265
5.51047
5.55466
5.60547
5.66235
5.7241
5.77778
5.8219
5.55815
5.58981
5.62749
5.67251
5.72281
5.78084
5.84953
5.93109
6.01584
6.10377
5.42158
5.42947
5.44905
5.47286
5.50421
5.54338
5.59258
5.65528
5.72047
5.78834
7.57498
7.56823
7.56431
7.5641
7.568
7.57644
7.58952
7.60701
7.62473
7.6394
7.10881
7.10833
7.10842
7.10925
7.11084
7.11321
7.11653
7.1216
7.13225
7.16329
5.01139
5.011
5.01089
5.01204
5.01442
5.01823
5.0241
5.03261
5.04374
5.05632
4.93446
4.93639
4.93743
4.9377
4.9375
4.93713
4.93713
4.93821
4.9407
4.94482
4.95727
4.95898
4.9603
4.96269
4.96538
4.96809
4.9706
4.97251
4.97289
4.97038
5.01257
5.01739
5.02221
5.02696
5.03116
5.03446
5.03656
5.03721
5.03582
5.03362
5.09705
5.1047
5.11269
5.12178
5.13076
5.13947
5.14784
5.15558
5.16131
5.16332
5.16424
5.17589
5.19024
5.20565
5.22267
5.24121
5.26096
5.28165
5.29804
5.30902
5.30417
5.32143
5.33931
5.35843
5.3772
5.39637
5.41729
5.44109
5.46589
5.49347
5.30178
5.3038
5.31318
5.32447
5.34001
5.35945
5.38347
5.41373
5.44494
5.47636
7.35683
7.35181
7.34903
7.34914
7.35239
7.35899
7.36884
7.38166
7.3942
7.40446
6.89784
6.89739
6.89746
6.89818
6.89957
6.90165
6.90456
6.90895
6.91813
6.94537
4.99323
4.99286
4.99286
4.99377
4.99567
4.99889
5.00423
5.01261
5.02449
5.03861
4.90156
4.90252
4.90296
4.9029
4.90257
4.90225
4.90245
4.90386
4.90697
4.91185
4.90609
4.90685
4.90728
4.90813
4.90905
4.90992
4.91074
4.91135
4.91135
4.9098
4.92797
4.92994
4.93177
4.93344
4.93472
4.93547
4.93561
4.93511
4.93387
4.93278
4.98083
4.98438
4.9876
4.99087
4.99356
4.9956
4.99706
4.99801
4.9983
4.99724
5.02102
5.02615
5.03209
5.03812
5.04456
5.05138
5.05846
5.06587
5.07118
5.0738
5.15028
5.15975
5.16803
5.17556
5.18138
5.18574
5.18936
5.19302
5.19694
5.20545
5.22458
5.22361
5.22755
5.23275
5.24084
5.25141
5.26445
5.28079
5.2973
5.31383
7.12545
7.1218
7.11987
7.12012
7.1227
7.12767
7.13488
7.14405
7.15288
7.16011
6.6767
6.6763
6.67635
6.67696
6.67817
6.67998
6.6825
6.68625
6.69401
6.71752
4.98033
4.98006
4.98018
4.98098
4.98255
4.98533
4.99022
4.99842
5.0109
5.02661
4.88519
4.88565
4.88588
4.88584
4.88569
4.88569
4.88624
4.88798
4.89152
4.89692
4.88223
4.88268
4.8829
4.88319
4.88346
4.88368
4.88391
4.88412
4.88419
4.88345
4.88605
4.88673
4.88738
4.888
4.8885
4.88881
4.8889
4.88877
4.88841
4.8884
4.91915
4.92081
4.9221
4.92322
4.92385
4.92397
4.92367
4.92306
4.92227
4.9211
4.94271
4.94464
4.94683
4.94913
4.9517
4.95458
4.95771
4.96119
4.96368
4.96484
5.05934
5.0646
5.06836
5.07098
5.07197
5.07141
5.06965
5.06728
5.06454
5.06752
5.17649
5.17418
5.17534
5.17776
5.18251
5.18922
5.19754
5.20785
5.21763
5.22756
6.88094
6.87834
6.87702
6.8773
6.87924
6.88286
6.888
6.89442
6.90064
6.90578
6.44522
6.44486
6.4449
6.44542
6.44644
6.44798
6.45012
6.45325
6.45966
6.4795
4.97051
4.97038
4.9706
4.97131
4.9726
4.97496
4.97932
4.98715
4.99992
5.01712
4.87704
4.87724
4.87739
4.87745
4.8775
4.87775
4.87853
4.88043
4.88412
4.8898
4.87156
4.87195
4.87212
4.87221
4.87222
4.87217
4.87213
4.87217
4.87231
4.87216
4.86662
4.86675
4.86694
4.86723
4.86756
4.86789
4.86821
4.8685
4.86874
4.86931
4.88754
4.88832
4.88886
4.88923
4.8893
4.88906
4.88856
4.88788
4.88715
4.8864
4.90189
4.90232
4.90292
4.90382
4.90508
4.90674
4.90874
4.91114
4.91306
4.91435
5.00595
5.00888
5.01055
5.01124
5.01076
5.00911
5.00638
5.003
4.99867
5.00053
5.14717
5.14446
5.14427
5.14552
5.1488
5.15382
5.16003
5.16756
5.17394
5.18072
6.62357
6.62175
6.62087
6.6211
6.62251
6.62506
6.62863
6.63303
6.63741
6.64108
6.20333
6.20302
6.20304
6.20346
6.2043
6.20557
6.20733
6.20986
6.21498
6.23124
4.96259
4.96261
4.9629
4.96352
4.96454
4.96646
4.97019
4.97738
4.99001
5.00846
4.87303
4.87312
4.87325
4.87338
4.87357
4.87397
4.87484
4.87671
4.8803
4.88604
4.86698
4.86735
4.86751
4.86753
4.86743
4.86726
4.86709
4.86702
4.86718
4.86744
4.85861
4.85854
4.85857
4.85874
4.85902
4.85938
4.85981
4.86027
4.86074
4.86148
4.87192
4.87229
4.87254
4.87266
4.87264
4.87245
4.87211
4.87167
4.87118
4.8708
4.88163
4.88143
4.88142
4.88183
4.88266
4.8839
4.8855
4.88747
4.88921
4.89074
4.9733
4.97491
4.97561
4.97564
4.97496
4.97353
4.97127
4.96849
4.96432
4.96639
5.12909
5.12645
5.12566
5.12644
5.12905
5.13323
5.13836
5.14436
5.14875
5.1539
6.35378
6.35254
6.35196
6.35214
6.35311
6.35484
6.35725
6.36023
6.36328
6.36589
5.95117
5.95091
5.95092
5.95125
5.9519
5.9529
5.95427
5.95622
5.96011
5.97291
4.95582
4.95599
4.95632
4.95683
4.95759
4.95903
4.96203
4.96828
4.98019
4.99945
4.87111
4.87117
4.87128
4.87145
4.87171
4.87216
4.87301
4.87469
4.87795
4.88351
4.86495
4.86529
4.86544
4.86543
4.8653
4.86509
4.86487
4.86476
4.86491
4.86542
4.85613
4.85601
4.856
4.85611
4.85633
4.85664
4.85702
4.85745
4.85791
4.85856
4.86454
4.86473
4.86485
4.8649
4.86489
4.86478
4.8646
4.86434
4.86405
4.86388
4.87185
4.87145
4.87127
4.87151
4.87213
4.8731
4.87437
4.87591
4.87737
4.87889
4.95081
4.95165
4.95189
4.95176
4.95127
4.95035
4.94885
4.947
4.94351
4.94603
5.11674
5.11439
5.11337
5.11396
5.11618
5.1198
5.12416
5.12911
5.13206
5.13629
6.07225
6.07143
6.07106
6.07118
6.07182
6.07295
6.07451
6.07646
6.07853
6.08035
5.68919
5.689
5.689
5.68924
5.68971
5.69044
5.69143
5.69282
5.69556
5.70505
4.94945
4.94973
4.95005
4.95044
4.95094
4.95191
4.95408
4.95906
4.96951
4.98874
4.87016
4.8702
4.8703
4.87047
4.87073
4.87116
4.8719
4.87328
4.87599
4.881
4.86369
4.86395
4.86407
4.86406
4.86395
4.86377
4.86358
4.86346
4.86357
4.86419
4.85609
4.856
4.85598
4.85605
4.85619
4.8564
4.85666
4.85696
4.85728
4.85774
4.86133
4.86144
4.8615
4.86153
4.86152
4.86145
4.86133
4.86116
4.86096
4.86087
4.86663
4.86627
4.86611
4.86625
4.86668
4.86736
4.86822
4.86924
4.87025
4.87151
4.93214
4.93258
4.93262
4.93251
4.93222
4.93169
4.9308
4.92966
4.92697
4.92961
5.10527
5.10328
5.10225
5.10272
5.1046
5.10764
5.11125
5.11521
5.11693
5.12051
5.77994
5.77943
5.7792
5.77928
5.77967
5.78035
5.78131
5.78251
5.78381
5.78503
5.41819
5.41791
5.41792
5.41808
5.41839
5.41887
5.41953
5.42042
5.42212
5.42859
4.94164
4.94191
4.9422
4.94242
4.94268
4.94319
4.9445
4.9479
4.95601
4.97372
4.86951
4.86952
4.8696
4.86974
4.86996
4.87032
4.87089
4.87189
4.87385
4.87781
4.86235
4.86252
4.8626
4.8626
4.86253
4.86241
4.86228
4.86219
4.86227
4.86279
4.85701
4.85696
4.85695
4.85698
4.85705
4.85716
4.85729
4.85744
4.85762
4.85786
4.86019
4.86027
4.86032
4.86033
4.8603
4.86023
4.86012
4.85998
4.85981
4.85971
4.86288
4.86265
4.86256
4.86264
4.86288
4.86324
4.86367
4.86417
4.86469
4.86552
4.91377
4.91405
4.91407
4.914
4.91379
4.91343
4.91283
4.91206
4.91024
4.91235
5.08662
5.08498
5.08409
5.08442
5.08586
5.08818
5.09088
5.09369
5.09423
5.09708
5.47794
5.47766
5.47753
5.47757
5.47777
5.47814
5.47866
5.47932
5.48004
5.48075
5.13744
5.13743
5.13744
5.13752
5.13769
5.13794
5.13828
5.13873
5.13954
5.1436
4.92452
4.92469
4.92489
4.925
4.92507
4.92524
4.92577
4.92738
4.93214
4.94522
4.86826
4.86826
4.86832
4.86842
4.86858
4.86884
4.86923
4.86984
4.87096
4.8733
4.86104
4.86112
4.86116
4.86117
4.86114
4.86109
4.86103
4.86098
4.861
4.86125
4.85834
4.85833
4.85832
4.85833
4.85836
4.85839
4.85844
4.85849
4.85855
4.85864
4.8601
4.86016
4.86019
4.86019
4.86016
4.86009
4.86
4.85988
4.85975
4.85965
4.86029
4.86019
4.86016
4.86019
4.86028
4.86041
4.86055
4.86068
4.86082
4.86114
4.89342
4.89363
4.8937
4.89365
4.89347
4.89314
4.89269
4.89216
4.89137
4.89258
5.03658
5.03518
5.03454
5.03468
5.03556
5.03698
5.03864
5.04022
5.04002
5.04164
5.16638
5.16624
5.16618
5.16619
5.16627
5.16641
5.16662
5.16689
5.16719
5.16755
12.1685
12.6068
12.3845
11.3451
213.04
207.772
204.521
200.119
323.092
316.539
309.653
295.045
395.699
388.851
378.023
357.67
470.548
463.074
447.066
423.478
555.532
543.202
518.049
488.325
629.036
611.295
579.18
547.002
662.668
640.639
604.473
570.317
519.294
496.553
462.786
430.746
13.1922
13.3774
13.2884
13.1328
10.0875
10.4399
10.5858
10.4104
236.169
215.578
211.377
205.479
370.195
343.211
334.136
313.187
463.171
436.528
423.972
389.453
563.616
541.025
520.279
472.404
696.081
671.988
629.892
561.294
823.933
794.082
728.794
646.193
903.534
868.735
788.189
689.502
733.665
700.27
623.985
529.738
12.8199
12.8942
12.7174
12.3734
9.22848
9.38389
9.4277
9.32811
81.3702
83.3448
80.2541
72.7577
137.804
139.91
132.85
117.641
182.963
184.159
173.47
152.143
234.629
235.151
220.112
191.552
302.165
303.459
283.602
244.628
376.285
378.266
352.665
302.831
433.082
434.332
402.404
342.631
346.714
345.154
315.339
260.544
10.7252
10.8135
10.7969
10.7004
8.93943
9.01173
9.02296
8.95669
33.8423
34.074
33.5328
31.9982
59.2526
59.4833
57.7032
54.2314
79.4081
79.224
76.1147
70.8491
102.808
102.122
97.2843
89.3024
133.085
131.779
124.625
113.331
166.348
164.244
154.433
139.561
192.15
189.277
177.329
159.591
147.071
143.439
133.126
117.244
9.77268
9.82843
9.85606
9.86164
8.70533
8.75899
8.76047
8.70516
16.5311
16.6911
16.5462
16.1943
29.8305
30.115
29.6362
28.625
40.0125
40.28
39.4532
37.8832
51.7544
51.985
50.6306
48.1675
67.2627
67.5759
65.678
62.2338
84.3139
84.7192
82.2013
77.6136
97.2308
97.7505
94.8035
89.2421
70.7972
70.8955
68.5056
63.2668
9.21656
9.25526
9.28744
9.31347
8.49944
8.54558
8.54605
8.49799
9.20856
9.23263
9.20711
9.16282
16.154
16.2337
16.1001
15.8046
21.5654
21.6624
21.4505
21.0168
27.7907
27.9249
27.58
26.884
36.1037
36.3729
35.9457
34.9987
45.1667
45.6076
45.0908
43.8253
51.7252
52.3662
51.8355
50.2789
35.4792
35.8574
35.4899
33.9512
8.82857
8.85069
8.87576
8.90528
8.30793
8.34988
8.35
8.30663
6.528
6.52214
6.52018
6.53093
9.7101
9.72892
9.68574
9.58962
12.5659
12.5976
12.5422
12.4153
15.9185
15.9804
15.8935
15.6801
20.4712
20.6252
20.553
20.2809
25.395
25.6738
25.6243
25.2657
28.8068
29.2327
29.237
28.7956
19.0657
19.3535
19.4016
18.9559
8.5289
8.54099
8.55944
8.58723
8.119
8.15783
8.15781
8.11795
5.62844
5.62017
5.62027
5.63198
6.81693
6.81646
6.79874
6.76517
8.19503
8.2002
8.18416
8.14851
9.9247
9.94432
9.91843
9.8481
12.3665
12.4309
12.4238
12.3431
15.0136
15.1417
15.16
15.0584
16.8227
17.0297
17.0887
16.9676
11.4312
11.5766
11.6536
11.5452
8.2779
8.28382
8.2969
8.32078
7.92558
7.96148
7.96141
7.92477
5.30895
5.30426
5.30437
5.31082
5.64947
5.64621
5.63734
5.62321
6.23914
6.23737
6.23284
6.22514
7.05504
7.05891
7.04963
7.02584
8.28271
8.30552
8.30736
8.28438
9.64004
9.69133
9.70811
9.68133
10.6201
10.7094
10.7484
10.718
8.02569
8.09024
8.13801
8.12165
8.04833
8.05049
8.05944
8.07884
7.72479
7.75767
7.75759
7.72419
5.18134
5.18004
5.18019
5.18265
5.19995
5.19763
5.19246
5.18472
5.43266
5.43026
5.42918
5.42907
5.79389
5.79345
5.78941
5.78097
6.37391
6.38024
6.38161
6.37596
7.02524
7.04245
7.05077
7.0457
7.56831
7.60242
7.62075
7.61468
6.52014
6.54657
6.56987
6.57295
7.82382
7.82374
7.8297
7.84493
7.51511
7.54482
7.54474
7.51467
5.1234
5.12458
5.12482
5.12462
5.02199
5.02088
5.01762
5.01245
5.10427
5.10265
5.10263
5.10402
5.261
5.26016
5.25816
5.25467
5.53267
5.53391
5.53442
5.53336
5.83794
5.84259
5.84596
5.84627
6.15409
6.16599
6.17312
6.17207
5.82357
5.83372
5.84416
5.84937
7.59641
7.59506
7.59894
7.61066
7.29562
7.32201
7.32192
7.2953
5.09299
5.096
5.09629
5.09416
4.94805
4.94782
4.94569
4.94187
4.96671
4.96576
4.96602
4.96735
5.03258
5.03211
5.03105
5.0293
5.16253
5.16256
5.16271
5.16265
5.30975
5.31046
5.31171
5.31291
5.50996
5.51395
5.51621
5.51554
5.48197
5.48508
5.48965
5.49424
7.36267
7.36069
7.36315
7.37204
7.06572
7.08865
7.08856
7.06547
5.07433
5.07891
5.07921
5.07538
4.91605
4.91643
4.91504
4.91206
4.90779
4.9073
4.90756
4.90851
4.93263
4.93247
4.9319
4.93089
4.99605
4.99592
4.99596
4.99604
5.07121
5.07088
5.07135
5.07246
5.2114
5.21278
5.21321
5.21227
5.3073
5.30722
5.30925
5.31327
7.12088
7.11868
7.1202
7.12686
6.82498
6.8447
6.84464
6.82478
5.06114
5.06709
5.06735
5.06201
4.90173
4.90254
4.90166
4.89922
4.88258
4.88237
4.88257
4.88311
4.88879
4.88883
4.88852
4.8879
4.9203
4.92023
4.92026
4.92032
4.96215
4.96168
4.96187
4.96276
5.07034
5.07093
5.07076
5.06967
5.21549
5.21385
5.2148
5.21858
6.87004
6.86789
6.86879
6.87371
6.57322
6.58994
6.58991
6.57311
5.05078
5.0581
5.0583
5.05142
4.89507
4.89623
4.8957
4.89357
4.87209
4.87208
4.8722
4.8724
4.86991
4.87003
4.86988
4.86948
4.886
4.88599
4.88603
4.88604
4.91233
4.91196
4.91208
4.91275
5.00263
5.00309
5.00278
5.00163
5.16581
5.16338
5.16388
5.16762
6.60951
6.60759
6.6081
6.61165
6.31055
6.32429
6.32428
6.31049
5.04197
5.05089
5.05102
5.0424
4.89173
4.89317
4.89288
4.8909
4.86799
4.86813
4.86818
4.8681
4.86209
4.86223
4.86215
4.86189
4.87065
4.87068
4.87071
4.87068
4.88948
4.88928
4.88938
4.88984
4.96864
4.96921
4.96892
4.9677
5.13743
5.1346
5.13493
5.13869
6.33898
6.33738
6.33766
6.34015
6.03706
6.04792
6.04791
6.03703
5.03404
5.04478
5.04486
5.03429
4.88956
4.89127
4.89113
4.88918
4.86642
4.86669
4.86669
4.8664
4.85906
4.85918
4.85914
4.85895
4.86385
4.86388
4.86388
4.86381
4.87828
4.87825
4.87833
4.87857
4.94875
4.94956
4.9493
4.94791
5.11898
5.11607
5.11634
5.12003
6.05847
6.05724
6.05738
6.05905
5.75328
5.76137
5.76137
5.75326
5.02588
5.03848
5.03851
5.02599
4.8872
4.88908
4.88903
4.88707
4.86542
4.86578
4.86576
4.86535
4.85808
4.85815
4.85812
4.85799
4.86085
4.86085
4.86082
4.86073
4.8714
4.87149
4.87155
4.8716
4.93271
4.9338
4.9335
4.9318
5.10303
5.10039
5.10064
5.10398
5.76842
5.76756
5.76762
5.76866
5.46012
5.46569
5.46569
5.46012
5.01359
5.02745
5.02746
5.0136
4.88346
4.88526
4.88526
4.88345
4.86392
4.86426
4.86424
4.86384
4.85803
4.85807
4.85804
4.85797
4.85965
4.85962
4.85956
4.85947
4.86574
4.8659
4.86594
4.86586
4.91486
4.916
4.91561
4.91373
5.08043
5.07871
5.07895
5.08132
5.46969
5.46923
5.46924
5.46976
5.15758
5.16106
5.16106
5.15758
4.98097
4.99349
4.99349
4.98095
4.87716
4.87834
4.87835
4.87719
4.86187
4.86206
4.86205
4.86183
4.85869
4.85869
4.85868
4.85865
4.85956
4.85951
4.85945
4.85939
4.86139
4.86152
4.86156
4.8615
4.89291
4.89329
4.89286
4.89168
5.0274
5.0275
5.02778
5.0283
5.16229
5.16216
5.16216
5.16229
10.13
9.43184
9.10863
8.98323
8.92751
8.87976
8.82986
8.785
8.75064
8.72763
197.988
104.252
62.1281
50.0423
44.0343
38.698
34.2619
30.8962
28.8492
28.1127
266.459
124.763
88.7227
75.148
68.2907
63.0024
59.153
56.5001
55.0089
54.7924
307.858
133.745
97.9647
81.1338
72.0756
65.2547
60.4761
57.2511
55.3793
55.214
366.529
148.602
106.458
85.1039
72.768
63.9967
57.9424
53.8881
51.3962
51.0865
439.63
176.874
117.643
89.5538
73.194
62.1712
54.6401
49.6307
46.4596
45.799
505.247
202.974
123.12
89.9449
70.7149
58.3523
49.9775
44.4789
40.92
40.0031
532.843
207.847
112.886
79.1178
59.5642
47.6688
39.8388
34.9097
31.8072
30.9205
397.769
129.296
56.5228
35.9717
24.8903
19.2242
16.095
14.4558
13.4768
13.2063
12.8222
10.576
9.94984
9.67329
9.49964
9.38401
9.30644
9.25072
9.20356
9.16917
9.72165
9.26151
9.03744
8.91422
8.83646
8.77721
8.72776
8.68755
8.65841
8.63996
131.931
71.5304
48.5199
38.8197
33.1837
28.725
25.1253
22.3973
20.6871
19.9358
183.035
96.6116
70.5972
58.9722
52.4476
47.6796
44.2292
41.8715
40.5679
40.3169
213.221
108.333
79.278
64.6972
56.407
50.4526
46.3225
43.5842
42.0301
41.8013
250.627
121.602
87.0035
68.5968
57.8593
50.4469
45.3855
42.0587
40.0253
39.6172
316.332
144.28
97.4235
73.37
59.4051
50.1221
43.8315
39.7002
37.0658
36.307
391.443
166.055
103.582
74.9607
58.5413
48.0509
40.9993
36.4228
33.4095
32.3844
432.307
172.236
96.8878
67.2754
50.367
40.1179
33.426
29.2563
26.5803
25.6049
324.638
108.759
49.6937
31.3877
21.7855
16.8992
14.2037
12.7999
11.9364
11.6304
11.6745
10.2598
9.74683
9.5044
9.35387
9.25194
9.18128
9.1288
9.08297
9.04566
9.13107
8.93113
8.8249
8.75144
8.69295
8.64452
8.60537
8.57535
8.5545
8.54177
55.685
41.9066
33.406
27.5142
23.0863
19.672
17.1201
15.2976
14.1973
13.7106
85.2402
63.0891
51.1868
43.0152
37.5744
33.6972
30.9819
29.1801
28.2297
28.0745
106.023
74.5176
58.6913
48.0688
41.3452
36.6609
33.4702
31.3999
30.2869
30.1553
128.657
85.2564
65.0717
51.5649
43.1955
37.5127
33.6734
31.1997
29.7549
29.483
159.366
101.18
73.4352
56.0014
45.2902
38.1667
33.3587
30.2423
28.3179
27.758
194.305
116.016
78.8356
58.1488
45.5137
37.3756
31.9207
28.4257
26.181
25.3965
219.381
120.693
74.583
53.0965
39.9104
31.8616
26.6333
23.4203
21.4102
20.671
159.939
74.1245
37.7752
24.9419
17.7314
14.109
12.1038
11.0564
10.418
10.2041
10.5256
9.85862
9.51725
9.33051
9.20885
9.12415
9.06236
9.01376
8.96918
8.93163
8.79843
8.68296
8.61665
8.56716
8.52728
8.49502
8.4697
8.45075
8.43795
8.4306
29.2383
24.8229
20.8227
17.4869
14.8749
12.9088
11.4965
10.521
9.95061
9.70424
47.5646
39.9535
33.7958
28.8504
25.2572
22.6634
20.8472
19.6506
19.0361
18.9498
60.456
48.9713
40.0214
33.3267
28.7397
25.5171
23.3168
21.8971
21.1617
21.0934
73.6902
57.5571
45.2581
36.5417
30.782
26.8401
24.1782
22.4854
21.5395
21.384
92.3409
69.5046
52.0099
40.5639
33.073
28.0308
24.6263
22.4439
21.1462
20.7841
112.699
80.3233
56.7451
42.95
33.9516
28.0801
24.1511
21.6673
20.1266
19.5996
127.612
83.6501
54.4978
39.9543
30.399
24.5228
20.7279
18.4318
17.0454
16.5553
90.2832
49.2902
27.2783
19.0422
14.1604
11.7115
10.3319
9.60411
9.1621
9.02616
9.84444
9.4772
9.2607
9.12565
9.03348
8.96547
8.9134
8.87066
8.83006
8.79539
8.53385
8.45479
8.41308
8.38404
8.36118
8.34263
8.32788
8.31676
8.30941
8.30554
15.7026
14.0452
12.3313
10.8556
9.69455
8.82572
8.20498
7.77402
7.52542
7.4236
26.762
23.7365
20.7896
18.2937
16.359
14.9149
13.8864
13.2065
12.8666
12.8328
34.8922
30.1433
25.5159
21.9092
19.2467
17.319
15.9832
15.1176
14.6812
14.6539
43.4399
36.3598
29.5693
24.6555
21.1695
18.7286
17.0707
16.0261
15.4647
15.3897
55.4257
44.8278
34.8012
28.0619
23.3302
20.0774
17.8725
16.4721
15.6679
15.4573
68.1877
52.495
38.7568
30.3505
24.4841
20.5846
17.9746
16.3458
15.3684
15.0456
77.2198
54.9478
37.9547
28.8273
22.463
18.5046
15.9588
14.4402
13.5542
13.2588
52.0853
31.0588
19.1684
14.3521
11.3563
9.81594
8.9181
8.43629
8.14228
8.05972
9.33657
9.13753
9.01444
8.92246
8.85467
8.80059
8.75704
8.71999
8.68365
8.65231
8.31906
8.25803
8.23001
8.21253
8.19918
8.18827
8.17952
8.17297
8.16888
8.16713
9.18547
8.64906
8.04403
7.51201
7.08802
6.76508
6.52786
6.35634
6.25808
6.22368
15.2522
14.0731
12.7979
11.6715
10.7593
10.0669
9.57269
9.24831
9.09564
9.09776
20.1136
18.1393
15.9863
14.2261
12.849
11.8296
11.1175
10.6546
10.4294
10.4308
25.3532
22.159
18.8252
16.2976
14.3989
13.0464
12.1278
11.5566
11.2629
11.2419
32.7515
27.6981
22.581
18.9155
16.1884
14.2784
12.9823
12.1671
11.7148
11.6111
40.5646
32.7739
25.6045
20.8335
17.3217
14.9444
13.3547
12.3752
11.8045
11.6278
45.8468
34.5495
25.6076
20.242
16.3495
13.8935
12.3175
11.3878
10.8622
10.703
29.5277
19.2872
13.6165
11.0109
9.30903
8.38568
7.82284
7.51374
7.32333
7.27528
8.9485
8.84886
8.78233
8.72074
8.67084
8.62791
8.59176
8.56016
8.52831
8.50067
8.12883
8.07748
8.05627
8.04434
8.03563
8.02862
8.02309
8.01912
8.01692
8.01638
6.58641
6.43381
6.24445
6.07269
5.93096
5.81766
5.72949
5.66195
5.62423
5.6161
9.40864
8.95563
8.45568
8.00838
7.6431
7.36746
7.1729
7.04756
6.99654
7.01362
12.1168
11.2989
10.3762
9.59598
8.96858
8.50094
8.17385
7.96006
7.86184
7.8769
15.118
13.6823
12.1751
10.9796
10.0587
9.40082
8.95811
8.68797
8.55797
8.56597
19.4445
17.0818
14.663
12.8047
11.3803
10.3728
9.69112
9.26634
9.03935
9.00094
24.0038
20.2542
16.7735
14.2382
12.3196
11.0032
10.1248
9.58939
9.28532
9.20138
26.9995
21.5097
17.1172
14.1672
11.9919
10.5966
9.70001
9.17444
8.88666
8.81286
17.1485
12.5956
10.1306
8.7975
7.88002
7.34354
7.00041
6.80682
6.68614
6.6591
8.63999
8.59498
8.55867
8.51724
8.48026
8.44642
8.41683
8.39046
8.36323
8.3395
7.94602
7.90027
7.88259
7.87336
7.86694
7.86195
7.85816
7.85563
7.85448
7.8546
5.64795
5.60399
5.54124
5.48207
5.4314
5.38901
5.35417
5.32631
5.3118
5.31249
6.70549
6.54892
6.38113
6.23189
6.1113
6.0218
5.96012
5.92227
5.91315
5.93123
8.05822
7.75362
7.40405
7.10263
6.85704
6.67282
6.54278
6.45601
6.41989
6.43675
9.63738
9.04026
8.42329
7.92172
7.53457
7.25903
7.07597
6.96713
6.92096
6.93868
12.0303
10.9973
9.9354
9.07883
8.41557
7.9434
7.62384
7.42566
7.32487
7.31911
14.5714
12.8743
11.2845
10.0478
9.10188
8.4445
8.00447
7.73804
7.59026
7.55733
16.2507
13.746
11.7103
10.2196
9.11254
8.38589
7.91492
7.63965
7.495
7.46882
10.876
9.06016
8.04959
7.39071
6.91022
6.60422
6.39884
6.27935
6.20382
6.18869
8.37652
8.35833
8.3374
8.30922
8.28178
8.25543
8.23167
8.21022
8.1876
8.16781
7.76102
7.71946
7.70406
7.6964
7.69124
7.68737
7.68455
7.68281
7.68223
7.68267
5.29929
5.28242
5.2557
5.23026
5.20858
5.19034
5.17496
5.16253
5.15679
5.15961
5.59943
5.54748
5.4969
5.4532
5.41926
5.39549
5.38068
5.37361
5.3772
5.39111
6.20512
6.10883
5.99371
5.8921
5.80724
5.74215
5.69494
5.66208
5.65065
5.66387
6.95084
6.73153
6.51083
6.32904
6.18854
6.08856
6.02335
5.98652
5.97547
5.99237
8.17603
7.77291
7.35461
7.00483
6.73038
6.53179
6.39623
6.31233
6.27312
6.27962
9.50508
8.80807
8.14534
7.60519
7.18561
6.88685
6.68411
6.5618
6.49584
6.48668
10.4448
9.39957
8.53004
7.8468
7.33058
6.9796
6.74879
6.61477
6.54916
6.54614
7.90088
7.23704
6.83151
6.51221
6.26408
6.09153
5.9699
5.89651
5.84917
5.84023
8.13382
8.12721
8.11429
8.09497