/*--------------------------------*- C++ -*----------------------------------*\
| =========                 |                                                 |
| \\      /  F ield         | foam-extend: Open Source CFD                    |
|  \\    /   O peration     | Version:     4.0                                |
|   \\  /    A nd           | Web:         http://www.foam-extend.org         |
|    \\/     M anipulation  |                                                 |
\*---------------------------------------------------------------------------*/
FoamFile
{
    version     2.0;
    format      ascii;
    class       volScalarField;
    location    "2600";
    object      MaU;
}
// * * * * * * * * * * * * * * * * * * * * * * * * * * * * * * * * * * * * * //

dimensions      [0 0 0 0 0 0 0];

internalField   nonuniform List<scalar> 
34480
(
0.634084
0.639233
0.64416
0.649095
0.654319
0.659718
0.663452
0.659764
0.63885
0.573123
0.641728
0.64786
0.653505
0.658749
0.664117
0.67006
0.675914
0.677769
0.667457
0.613013
0.645497
0.652463
0.659021
0.665272
0.671651
0.678884
0.686975
0.693027
0.690588
0.646286
0.646446
0.654917
0.663075
0.67103
0.679027
0.687775
0.697678
0.706851
0.710526
0.674007
0.647009
0.656805
0.666345
0.675802
0.685322
0.695525
0.707027
0.718841
0.727668
0.697133
0.646451
0.657287
0.667865
0.678455
0.689184
0.700597
0.713414
0.727429
0.740636
0.715012
0.64626
0.657768
0.668952
0.6802
0.691658
0.703856
0.717642
0.733623
0.751007
0.730217
0.645311
0.657128
0.668529
0.679975
0.691629
0.704023
0.718165
0.735575
0.756967
0.741415
0.645097
0.656987
0.668432
0.679975
0.691772
0.704275
0.718511
0.73685
0.761996
0.750989
0.640773
0.652722
0.664241
0.675796
0.68738
0.699332
0.712727
0.730738
0.7592
0.753696
0.609026
0.611878
0.613394
0.613296
0.611122
0.60605
0.596787
0.581603
0.555943
0.501389
0.622608
0.6269
0.630018
0.631537
0.631128
0.628094
0.6209
0.607301
0.58371
0.528621
0.630136
0.635515
0.639894
0.643003
0.644509
0.643896
0.639734
0.629281
0.609127
0.555033
0.633612
0.640516
0.646582
0.651627
0.655221
0.656871
0.655279
0.647627
0.630776
0.578616
0.635903
0.644147
0.651675
0.658364
0.663797
0.667443
0.668104
0.663063
0.6494
0.59969
0.636649
0.645989
0.654662
0.662628
0.669533
0.674824
0.677389
0.674694
0.663899
0.616312
0.637424
0.647515
0.656928
0.665731
0.673653
0.680172
0.684315
0.68387
0.67607
0.631097
0.637157
0.647668
0.657473
0.666722
0.675218
0.682507
0.687799
0.689355
0.684786
0.643431
0.637138
0.647773
0.657732
0.667262
0.676252
0.684279
0.690605
0.693904
0.692699
0.655106
0.633275
0.643969
0.654083
0.663752
0.672814
0.680895
0.687487
0.691709
0.693977
0.661176
0.590461
0.591986
0.592004
0.590299
0.586484
0.580025
0.570221
0.556262
0.536758
0.508842
0.606646
0.609549
0.611045
0.610759
0.608193
0.602573
0.59276
0.577193
0.553534
0.517868
0.616353
0.620436
0.623237
0.62442
0.623518
0.619695
0.611471
0.596596
0.571729
0.530064
0.621635
0.627189
0.6316
0.634578
0.635562
0.633678
0.627222
0.613368
0.587946
0.541378
0.625281
0.632148
0.637994
0.642576
0.645296
0.645253
0.640604
0.628092
0.602798
0.552639
0.627096
0.635081
0.642109
0.647997
0.652182
0.653741
0.650757
0.639696
0.614939
0.562291
0.628681
0.637467
0.645322
0.652142
0.657435
0.660296
0.658829
0.649404
0.625782
0.571909
0.62905
0.638334
0.646696
0.654113
0.660173
0.664019
0.66386
0.65615
0.634237
0.580297
0.629434
0.63888
0.647448
0.6552
0.661851
0.666615
0.667787
0.661923
0.64214
0.58815
0.626212
0.6357
0.64443
0.65233
0.659088
0.663983
0.665759
0.661359
0.644178
0.590312
0.577377
0.5781
0.577502
0.575453
0.571773
0.566268
0.558823
0.54957
0.538818
0.526263
0.593775
0.595599
0.59603
0.594804
0.591565
0.585853
0.57712
0.564862
0.548655
0.528751
0.60442
0.607358
0.608929
0.608815
0.606603
0.601657
0.593074
0.579754
0.560489
0.534556
0.610842
0.615126
0.61811
0.619461
0.61865
0.614878
0.606906
0.593022
0.571165
0.539316
0.6155
0.621025
0.625323
0.628093
0.628701
0.626245
0.619196
0.605269
0.581495
0.544428
0.618193
0.624813
0.630253
0.634247
0.636136
0.634938
0.628892
0.615213
0.589998
0.548376
0.620482
0.627921
0.63421
0.639141
0.642078
0.642001
0.63701
0.623941
0.597973
0.552794
0.621423
0.629411
0.636271
0.641862
0.645607
0.64649
0.642558
0.630407
0.604407
0.556701
0.622138
0.630336
0.637446
0.643398
0.647724
0.649481
0.646752
0.635955
0.610692
0.560696
0.619356
0.627619
0.634928
0.641078
0.645609
0.647602
0.645435
0.635776
0.612121
0.560151
0.569351
0.569702
0.569079
0.567435
0.564727
0.56094
0.556176
0.550833
0.54577
0.541504
0.584226
0.585347
0.585295
0.583913
0.581019
0.576417
0.569946
0.561602
0.551679
0.541196
0.594587
0.596654
0.597455
0.596756
0.594271
0.589629
0.58241
0.572276
0.559181
0.544178
0.60139
0.604621
0.606559
0.606907
0.60526
0.60105
0.593546
0.581959
0.565721
0.545724
0.606588
0.610944
0.614012
0.615489
0.614843
0.611349
0.603966
0.591403
0.572395
0.547467
0.609845
0.615237
0.619342
0.621875
0.622216
0.619522
0.612464
0.599247
0.577789
0.548109
0.612632
0.618834
0.623756
0.627152
0.62837
0.626483
0.619934
0.606476
0.583125
0.549235
0.614018
0.620794
0.626305
0.630354
0.632309
0.631195
0.625303
0.612005
0.587405
0.549959
0.615049
0.622075
0.627865
0.632279
0.634752
0.634348
0.629315
0.616716
0.591692
0.551009
0.612635
0.619752
0.625768
0.630405
0.633122
0.632975
0.62836
0.61636
0.591851
0.548397
0.565038
0.565227
0.564763
0.563646
0.561891
0.559543
0.556746
0.553895
0.551898
0.551646
0.577602
0.578282
0.57807
0.576887
0.574668
0.571374
0.567023
0.561764
0.555952
0.55033
0.586886
0.588304
0.58866
0.587803
0.585572
0.5818
0.576367
0.569299
0.56092
0.552233
0.593465
0.595839
0.597041
0.596842
0.594972
0.591098
0.584881
0.576102
0.564897
0.552532
0.598777
0.602129
0.604244
0.604858
0.603578
0.599908
0.593256
0.583064
0.569104
0.552798
0.602301
0.606595
0.6096
0.611046
0.610431
0.607117
0.600248
0.588878
0.57225
0.551844
0.605386
0.61045
0.614194
0.616371
0.616406
0.61355
0.6067
0.594511
0.575558
0.55122
0.607072
0.612712
0.617024
0.61979
0.620416
0.618076
0.611465
0.598851
0.578051
0.550108
0.608359
0.614278
0.618884
0.621998
0.623047
0.621202
0.615055
0.602543
0.580625
0.549346
0.606219
0.612253
0.617098
0.620444
0.621741
0.620125
0.614224
0.60184
0.579651
0.545522
0.563223
0.563347
0.56306
0.562382
0.561339
0.559984
0.558436
0.557021
0.556595
0.558384
0.573345
0.573763
0.573554
0.572685
0.571147
0.568964
0.56621
0.563038
0.559706
0.556643
0.581143
0.582101
0.58223
0.581448
0.579682
0.576884
0.573072
0.568385
0.563159
0.558063
0.587073
0.588779
0.589497
0.589069
0.58734
0.584148
0.579389
0.573106
0.565637
0.557963
0.592148
0.594668
0.596083
0.596184
0.594712
0.591373
0.58589
0.578128
0.568299
0.557692
0.595668
0.599012
0.601151
0.601851
0.600752
0.597422
0.591383
0.58225
0.569983
0.556147
0.598854
0.602904
0.605677
0.606949
0.606267
0.603085
0.59671
0.586467
0.571915
0.554806
0.600692
0.605293
0.608582
0.610344
0.61008
0.607153
0.600673
0.589648
0.57312
0.552857
0.60216
0.607057
0.610637
0.612712
0.612765
0.610123
0.603768
0.592421
0.574491
0.551281
0.600213
0.605237
0.609054
0.611349
0.611619
0.609144
0.602873
0.591333
0.572703
0.547025
0.562904
0.562999
0.562844
0.562462
0.561878
0.561132
0.560309
0.559671
0.560015
0.562846
0.570845
0.571106
0.570955
0.570378
0.569386
0.568017
0.566342
0.564476
0.562583
0.560889
0.577066
0.577706
0.577737
0.57712
0.575831
0.573881
0.57133
0.568321
0.565103
0.562073
0.582116
0.583318
0.583735
0.583268
0.581839
0.579393
0.57594
0.571611
0.566723
0.561917
0.586701
0.588555
0.589477
0.589316
0.587918
0.585135
0.580881
0.575215
0.56846
0.561543
0.589999
0.592546
0.59403
0.594264
0.593009
0.59001
0.585047
0.578048
0.569261
0.559915
0.59312
0.596289
0.598292
0.598937
0.597899
0.594818
0.589315
0.581138
0.570346
0.558437
0.594964
0.59864
0.601088
0.60211
0.601324
0.598282
0.592441
0.583328
0.570711
0.556254
0.596539
0.600511
0.603229
0.604514
0.603943
0.601014
0.595058
0.585387
0.571371
0.554533
0.59471
0.59881
0.601749
0.603225
0.60282
0.599978
0.593973
0.583928
0.569063
0.550259
0.563378
0.563458
0.563384
0.563181
0.562868
0.56247
0.562047
0.561812
0.562512
0.565871
0.569552
0.56972
0.569628
0.569272
0.568667
0.567844
0.566856
0.565779
0.56471
0.563764
0.57431
0.574734
0.574734
0.574292
0.573407
0.572108
0.570458
0.568569
0.566605
0.564793
0.578415
0.579249
0.579489
0.579078
0.577985
0.576207
0.573798
0.570893
0.567733
0.564713
0.582363
0.5837
0.58429
0.584031
0.582839
0.58066
0.577502
0.573492
0.568926
0.564411
0.585287
0.587187
0.588194
0.588169
0.586967
0.584458
0.580575
0.575395
0.56923
0.562938
0.588215
0.590642
0.592055
0.592301
0.591164
0.588432
0.583935
0.577654
0.569846
0.561621
0.589938
0.592812
0.594591
0.595106
0.594085
0.59124
0.586285
0.579066
0.569711
0.559526
0.591553
0.594708
0.596723
0.597443
0.596546
0.593689
0.58848
0.580623
0.570027
0.558027
0.589778
0.593052
0.595262
0.596133
0.595345
0.5925
0.58715
0.578845
0.567425
0.553939
0.564198
0.564267
0.564238
0.564135
0.563971
0.563763
0.563553
0.563517
0.564357
0.567967
0.569033
0.569142
0.569095
0.568887
0.568532
0.568053
0.567483
0.566871
0.566272
0.56574
0.572535
0.572815
0.572811
0.572516
0.571938
0.571105
0.570066
0.5689
0.567708
0.56662
0.575752
0.576322
0.576463
0.576143
0.575355
0.574116
0.572486
0.570576
0.568552
0.566651
0.579008
0.579956
0.580329
0.580066
0.579125
0.577499
0.575236
0.572465
0.569417
0.566476
0.581478
0.582865
0.583537
0.583394
0.582356
0.58037
0.57745
0.573722
0.569466
0.565249
0.584129
0.585947
0.586923
0.586942
0.585869
0.583597
0.580079
0.575404
0.569865
0.564229
0.585629
0.587825
0.58909
0.589284
0.58823
0.585759
0.581752
0.57623
0.569454
0.56236
0.587234
0.589684
0.591143
0.591484
0.590481
0.587918
0.5836
0.577462
0.569661
0.56123
0.58546
0.588012
0.589634
0.590085
0.589138
0.586531
0.582022
0.575439
0.566928
0.557416
0.565108
0.565168
0.565161
0.56511
0.565026
0.564919
0.564817
0.56487
0.565737
0.569438
0.56897
0.569043
0.569022
0.568907
0.568705
0.568432
0.568109
0.567765
0.567432
0.567133
0.571448
0.571632
0.571632
0.571446
0.571084
0.570565
0.569926
0.569216
0.568498
0.567845
0.573907
0.574291
0.574377
0.574148
0.573605
0.572772
0.571698
0.570463
0.569177
0.567981
0.576486
0.577144
0.577381
0.577157
0.576456
0.575292
0.573719
0.571844
0.569832
0.567921
0.578477
0.57947
0.579911
0.579735
0.578903
0.577403
0.575281
0.572661
0.569765
0.566955
0.580812
0.582145
0.582807
0.582716
0.581795
0.58
0.577349
0.573963
0.5701
0.56627
0.582016
0.583657
0.584536
0.584547
0.583583
0.581558
0.57845
0.574353
0.569543
0.564657
0.583584
0.585444
0.586475
0.586583
0.585617
0.583458
0.580034
0.575398
0.569784
0.563938
0.58177
0.583709
0.584871
0.585051
0.584102
0.581864
0.578237
0.573204
0.567024
0.560415
0.565974
0.566026
0.566028
0.566004
0.565961
0.565905
0.565858
0.565943
0.566774
0.570469
0.569154
0.569203
0.569196
0.569134
0.569022
0.568869
0.568688
0.568496
0.568313
0.568144
0.570817
0.570937
0.57094
0.570829
0.570609
0.570294
0.569908
0.569482
0.569053
0.568663
0.572679
0.572934
0.572989
0.572834
0.572475
0.57193
0.571238
0.570453
0.569643
0.568894
0.574637
0.575087
0.575237
0.575065
0.574567
0.573762
0.572697
0.571453
0.570141
0.568907
0.576175
0.576869
0.577156
0.576993
0.576361
0.575272
0.573776
0.571976
0.570033
0.568175
0.578191
0.579147
0.579588
0.579459
0.578721
0.577364
0.575433
0.573041
0.57039
0.567811
0.579053
0.580249
0.580847
0.58077
0.579957
0.578377
0.576052
0.573097
0.569747
0.566421
0.580581
0.581959
0.582671
0.582652
0.581805
0.580078
0.577467
0.57407
0.570112
0.566108
0.578694
0.580127
0.580939
0.580962
0.580106
0.578286
0.575486
0.571761
0.567378
0.562851
0.566734
0.56678
0.566786
0.566775
0.566752
0.566723
0.566701
0.566791
0.56755
0.571166
0.569454
0.569486
0.569486
0.569454
0.569392
0.569307
0.569205
0.569099
0.568999
0.568903
0.570468
0.570545
0.57055
0.570486
0.570355
0.570169
0.569939
0.569687
0.569433
0.569202
0.5719
0.572068
0.572104
0.572004
0.571773
0.571427
0.570989
0.570497
0.569992
0.569525
0.573315
0.573616
0.573711
0.573588
0.573248
0.572708
0.572005
0.571194
0.570349
0.569559
0.574451
0.574927
0.575112
0.574978
0.574521
0.573758
0.572732
0.571522
0.570238
0.569022
0.576175
0.576844
0.577133
0.577007
0.576447
0.57546
0.574095
0.572445
0.570656
0.568939
0.57667
0.57752
0.577918
0.577811
0.577168
0.575985
0.574303
0.572228
0.56994
0.567706
0.578182
0.579178
0.579658
0.579581
0.57889
0.577569
0.575647
0.573226
0.570491
0.567786
0.576193
0.577222
0.577776
0.57772
0.577005
0.575594
0.573511
0.570835
0.567797
0.564742
0.56737
0.567411
0.567416
0.567412
0.567399
0.567383
0.567373
0.567452
0.568117
0.571594
0.569797
0.569819
0.569822
0.569805
0.569771
0.569723
0.569666
0.569606
0.569552
0.569497
0.570276
0.570325
0.57033
0.570294
0.570219
0.57011
0.569976
0.569828
0.56968
0.569544
0.571439
0.571547
0.571571
0.571509
0.571365
0.571149
0.570878
0.570573
0.570262
0.569973
0.572388
0.572586
0.572647
0.572564
0.572339
0.571986
0.571532
0.571014
0.570478
0.569978
0.573195
0.573514
0.573631
0.573531
0.573213
0.572694
0.572009
0.571213
0.570378
0.569594
0.574664
0.575122
0.575309
0.575203
0.574798
0.574105
0.573168
0.572056
0.57087
0.569741
0.574784
0.575373
0.575632
0.575527
0.575044
0.574192
0.573013
0.571594
0.570062
0.568585
0.576328
0.577031
0.577347
0.577255
0.576722
0.575752
0.574384
0.572705
0.570853
0.56905
0.574208
0.574924
0.575293
0.575208
0.574646
0.573598
0.572102
0.570235
0.568176
0.566148
0.567872
0.567909
0.567914
0.567912
0.567905
0.567896
0.567889
0.567952
0.568508
0.571782
0.570153
0.570167
0.57017
0.570161
0.570142
0.570114
0.570082
0.570048
0.570019
0.569985
0.570156
0.570187
0.570191
0.570171
0.570129
0.570066
0.569989
0.569904
0.569818
0.56974
0.571195
0.571264
0.57128
0.571243
0.571155
0.571024
0.570858
0.570673
0.570483
0.570306
0.571755
0.571882
0.571921
0.571867
0.571722
0.571498
0.571211
0.570886
0.570551
0.57024
0.572307
0.572515
0.572589
0.572519
0.572306
0.571964
0.571517
0.571004
0.570471
0.569973
0.573563
0.573869
0.573988
0.573908
0.573626
0.573157
0.572531
0.571799
0.571029
0.570297
0.573309
0.573705
0.57387
0.573781
0.573434
0.572842
0.572041
0.571095
0.570091
0.569133
0.574955
0.575439
0.575642
0.575558
0.575167
0.574482
0.573539
0.572405
0.571177
0.569992
0.572658
0.573141
0.57338
0.573295
0.572876
0.572128
0.571091
0.569824
0.568462
0.567138
0.568223
0.568256
0.56826
0.568259
0.568255
0.56825
0.568245
0.56829
0.568727
0.571725
0.570515
0.570525
0.570527
0.570522
0.570511
0.570495
0.570475
0.570456
0.57044
0.570417
0.570054
0.570072
0.570075
0.570065
0.57004
0.570005
0.569961
0.569913
0.569864
0.569819
0.571097
0.571141
0.571152
0.571131
0.571079
0.571001
0.570902
0.570791
0.570678
0.57057
0.571341
0.57142
0.571444
0.57141
0.57132
0.57118
0.571003
0.570802
0.570597
0.570405
0.571711
0.571844
0.57189
0.571843
0.571705
0.571485
0.571201
0.570877
0.570543
0.570232
0.572786
0.572985
0.573061
0.573004
0.572815
0.572507
0.572102
0.571633
0.571143
0.570677
0.572167
0.572425
0.572527
0.572459
0.572219
0.571821
0.571292
0.570678
0.570033
0.569428
0.574003
0.574328
0.574456
0.574388
0.574115
0.573648
0.573019
0.572272
0.571477
0.570708
0.57144
0.571754
0.571905
0.571833
0.571535
0.571021
0.570324
0.569489
0.56861
0.567765
0.568342
0.568372
0.568375
0.568376
0.568375
0.568372
0.568369
0.568398
0.568712
0.571342
0.570907
0.570914
0.570915
0.570912
0.570905
0.570896
0.570885
0.570873
0.570864
0.570849
0.569946
0.569956
0.569957
0.569951
0.569937
0.569916
0.56989
0.569862
0.569833
0.569809
0.571095
0.571123
0.571131
0.57112
0.571091
0.571047
0.57099
0.570926
0.57086
0.570796
0.571098
0.571146
0.57116
0.571139
0.571084
0.570999
0.57089
0.570769
0.570644
0.570528
0.571355
0.571438
0.571467
0.571436
0.571349
0.571211
0.571034
0.570834
0.570627
0.570436
0.572267
0.572393
0.572439
0.572401
0.57228
0.572084
0.57183
0.571537
0.571235
0.570944
0.571318
0.571482
0.571544
0.571494
0.571333
0.571073
0.570731
0.57034
0.569933
0.569562
0.573436
0.573648
0.573728
0.573678
0.573494
0.573187
0.572781
0.572302
0.5718
0.571302
0.570394
0.570591
0.570684
0.570629
0.570425
0.570084
0.56963
0.569093
0.568541
0.568012
0.568033
0.568055
0.568059
0.56806
0.56806
0.568059
0.568058
0.568074
0.568267
0.570408
0.571396
0.571402
0.571403
0.571402
0.571399
0.571396
0.571391
0.571387
0.571382
0.571372
0.569862
0.569866
0.569866
0.569861
0.56985
0.569835
0.569817
0.569798
0.569778
0.569761
0.571151
0.57117
0.571176
0.571171
0.571157
0.571133
0.571102
0.571068
0.571032
0.570997
0.570997
0.571026
0.571034
0.571021
0.570987
0.570935
0.57087
0.570796
0.57072
0.570648
0.5712
0.571252
0.57127
0.57125
0.571196
0.571111
0.571002
0.570879
0.570751
0.570633
0.571959
0.572037
0.572066
0.572041
0.571965
0.571844
0.571688
0.57151
0.571329
0.571152
0.570806
0.57091
0.570946
0.570912
0.570806
0.570638
0.570418
0.570168
0.569908
0.569682
0.57328
0.573414
0.573463
0.573428
0.573308
0.573112
0.572856
0.572556
0.572248
0.571921
0.569265
0.56939
0.569445
0.569406
0.569271
0.569048
0.568758
0.568417
0.568075
0.567746
0.567003
0.567025
0.567024
0.56702
0.567013
0.567003
0.566991
0.566984
0.567056
0.56853
0.572129
0.572136
0.572139
0.572142
0.572145
0.57215
0.572156
0.572162
0.572168
0.57217
0.569907
0.569907
0.569905
0.569898
0.569888
0.569873
0.569856
0.569836
0.569814
0.569792
0.571222
0.571234
0.57124
0.571239
0.571233
0.571221
0.571207
0.57119
0.571174
0.571159
0.571005
0.571023
0.571028
0.57102
0.570998
0.570966
0.570924
0.570878
0.570829
0.570783
0.571197
0.571231
0.571242
0.57123
0.571195
0.571142
0.571073
0.570995
0.570913
0.570837
0.57182
0.57187
0.571888
0.571872
0.571824
0.571748
0.571651
0.571542
0.571434
0.57133
0.570765
0.570834
0.570857
0.570834
0.570763
0.570651
0.570504
0.570336
0.570154
0.569997
0.57364
0.573723
0.573754
0.573729
0.573651
0.573525
0.573363
0.573177
0.572996
0.572782
0.567744
0.567834
0.567869
0.567844
0.567753
0.567606
0.567413
0.567188
0.566963
0.566738
0.565407
0.565406
0.565395
0.565376
0.56535
0.565315
0.565271
0.565217
0.565159
0.565666
0.573162
0.57317
0.573176
0.573185
0.573198
0.573216
0.573239
0.573268
0.573304
0.57335
0.570144
0.570143
0.570139
0.570132
0.57012
0.570105
0.570085
0.570061
0.570032
0.569994
0.571254
0.571263
0.571267
0.571268
0.571265
0.57126
0.571253
0.571247
0.571242
0.571241
0.571058
0.571071
0.571075
0.571069
0.571054
0.571031
0.571002
0.570968
0.570933
0.570899
0.571256
0.571281
0.571289
0.57128
0.571256
0.571218
0.571169
0.571113
0.571054
0.570998
0.571774
0.57181
0.571823
0.571812
0.571777
0.571723
0.571654
0.571578
0.571506
0.571441
0.571179
0.571232
0.57125
0.571233
0.571181
0.571097
0.570988
0.570857
0.570709
0.570562
0.57449
0.574548
0.574571
0.574553
0.574495
0.574404
0.574289
0.574165
0.57406
0.573954
0.56591
0.566003
0.566035
0.566018
0.565951
0.56584
0.565695
0.565524
0.565343
0.565136
0.357243
0.262851
0.259866
0.358735
0.350648
0.254701
0.250214
0.3559
0.341337
0.244933
0.239495
0.335524
0.329564
0.232246
0.223675
0.30089
0.31623
0.218592
0.206602
0.269094
0.303412
0.208526
0.197222
0.26025
0.292252
0.202266
0.192976
0.256446
0.279663
0.194505
0.186464
0.247407
0.267041
0.186945
0.179499
0.236115
0.255012
0.180069
0.170997
0.219535
0.393811
0.357271
0.351139
0.374995
0.397522
0.355625
0.347693
0.371517
0.396398
0.350195
0.337595
0.358398
0.393065
0.342365
0.323609
0.339322
0.388687
0.333925
0.309792
0.320039
0.37988
0.321001
0.292061
0.297393
0.370942
0.30901
0.276373
0.276665
0.36193
0.29827
0.263734
0.262126
0.353543
0.288686
0.252318
0.248008
0.345458
0.278451
0.23841
0.228768
0.471667
0.458364
0.454101
0.460449
0.475794
0.45823
0.45258
0.460111
0.473943
0.45378
0.446383
0.451883
0.468955
0.44595
0.436221
0.43918
0.462793
0.43704
0.424869
0.425696
0.454556
0.426457
0.412649
0.412561
0.446488
0.416352
0.40109
0.399733
0.437832
0.406013
0.389358
0.386057
0.429874
0.397086
0.37904
0.373126
0.423131
0.390503
0.370127
0.359181
0.505292
0.500733
0.498663
0.49905
0.511199
0.503176
0.500117
0.501819
0.510333
0.500675
0.496365
0.497022
0.506301
0.494716
0.488885
0.488418
0.50125
0.48775
0.480436
0.478961
0.493838
0.478467
0.46976
0.467197
0.486115
0.468964
0.458911
0.45516
0.477569
0.458827
0.44746
0.442225
0.46903
0.449279
0.436723
0.429563
0.459672
0.440274
0.426365
0.415459
0.526843
0.525877
0.524686
0.523231
0.533432
0.529506
0.527583
0.527629
0.533213
0.528299
0.525503
0.524785
0.530159
0.523984
0.520145
0.518561
0.526289
0.518813
0.513924
0.511463
0.520334
0.51153
0.505567
0.502151
0.514075
0.503963
0.496927
0.492493
0.506834
0.495477
0.48735
0.481741
0.499663
0.487438
0.478327
0.47119
0.491791
0.479777
0.469696
0.459434
0.539358
0.54002
0.539341
0.537292
0.546434
0.544355
0.543177
0.542892
0.546631
0.543936
0.542158
0.541314
0.544351
0.54083
0.538325
0.536831
0.541376
0.536974
0.533705
0.531528
0.536465
0.531123
0.527044
0.524128
0.531277
0.524988
0.520094
0.51641
0.525117
0.517917
0.512209
0.507682
0.519114
0.511286
0.504885
0.499271
0.512051
0.504368
0.497417
0.489605
0.547199
0.548662
0.54827
0.546013
0.554549
0.553399
0.552686
0.552404
0.554967
0.553414
0.552295
0.551626
0.553317
0.55122
0.549598
0.548463
0.551076
0.548385
0.546219
0.54458
0.547092
0.543758
0.541008
0.53882
0.542908
0.538922
0.535583
0.532829
0.537798
0.533184
0.529267
0.525919
0.532978
0.527945
0.523563
0.519477
0.526779
0.521774
0.517057
0.511545
0.55227
0.554161
0.553936
0.551587
0.559697
0.559043
0.558614
0.558405
0.560271
0.559345
0.558644
0.558179
0.559128
0.557836
0.556791
0.556003
0.557493
0.555797
0.554372
0.553223
0.554299
0.552165
0.550328
0.548786
0.550996
0.548418
0.546167
0.544224
0.546804
0.543806
0.541159
0.538809
0.543076
0.539805
0.53686
0.534037
0.537611
0.534316
0.531166
0.527474
0.555716
0.557855
0.557726
0.555321
0.563052
0.562671
0.562413
0.562275
0.563722
0.563163
0.562726
0.562416
0.562995
0.562186
0.561514
0.560986
0.56186
0.560773
0.559838
0.559057
0.55935
0.557962
0.556739
0.55568
0.556831
0.555141
0.553631
0.552291
0.55344
0.551471
0.549692
0.548077
0.55069
0.548542
0.546571
0.544666
0.545857
0.543669
0.541572
0.539156
0.55817
0.560461
0.560388
0.55794
0.565297
0.565072
0.564917
0.56483
0.565976
0.565635
0.565363
0.565162
0.565578
0.565068
0.564637
0.564289
0.564847
0.564145
0.563532
0.56301
0.562922
0.562012
0.561199
0.560482
0.561094
0.559976
0.558963
0.558052
0.558375
0.557071
0.555877
0.554779
0.556445
0.555019
0.5537
0.55243
0.55217
0.550708
0.549312
0.547745
0.559999
0.562388
0.562347
0.559865
0.566844
0.56671
0.566617
0.566564
0.567455
0.567248
0.567079
0.56695
0.567307
0.566984
0.566708
0.566481
0.566875
0.566421
0.56602
0.565673
0.565436
0.564838
0.564299
0.563818
0.564204
0.563462
0.562784
0.56217
0.562029
0.561162
0.560361
0.559621
0.560775
0.559823
0.558941
0.558098
0.556983
0.556003
0.555071
0.554058
0.56142
0.56387
0.563846
0.561342
0.567947
0.567864
0.567809
0.567778
0.568426
0.568301
0.568196
0.568115
0.568469
0.568265
0.568089
0.567943
0.568235
0.567942
0.567681
0.567453
0.567184
0.566791
0.566435
0.566115
0.566447
0.565954
0.565503
0.565092
0.564685
0.564108
0.563573
0.563076
0.564002
0.563365
0.562775
0.562219
0.560605
0.559948
0.559327
0.558672
0.562565
0.565045
0.565031
0.56252
0.568762
0.56871
0.568676
0.56866
0.569059
0.568983
0.56892
0.568869
0.569258
0.56913
0.569019
0.568926
0.569131
0.568943
0.568774
0.568627
0.568378
0.568122
0.567889
0.567678
0.56804
0.567715
0.567416
0.567145
0.566564
0.566183
0.565827
0.565496
0.566376
0.56595
0.565558
0.565195
0.563281
0.562842
0.56243
0.562009
0.563521
0.565994
0.565986
0.563494
0.56939
0.569356
0.569336
0.569328
0.569459
0.569414
0.569376
0.569344
0.569806
0.569725
0.569656
0.569598
0.569708
0.569588
0.569481
0.569386
0.569179
0.569014
0.568863
0.568726
0.569153
0.56894
0.568745
0.568567
0.567841
0.567592
0.567358
0.567139
0.568103
0.567818
0.56756
0.567327
0.565211
0.564919
0.564648
0.564379
0.564341
0.566765
0.566761
0.564326
0.569901
0.569878
0.569866
0.569863
0.569691
0.569664
0.569641
0.569622
0.570201
0.570151
0.570108
0.570073
0.570071
0.569997
0.569929
0.56987
0.56971
0.569604
0.569508
0.569421
0.569916
0.569778
0.569652
0.569539
0.568658
0.568497
0.568345
0.568202
0.56935
0.569161
0.568993
0.568847
0.56655
0.566358
0.566182
0.566013
0.565052
0.567366
0.567364
0.565044
0.570349
0.570334
0.570326
0.570325
0.569792
0.569777
0.569764
0.569752
0.570504
0.570473
0.570447
0.570426
0.570302
0.570256
0.570215
0.570178
0.570067
0.570001
0.569941
0.569886
0.570434
0.570346
0.570267
0.570195
0.569131
0.569029
0.568932
0.568841
0.570264
0.570137
0.57003
0.569943
0.567406
0.567282
0.567169
0.567064
0.565616
0.567736
0.567735
0.565611
0.570793
0.570782
0.570777
0.570777
0.569794
0.569786
0.569778
0.569771
0.570754
0.570736
0.57072
0.570707
0.570465
0.570437
0.570412
0.570389
0.570333
0.570292
0.570255
0.570221
0.570792
0.570738
0.570688
0.570644
0.56938
0.569317
0.569256
0.569198
0.570981
0.570895
0.570828
0.570781
0.567803
0.567723
0.567653
0.567589
0.565858
0.567667
0.567666
0.565856
0.571327
0.571319
0.571316
0.571316
0.569753
0.569747
0.569743
0.56974
0.570971
0.570961
0.570951
0.570943
0.570609
0.570591
0.570576
0.570563
0.570567
0.570541
0.570518
0.570499
0.571062
0.571029
0.570999
0.570971
0.569563
0.569523
0.569486
0.569451
0.571672
0.571609
0.571568
0.571547
0.56763
0.567581
0.567537
0.567498
0.565446
0.56677
0.56677
0.565445
0.572134
0.572131
0.572128
0.572127
0.56978
0.569773
0.569771
0.569773
0.571147
0.571142
0.571136
0.57113
0.570754
0.570742
0.570733
0.570727
0.57079
0.570773
0.570759
0.570748
0.571281
0.571262
0.571243
0.571224
0.569885
0.569852
0.569829
0.569813
0.57258
0.572531
0.572504
0.572501
0.566666
0.566634
0.566606
0.566582
0.564388
0.564962
0.564961
0.564387
0.573354
0.573368
0.573367
0.573349
0.569969
0.569956
0.569955
0.569964
0.571242
0.571241
0.571237
0.57123
0.570874
0.570865
0.570858
0.570855
0.570959
0.570946
0.570936
0.570929
0.57142
0.571409
0.571395
0.571379
0.570397
0.57036
0.570343
0.570346
0.57387
0.573838
0.573819
0.573812
0.565044
0.565014
0.564994
0.564983
0.524411
0.563606
0.579006
0.588286
0.596172
0.603768
0.610938
0.617366
0.623253
0.628759
0.518331
0.543996
0.563998
0.57954
0.592592
0.603232
0.612445
0.620644
0.628144
0.635122
0.501897
0.526997
0.556315
0.574552
0.58994
0.602291
0.612929
0.622313
0.630743
0.638317
0.47738
0.50917
0.543329
0.564647
0.58238
0.596584
0.608851
0.619688
0.629428
0.638075
0.454018
0.492869
0.531112
0.555805
0.575598
0.591535
0.605242
0.61733
0.628165
0.637654
0.425043
0.476214
0.518513
0.546593
0.568373
0.585965
0.600971
0.614179
0.625989
0.636242
0.395875
0.462698
0.508385
0.53976
0.563183
0.582193
0.598235
0.612312
0.624808
0.635514
0.366086
0.450355
0.498641
0.533294
0.558073
0.578359
0.595252
0.610024
0.623054
0.634178
0.337386
0.441205
0.490934
0.52873
0.554641
0.576189
0.593808
0.609111
0.622388
0.633741
0.302357
0.430809
0.479866
0.520275
0.547361
0.570126
0.588611
0.604684
0.618494
0.630252
0.458022
0.503196
0.531043
0.551244
0.566309
0.577851
0.586986
0.594356
0.600332
0.605163
0.4543
0.501707
0.533688
0.556252
0.572765
0.585344
0.595464
0.603894
0.611077
0.61727
0.449007
0.499488
0.534975
0.55817
0.57534
0.58867
0.599645
0.608966
0.617022
0.623986
0.437805
0.491094
0.528776
0.55301
0.571499
0.58611
0.598363
0.608932
0.618206
0.626254
0.425526
0.480993
0.520943
0.547002
0.567042
0.583048
0.596558
0.608273
0.618612
0.627544
0.408476
0.468197
0.511137
0.539604
0.561362
0.578829
0.593549
0.606336
0.617653
0.627398
0.38973
0.456667
0.502664
0.533813
0.557126
0.575912
0.59164
0.605281
0.617313
0.627584
0.366783
0.445699
0.494125
0.528102
0.55272
0.572689
0.589236
0.603551
0.616131
0.626864
0.343348
0.437607
0.487126
0.523921
0.549565
0.570655
0.587879
0.602705
0.61555
0.626583
0.315727
0.42897
0.476897
0.516067
0.542718
0.56492
0.582931
0.598466
0.611811
0.623307
0.491343
0.511884
0.528324
0.542274
0.554069
0.563894
0.571984
0.578548
0.583745
0.587687
0.484546
0.510099
0.531196
0.548362
0.56233
0.573708
0.583061
0.590798
0.597193
0.602453
0.479173
0.508043
0.532389
0.551264
0.566442
0.578772
0.589019
0.597662
0.604995
0.611183
0.469277
0.500637
0.527542
0.548029
0.564593
0.578156
0.589602
0.599434
0.607958
0.615256
0.458765
0.491649
0.521163
0.543489
0.561566
0.576452
0.589104
0.600053
0.609648
0.617883
0.443984
0.48015
0.51259
0.537153
0.556902
0.573196
0.587047
0.599067
0.609663
0.618769
0.427745
0.469429
0.504872
0.531921
0.553251
0.570859
0.585746
0.598642
0.610001
0.619714
0.408754
0.459147
0.497016
0.526673
0.549348
0.568118
0.583835
0.597418
0.609353
0.619574
0.389271
0.451746
0.490688
0.523003
0.546708
0.566514
0.582869
0.596932
0.609133
0.619674
0.367042
0.444436
0.481778
0.516253
0.540762
0.561467
0.578442
0.59307
0.605663
0.616589
0.516853
0.524418
0.533083
0.541976
0.55023
0.557474
0.563619
0.568671
0.572637
0.575527
0.509635
0.522506
0.535605
0.547622
0.558172
0.567214
0.574864
0.581257
0.586487
0.590665
0.505013
0.520351
0.536179
0.550185
0.562264
0.572556
0.581325
0.58878
0.595063
0.600274
0.496282
0.513633
0.531836
0.547664
0.561298
0.572959
0.583006
0.591689
0.599176
0.605517
0.486596
0.505583
0.526126
0.543845
0.559077
0.572128
0.583425
0.593256
0.60184
0.609159
0.473818
0.495149
0.518236
0.538128
0.555074
0.569572
0.582109
0.593047
0.602666
0.610904
0.460129
0.485164
0.510919
0.533203
0.551809
0.567676
0.581308
0.59317
0.603604
0.612516
0.444206
0.475359
0.503407
0.52819
0.548232
0.565299
0.579808
0.592392
0.603443
0.612908
0.427802
0.468095
0.497308
0.524682
0.545837
0.563929
0.579092
0.592167
0.603519
0.613322
0.409641
0.460861
0.489039
0.518452
0.540372
0.559281
0.574997
0.588572
0.600284
0.610462
0.536511
0.537637
0.541338
0.546214
0.551221
0.555887
0.560003
0.563468
0.566203
0.568158
0.530058
0.536009
0.543264
0.550738
0.557859
0.56433
0.57002
0.574876
0.578859
0.581999
0.526533
0.533829
0.543062
0.552395
0.561156
0.569064
0.57604
0.582074
0.587173
0.591371
0.519355
0.527798
0.538898
0.550027
0.560422
0.569803
0.578132
0.585438
0.59175
0.597066
0.511136
0.520619
0.533596
0.546551
0.558578
0.569406
0.579038
0.587533
0.594962
0.601274
0.500245
0.511223
0.526245
0.541227
0.554964
0.567272
0.578189
0.58783
0.596323
0.603586
0.488671
0.502085
0.519298
0.536498
0.551919
0.565639
0.57771
0.588326
0.597684
0.605674
0.475442
0.492931
0.512124
0.531634
0.548542
0.563495
0.576495