/*--------------------------------*- C++ -*----------------------------------*\
| =========                 |                                                 |
| \\      /  F ield         | foam-extend: Open Source CFD                    |
|  \\    /   O peration     | Version:     4.0                                |
|   \\  /    A nd           | Web:         http://www.foam-extend.org         |
|    \\/     M anipulation  |                                                 |
\*---------------------------------------------------------------------------*/
FoamFile
{
    version     2.0;
    format      ascii;
    class       volScalarField;
    location    "2600";
    object      mut;
}
// * * * * * * * * * * * * * * * * * * * * * * * * * * * * * * * * * * * * * //

dimensions      [1 -1 -1 0 0 0 0];

internalField   nonuniform List<scalar> 
34480
(
0.00190197
0.00189973
0.00189862
0.00189899
0.00190181
0.00190939
0.00192657
0.00195851
0.0020052
0.00212232
0.0178338
0.0163581
0.0137603
0.00989717
0.00582542
0.00306443
0.00187952
0.00169751
0.00200297
0.00236916
0.0516388
0.0468945
0.0394181
0.0290429
0.0174482
0.00838171
0.00387535
0.00255408
0.00265258
0.00304882
0.0641724
0.059264
0.0513522
0.0397061
0.0252858
0.0124172
0.00528356
0.0029934
0.00293648
0.00339423
0.0695241
0.0652676
0.058085
0.046699
0.031192
0.0158147
0.00650175
0.00334446
0.00316822
0.00370129
0.0714136
0.0679574
0.0616424
0.0507827
0.0348059
0.0179243
0.00726076
0.00358985
0.00342109
0.00407785
0.0700467
0.0676094
0.0624794
0.0525719
0.0367822
0.0192096
0.0077718
0.00377991
0.0036643
0.00445182
0.0593664
0.0585204
0.0554999
0.0479479
0.0341599
0.0179536
0.00732093
0.00364161
0.00372165
0.00467968
0.0192288
0.0199238
0.020445
0.0195026
0.0151914
0.00851361
0.00377848
0.00216677
0.00265245
0.00382834
0.00177349
0.00176215
0.00175339
0.00174747
0.00174544
0.00174689
0.0017508
0.00175751
0.00175693
0.00172602
0.00191528
0.0019142
0.00191497
0.00191806
0.00192391
0.00193328
0.00194882
0.00197526
0.00201975
0.00209593
0.0165371
0.0162389
0.0156623
0.0143886
0.0119101
0.00821627
0.00461137
0.00272005
0.00244106
0.00326284
0.0497384
0.0475306
0.0436912
0.0377875
0.0299193
0.0204726
0.0110396
0.00519709
0.00376629
0.00491197
0.0613713
0.0591025
0.0550813
0.0485619
0.0394331
0.0279774
0.0154929
0.00671808
0.00439873
0.0058201
0.0661596
0.0644326
0.0611243
0.05523
0.0460656
0.0337826
0.0192769
0.00798402
0.00490079
0.00665079
0.067814
0.0667587
0.064338
0.0593477
0.0505518
0.0379351
0.0220775
0.00889211
0.00536793
0.00766923
0.0665072
0.0662372
0.0649285
0.0611707
0.0532477
0.0408488
0.0242534
0.00960735
0.00579137
0.00872545
0.056242
0.0569435
0.057216
0.0556756
0.0501829
0.0397597
0.0241488
0.00944024
0.00583559
0.00938959
0.0180032
0.0187044
0.0198279
0.0212149
0.0220848
0.0206235
0.0140764
0.00549345
0.0037409
0.00703478
0.00177523
0.00176307
0.00175284
0.00174524
0.00174173
0.001743
0.00174723
0.00175369
0.00178473
0.0018944
0.00192053
0.00192037
0.00192182
0.00192539
0.00193141
0.00194021
0.00195249
0.00196973
0.00199461
0.00202982
0.014633
0.0145951
0.0146229
0.0144911
0.0137569
0.0120488
0.00950136
0.00695997
0.00533942
0.00480209
0.0461616
0.045095
0.0430049
0.0395679
0.0345538
0.02779
0.0197951
0.0124672
0.00816944
0.00700647
0.0566319
0.0556197
0.0534986
0.0496517
0.0438387
0.0356566
0.0252607
0.0150021
0.00912242
0.00801639
0.0607595
0.0602213
0.0587785
0.0555607
0.0499764
0.0414499
0.0295694
0.0168176
0.00965771
0.00888091
0.0621815
0.062186
0.0615496
0.0592542
0.0542499
0.0457786
0.0328556
0.0180026
0.0099948
0.00983073
0.0610783
0.0616557
0.0619495
0.0608223
0.056812
0.0488583
0.0353799
0.0187663
0.0101713
0.0107635
0.0517836
0.0528959
0.0542427
0.0548675
0.0530353
0.0471217
0.0347858
0.0179904
0.00971411
0.011228
0.0168121
0.017361
0.0183432
0.0197722
0.0214014
0.0220955
0.0188483
0.010354
0.00590127
0.00791622
0.00177099
0.00176005
0.00175094
0.00174436
0.00174156
0.00174415
0.00175274
0.00176646
0.00179832
0.00189744
0.00191769
0.00191791
0.00191915
0.00192177
0.00192593
0.00193177
0.00193948
0.0019495
0.00196293
0.00198197
0.013033
0.0130382
0.0132211
0.0135315
0.0137636
0.0136348
0.0129221
0.0116504
0.0101826
0.00906277
0.0423676
0.041893
0.0408629
0.0390605
0.0362229
0.0321285
0.0268822
0.0210992
0.0160218
0.0130242
0.0514875
0.0511153
0.0500801
0.0479623
0.0445044
0.0393458
0.0324438
0.0245012
0.017561
0.0140622
0.0548901
0.054908
0.0544493
0.052821
0.0496027
0.0442622
0.0364405
0.0267504
0.0182532
0.0147388
0.0561089
0.0565301
0.0567243
0.0558634
0.0531811
0.0479824
0.0395271
0.0282847
0.0185683
0.0155114
0.0553001
0.056113
0.0570138
0.0570967
0.0552708
0.0505752
0.0418135
0.0291919
0.0184755
0.0161433
0.0472395
0.0483139
0.0498504
0.0511806
0.0510499
0.0480703
0.0404303
0.0278285
0.0172256
0.0160435
0.0157958
0.0161897
0.0169425
0.0180732
0.0195298
0.0208086
0.0202458
0.0155899
0.0102489
0.0107813
0.00176483
0.00175531
0.00174756
0.00174222
0.00174026
0.00174346
0.00175376
0.00177206
0.00180475
0.00188207
0.0019087
0.00190905
0.00190992
0.00191148
0.00191377
0.00191682
0.00192068
0.00192561
0.00193255
0.0019441
0.01199
0.0119716
0.0121075
0.0124265
0.012886
0.0134
0.0138293
0.0140124
0.0138261
0.0133437
0.038705
0.0386082
0.0383259
0.0377108
0.0365307
0.0345608
0.031723
0.0281462
0.0242129
0.0208819
0.0464646
0.0464816
0.046206
0.0453693
0.0437175
0.0409595
0.0369849
0.0319476
0.0264227
0.0220877
0.0491699
0.0494714
0.0496124
0.0491236
0.047662
0.0448137
0.0403241
0.034253
0.027411
0.0225701
0.0502264
0.0507895
0.0513958
0.0514584
0.0504283
0.0477512
0.042965
0.0359905
0.0279945
0.0231483
0.0497379
0.0505417
0.0516273
0.0523562
0.0519715
0.0497215
0.0448536
0.0370514
0.0279559
0.0234308
0.0429835
0.0438761
0.0452748
0.0467696
0.0475495
0.0466034
0.0427414
0.0352219
0.0260698
0.0225387
0.0149631
0.015226
0.0157656
0.0165803
0.0176868
0.0189471
0.0196763
0.0183778
0.0148294
0.0140807
0.00175749
0.00174936
0.00174298
0.00173886
0.00173779
0.00174134
0.00175152
0.00177017
0.00180042
0.00185669
0.00189509
0.00189548
0.00189602
0.00189679
0.0018978
0.001899
0.00190043
0.00190229
0.00190561
0.00191319
0.0115471
0.0115039
0.0115613
0.011753
0.0120763
0.0125284
0.0130971
0.0137546
0.0144323
0.0149776
0.035153
0.0352568
0.0354007
0.0355181
0.0354664
0.0350669
0.0341699
0.0327057
0.0307255
0.0286255
0.0416778
0.0419068
0.0421131
0.0421586
0.0418413
0.0409235
0.0392347
0.0367279
0.0334944
0.030253
0.0438623
0.0442769
0.0447514
0.0450265
0.0448391
0.0438687
0.0418717
0.0387475
0.0345584
0.0305386
0.0448397
0.0453995
0.0461585
0.0467898
0.0469173
0.0461111
0.0440068
0.0404152
0.0353703
0.0309028
0.0446669
0.0453593
0.046409
0.0474489
0.0480077
0.0475264
0.0454609
0.0414589
0.0355278
0.030845
0.0391801
0.0398626
0.0410012
0.0423987
0.0436115
0.0439917
0.0427286
0.039155
0.0332034
0.0290653
0.0143119
0.0144743
0.0148425
0.0153939
0.0161562
0.0171375
0.0181514
0.0185254
0.0172919
0.0164643
0.00174868
0.00174191
0.00173681
0.00173381
0.00173358
0.00173736
0.00174672
0.00176335
0.0017888
0.00182777
0.00187818
0.00187858
0.00187889
0.00187916
0.0018794
0.00187956
0.00187967
0.00187994
0.00188138
0.00188686
0.0115816
0.0115302
0.0115411
0.011638
0.0118194
0.012087
0.0124481
0.0129227
0.0135402
0.0142769
0.0320612
0.0321831
0.0323963
0.0326982
0.0330445
0.0333608
0.0335583
0.0335455
0.033254
0.032741
0.0373949
0.037643
0.0379789
0.0383727
0.0387251
0.0389022
0.0387615
0.0381905
0.0371315
0.0357944
0.0392321
0.0396058
0.0401253
0.0406928
0.0411686
0.0413611
0.0410683
0.0401366
0.0384576
0.0364034
0.0401954
0.0406472
0.0413317
0.0421288
0.0428389
0.0431979
0.0429137
0.0417641
0.0395404
0.0368801
0.040296
0.0408234
0.0416814
0.0427139
0.0436935
0.0442843
0.0440804
0.0427512
0.0399354
0.0367459
0.0359592
0.0364408
0.037276
0.0384001
0.039629
0.0406499
0.0409536
0.0400087
0.037236
0.0341925
0.0138474
0.0139359
0.0141753
0.0145268
0.015009
0.0156572
0.0164596
0.0171988
0.0171809
0.0169388
0.00173816
0.00173267
0.00172871
0.00172668
0.00172711
0.00173093
0.00173921
0.00175309
0.00177306
0.00179923
0.00185892
0.00185931
0.00185948
0.00185946
0.00185926
0.00185886
0.00185828
0.00185773
0.00185819
0.00186251
0.0119231
0.0118758
0.0118671
0.0119144
0.0120157
0.0121713
0.0123875
0.0126905
0.0131387
0.0137979
0.0299302
0.0299979
0.0301223
0.030317
0.0305758
0.030881
0.0312076
0.0315165
0.03175
0.0318555
0.0340881
0.0342474
0.0344809
0.0348059
0.0351927
0.0355987
0.0359654
0.0362228
0.0362961
0.0361963
0.0355807
0.0358308
0.0362008
0.0366723
0.0372026
0.0377241
0.0381413
0.0383487
0.0382335
0.0378545
0.0364904
0.0367903
0.0372668
0.0379027
0.0386317
0.0393571
0.0399283
0.0401781
0.039904
0.0391983
0.0367593
0.0371125
0.037707
0.038496
0.0394137
0.0403344
0.0410438
0.0412964
0.0407552
0.0396202
0.0333831
0.0336954
0.0342463
0.0350244
0.0359779
0.0370244
0.0379455
0.0384106
0.0378849
0.0366864
0.0135652
0.0136017
0.01375
0.0139619
0.0142461
0.0146265
0.0151201
0.0156602
0.0157859
0.0157482
0.00172571
0.00172138
0.00171842
0.00171715
0.001718
0.00172162
0.00172867
0.00173977
0.00175463
0.00177192
0.00183787
0.00183826
0.00183835
0.00183818
0.00183774
0.00183704
0.0018361
0.00183512
0.00183501
0.00183859
0.0124375
0.0123999
0.0123847
0.0124066
0.0124649
0.0125598
0.0126989
0.0129118
0.0132699
0.0138855
0.0287708
0.0287978
0.0288486
0.0289335
0.0290526
0.0292018
0.0293748
0.0295582
0.0297222
0.0298176
0.0319319
0.0320073
0.0321181
0.0322844
0.0324963
0.0327418
0.0330022
0.0332485
0.0334369
0.0335436
0.0330281
0.033163
0.0333624
0.0336267
0.0339463
0.034305
0.0346737
0.0350106
0.0352521
0.0353908
0.0337925
0.0339607
0.0342294
0.0346066
0.0350768
0.035623
0.0362021
0.0367463
0.0371364
0.0373459
0.0340983
0.0343073
0.0346618
0.0351474
0.0357596
0.0364779
0.0372395
0.0379402
0.038376
0.0385316
0.0314545
0.0316396
0.0319683
0.0324373
0.0330349
0.0337647
0.0345811
0.0353593
0.0357667
0.0358293
0.0134568
0.0134578
0.0135451
0.0136663
0.0138244
0.01403
0.0142938
0.0145817
0.0145334
0.0143582
0.00171114
0.00170784
0.0017057
0.00170499
0.00170603
0.00170924
0.00171498
0.00172349
0.0017341
0.00174537
0.00181534
0.00181573
0.00181578
0.00181552
0.00181496
0.0018141
0.00181297
0.00181175
0.00181128
0.00181431
0.0130452
0.0130187
0.0130026
0.0130106
0.0130435
0.0131027
0.0131975
0.0133608
0.0136726
0.0142744
0.0282668
0.0282762
0.0282935
0.0283251
0.0283724
0.0284348
0.0285117
0.0285995
0.0286832
0.028725
0.0306923
0.030722
0.0307649
0.0308346
0.0309254
0.0310323
0.0311478
0.0312591
0.0313456
0.0313913
0.0314182
0.0314813
0.0315722
0.0316921
0.0318371
0.0320015
0.0321754
0.0323432
0.0324774
0.0325713
0.0319891
0.032072
0.0322024
0.0323876
0.0326218
0.0329029
0.0332207
0.0335535
0.0338481
0.0340764
0.0322387
0.0323491
0.0325367
0.0327917
0.0331189
0.0335193
0.0339808
0.0344731
0.0349007
0.0352393
0.0301163
0.0302158
0.0303952
0.0306478
0.0309666
0.0313633
0.0318391
0.0323604
0.0327536
0.0330386
0.0135113
0.0134888
0.0135372
0.0136031
0.0136869
0.0137916
0.0139215
0.0140506
0.0138815
0.0136199
0.00169431
0.00169191
0.00169042
0.00169009
0.00169112
0.00169377
0.0016982
0.00170444
0.0017117
0.00171884
0.00179143
0.00179182
0.00179185
0.00179155
0.00179093
0.00178998
0.00178875
0.00178738
0.00178666
0.00178922
0.0137098
0.0136944
0.0136796
0.0136796
0.0136962
0.0137323
0.0137989
0.013932
0.0142178
0.0148184
0.028126
0.0281297
0.0281349
0.0281457
0.0281641
0.0281912
0.0282286
0.0282767
0.0283269
0.0283469
0.030036
0.0300461
0.0300609
0.0300884
0.0301254
0.0301694
0.0302168
0.0302621
0.0302954
0.0303074
0.0304766
0.0305031
0.0305408
0.0305899
0.0306483
0.0307128
0.0307792
0.0308416
0.0308897
0.0309222
0.0308666
0.0309033
0.0309603
0.031042
0.0311442
0.0312656
0.0314027
0.0315475
0.0316788
0.0317798
0.031026
0.0310779
0.0311682
0.0312889
0.0314431
0.0316314
0.0318499
0.0320884
0.0323031
0.0324782
0.0292708
0.0293176
0.029408
0.0295326
0.0296837
0.0298669
0.0300863
0.0303293
0.0305018
0.0306336
0.0137183
0.0136807
0.0137053
0.0137394
0.0137818
0.0138328
0.0138932
0.013942
0.013735
0.013479
0.00167515
0.00167347
0.0016725
0.00167239
0.00167329
0.00167533
0.00167856
0.00168288
0.00168759
0.00169189
0.00176614
0.00176653
0.00176655
0.00176623
0.00176557
0.00176458
0.00176329
0.00176183
0.0017609
0.00176302
0.0144234
0.0144181
0.0144059
0.0144012
0.0144071
0.0144275
0.0144752
0.0145886
0.0148592
0.0154646
0.0281679
0.0281706
0.028172
0.0281753
0.0281827
0.0281958
0.0282173
0.0282493
0.0282861
0.0282977
0.02971
0.0297129
0.0297176
0.0297286
0.0297444
0.0297636
0.0297849
0.0298056
0.0298204
0.029823
0.0299574
0.0299671
0.0299816
0.030001
0.0300242
0.0300494
0.0300748
0.0300981
0.0301159
0.0301283
0.0302085
0.0302228
0.0302457
0.0302797
0.0303219
0.0303714
0.0304265
0.0304841
0.0305367
0.0305755
0.0302853
0.0303059
0.0303456
0.0303991
0.0304679
0.0305517
0.0306483
0.0307531
0.0308455
0.0309164
0.0288048
0.0288218
0.0288639
0.0289207
0.0289857
0.0290604
0.0291469
0.0292378
0.0292791
0.0293064
0.0140699
0.0140228
0.0140335
0.0140502
0.014071
0.0140949
0.0141216
0.0141335
0.0139358
0.0137251
0.00165358
0.00165249
0.0016519
0.00165191
0.00165261
0.00165407
0.00165625
0.00165904
0.00166186
0.00166421
0.0017394
0.00173978
0.0017398
0.00173946
0.00173879
0.00173777
0.00173645
0.00173491
0.0017338
0.00173548
0.0151953
0.0151994
0.0151901
0.0151829
0.0151818
0.0151915
0.0152262
0.0153267
0.0155888
0.0162026
0.0282966
0.0282996
0.0283002
0.028301
0.0283041
0.0283114
0.0283259
0.0283503
0.0283808
0.028389
0.0295584
0.0295591
0.0295606
0.0295652
0.0295725
0.0295817
0.0295925
0.0296034
0.0296117
0.0296123
0.0296861
0.0296886
0.0296936
0.0297015
0.0297115
0.0297228
0.0297345
0.0297456
0.0297549
0.0297628
0.0298428
0.0298474
0.0298558
0.0298696
0.029887
0.0299074
0.0299301
0.0299539
0.0299763
0.0299928
0.0298621
0.0298674
0.0298829
0.0299057
0.0299366
0.0299752
0.0300203
0.0300695
0.0301124
0.0301437
0.0286108
0.0286124
0.0286302
0.0286541
0.0286792
0.0287054
0.0287338
0.0287595
0.0287504
0.0287434
0.0145637
0.0145107
0.0145137
0.0145214
0.0145314
0.0145426
0.0145538
0.0145498
0.014383
0.0142263
0.00162959
0.00162896
0.00162864
0.0016287
0.00162918
0.00163012
0.00163144
0.00163306
0.00163454
0.00163556
0.0017111
0.00171147
0.00171149
0.00171115
0.00171046
0.00170943
0.00170807
0.00170648
0.0017052
0.00170644
0.0160466
0.0160591
0.0160533
0.0160452
0.0160396
0.016042
0.0160678
0.0161598
0.0164184
0.0170445
0.0284642
0.0284676
0.0284683
0.0284685
0.02847
0.0284746
0.0284855
0.0285058
0.0285329
0.0285405
0.0294936
0.0294939
0.0294945
0.0294966
0.0295001
0.0295047
0.0295105
0.029517
0.0295224
0.0295229
0.0295523
0.0295519
0.0295534
0.0295569
0.029562
0.0295683
0.0295754
0.0295827
0.0295896
0.0295963
0.0296495
0.0296502
0.029653
0.0296586
0.0296662
0.0296753
0.0296857
0.0296967
0.0297075
0.029716
0.0296378
0.0296364
0.0296411
0.0296508
0.0296658
0.0296858
0.02971
0.0297372
0.0297613
0.0297791
0.0285985
0.028593
0.0285995
0.0286087
0.0286168
0.0286237
0.0286294
0.0286308
0.0286088
0.0285975
0.0152055
0.0151488
0.0151476
0.0151511
0.015156
0.0151614
0.0151658
0.015155
0.0150281
0.0149222
0.00160318
0.0016029
0.00160276
0.00160283
0.00160311
0.00160362
0.00160429
0.00160503
0.00160557
0.00160569
0.00168112
0.0016815
0.00168151
0.00168116
0.00168047
0.00167942
0.00167805
0.0016764
0.00167496
0.00167575
0.0170081
0.0170286
0.0170264
0.0170185
0.0170103
0.017008
0.0170278
0.0171143
0.0173735
0.018018
0.028647
0.0286509
0.0286518
0.0286521
0.028653
0.0286563
0.028665
0.0286825
0.0287078
0.0287165
0.0294692
0.0294697
0.0294702
0.0294712
0.0294727
0.029475
0.029478
0.0294819
0.0294858
0.0294866
0.0294905
0.0294893
0.0294895
0.0294913
0.0294945
0.0294988
0.029504
0.0295095
0.0295152
0.029521
0.0295515
0.029551
0.0295518
0.0295542
0.0295579
0.0295626
0.029568
0.0295739
0.0295799
0.029585
0.0295293
0.0295256
0.0295261
0.0295304
0.0295387
0.0295508
0.0295661
0.0295837
0.0295999
0.0296128
0.0286983
0.0286902
0.0286919
0.0286948
0.0286967
0.0286968
0.028695
0.0286893
0.0286684
0.0286619
0.0160125
0.0159534
0.0159503
0.0159518
0.0159546
0.0159574
0.015959
0.015947
0.0158605
0.0157979
0.00157438
0.00157435
0.00157434
0.00157439
0.0015745
0.00157467
0.00157485
0.00157498
0.00157488
0.00157441
0.0016494
0.00164977
0.00164978
0.00164943
0.00164872
0.00164767
0.00164628
0.00164459
0.00164299
0.00164329
0.0181221
0.0181503
0.0181521
0.0181453
0.0181359
0.0181307
0.0181464
0.0182295
0.0184927
0.0191671
0.028833
0.028837
0.0288382
0.0288387
0.0288394
0.028842
0.0288491
0.0288644
0.0288883
0.0288997
0.0294617
0.0294625
0.029463
0.0294634
0.029464
0.0294648
0.0294663
0.0294685
0.0294713
0.0294728
0.0294643
0.0294631
0.029463
0.029464
0.0294662
0.0294693
0.0294731
0.0294774
0.0294819
0.0294866
0.0295028
0.0295021
0.0295022
0.0295034
0.0295055
0.0295082
0.0295115
0.029515
0.0295185
0.0295219
0.0294829
0.029479
0.029478
0.0294802
0.0294854
0.0294936
0.0295042
0.0295165
0.0295283
0.0295387
0.028859
0.0288505
0.0288504
0.028851
0.028851
0.0288496
0.0288464
0.0288399
0.0288247
0.0288242
0.0170186
0.0169581
0.0169541
0.0169549
0.0169566
0.0169584
0.0169587
0.0169522
0.0168995
0.016872
0.00154324
0.00154338
0.00154346
0.00154349
0.00154347
0.00154339
0.00154323
0.00154294
0.0015424
0.00154154
0.00161596
0.00161632
0.00161632
0.00161596
0.00161525
0.00161418
0.00161277
0.00161104
0.0016093
0.00160909
0.0194468
0.0194826
0.0194886
0.0194837
0.0194746
0.019468
0.0194811
0.0195614
0.0198305
0.0205506
0.0290138
0.0290176
0.0290189
0.0290195
0.0290203
0.0290224
0.0290282
0.0290412
0.0290634
0.0290783
0.0294597
0.0294605
0.029461
0.0294611
0.0294612
0.0294613
0.0294618
0.0294629
0.029465
0.0294671
0.0294538
0.0294529
0.0294527
0.0294534
0.0294549
0.029457
0.0294597
0.0294627
0.029466
0.0294694
0.0294777
0.0294771
0.0294771
0.0294777
0.029479
0.0294806
0.0294827
0.0294848
0.029487
0.0294891
0.0294654
0.0294621
0.0294609
0.0294622
0.0294657
0.0294714
0.0294787
0.0294872
0.0294956
0.0295039
0.0290427
0.0290352
0.0290344
0.0290344
0.0290341
0.029033
0.0290305
0.0290259
0.0290163
0.0290208
0.0182818
0.018221
0.0182168
0.0182174
0.0182186
0.0182196
0.0182192
0.0182165
0.0181932
0.0181928
0.00150989
0.00151015
0.00151028
0.00151029
0.00151017
0.00150993
0.00150953
0.00150896
0.00150814
0.00150703
0.00158094
0.00158131
0.00158131
0.00158095
0.00158023
0.00157916
0.00157773
0.00157597
0.00157409
0.00157333
0.0210626
0.0211058
0.0211162
0.0211142
0.0211069
0.0211012
0.0211129
0.0211896
0.0214626
0.0222468
0.02918
0.0291832
0.0291845
0.0291852
0.029186
0.0291878
0.0291922
0.0292026
0.0292221
0.0292402
0.0294575
0.0294582
0.0294585
0.0294586
0.0294584
0.0294582
0.0294582
0.0294587
0.0294601
0.0294624
0.0294489
0.0294483
0.0294482
0.0294486
0.0294495
0.0294508
0.0294525
0.0294545
0.0294566
0.0294588
0.0294627
0.0294624
0.0294624
0.0294627
0.0294634
0.0294644
0.0294656
0.0294668
0.029468
0.0294693
0.0294569
0.0294546
0.0294537
0.0294545
0.0294568
0.0294604
0.029465
0.0294704
0.0294758
0.0294819
0.0292189
0.0292131
0.0292123
0.0292123
0.0292121
0.0292116
0.0292101
0.0292077
0.0292023
0.0292097
0.0198993
0.0198399
0.0198361
0.0198365
0.0198373
0.0198377
0.0198365
0.019833
0.0198237
0.0198429
0.00147456
0.00147489
0.00147506
0.00147504
0.00147487
0.00147451
0.00147396
0.00147322
0.00147223
0.00147097
0.00154458
0.00154488
0.00154489
0.00154454
0.00154384
0.00154277
0.00154136
0.0015396
0.00153761
0.00153631
0.0230692
0.0231181
0.0231335
0.0231362
0.0231342
0.0231334
0.0231471
0.0232181
0.0234824
0.024333
0.029319
0.0293214
0.0293224
0.029323
0.0293238
0.0293252
0.0293283
0.0293356
0.0293507
0.0293697
0.0294531
0.0294535
0.0294537
0.0294537
0.0294536
0.0294534
0.0294532
0.0294533
0.0294541
0.029456
0.0294453
0.0294449
0.0294448
0.0294451
0.0294456
0.0294463
0.0294473
0.0294484
0.0294496
0.0294509
0.0294523
0.0294521
0.0294521
0.0294523
0.0294527
0.0294532
0.0294538
0.0294543
0.0294549
0.0294556
0.0294476
0.0294461
0.0294456
0.0294461
0.0294474
0.0294495
0.029452
0.0294549
0.0294578
0.0294617
0.0293603
0.0293567
0.0293562
0.0293562
0.0293562
0.0293559
0.0293552
0.0293539
0.0293505
0.0293586
0.0220373
0.0219827
0.0219798
0.02198
0.0219803
0.02198
0.0219781
0.0219738
0.0219633
0.0219756
0.00143743
0.0014378
0.00143797
0.00143795
0.00143773
0.00143731
0.00143669
0.00143585
0.00143477
0.00143345
0.00150577
0.00150617
0.00150618
0.00150585
0.00150516
0.00150412
0.00150274
0.00150102
0.00149899
0.00149724
0.0257134
0.0257524
0.0257621
0.0257631
0.0257607
0.025758
0.0257621
0.0258007
0.0259891
0.0268274
0.0294182
0.0294193
0.0294198
0.0294202
0.0294208
0.0294218
0.0294236
0.0294274
0.0294359
0.0294505
0.0294478
0.0294479
0.029448
0.029448
0.0294479
0.0294479
0.0294478
0.0294478
0.029448
0.0294488
0.0294429
0.0294427
0.0294426
0.0294427
0.029443
0.0294434
0.029444
0.0294446
0.0294453
0.0294461
0.0294453
0.0294451
0.0294451
0.0294452
0.0294455
0.0294458
0.0294462
0.0294467
0.0294471
0.0294475
0.029438
0.0294372
0.0294369
0.0294372
0.0294379
0.0294391
0.0294405
0.029442
0.0294435
0.0294453
0.0294468
0.0294452
0.0294451
0.0294451
0.0294452
0.0294452
0.029445
0.0294448
0.0294444
0.0294503
0.0250079
0.0249665
0.0249648
0.0249649
0.0249649
0.0249645
0.0249629
0.0249592
0.0249505
0.0249536
0.00139778
0.00139815
0.00139832
0.00139829
0.00139806
0.00139761
0.00139696
0.00139608
0.00139498
0.00139369
0.00239285
0.00246255
0.0024326
0.002311
0.00232588
0.00232647
0.00229756
0.00225642
0.0028798
0.00288863
0.00284979
0.00275968
0.0031944
0.0032106
0.00317093
0.00305624
0.00349144
0.00351368
0.00347124
0.00334513
0.00381601
0.00383414
0.00378238
0.00365064
0.00408596
0.00409775
0.00404278
0.00392221
0.00421932
0.00422316
0.00416668
0.00405225
0.00372986
0.00371281
0.00364535
0.00352909
0.00255892
0.00262101
0.0026591
0.00265929
0.00204782
0.00209954
0.0021189
0.00209331
0.00411217
0.00429189
0.00425029
0.00394151
0.00627332
0.00644903
0.00634473
0.00589836
0.00757662
0.00772503
0.00758581
0.00710704
0.00889023
0.00906826
0.00891494
0.00841754
0.0107289
0.0110409
0.0109306
0.0104829
0.0127045
0.0131261
0.0130312
0.0126285
0.0142201
0.0147179
0.014659
0.014386
0.0119097
0.0123258
0.0122446
0.0119877
0.0023579
0.0023905
0.00239442
0.00237526
0.00193774
0.00196077
0.00196691
0.00195417
0.0047588
0.00497821
0.00507275
0.00518521
0.00700866
0.00728842
0.00736917
0.00752298
0.00819135
0.00846727
0.00853483
0.008679
0.00934402
0.0096322
0.00969828
0.00978256
0.0108243
0.0112324
0.011418
0.0116296
0.0124751
0.0130225
0.0133152
0.0136088
0.0137737
0.0144455
0.0148308
0.0152284
0.0108039
0.0113624
0.0116647
0.011933
0.00214144
0.00216789
0.0021785
0.00217637
0.00188462
0.00189572
0.00189803
0.00188992
0.00821262
0.00824442
0.00852913
0.00921292
0.0116679
0.0117596
0.0122175
0.0132349
0.0127135
0.0129078
0.0134662
0.0146166
0.0135761
0.0138685
0.0144946
0.0157155
0.0147055
0.0151291
0.015882
0.0172854
0.015833
0.0163799
0.0172297
0.0187325
0.0164403
0.0171166
0.0180564
0.0195913
0.0120143
0.0126065
0.0133218
0.0143223
0.002008
0.0020245
0.00203584
0.00204388
0.0018481
0.00185584
0.00185663
0.00185
0.0124907
0.0125098
0.012787
0.013381
0.0193418
0.0193473
0.0199151
0.0210673
0.020378
0.0205408
0.0213137
0.0227196
0.0209041
0.0212345
0.0221585
0.0237208
0.0217587
0.0223073
0.0234316
0.0251708
0.0224531
0.023188
0.0244446
0.0262444
0.0221697
0.0230423
0.0243303
0.0260187
0.0146182
0.0152973
0.0161069
0.016946
0.00193344
0.00194454
0.00195346
0.00196109
0.0018186
0.00182492
0.00182533
0.00181952
0.0139987
0.0140885
0.0142462
0.0144858
0.0274847
0.027387
0.0277519
0.0285119
0.0288607
0.0288572
0.0294138
0.0304306
0.0290362
0.0291705
0.0298802
0.0310509
0.0294606
0.0297777
0.0306615
0.0319795
0.0295653
0.0300423
0.0310391
0.0324096
0.028132
0.0287175
0.0297086
0.0309498
0.0165006
0.0168927
0.0173698
0.0177831
0.0018789
0.00188594
0.00189246
0.00189901
0.00179332
0.00179892
0.00179913
0.00179378
0.0130477
0.0131811
0.0132768
0.0133501
0.0322201
0.032174
0.0322963
0.0325586
0.0351838
0.0351516
0.0353783
0.0358026
0.0356036
0.0356174
0.0359419
0.0364894
0.0359411
0.0360415
0.0364902
0.0371749
0.0357109
0.0358962
0.0364317
0.0371864
0.0332396
0.0334849
0.0340092
0.0346764
0.0170578
0.0172011
0.0173413
0.0173803
0.00183707
0.00184151
0.00184615
0.00185143
0.00176977
0.00177493
0.00177504
0.00177
0.0124436
0.0125753
0.0126409
0.0126504
0.0315291
0.0315108
0.0315321
0.0315896
0.0360917
0.0360907
0.0361341
0.0362086
0.0376802
0.0376841
0.0377617
0.0378869
0.0389064
0.0389336
0.0390814
0.039308
0.0391646
0.0392088
0.039407
0.0397009
0.0361976
0.0362517
0.0364311
0.0366696
0.0160495
0.0160926
0.0160843
0.0159694
0.00180237
0.00180512
0.00180837
0.00181252
0.00174656
0.00175137
0.00175143
0.00174666
0.0124415
0.0125673
0.0126137
0.0125876
0.0294907
0.0294659
0.0294702
0.0295036
0.0335319
0.0335368
0.0335413
0.0335433
0.0354215
0.0354349
0.0354403
0.0354328
0.0374109
0.0374466
0.0374859
0.0375195
0.0385811
0.0386249
0.0386869
0.0387505
0.0358918
0.0359257
0.0359629
0.035981
0.0146107
0.0146285
0.0146016
0.0144918
0.00177151
0.00177316
0.0017754
0.00177858
0.00172295
0.00172744
0.00172747
0.00172298
0.0127354
0.0128536
0.0128867
0.0128402
0.0284032
0.0283739
0.0283763
0.0284104
0.0313708
0.0313711
0.0313743
0.0313795
0.0325943
0.0326013
0.0325993
0.0325866
0.0341582
0.0341847
0.0342
0.0342012
0.0353888
0.0354312
0.0354585
0.0354651
0.0332642
0.0333029
0.0333104
0.033277
0.0137831
0.0137874
0.0137636
0.0136866
0.00174235
0.00174329
0.00174481
0.00174721
0.00169851
0.00170268
0.00170269
0.00169852
0.0131762
0.0132837
0.0133071
0.0132512
0.0280402
0.02801
0.0280115
0.0280451
0.0302855
0.0302844
0.0302881
0.0302961
0.0309295
0.0309325
0.0309318
0.0309269
0.0318156
0.0318283
0.0318368
0.0318396
0.0325599
0.0325829
0.0325979
0.032602
0.0307951
0.0308187
0.0308194
0.0307918
0.0136106
0.0136096
0.0135887
0.0135326
0.00171371
0.0017142
0.00171521
0.00171701
0.00167295
0.00167679
0.00167679
0.00167294
0.0137099
0.0138008
0.0138164
0.0137626
0.0280086
0.0279785
0.0279793
0.0280113
0.0298045
0.0298032
0.0298063
0.0298137
0.0301321
0.030134
0.0301344
0.0301328
0.0305894
0.0305954
0.0306005
0.0306041
0.0309506
0.0309609
0.0309691
0.0309742
0.0294074
0.0294185
0.0294159
0.0293965
0.013864
0.0138638
0.0138461
0.0138019
0.00168494
0.00168514
0.0016858
0.00168714
0.00164605
0.00164953
0.00164953
0.00164604
0.0143228
0.0143849
0.0143938
0.0143581
0.0281191
0.0280897
0.02809
0.0281203
0.0295973
0.029596
0.0295984
0.029604
0.0297663
0.0297679
0.0297685
0.0297681
0.0299993
0.0300025
0.0300058
0.0300087
0.0301588
0.0301636
0.0301684
0.0301728
0.0288164
0.0288224
0.0288189
0.0288044
0.0143901
0.014394
0.01438
0.0143427
0.00165558
0.0016556
0.00165603
0.00165701
0.00161764
0.00162077
0.00162077
0.00161763
0.0150236
0.0150661
0.0150716
0.0150441
0.0282919
0.0282642
0.0282643
0.0282923
0.0295109
0.0295098
0.0295113
0.0295153
0.0295998
0.0296012
0.0296019
0.0296018
0.0297199
0.0297219
0.029724
0.029726
0.0297871
0.0297895
0.0297926
0.029796
0.0286576
0.0286619
0.0286589
0.0286478
0.0151184
0.0151278
0.0151175
0.015084
0.00162526
0.00162519
0.00162546
0.00162618
0.00158758
0.00159037
0.00159036
0.00158757
0.0158345
0.0158741
0.0158781
0.0158492
0.0284922
0.0284672
0.0284672
0.0284923
0.0294775
0.0294766
0.0294775
0.0294801
0.0295242
0.0295254
0.0295259
0.0295259
0.0295876
0.029589
0.0295903
0.0295916
0.0296177
0.0296191
0.0296212
0.0296238
0.0287139
0.0287176
0.0287155
0.0287072
0.0160298
0.0160452
0.0160381
0.0160067
0.00159371
0.00159359
0.00159375
0.00159427
0.00155578
0.0015582
0.0015582
0.00155577
0.0168099
0.0168538
0.0168564
0.0168198
0.0287036
0.0286823
0.0286823
0.0287037
0.0294666
0.0294659
0.0294664
0.0294678
0.0294892
0.0294901
0.0294905
0.0294905
0.0295238
0.0295247
0.0295255
0.0295263
0.029542
0.0295429
0.0295444
0.0295463
0.0288694
0.0288728
0.0288715
0.0288652
0.0171394
0.0171602
0.017156
0.0171258
0.00156069
0.00156057
0.00156067
0.00156103
0.00152224
0.00152426
0.00152426
0.00152224
0.018007
0.0180681
0.0180697
0.018013
0.0289151
0.0288987
0.0288987
0.0289153
0.0294636
0.0294634
0.0294635
0.029464
0.0294715
0.0294721
0.0294724
0.0294723
0.0294905
0.029491
0.0294915
0.0294918
0.0295061
0.0295068
0.0295077
0.029509
0.0290594
0.0290626
0.0290618
0.0290569
0.0184895
0.0185131
0.0185114
0.0184838
0.00152613
0.00152602
0.00152607
0.00152632
0.00148714
0.00148872
0.00148872
0.00148714
0.0195178
0.0196215
0.0196222
0.0195207
0.0291154
0.0291051
0.0291052
0.0291157
0.0294613
0.0294615
0.0294615
0.0294613
0.0294603
0.0294607
0.0294609
0.0294607
0.0294702
0.0294705
0.0294706
0.0294707
0.0294834
0.0294839
0.0294845
0.0294852
0.0292421
0.0292451
0.0292444
0.0292401
0.0201455
0.0201633
0.0201636
0.0201464
0.00149009
0.00149
0.00149003
0.00149019
0.0014508
0.0014519
0.0014519
0.0014508
0.0215059
0.021702
0.0217021
0.0215066
0.0292887
0.0292853
0.0292854
0.0292889
0.0294563
0.0294568
0.0294568
0.0294562
0.0294519
0.0294521
0.0294522
0.0294521
0.0294561
0.0294562
0.0294562
0.0294561
0.0294627
0.0294632
0.0294635
0.0294638
0.0293842
0.0293871
0.0293863
0.0293819
0.0222598
0.0222714
0.0222719
0.0222612
0.00145267
0.00145262
0.00145264
0.00145273
0.00141253
0.00141315
0.00141315
0.00141253
0.0243526
0.0246971
0.0246971
0.0243527
0.0294159
0.029418
0.0294181
0.0294162
0.0294493
0.0294496
0.0294496
0.0294493
0.0294466
0.0294467
0.0294467
0.0294467
0.0294477
0.0294477
0.0294477
0.0294476
0.0294458
0.0294461
0.0294464
0.0294466
0.0294637
0.0294649
0.0294639
0.029461
0.0251695
0.0251707
0.0251713
0.0251714
0.00141309
0.0014131
0.00141311
0.00141314
0.00219647
0.00208298
0.00202163
0.00198584
0.00196461
0.00194878
0.00193521
0.00192361
0.00191421
0.00190675
0.00280746
0.0025247
0.00384794
0.00830375
0.0133667
0.0171446
0.019222
0.0198343
0.0195578
0.0188278
0.00403142
0.00498206
0.0114509
0.0211218
0.0322215
0.0417961
0.0487839
0.0530181
0.0547404
0.0542149
0.00557301
0.00896923
0.0176593
0.0302527
0.0434545
0.0540513
0.0614678
0.0657972
0.0674389
0.0668287
0.00876618
0.012116
0.0230601
0.0370095
0.0505316
0.0609147
0.0677767
0.0714746
0.0725818
0.0718564
0.0132368
0.015959
0.0274704
0.0417028
0.0549632
0.0648107
0.070895
0.0737611
0.0742136
0.073347
0.0167112
0.0188401
0.0294899
0.0436961
0.0565249
0.0656475
0.0707073
0.0725956
0.0723419
0.0714111
0.0185317
0.0194618