/*--------------------------------*- C++ -*----------------------------------*\
| =========                 |                                                 |
| \\      /  F ield         | foam-extend: Open Source CFD                    |
|  \\    /   O peration     | Version:     4.0                                |
|   \\  /    A nd           | Web:         http://www.foam-extend.org         |
|    \\/     M anipulation  |                                                 |
\*---------------------------------------------------------------------------*/
FoamFile
{
    version     2.0;
    format      ascii;
    class       volScalarField;
    location    "2600";
    object      p;
}
// * * * * * * * * * * * * * * * * * * * * * * * * * * * * * * * * * * * * * //

dimensions      [1 -1 -2 0 0 0 0];

internalField   nonuniform List<scalar> 
34480
(
107862
107574
107356
107235
107245
107439
107918
108688
109396
112514
107122
106697
106325
106025
105834
105807
106058
106668
107076
109443
106721
106174
105666
105201
104802
104527
104499
104849
104873
106279
106503
105814
105158
104524
103920
103402
103099
103164
102783
103204
106381
105570
104796
104025
103255
102531
101981
101763
100983
100496
106390
105490
104629
103756
102863
101976
101225
100747
99589.9
98330.6
106291
105328
104415
103484
102519
101528
100630
99918.7
98397.3
96430.1
106362
105377
104445
103498
102515
101487
100508
99607.6
97720.3
95002.7
106156
105166
104234
103308
102368
101385
100395
99346.2
97080.4
93609.3
106274
105268
104315
103380
102471
101571
100675
99653.5
97127.9
92814.2
109719
109562
109509
109592
109850
110338
111148
112402
114300
117347
108622
108341
108151
108080
108180
108525
109244
110512
112588
116405
107963
107563
107243
107019
106934
107073
107592
108734
110795
115097
107552
107013
106548
106162
105889
105812
106102
107056
109012
113612
107296
106633
106045
105523
105089
104818
104885
105621
107412
112150
107201
106443
105759
105130
104567
104135
104003
104514
106099
110826
107032
106202
105453
104751
104100
103550
103257
103546
104888
109469
107054
106187
105399
104658
103961
103339
102927
103013
104068
108375
106846
105959
105147
104388
103683
103048
102580
102499
103229
107278
106917
106020
105185
104406
103693
103075
102626
102513
102982
106893
111089
111018
111056
111225
111550
112057
112780
113753
115020
116600
109869
109698
109634
109706
109953
110424
111196
112349
113990
116252
109054
108778
108603
108554
108676
109037
109745
110950
112835
115719
108502
108099
107796
107608
107583
107801
108394
109571
111610
115048
108135
107614
107195
106883
106721
106794
107251
108349
110466
114359
107947
107332
106816
106400
106121
106063
106384
107375
109515
113761
107712
107020
106433
105941
105572
105408
105606
106472
108577
113061
107687
106948
106311
105768
105339
105095
105187
105916
107918
112515
107484
106715
106041
105460
104991
104700
104722
105328
107157
111857
107529
106749
106050
105442
104946
104631
104623
105180
106822
111654
111950
111919
111974
112127
112386
112759
113251
113858
114561
115304
110806
110702
110696
110809
111062
111481
112092
112918
113962
115138
109964
109772
109681
109712
109902
110293
110946
111925
113282
114942
109351
109050
108852
108780
108873
109195
109834
110905
112531
114695
108923
108513
108215
108038
108029
108263
108851
109960
111805
114447
108676
108175
107785
107516
107412
107555
108077
109188
111203
114280
108396
107818
107357
107014
106830
106890
107341
108423
110554
114003
108334
107705
107190
106793
106547
106537
106914
107938
110118
113864
108120
107459
106906
106467
106177
106116
106434
107389
109535
113565
108138
107464
106887
106424
106105
106016
106294
107200
109254
113557
112440
112426
112472
112583
112760
113000
113300
113647
114020
114385
111470
111408
111425
111534
111743
112059
112485
113015
113626
114244
110686
110556
110514
110579
110770
111110
111622
112320
113193
114137
110070
109850
109728
109724
109867
110196
110757
111595
112734
114053
109619
109304
109098
109015
109093
109386
109963
110905
112292
114001
109339
108939
108653
108494
108504
108749
109319
110336
111948
114047
109031
108557
108205
107980
107928
108120
108669
109730
111535
114003
108944
108419
108013
107736
107630
107772
108286
109358
111301
114104
108723
108163
107721
107405
107258
107358
107838
108897
110904
114032
108723
108150
107684
107344
107170
107244
107693
108729
110722
114150
112672
112665
112696
112766
112874
113016
113186
113375
113569
113752
111907
111870
111890
111974
112125
112342
112619
112943
113292
113622
111232
111144
111129
111197
111358
111621
111989
112454
112993
113532
110659
110500
110428
110456
110604
110891
111335
111943
112699
113500
110219
109981
109842
109817
109933
110222
110719
111452
112431
113523
109929
109616
109412
109330
109403
109679
110210
111052
112252
113656
109611
109229
108967
108831
108861
109114
109663
110590
111995
113716
109511
109080
108767
108586
108576
108801
109349
110332
111910
113934
109286
108820
108475
108259
108215
108412
108952
109966
111659
113980
109275
108795
108426
108189
108123
108300
108822
109841
111572
114155
112746
112742
112760
112800
112862
112941
113034
113135
113236
113329
112172
112149
112165
112223
112323
112462
112633
112826
113026
113207
111627
111568
111564
111621
111745
111934
112185
112486
112815
113128
111122
111010
110968
111007
111137
111366
111696
112119
112610
113102
110719
110542
110452
110458
110579
110832
111229
111773
112443
113145
110441
110201
110058
110025
110126
110390
110843
111501
112360
113298
110126
109826
109634
109561
109637
109901
110395
111153
112200
113388
110025
109678
109444
109334
109383
109639
110158
110994
112210
113647
109800
109420
109156
109017
109043
109285
109815
110708
112055
113737
109784
109390
109105
108948
108956
109186
109712
110628
112038
113927
112733
112730
112740
112761
112795
112837
112887
112939
112992
113040
112315
112301
112312
112349
112411
112495
112597
112709
112823
112924
111899
111860
111860
111903
111990
112119
112284
112475
112677
112863
111474
111396
111372
111409
111512
111683
111918
112206
112524
112830
111123
110995
110936
110956
111065
111269
111571
111962
112416
112870
110872
110692
110593
110589
110693
110923
111287
111781
112386
113012
110574
110341
110204
110172
110266
110511
110927
111520
112280
113096
110481
110208
110036
109977
110057
110308
110762
111439
112346
113356
110259
109955
109758
109677
109742
109992
110469
111211
112241
113442
110245
109927
109712
109616
109669
109914
110398
111173
112270
113624
112679
112676
112681
112692
112710
112732
112758
112785
112813
112837
112380
112371
112377
112399
112436
112485
112545
112609
112673
112730
112079
112052
112053
112083
112141
112225
112330
112450
112573
112684
111732
111679
111664
111695
111771
111893
112054
112246
112450
112644
111441
111350
111312
111335
111423
111579
111800
112073
112378
112674
111226
111093
111026
111036
111130
111316
111595
111957
112377
112797
110951
110775
110680
110672
110766
110976
111308
111757
112300
112859
110876
110666
110542
110516
110606
110831
111207
111734
112396
113100
110660
110422
110278
110236
110319
110552
110956
111546
112311
113157
110653
110403
110243
110191
110267
110500
110918
111542
112369
113324
112611
112609
112611
112616
112625
112637
112650
112664
112679
112691
112396
112391
112394
112406
112427
112456
112489
112526
112562
112594
112191
112174
112174
112193
112230
112283
112349
112422
112496
112564
111915
111878
111870
111892
111946
112029
112136
112261
112392
112514
111684
111619
111596
111616
111684
111797
111953
112140
112343
112536
111507
111412
111368
111382
111460
111603
111809
112067
112355
112636
111262
111132
111066
111071
111155
111324
111579
111909
112290
112672
111210
111052
110965
110959
111045
111234
111531
111927
112402
112888
111002
110820
110717
110700
110785
110987
111313
111765
112320
112908
111006
110813
110699
110674
110756
110962
111305
111789
112394
113059
112544
112542
112543
112546
112550
112556
112563
112570
112578
112584
112386
112382
112384
112391
112402
112418
112437
112458
112478
112496
112258
112246
112246
112258
112281
112313
112353
112397
112442
112482
112038
112014
112009
112024
112060
112115
112185
112265
112348
112424
111864
111819
111804
111821
111870
111949
112056
112181
112314
112439
111726
111658
111630
111644
111705
111810
111958
112136
112331
112518
111510
111416
111372
111382
111451
111582
111770
112006
112269
112528
111486
111370
111310
111314
111389
111540
111765
112055
112388
112721
111286
111150
111079
111076
111154
111318
111571
111906
112300
112704
111305
111160
111079
111073
111150
111321
111590
111953
112386
112843
112485
112484
112485
112486
112488
112491
112494
112498
112502
112505
112362
112360
112361
112365
112371
112380
112390
112402
112413
112423
112295
112287
112287
112294
112308
112327
112351
112377
112404
112428
112118
112102
112099
112109
112133
112168
112212
112263
112314
112362
111994
111964
111954
111966
112000
112055
112126
112208
112294
112374
111891
111844
111826
111838
111883
111958
112060
112181
112311
112434
111704
111637
111608
111619
111673
111769
111904
112068
112247
112421
111709
111626
111586
111594
111655
111770
111935
112141
112371
112595
111516
111416
111368
111373
111438
111566
111755
111997
112271
112545
111553
111447
111391
111394
111461
111596
111799
112062
112365
112675
112438
112437
112437
112437
112438
112440
112442
112443
112446
112447
112334
112333
112333
112335
112339
112343
112349
112356
112362
112368
112315
112310
112310
112313
112321
112333
112347
112363
112378
112392
112167
112157
112155
112161
112176
112198
112226
112257
112289
112319
112086
112066
112060
112068
112091
112127
112173
112226
112281
112332
112012
111981
111969
111979
112010
112062
112131
112211
112296
112376
111851
111805
111786
111796
111835
111904
111997
112109
112229
112344
111886
111828
111802
111811
111858
111942
112059
112201
112356
112505
111697
111625
111593
111601
111652
111748
111885
112054
112241
112424
111754
111679
111641
111648
111702
111804
111952
112138
112345
112552
112402
112401
112401
112401
112402
112402
112403
112404
112406
112406
112304
112304
112304
112305
112307
112310
112313
112317
112320
112324
112326
112323
112322
112324
112329
112336
112344
112353
112362
112370
112195
112189
112187
112191
112200
112214
112231
112250
112269
112288
112149
112137
112133
112138
112153
112176
112206
112239
112274
112306
112099
112078
112071
112078
112099
112134
112179
112231
112286
112337
111960
111929
111917
111924
111952
112000
112063
112137
112215
112290
112024
111985
111968
111976
112010
112070
112150
112246
112349
112445
111834
111784
111763
111771
111809
111878
111973
112089
112214
112335
111915
111863
111838
111846
111887
111961
112065
112193
112331
112467
112378
112378
112378
112378
112378
112378
112378
112378
112380
112379
112275
112275
112275
112275
112277
112278
112280
112282
112285
112287
112333
112331
112331
112332
112335
112339
112343
112349
112354
112359
112209
112205
112204
112206
112211
112219
112230
112241
112253
112264
112192
112184
112181
112185
112194
112209
112227
112248
112270
112289
112158
112145
112140
112145
112159
112181
112211
112244
112279
112311
112039
112018
112011
112016
112035
112067
112108
112156
112206
112255
112131
112105
112094
112101
112125
112165
112219
112282
112349
112410
111933
111899
111886
111892
111920
111967
112032
112109
112191
112269
112044
112009
111993
112000
112030
112081
112152
112237
112327
112416
112370
112369
112369
112369
112369
112369
112369
112368
112369
112368
112245
112245
112245
112246
112246
112247
112249
112250
112251
112252
112341
112339
112339
112340
112341
112344
112346
112349
112353
112355
112213
112210
112210
112211
112214
112219
112225
112231
112238
112245
112219
112214
112212
112214
112220
112229
112240
112253
112266
112278
112196
112187
112184
112187
112196
112211
112229
112250
112272
112291
112094
112081
112076
112080
112093
112113
112139
112170
112201
112231
112211
112194
112188
112193
112209
112236
112271
112311
112354
112391
111999
111977
111968
111973
111992
112024
112066
112116
112168
112219
112151
112128
112118
112123
112144
112179
112226
112281
112338
112394
112387
112386
112386
112386
112385
112385
112385
112384
112385
112383
112212
112212
112212
112213
112213
112213
112214
112215
112216
112217
112347
112347
112347
112347
112348
112350
112351
112353
112355
112357
112212
112210
112209
112210
112212
112214
112217
112221
112225
112229
112232
112229
112228
112229
112233
112238
112245
112253
112261
112268
112215
112209
112208
112209
112215
112224
112235
112248
112262
112274
112131
112123
112120
112122
112130
112143
112159
112178
112197
112215
112265
112255
112251
112254
112265
112283
112305
112331
112358
112380
112034
112020
112014
112018
112030
112051
112078
112110
112142
112175
112252
112238
112232
112236
112250
112273
112303
112338
112373
112408
112453
112452
112452
112452
112452
112451
112451
112450
112450
112447
112167
112167
112167
112167
112167
112167
112167
112168
112168
112168
112347
112347
112347
112348
112349
112350
112352
112353
112355
112356
112208
112207
112206
112206
112207
112208
112210
112212
112214
112216
112234
112232
112232
112233
112235
112238
112242
112247
112252
112257
112218
112215
112214
112215
112218
112224
112231
112239
112248
112255
112152
112147
112145
112146
112151
112159
112169
112180
112191
112203
112285
112278
112276
112278
112285
112297
112311
112328
112346
112360
112032
112023
112020
112022
112030
112043
112060
112080
112100
112122
112375
112366
112363
112365
112374
112389
112409
112431
112453
112475
112591
112591
112591
112592
112593
112594
112595
112597
112599
112596
112095
112094
112094
112094
112093
112092
112091
112090
112089
112088
112328
112328
112329
112329
112330
112332
112333
112335
112337
112340
112205
112205
112204
112204
112204
112205
112206
112206
112207
112208
112229
112228
112227
112228
112229
112232
112234
112238
112241
112244
112212
112210
112209
112210
112212
112216
112221
112226
112232
112237
112161
112157
112156
112157
112161
112166
112172
112179
112186
112193
112255
112250
112249
112250
112255
112263
112274
112286
112300
112311
111981
111975
111973
111975
111980
111989
112000
112013
112024
112039
112545
112538
112535
112537
112543
112554
112567
112583
112599
112615
112754
112754
112755
112757
112760
112764
112769
112775
112782
112789
112004
112003
112003
112002
112001
111999
111996
111993
111988
111980
112293
112293
112293
112294
112295
112296
112298
112300
112303
112306
112209
112208
112208
112208
112208
112208
112209
112209
112209
112209
112224
112223
112222
112223
112224
112226
112228
112231
112233
112236
112207
112205
112204
112205
112207
112210
112213
112218
112222
112227
112166
112163
112162
112163
112166
112170
112175
112181
112187
112192
112197
112193
112191
112192
112197
112203
112212
112222
112234
112247
111901
111897
111895
111896
111901
111908
111917
111926
111934
111939
112719
112711
112708
112709
112715
112723
112735
112749
112763
112781
128801
132341
132374
130320
129743
133715
133687
131793
130452
134650
135026
133350
130748
135119
136233
134810
131065
135589
137367
136135
131825
136586
139081
138406
132602
137522
140530
140473
133382
138366
141722
142183
133065
137997
141577
142507
131682
136430
140177
141656
120881
122472
122848
121964
121427
123275
123814
123034
121850
123920
124617
124060
122255
124522
125431
125160
122780
125198
126349
126317
123416
125902
127179
127253
123943
126446
127797
127969
124569
127050
128434
128787
124629
127048
128489
129063
124367
126744
128339
129169
118003
118699
118881
118598
118338
119193
119472
119259
118660
119679
120082
119954
119004
120194
120754
120738
119461
120810
121523
121612
120117
121600
122437
122636
120730
122325
123266
123573
121458
123126
124140
124559
121783
123463
124525
125060
122012
123647
124722
125352
115867
116189
116303
116216
116003
116416
116601
116568
116212
116729
116999
117029
116475
117105
117473
117590
116839
117578
118041
118243
117369
118206
118753
119044
117858
118782
119405
119790
118503
119498
120190
120677
118832
119864
120610
121194
119090
120129
120915
121575
114646
114803
114869
114846
114654
114867
114981
114999
114764
115045
115216
115280
114955
115312
115550
115676
115246
115678
115981
116171
115699
116207
116574
116831
116122
116701
117129
117455
116719
117362
117846
118247
117062
117741
118268
118737
117377
118066
118621
119138
113880
113959
113997
113994
113829
113942
114012
114038
113864
114023
114132
114192
113991
114201
114357
114462
114216
114480
114684
114837
114591
114909
115160
115364
114935
115305
115602
115858
115461
115878
116219
116529
115773
116222
116596
116951
116085
116548
116942
117328
113394
113435
113457
113459
113318
113381
113423
113445
113316
113410
113478
113523
113388
113517
113618
113695
113558
113724
113860
113970
113863
114067
114238
114386
114134
114376
114581
114766
114589
114866
115102
115325
114851
115151
115412
115663
115135
115447
115721
115992
113074
113096
113108
113111
112985
113021
113047
113062
112973
113029
113073
113103
113003
113083
113149
113202
113126
113232
113322
113399
113367
113500
113616
113719
113569
113728
113869
113998
113954
114138
114301
114457
114154
114356
114536
114709
114402
114612
114802
114988
112855
112867
112874
112877
112764
112784
112799
112810
112752
112786
112813
112833
112751
112802
112844
112880
112838
112907
112966
113018
113026
113114
113191
113262
113167
113273
113368
113458
113489
113613
113725
113831
113623
113759
113883
114001
113835
113977
114107
114233
112701
112708
112712
112713
112612
112624
112633
112640
112605
112626
112643
112656
112582
112614
112641
112664
112642
112687
112726
112761
112786
112844
112897
112944
112876
112947
113012
113072
113146
113229
113305
113378
113218
113310
113394
113474
113399
113495
113584
113669
112590
112593
112596
112597
112505
112512
112517
112522
112508
112521
112531
112539
112467
112487
112505
112520
112508
112537
112563
112586
112617
112655
112690
112722
112663
112711
112755
112796
112893
112949
113000
113050
112912
112974
113031
113085
113070
113134
113194
113252
112508
112510
112512
112512
112428
112431
112434
112438
112444
112452
112458
112463
112389
112402
112413
112422
112419
112438
112455
112470
112498
112524
112547
112568
112510
112542
112572
112599
112709
112746
112781
112814
112684
112726
112765
112801
112826
112869
112910
112948
112449
112450
112451
112451
112369
112371
112373
112375
112403
112407
112411
112414
112335
112343
112350
112356
112361
112373
112384
112393
112418
112435
112450
112464
112402
112423
112443
112461
112580
112605
112628
112650
112518
112546
112571
112596
112651
112680
112707
112733
112407
112408
112408
112408
112323
112323
112325
112326
112377
112380
112382
112384
112297
112302
112307
112311
112324
112332
112338
112345
112364
112375
112384
112393
112328
112342
112354
112366
112494
112511
112526
112540
112397
112416
112433
112449
112532
112551
112569
112585
112380
112380
112381
112381
112284
112284
112285
112286
112363
112365
112367
112367
112269
112272
112275
112278
112301
112306
112310
112314
112328
112335
112341
112346
112278
112287
112295
112303
112441
112452
112462
112471
112311
112323
112334
112344
112456
112469
112480
112491
112369
112369
112369
112370
112249
112249
112249
112250
112359
112360
112361
112361
112248
112249
112251
112253
112285
112288
112291
112293
112302
112306
112310
112314
112246
112251
112256
112261
112411
112418
112424
112430
112247
112255
112262
112268
112419
112427
112434
112441
112383
112383
112383
112384
112212
112211
112211
112213
112360
112361
112361
112361
112230
112231
112232
112233
112273
112275
112276
112278
112281
112283
112286
112288
112223
112226
112229
112233
112393
112397
112401
112405
112194
112198
112203
112207
112422
112427
112431
112436
112448
112447
112447
112448
112162
112161
112162
112163
112359
112360
112361
112360
112215
112216
112216
112217
112260
112261
112262
112263
112260
112262
112263
112264
112206
112208
112210
112212
112370
112373
112376
112378
112134
112137
112140
112142
112482
112485
112488
112491
112602
112599
112599
112602
112081
112079
112079
112081
112344
112345
112345
112344
112206
112206
112207
112207
112247
112248
112248
112248
112241
112242
112243
112244
112193
112194
112196
112197
112324
112327
112328
112329
112044
112046
112048
112050
112620
112622
112624
112626
112811
112809
112809
112812
111967
111963
111963
111968
112310
112312
112312
112311
112207
112207
112207
112208
112238
112239
112239
112239
112230
112231
112231
112232
112191
112192
112193
112194
112264
112268
112269
112268
111924
111923
111924
111929
112790
112792
112794
112794
120056
116535
114354
112640
111411
110490
109757
109153
108650
108222
121296
117349
114652
112777
111407
110364
109517
108803
108186
107624
122382
118086
114934
113014
111548
110409
109461
108650
107941
107306
123647
118997
115587
113580
111977
110720
109656
108732
107909
107188
124996
119936
116343
114149
112409
111030
109858
108836
107915
107140
126562
121009
117217
114808
112936
111436
110167
109059
108056
107218
128066
121818
117888
115240
113256
111641
110287
109105
108036
107165
129698
122610
118658
115761
113697
111981
110561
109316
108202
107278
130753
122858
118985
115890
113785
111984
110509
109214
108074
107107
131854
123323
119569
116296
114120
112227
110683
109325
108148
107140
119504
117121
115408
114069
112992
112116
111399
110815
110348
109982
120190
117474
115427
113827
112566
111561
110742
110064
109502
109017
120889
117904
115512
113782
112413
111320
110418
109659
109014
108449
121691
118542
115933
114088
112608
111416
110413
109551
108798
108141
122474
119314
116484
114495
112896
111597
110494
109538
108686
107964
123556
120251
117212
115048
113326
111915
110717
109675
108739
107946
124691
121014
117803
115434
113595
112075
110791
109674
108666
107830
126124
121793
118518
115929
114003
112386
111033
109852
108795
107901
127200
122068
118843
116078
114104
112405
110995
109761
108673
107736
128409
122415
119335
116414
114379
112605
111142
109860
108747
107782
117756
116580
115486
114518
113685
112980
112394
111916
111542
111265
118296
116805
115392
114173
113152
112307
111607
111026
110554
110163
118876
117131
115432
114035
112882
111932
111138
110472
109916
109439
119563
117654
115748
114218
112949
111892
110995
110225
109562
108990
120316
118308
116209
114538
113145
111979
110979
110112
109349
108703
121329
119150
116866
115026
113503
112222
111124
110168
109319
108596
122358
119881
117423
115383
113732
112339
111150
110116
109191
108417
123675
120681
118120
115865
114115
112622
111360
110260
109280
108447
124680
121039
118483
116056
114243
112665
111339
110183
109165
108288
125744
121415
118947
116370
114496
112848
111476
110278
109236
108333
115920
115400
114833
114272
113748
113277
112868
112528
112260
112066
116259
115567
114779
114012
113309
112686
112148
111691
111321
111020
116717
115868
114866
113916
113060
112312
111666
111116
110655
110266
117318
116350
115177
114077
113088
112220
111463
110804
110238
109751
118021
116952
115618
114368
113247
112262
111396
110637
109970
109404
118955
117733
116241
114824
113568
112464
111496
110642
109886
109238
119899
118430
116780
115171
113780
112559
111494
110559
109722
109018
121088
119230
117462
115650
114148
112823
111679
110673
109778
109013
122001
119655
117844
115858
114274
112857
111645
110582
109646
108840
122938
120069
118272
116140
114493
113014
111760
110662
109704
108873
114731
114495
114208
113898
113589
113299
113038
112816
112640
112513
114906
114589
114167
113708
113254
112827
112444
112111
111840
111620
115219
114817
114253
113645
113052
112503
112010
111581
111219
110914
115694
115226
114539
113794
113070
112399
111791
111253
110789
110389
116287
115756
114949
114066
113212
112420
111702
111061
110496
110016
117083
116458
115528
114495
113508
112596
111772
111034
110378
109815
117880
117095
116034
114829
113708
112678
111754
110930
110192
109568
118904
117858
116688
115303
114065
112929
111921
111024
110225
109538
119687
118305
117072
115520
114186
112955
111876
110923
110081
109356
120473
118720
117464
115780
114385
113096
111979
110992
110128
109378
113948
113840
113697
113534
113362
113194
113039
112904
112795
112717
114019
113874
113652
113389
113109
112833
112577
112349
112162
112009
114208
114025
113719
113348
112958
112575
112219
111900
111629
111400
114551
114343
113956
113477
112972
112476
112011
111589
111222
110906
115018
114786
114316
113723
113100
112490
111917
111395
110931
110538
115667
115394
114835
114117
113372
112648
111971
111352
110800
110324
116307
115948
115290
114428
113558
112719
111942
111236
110602
110064
117158
116647
115899
114886
113902
112959
112096
111317
110621
110020
117790
117070
116255
115094
114011
112976
112044
111209
110468
109831
118417
117460
116611
115338
114197
113108
112138
111272
110508
109847
113440
113390
113320
113235
113143
113050
112961
112883
112820
112773
113446
113379
113262
113113
112946
112776
112612
112465
112342
112240
113552
113472
113307
113086
112837
112581
112333
112107
111911
111746
113781
113698
113485
113185
112844
112491
112148
111830
111550
111308
114129
114047
113781
113395
112956
112502
112060
111649
111281
110968
114639
114551
114226
113743
113200
112643
112104
111601
111150
110759
115130
115009
114614
114019
113365
112702
112068
111482
110951
110500
115822
115626
115162
114447
113690
112931
112214
111555
110964
110452
116304
115993
115469
114631
113781
112938
112155
111443
110807
110260
116791
116345
115788
114861
113957
113064
112245
111503
110843
110272
113103
113080
113045
113002
112954
112904
112855
112812
112776
112749
113069
113037
112976
112893
112797
112695
112595
112503
112426
112360
113129
113095
113006
112875
112720
112553
112387
112232
112097
111982
113269
113242
113125
112940
112715
112471
112226
111995
111790
111611
113519
113505
113357
113110
112807
112479
112149
111836
111554
111313
113909
113907
113723
113406
113019
112603
112187
111791
111434
111122
114270
114265
114036
113635
113157
112648
112146
111673
111241
110874
114823
114793
114516
114024
113458
112864
112286
111745
111255
110831
115171
115085
114759
114173
113526
112859
112220
111629
111097
110639
115548
115395
115041
114387
113693
112981
112309
111689
111133
110652
112873
112863
112846
112824
112799
112773
112747
112723
112703
112688
112817
112802
112770
112725
112671
112612
112553
112497
112450
112409
112852
112838
112790
112713
112618
112512
112404
112302
112212
112135
112928
112923
112858
112745
112599
112435
112267
112104
111959
111830
113103
113115
113032
112876
112671
112440
112202
111971
111761
111581
113397
113427
113325
113119
112849
112546
112234
111933
111658
111417
113651
113693
113563
113297
112955
112575
112188
111817
111477
111186
114091
114133
113973
113642
113228
112776
112323
111891
111498
111155
114322
114344
114148
113749
113271
112757
112250
111774
111339
110966
114617
114611
114395
113947
113429
112877
112339
111835
111379
110984
112712
112707
112699
112688
112675
112662
112648
112635
112624
112616
112646
112639
112623
112599
112569
112535
112501
112469
112441
112415
112668
112663
112637
112593
112535
112470
112402
112337
112278
112228
112698
112701
112665
112597
112504
112397
112283
112173
112073
111983
112819
112837
112791
112693
112557
112398
112231
112066
111915
111785
113038
113074
113018
112886
112701
112486
112259
112036
111831
111650
113207
113259
113187
113013
112773
112496
112207
111925
111664
111441
113558
113622
113532
113313
113019
112684
112339
112004
111697
111427
113694
113757
113644
113377
113033
112648
112257
111883
111538
111242
113929
113984
113858
113558
113182
112766
112348
111949
111585
111269
112596
112594
112590
112585
112578
112571
112564
112557
112551
112547
112527
112525
112516
112504
112487
112468
112449
112431
112414
112398
112547
112546
112532
112506
112472
112433
112391
112350
112313
112281
112542
112547
112528
112487
112429
112360
112286
112213
112146
112085
112625
112642
112617
112556
112467
112361
112246
112132
112026
111934
112786
112818
112788
112704
112580
112431
112271
112110
111962
111830
112888
112935
112896
112783
112619
112422
112212
112004
111809
111643
113173
113235
113187
113044
112839
112597
112342
112090
111857
111651
113234
113303
113240
113066
112824
112543
112249
111964
111698
111470
113428
113498
113428
113231
112965
112659
112343
112037
111754
111508
112512
112512
112509
112507
112503
112500
112496
112493
112489
112487
112442
112441
112437
112431
112422
112412
112401
112391
112381
112370
112468
112468
112461
112446
112426
112403
112377
112352
112329
112309
112437
112442
112432
112407
112372
112329
112282
112234
112191
112150
112495
112509
112495
112457
112401
112331
112254
112177
112104
112042
112611
112636
112620
112568
112486
112386
112275
112163
112058
111964
112661
112698
112678
112606
112495
112359
112210
112061
111920
111799
112898
112950
112925
112833
112694
112524
112340
112155
111984
111831
112900
112960
112927
112815
112648
112448
112234
112022
111823
111652
113067
113131
113095
112968
112784
112565
112333
112105
111891
111705
112451
112451
112450
112449
112447
112445
112443
112442
112440
112438
112379
112379
112377
112374
112369
112364
112358
112352
112347
112340
112417
112417
112413
112405
112394
112380
112364
112349
112335
112324
112366
112370
112364
112350
112329
112302
112273
112243
112215
112188
112410
112420
112412
112389
112354
112309
112259
112208
112159
112118
112492
112510
112502
112469
112417
112350
112276
112200
112128
112063
112502
112530
112519
112474
112401
112309
112206
112102
112002
111918
112706
112746
112734
112676
112583
112467
112338
112207
112084
111973
112661
112708
112691
112619
112507
112368
112216
112064
111918
111795
112812
112864
112846
112766
112642
112489
112324
112158
112002
111866
112408
112409
112408
112408
112406
112406
112405
112404
112402
112402
112331
112331
112330
112328
112326
112323
112320
112317
112314
112308
112385
112386
112383
112379
112372
112364
112355
112346
112337
112331
112317
112320
112317
112309
112296
112280
112262
112244
112226
112209
112355
112362
112358
112344
112322
112293
112261
112228
112197
112170
112412
112425
112420
112400
112367
112324
112275
112225
112177
112133
112394