/*--------------------------------*- C++ -*----------------------------------*\
| =========                 |                                                 |
| \\      /  F ield         | foam-extend: Open Source CFD                    |
|  \\    /   O peration     | Version:     4.0                                |
|   \\  /    A nd           | Web:         http://www.foam-extend.org         |
|    \\/     M anipulation  |                                                 |
\*---------------------------------------------------------------------------*/
FoamFile
{
    version     2.0;
    format      ascii;
    class       surfaceScalarField;
    location    "2600";
    object      phi;
}
// * * * * * * * * * * * * * * * * * * * * * * * * * * * * * * * * * * * * * //

dimensions      [1 0 -1 0 0 0 0];

internalField   nonuniform List<scalar> 
97302
(
-0.000109158
5.33177e-06
-0.000614706
0.000631511
-0.000133908
5.79785e-06
-0.000618298
0.00063725
-0.000162522
6.22102e-06
-0.000621111
0.000643504
-0.000196838
6.63515e-06
-0.000623145
0.000650826
-0.00023938
7.059e-06
-0.000624253
0.000659736
-0.000293224
7.47625e-06
-0.000623698
0.000670066
-0.00036112
7.79429e-06
-0.00061943
0.000679531
-0.000442348
7.78823e-06
-0.000606791
0.000680231
-0.000532906
7.05859e-06
-0.000575098
0.000658597
4.58607e-06
-0.000491035
-0.000669233
0.000622776
-0.000137843
7.91658e-06
-0.000859736
0.000875221
-0.0001581
8.81072e-06
-0.000865514
0.000882758
-0.000181383
9.47929e-06
-0.000870269
0.000890294
-0.00020947
9.98731e-06
-0.000873836
0.000898571
-0.000245384
1.03789e-05
-0.000876505
0.0009091
-0.000293528
1.06553e-05
-0.000878125
0.00092309
-0.00035941
1.07279e-05
-0.000876865
0.000939813
-0.00044617
1.03271e-05
-0.000867446
0.000951667
-0.000549436
8.84869e-06
-0.00083651
0.000937986
4.59669e-06
-0.000726323
-0.000721812
0.000898689
-0.000168266
8.43843e-06
-0.00110357
0.00111819
-0.000185284
9.69479e-06
-0.00111155
0.00112769
-0.000204954
1.06176e-05
-0.00111851
0.00113705
-0.000228893
1.12816e-05
-0.00112432
0.00114696
-0.000260227
1.1731e-05
-0.00112924
0.00115922
-0.000304159
1.19824e-05
-0.00113379
0.00117639
-0.000367981
1.1959e-05
-0.00113685
0.00119945
-0.000457886
1.13575e-05
-0.00113286
0.00122174
-0.000569507
9.37489e-06
-0.00110629
0.00121738
3.59164e-06
-0.00097492
-0.000767605
0.00117402
-0.000199694
8.52653e-06
-0.0013439
0.00135782
-0.000215524
1.00051e-05
-0.00135539
0.00137091
-0.000233883
1.10871e-05
-0.00136589
0.00138378
-0.000256175
1.18423e-05
-0.00137522
0.00139695
-0.000285328
1.22924e-05
-0.00138335
0.00141194
-0.000326783
1.24459e-05
-0.00139102
0.00143201
-0.000389033
1.22314e-05
-0.00139789
0.00145987
-0.000480725
1.13275e-05
-0.0013991
0.00149082
-0.000597589
8.70136e-06
-0.00137791
0.00149545
1.10994e-06
-0.00122757
-0.000811543
0.00144401
-0.000233301
8.44463e-06
-0.00158428
0.00159773
-0.000248478
9.979e-06
-0.00159972
0.00161492
-0.000266124
1.10767e-05
-0.00161421
0.00163187
-0.000287475
1.18066e-05
-0.00162751
0.0016489
-0.000315263
1.21759e-05
-0.00163935
0.00166725
-0.000354965
1.21733e-05
-0.00165039
0.00169036
-0.000415919
1.17248e-05
-0.00166094
0.0017224
-0.000508793
1.05003e-05
-0.00166725
0.00176095
-0.000629458
7.19192e-06
-0.00165188
0.00177406
-2.36942e-06
-0.00148265
-0.000852991
0.00170966
-0.000269428
8.23477e-06
-0.0018231
0.00183619
-0.000284094
9.66559e-06
-0.00184267
0.00185765
-0.000301178
1.06443e-05
-0.00186116
0.00187868
-0.000321809
1.12424e-05
-0.00187842
0.00189962
-0.000348556
1.14579e-05
-0.00189404
0.00192151
-0.000386862
1.12684e-05
-0.00190849
0.0019477
-0.000446697
1.06121e-05
-0.00192252
0.00198347
-0.000540585
9.19722e-06
-0.00193352
0.00202871
-0.000665166
5.48517e-06
-0.00192342
0.00204971
-5.67779e-06
-0.00173225
-0.000898881
0.00196927
-0.00030743
8.00675e-06
-0.00206107
0.00207378
-0.000321633
9.13875e-06
-0.0020844
0.00209913
-0.000338172
9.85917e-06
-0.00210652
0.00212384
-0.000358076
1.02124e-05
-0.0021273
0.00214823
-0.000383749
1.01874e-05
-0.00214636
0.0021733
-0.000420498
9.76533e-06
-0.002164
0.00220225
-0.000478727
8.95187e-06
-0.00218143
0.00224132
-0.00057266
7.58457e-06
-0.00219733
0.00229288
-0.000700061
4.02357e-06
-0.00219335
0.00232221
-7.87663e-06
-0.00198026
-0.00094265
0.00222505
-0.00034844
7.22811e-06
-0.00229923
0.00231186
-0.000361995
7.89537e-06
-0.00232592
0.00234072
-0.00037784
8.29963e-06
-0.00235101
0.00236842
-0.000396923
8.41146e-06
-0.00237473
0.00239561
-0.000421419
8.18902e-06
-0.00239665
0.00242314
-0.000456339
7.60402e-06
-0.00241693
0.00245401
-0.000512199
6.76623e-06
-0.00243723
0.00249528
-0.000604743
5.74028e-06
-0.00245794
0.00255233
-0.0007333
3.12723e-06
-0.00246157
0.00259102
-8.12629e-06
-0.00222914
-0.000982709
0.0024788
-0.000390222
5.05655e-06
-0.00253424
0.00254698
-0.000402694
5.04715e-06
-0.00256344
0.00257876
-0.000417625
4.98838e-06
-0.00259089
0.00260914
-0.000436072
4.77468e-06
-0.0026175
0.00263958
-0.000459986
4.37117e-06
-0.00264305
0.00267078
-0.000493693
3.73204e-06
-0.00266729
0.00270487
-0.000547096
3.04854e-06
-0.00269124
0.00274836
-0.00063696
2.61487e-06
-0.0027167
0.00280969
-0.000764504
1.67003e-06
-0.00272869
0.00285769
-7.24343e-06
-0.00248149
-0.00101449
0.0027306
-0.000432591
-0.00275429
0.0027679
-0.000443466
-0.00278613
0.00280205
-0.000456896
-0.00281615
0.00283457
-0.000474061
-0.00284523
0.00286717
-0.00049687
-0.00287305
0.00290023
-0.000529217
-0.00289957
0.00293565
-0.000579852
-0.00292622
0.00297991
-0.00066525
-0.00295708
0.0030451
-0.00078833
-0.002983
0.00310775
-0.00273968
-0.00103719
0.0029813
1.23284e-05
5.38511e-06
-0.00059957
-1.01142e-05
5.84977e-06
-0.000601705
-3.49033e-05
6.23807e-06
-0.00060256
-6.26624e-05
6.55724e-06
-0.000601943
-9.43049e-05
6.80253e-06
-0.000599413
-0.000130715
6.94143e-06
-0.00059423
-0.00017178
6.90105e-06
-0.000585266
-0.000214222
6.53601e-06
-0.000570885
-0.000247646
5.58672e-06
-0.000547261
3.53369e-06
-0.000505121
-0.000237094
2.25637e-05
7.97543e-06
-0.000844393
2.61396e-06
8.92856e-06
-0.000848643
-1.96438e-05
9.63705e-06
-0.00085141
-4.47823e-05
1.01312e-05
-0.000852271
-7.41121e-05
1.04167e-05
-0.00085079
-0.00010974
1.0468e-05
-0.000846024
-0.000153791
1.02153e-05
-0.000836128
-0.000206169
9.47659e-06
-0.00081801
-0.000259401
7.89594e-06
-0.000785587
4.63558e-06
-0.000720937
-0.00026589
3.21712e-05
8.48931e-06
-0.0010882
1.43779e-05
9.88646e-06
-0.00109472
-5.77799e-06
1.09327e-05
-0.00109965
-2.90236e-05
1.16733e-05
-0.00110261
-5.67743e-05
1.21051e-05
-0.00110318
-9.18268e-05
1.22028e-05
-0.00110047
-0.000138165
1.18969e-05
-0.0010922
-0.000198832
1.09675e-05
-0.00107369
-0.000270198
8.918e-06
-0.00103594
4.49626e-06
-0.000947974
-0.000297005
4.14849e-05
8.43251e-06
-0.00132864
2.4294e-05
1.01601e-05
-0.00133847
4.58765e-06
1.14746e-05
-0.00134672
-1.84062e-05
1.24204e-05
-0.00135297
-4.6098e-05
1.29741e-05
-0.00135653
-8.14757e-05
1.3088e-05
-0.00135653
-0.000129747
1.26791e-05
-0.0013504
-0.000197088
1.1509e-05
-0.0013323
-0.000284532
8.93393e-06
-0.00129048
3.21656e-06
-0.00117861
-0.000332211
4.8929e-05
8.14472e-06
-0.00156907
3.19267e-05
1.00586e-05
-0.00158261
1.23099e-05
1.15186e-05
-0.00159464
-1.07356e-05
1.25692e-05
-0.00160461
-3.86276e-05
1.31806e-05
-0.00161166
-7.44003e-05
1.32752e-05
-0.0016148
-0.000124116
1.27473e-05
-0.00161129
-0.000196826
1.13496e-05
-0.00159438
-0.000298337
8.27129e-06
-0.00154971
1.21515e-06
-0.0014136
-0.000365387
5.41362e-05
7.66959e-06
-0.00180788
3.72577e-05
9.62329e-06
-0.00182535
1.77126e-05
1.11086e-05
-0.00184121
-5.35505e-06
1.21749e-05
-0.00185496
-3.3374e-05
1.27891e-05
-0.00186563
-6.94076e-05
1.28573e-05
-0.00187204
-0.000120135
1.22588e-05
-0.00187131
-0.000197077
1.07632e-05
-0.00185599
-0.000310492
7.41976e-06
-0.00180915
-7.06058e-07
-0.00164783
-0.00039299
5.70886e-05
7.07509e-06
-0.00204586
4.03834e-05
8.87592e-06
-0.00206695
2.10388e-05
1.02559e-05
-0.00208632
-1.82652e-06
1.12452e-05
-0.0021035
-2.96435e-05
1.18069e-05
-0.00211756
-6.54711e-05
1.18381e-05
-0.00212715
-0.000116455
1.12348e-05
-0.00212942
-0.00019635
9.84631e-06
-0.00211652
-0.000319843
6.67913e-06
-0.00206911
-2.08739e-06
-0.00188326
-0.000415455
5.74959e-05
5.89625e-06
-0.00228383
4.12765e-05
7.34414e-06
-0.00230817
2.24679e-05
8.53208e-06
-0.00233048
1.67313e-07
9.43211e-06
-0.00235062
-2.70167e-05
9.99301e-06
-0.00236765
-6.20683e-05
1.00887e-05
-0.00238013
-0.000112395
9.65973e-06
-0.00238533
-0.000193735
8.6762e-06
-0.00237543
-0.000325725
6.39106e-06
-0.00232929
-2.25312e-06
-0.00212086
-0.000433839
5.58602e-05
3.41216e-06
-0.00251851
4.0694e-05
4.24191e-06
-0.00254517
2.29455e-05
5.03819e-06
-0.00256965
1.5308e-06
5.68487e-06
-0.00259234
-2.5048e-05
6.17738e-06
-0.00261266
-5.95966e-05
6.37888e-06
-0.00262903
-0.000109158
6.28689e-06
-0.00263831
-0.000190797
5.98862e-06
-0.00263237
-0.00032996
5.37354e-06
-0.00258851
-1.41594e-06
-0.00235918
-0.000453115
5.31592e-05
-0.00273901
3.92773e-05
-0.00276801
2.29806e-05
-0.00279482
3.10829e-06
-0.00281968
-2.18958e-05
-0.00284186
-5.50018e-05
-0.00286009
-0.000102727
-0.00287221
-0.000182689
-0.00287113
-0.000327133
-0.00283319
-0.00259061
-0.00047762
6.83513e-06
5.29868e-06
-0.000587484
-1.19274e-05
5.70793e-06
-0.00058865
-3.20004e-05
6.00899e-06
-0.000588496
-5.32737e-05
6.20384e-06
-0.000586874
-7.54582e-05
6.27233e-06
-0.000583501
-9.78448e-05
6.16861e-06
-0.000578012
-0.000118916
5.82207e-06
-0.000570017
-0.000135739
5.1398e-06
-0.000559201
-0.000141922
4.01042e-06
-0.000545089
2.3447e-06
-0.000526492
-0.000122894
1.61537e-05
7.9981e-06
-0.000830651
-2.08876e-06
8.87616e-06
-0.000833569
-2.21525e-05
9.49094e-06
-0.000834828
-4.40071e-05
9.85874e-06
-0.000834071
-6.77105e-05
9.96115e-06
-0.000830775
-9.31608e-05
9.73834e-06
-0.000824143
-0.000119499
9.09957e-06
-0.000813067
-0.000144145
7.91279e-06
-0.000796137
-0.000160327
6.0137e-06
-0.000771408
3.25522e-06
-0.0007368
-0.000145374
2.57222e-05
8.72711e-06
-0.00107355
8.43247e-06
1.00543e-05
-0.00107861
-1.09742e-05
1.1015e-05
-0.00108177
-3.27833e-05
1.16353e-05
-0.00108258
-5.74277e-05
1.18868e-05
-0.00108046
-8.5529e-05
1.16977e-05
-0.00107433
-0.000117261
1.09474e-05
-0.00106231
-0.00015087
9.4361e-06
-0.0010416
-0.000179645
6.86958e-06
-0.00100802
2.91999e-06
-0.00095496
-0.000172324
3.51873e-05
8.77931e-06
-0.00131362
1.80284e-05
1.04603e-05
-0.00132172
-1.58555e-06
1.17119e-05
-0.00132781
-2.41366e-05
1.25641e-05
-0.00133135
-5.02582e-05
1.29612e-05
-0.00133148
-8.10417e-05
1.28068e-05
-0.00132685
-0.000117622
1.19418e-05
-0.00131482
-0.000159607
1.0101e-05
-0.00129098
-0.000201474
6.83815e-06
-0.00124858
1.59752e-06
-0.00117424
-0.000204525
4.31103e-05
8.54482e-06
-0.00155384
2.588e-05
1.04456e-05
-0.00156537
5.9577e-06
1.18779e-05
-0.00157488
-1.72561e-05
1.28741e-05
-0.00158171
-4.46149e-05
1.33657e-05
-0.00158471
-7.75546e-05
1.32263e-05
-0.00158228
-0.000118118
1.22553e-05
-0.00157104
-0.000167575
1.01231e-05
-0.00154494
-0.00022232
6.19111e-06
-0.00149432
-4.08939e-07
-0.00139685
-0.000237062
4.89633e-05
8.06107e-06
-0.00179246
3.17052e-05
1.00367e-05
-0.00180769
1.1614e-05
1.15334e-05
-0.00182077
-1.20112e-05
1.25887e-05
-0.00183105
-4.02231e-05
1.3131e-05
-0.00183718
-7.47535e-05
1.30144e-05
-0.0018373
-0.000118497
1.20099e-05
-0.00182732
-0.000174543
9.74517e-06
-0.00179956
-0.00024174
5.38548e-06
-0.00174115
-2.35621e-06
-0.00161897
-0.000268658
5.26234e-05
7.37311e-06
-0.0020303
3.54729e-05
9.22372e-06
-0.00204899
1.54623e-05
1.06495e-05
-0.00206542
-8.18903e-06
1.16756e-05
-0.00207894
-3.66974e-05
1.22325e-05
-0.00208815
-7.20503e-05
1.21596e-05
-0.00209094
-0.000117947
1.12255e-05
-0.00208274
-0.000179418
9.06636e-06
-0.00205437
-0.000258299
4.70832e-06
-0.00198955
-3.86618e-06
-0.00184243
-0.000297624
5.36735e-05
6.06049e-06
-0.00226802
3.70023e-05
7.55915e-06
-0.00228984
1.75138e-05
8.79087e-06
-0.00230913
-5.65336e-06
9.73739e-06
-0.00232551
-3.38194e-05
1.03372e-05
-0.00233759
-6.91596e-05
1.04179e-05
-0.00234305
-0.00011606
9.78421e-06
-0.00233699
-0.0001815
8.12462e-06
-0.00230905
-0.000271032
4.55159e-06
-0.0022396
-4.24446e-06
-0.00206836
-0.000323154
5.23817e-05
3.55372e-06
-0.00250235
3.67341e-05
4.40617e-06
-0.00252637
1.83547e-05
5.2205e-06
-0.0025477
-3.80876e-06
5.88212e-06
-0.00256632
-3.13388e-05
6.40471e-06
-0.0025812
-6.65687e-05
6.63814e-06
-0.00259002
-0.000114084
6.48465e-06
-0.00258749
-0.000182225
5.72548e-06
-0.00256183
-0.00028079
3.91344e-06
-0.0024893
-3.26316e-06
-0.00229399
-0.000346961
5.00201e-05
-0.00272297
3.55424e-05
-0.00274912
1.857e-05
-0.00277263
-2.03042e-06
-0.0027932
-2.7833e-05
-0.00280966
-6.14538e-05
-0.00281983
-0.000107798
-0.00281938
-0.000176298
-0.00279691
-0.000280719
-0.00272485
-0.00250941
-0.000365185
3.95413e-06
4.93786e-06
-0.000579033
-1.02953e-05
5.27641e-06
-0.000579677
-2.50573e-05
5.48414e-06
-0.000579218
-3.99126e-05
5.56414e-06
-0.000577583
-5.42499e-05
5.49788e-06
-0.000574661
-6.71608e-05
5.25139e-06
-0.000570352
-7.72973e-05
4.78266e-06
-0.000564663
-8.26675e-05
4.04788e-06
-0.000557879
-8.01221e-05
3.01614e-06
-0.000550651
1.74789e-06
-0.000543119
-6.52437e-05
1.13578e-05
7.67604e-06
-0.000819395
-4.05911e-06
8.45056e-06
-0.000821326
-2.06567e-05
8.94319e-06
-0.00082169
-3.80746e-05
9.16713e-06
-0.000820257
-5.57708e-05
9.09958e-06
-0.000816681
-7.2818e-05
8.68306e-06
-0.000810528
-8.76177e-05
7.84631e-06
-0.000801331
-9.7483e-05
6.52215e-06
-0.000788746
-9.78259e-05
4.68377e-06
-0.000772732
2.47628e-06
-0.000754242
-8.11125e-05
2.0032e-05
8.67018e-06
-0.00106044
4.21718e-06
9.88325e-06
-0.00106423
-1.3258e-05
1.07122e-05
-0.00106607
-3.22718e-05
1.11683e-05
-0.00106557
-5.26061e-05
1.12167e-05
-0.00106224
-7.37153e-05
1.0775e-05
-0.00105531
-9.41948e-05
9.72964e-06
-0.00104372
-0.000110945
7.94456e-06
-0.00102627
-0.000117645
5.30312e-06
-0.00100194
1.93446e-06
-0.000971034
-0.000101029
2.90544e-05
8.90354e-06
-0.00129952
1.26974e-05
1.04863e-05
-0.00130597
-5.80343e-06
1.1618e-05
-0.00131021
-2.65804e-05
1.23147e-05
-0.00131172
-4.96441e-05
1.2505e-05
-0.00130971
-7.48135e-05
1.20744e-05
-0.00130298
-0.000101048
1.08557e-05
-0.00128971
-0.000125262
8.62959e-06
-0.00126745
-0.000140077
5.1518e-06
-0.00123362
5.14166e-07
-0.00118685
-0.000126043
3.70316e-05
8.78416e-06
-0.00153911
2.01858e-05
1.06161e-05
-0.00154865
8.15625e-07
1.19576e-05
-0.00155585
-2.13886e-05
1.28294e-05
-0.00156002
-4.66885e-05
1.31337e-05
-0.00156003
-7.52961e-05
1.27212e-05
-0.00155432
-0.000106695
1.13641e-05
-0.00154015
-0.000138218
8.74899e-06
-0.00151354
-0.000162095
4.45191e-06
-0.00146974
-1.54331e-06
-0.00140441
-0.000152479
4.32371e-05
8.34282e-06
-0.00177725
2.60895e-05
1.02838e-05
-0.00179021
6.16317e-06
1.17265e-05
-0.00180061
-1.70089e-05
1.26981e-05
-0.00180775
-4.39686e-05
1.30901e-05
-0.00181018
-7.53016e-05
1.27268e-05
-0.00180597
-0.000111129
1.13303e-05
-0.00179146
-0.000149544
8.50056e-06
-0.0017609
-0.00018302
3.60466e-06
-0.00170683
-3.57887e-06
-0.00162059
-0.000179358
4.74246e-05
7.61421e-06
-0.00201475
3.02185e-05
9.45882e-06
-0.00203096
1.01254e-05
1.08624e-05
-0.00204447
-1.34583e-05
1.18452e-05
-0.0020545
-4.13453e-05
1.23036e-05
-0.00205948
-7.44944e-05
1.20405e-05
-0.00205711
-0.000113756
1.07503e-05
-0.0020429
-0.00015832
7.9769e-06
-0.00200928
-0.000201602
2.88638e-06
-0.00194555
-5.26162e-06
-0.00183718
-0.000205171
4.90515e-05
6.21312e-06
-0.00225209
3.22382e-05
7.7183e-06
-0.00227128
1.25414e-05
8.93242e-06
-0.00228751
-1.07782e-05
9.8438e-06
-0.00230019
-3.87573e-05
1.03709e-05
-0.00230768
-7.27001e-05
1.03157e-05
-0.00230738
-0.000114222
9.40091e-06
-0.00229412
-0.000163897
7.16117e-06
-0.00225856
-0.000216976
2.71866e-06
-0.00218635
-5.80584e-06
-0.00205546
-0.000229333
4.83235e-05
3.67908e-06
-0.00248599
3.24536e-05
4.53806e-06
-0.00250732
1.38137e-05
5.34111e-06
-0.00252547
-8.50822e-06
5.97034e-06
-0.00254012
-3.59026e-05
6.43365e-06
-0.00254986
-7.00718e-05
6.57456e-06
-0.00255211
-0.000113233
6.2492e-06
-0.00254118
-0.000167167
5.0811e-06
-0.00250582
-0.000229424
2.44671e-06
-0.00242678
-4.60347e-06
-0.00227258
-0.000252038
4.64394e-05
-0.00270648
3.16432e-05
-0.00272979
1.43376e-05
-0.00274998
-6.47843e-06
-0.00276641
-3.21731e-05
-0.00277753
-6.4726e-05
-0.0027807
-0.000107151
-0.00277071
-0.000162919
-0.00273606
-0.000231872
-0.00265345
-0.00247772
-0.00026816
2.51039e-06
4.39892e-06
-0.000573819
-7.61718e-06
4.66774e-06
-0.000574218
-1.78464e-05
4.80031e-06
-0.00057379
-2.7713e-05
4.80187e-06
-0.000572518
-3.66478e-05
4.6627e-06
-0.000570389
-4.39497e-05
4.36639e-06
-0.000567417
-4.87853e-05
3.89834e-06
-0.000563726
-5.01958e-05
3.24911e-06
-0.000559718
-4.6968e-05
2.42199e-06
-0.000556301
1.47908e-06
-0.000554128
-3.74376e-05
7.95932e-06
7.0813e-06
-0.000810897
-4.27198e-06
7.74016e-06
-0.000812167
-1.71541e-05
8.11227e-06
-0.000812119
-3.01887e-05
8.21231e-06
-0.000810633
-4.26896e-05
8.02474e-06
-0.000807542
-5.3678e-05
7.51231e-06
-0.000802685
-6.17925e-05
6.63943e-06
-0.000795957
-6.52555e-05
5.39463e-06
-0.000787429
-6.18762e-05
3.82722e-06
-0.000777517
2.1366e-06
-0.000767272
-4.95038e-05
1.53617e-05
8.31767e-06
-0.00104941
1.6542e-06
9.38858e-06
-0.00105217
-1.32232e-05
1.00678e-05
-0.00105314
-2.88754e-05
1.03596e-05
-0.00105206
-4.47304e-05
1.02324e-05
-0.0010486
-5.98344e-05
9.61727e-06
-0.00104231
-7.25818e-05
8.43856e-06
-0.00103277
-8.04043e-05
6.63954e-06
-0.0010197
-7.94469e-05
4.23328e-06
-0.0010033
1.48789e-06
-0.000985095
-6.47377e-05
2.35307e-05
8.76029e-06
-0.00128689
8.62571e-06
1.02063e-05
-0.00129188
-8.00551e-06
1.1187e-05
-0.0012947
-2.61682e-05
1.17052e-05
-0.0012949
-4.54331e-05
1.16896e-05
-0.0012919
-6.49597e-05
1.10315e-05
-0.00128487
-8.30307e-05
9.59857e-06
-0.0012728
-9.64231e-05
7.26187e-06
-0.00125468
-9.96523e-05
3.95468e-06
-0.00123011
2.06322e-08
-0.00120088
-8.41523e-05
3.1188e-05
8.79525e-06
-0.0015254
1.53173e-05
1.05133e-05
-0.00153309
-2.74055e-06
1.17221e-05
-0.00153833
-2.29954e-05
1.24288e-05
-0.00154049
-4.52123e-05
1.25237e-05
-0.00153865
-6.87875e-05
1.18557e-05
-0.00153157
-9.20957e-05
1.02223e-05
-0.00151747
-0.000111522
7.39695e-06
-0.00149425
-0.000120165
3.17398e-06
-0.00146032
-2.07835e-06
-0.00141728
-0.000105191
3.74507e-05
8.43853e-06
-0.00176272
2.09405e-05
1.02978e-05
-0.00177348
1.88237e-06
1.16379e-05
-0.00178147
-1.9912e-05
1.24742e-05
-0.001786
-4.44619e-05
1.26742e-05
-0.00178578
-7.14768e-05
1.20532e-05
-0.00177915
-9.96107e-05
1.03404e-05
-0.00176344
-0.000125169
7.20357e-06
-0.00173515
-0.000140203
2.25235e-06
-0.00169087
-4.19157e-06
-0.00163141
-0.00012727
4.19578e-05
7.71724e-06
-0.00199961
2.51516e-05
9.51234e-06
-0.00201337
5.60281e-06
1.08443e-05
-0.00202412
-1.70536e-05
1.17261e-05
-0.0020311
-4.31381e-05
1.20269e-05
-0.00203275
-7.27211e-05
1.15338e-05
-0.00202701
-0.000104921
9.92414e-06
-0.00201028
-0.00013632
6.76685e-06
-0.00197745
-0.000158439
1.45772e-06
-0.00192264
-5.99472e-06
-0.00184491
-0.000148902
4.4046e-05
6.26619e-06
-0.00223637
2.74752e-05
7.74839e-06
-0.00225295
8.10821e-06
8.90846e-06
-0.0022662
-1.46e-05
9.73729e-06
-0.00227549
-4.12598e-05
1.01299e-05
-0.00227912
-7.23332e-05
9.8766e-06
-0.00227465
-0.000107559
8.66684e-06
-0.00225764
-0.00014418
6.00891e-06
-0.00222118
-0.000173956
1.19304e-06
-0.00215631
-6.67253e-06
-0.00205915
-0.000169584
4.38961e-05
3.73599e-06
-0.00246976
2.81329e-05
4.58924e-06
-0.0024884
9.67724e-06
5.36468e-06
-0.00250347
-1.21739e-05
5.94003e-06
-0.00251447
-3.84157e-05
6.30874e-06
-0.0025198
-7.00227e-05
6.30805e-06
-0.00251693
-0.000107474
5.76307e-06
-0.00250083
-0.000148844
4.25123e-06
-0.00246269
-0.000186529
1.20602e-06
-0.0023891
-5.3007e-06
-0.00227132
-0.000189155
4.24704e-05
-0.00268993
2.767e-05
-0.0027104
1.0428e-05
-0.00272737
-1.0072e-05
-0.00273997
-3.48399e-05
-0.00274645
-6.51149e-05
-0.00274412
-0.00010216
-0.0027279
-0.00014572
-0.00268825
-0.000189446
-0.00260852
-0.00247078
-0.000201691
1.81915e-06
3.77713e-06
-0.000571069
-5.02114e-06
3.98624e-06
-0.000571364
-1.18097e-05
4.06792e-06
-0.000571069
-1.81602e-05
4.02896e-06
-0.000570196
-2.36504e-05
3.86801e-06
-0.000568767
-2.78247e-05
3.58184e-06
-0.000566824
-3.02263e-05
3.17303e-06
-0.000564498
-3.04446e-05
2.64811e-06
-0.000562148
-2.80757e-05
2.01591e-06
-0.000560686
1.30679e-06
-0.000561165
-2.2345e-05
5.61912e-06
6.30796e-06
-0.000804967
-3.58688e-06
6.85312e-06
-0.000805828
-1.30979e-05
7.12319e-06
-0.000805664
-2.24178e-05
7.13588e-06
-0.00080442
-3.09351e-05
6.88646e-06
-0.000802043
-3.78846e-05
6.35962e-06
-0.000798514
-4.2342e-05
5.54999e-06
-0.000793877
-4.32991e-05
4.47922e-06
-0.000788303
-3.98552e-05
3.22223e-06
-0.000782167
1.95271e-06
-0.000776148
-3.16256e-05
1.16817e-05
7.71856e-06
-0.00104064
3.66559e-07
8.63459e-06
-0.00104263
-1.17071e-05
9.16738e-06
-0.00104311
-2.40323e-05
9.32054e-06
-0.00104192
-3.59368e-05
9.07212e-06
-0.00103888
-4.64672e-05
8.37604e-06
-0.0010338
-5.43045e-05
7.19721e-06
-0.00102658
-5.77348e-05
5.53892e-06
-0.00101733
-5.47661e-05
3.48329e-06
-0.00100653
1.2998e-06
-0.000995412
-4.37956e-05
1.87681e-05
8.36173e-06
-0.0012761
5.75939e-06
9.64549e-06
-0.00127988
-8.55006e-06
1.04629e-05
-0.00128168
-2.37512e-05
1.08097e-05
-0.00128119
-3.91903e-05
1.06247e-05
-0.00127801
-5.38216e-05
9.82129e-06
-0.00127168
-6.59788e-05
8.31575e-06
-0.00126176
-7.31648e-05
6.0645e-06
-0.00124802
-7.20232e-05
3.12099e-06
-0.00123089
-1.23156e-07
-0.00121231
-5.91754e-05
2.58179e-05
8.56714e-06
-0.00151313
1.14163e-05
1.01352e-05
-0.00151918
-4.77039e-06
1.11857e-05
-0.00152286
-2.24929e-05
1.17134e-05
-0.00152367
-4.11996e-05
1.16133e-05
-0.00152093
-5.98859e-05
1.07511e-05
-0.00151381
-7.66833e-05
8.97549e-06
-0.00150133
-8.8386e-05
6.16272e-06
-0.00148264
-9.01334e-05
2.28154e-06
-0.00145773
-2.18082e-06
-0.00142926
-7.61029e-05
3.18686e-05
8.32558e-06
-0.00174929
1.64798e-05
1.00622e-05
-0.00175802
-1.10717e-06
1.1264e-05
-0.00176396
-2.08186e-05
1.19345e-05
-0.00176651
-4.22718e-05
1.19351e-05
-0.00176465
-6.46303e-05
1.10915e-05
-0.00175713
-8.59988e-05
9.17758e-06
-0.00174227
-0.000102646
5.96864e-06
-0.00171831
-0.000108266
1.29765e-06
-0.00168427
-4.29306e-06
-0.00164344
-9.41318e-05
3.64799e-05
7.656e-06
-0.00198528
2.05258e-05
9.36283e-06
-0.00199671
2.10714e-06
1.05848e-05
-0.00200503
-1.88838e-05
1.13262e-05
-0.0020095
-4.23229e-05
1.14425e-05
-0.00200882
-6.76419e-05
1.07259e-05
-0.00200132
-9.31217e-05
8.8821e-06
-0.00198451
-0.00011477
5.57088e-06
-0.0019554
-0.000125046
4.35264e-07
-0.0019115
-6.12803e-06
-0.00185631
-0.000111812
3.88778e-05
6.19936e-06
-0.00222125
2.29516e-05
7.63073e-06
-0.00223529
4.44844e-06
8.70789e-06
-0.00224582
-1.69392e-05
9.42155e-06
-0.0022522
-4.1379e-05
9.64907e-06
-0.00225289
-6.86497e-05
9.1846e-06
-0.00224584
-9.74204e-05
7.72601e-06
-0.00222771
-0.000123788
4.83826e-06
-0.00219408
-0.000139482
4.80906e-08
-0.00214023
-6.89241e-06
-0.0020692
-0.00012867
3.92344e-05
3.71571e-06
-0.00245401
2.39299e-05
4.54807e-06
-0.00247001
6.11528e-06
5.27974e-06
-0.00248223
-1.46609e-05
5.78352e-06
-0.00249006
-3.89308e-05
6.03801e-06
-0.00249192
-6.69726e-05
5.88025e-06
-0.00248559
-9.81235e-05
5.12893e-06
-0.00246708
-0.000128935
3.38559e-06
-0.00243043
-0.000150674
2.4636e-07
-0.00236756
-5.4321e-06
-0.00227947
-0.000143982
3.82185e-05
-0.00267369
2.37464e-05
-0.00269138
6.98221e-06
-0.00270533
-1.26669e-05
-0.00271454
-3.57969e-05
-0.00271728
-6.2945e-05
-0.00271109
-9.4047e-05
-0.00269167
-0.000126865
-0.00265204
-0.000153199
-0.00258194
-0.00247702
-0.000152389
1.44299e-06
3.1517e-06
-0.000569965
-3.01669e-06
3.31362e-06
-0.000570218
-7.40091e-06
3.36552e-06
-0.00057005
-1.14272e-05
3.31477e-06
-0.000569485
-1.48118e-05
3.16546e-06
-0.000568548
-1.7278e-05
2.92161e-06
-0.00056728
-1.85878e-05
2.59356e-06
-0.000565781
-1.85789e-05
2.19213e-06
-0.000564349
-1.71387e-05
1.72041e-06
-0.000563846
1.17394e-06
-0.000565677
-1.38012e-05
3.99742e-06
5.45152e-06
-0.000801149
-2.64445e-06
5.89384e-06
-0.000801767
-9.40689e-06
6.08661e-06
-0.000801622
-1.58647e-05
6.04981e-06
-0.000800697
-2.15422e-05
5.7879e-06
-0.000798988
-2.59095e-05
5.30143e-06
-0.000796526
-2.84035e-05
4.6037e-06
-0.000793393
-2.85016e-05
3.73069e-06
-0.000789743
-2.58745e-05
2.75655e-06
-0.00078583
1.81245e-06
-0.00078203
-2.06308e-05
8.82941e-06
6.94734e-06
-0.00103406
-1.16633e-07
7.70941e-06
-0.0010355
-9.52352e-06
8.11267e-06
-0.00103573
-1.88902e-05
8.16398e-06
-0.00103467
-2.75977e-05
7.85282e-06
-0.00103223
-3.48626e-05
7.15599e-06
-0.00102839
-3.97388e-05
6.06906e-06
-0.00102317
-4.11881e-05
4.62891e-06
-0.00101677
-3.82658e-05
2.94006e-06
-0.00100964
1.22726e-06
-0.00100253
-3.05664e-05
1.47635e-05
7.75211e-06
-0.0012673
3.857e-06
8.86165e-06
-0.00127013
-7.97939e-06
9.5196e-06
-0.00127125
-2.02457e-05
9.72072e-06
-0.00127048
-3.22403e-05
9.42021e-06
-0.00126758
-4.29735e-05
8.55951e-06
-0.00126235
-5.10955e-05
7.09991e-06
-0.00125467
-5.49043e-05
5.05772e-06
-0.00124464
-5.25535e-05
2.54783e-06
-0.00123285
-7.56377e-08
-0.0012207
-4.28626e-05
2.10208e-05
8.11977e-06
-0.00150255
8.41696e-06
9.51324e-06
-0.00150723
-5.57108e-06
1.03952e-05
-0.00150975
-2.05274e-05
1.07525e-05
-0.00150975
-3.57567e-05
1.04967e-05
-0.00150678
-5.01635e-05
9.52273e-06
-0.00150037
-6.20544e-05
7.7351e-06
-0.00149007
-6.90054e-05
5.0959e-06
-0.00147573
-6.79912e-05
1.68609e-06
-0.00145788
-2.01964e-06
-0.00143875
-5.65514e-05
2.66432e-05
8.00736e-06
-0.00173726
1.27569e-05
9.58878e-06
-0.00174421
-2.92983e-06
1.06309e-05
-0.00174851
-2.01357e-05
1.11267e-05
-0.00174968
-3.82447e-05
1.09491e-05
-0.00174699
-5.61744e-05
9.94967e-06
-0.00173963
-7.20093e-05
7.96292e-06
-0.00172667
-8.26619e-05
4.86972e-06
-0.00170743
-8.37976e-05
6.71294e-07
-0.00168212
-4.05236e-06
-0.00165391
-7.12886e-05
3.11594e-05
7.42452e-06
-0.0019721
1.64483e-05
9.00947e-06
-0.00198142
-3.66318e-07
1.00946e-05
-0.00198767
-1.91637e-05
1.0675e-05
-0.00199025
-3.95029e-05
1.06095e-05
-0.00198814
-6.04468e-05
9.71311e-06
-0.00198014
-8.00287e-05
7.74787e-06
-0.00196471
-9.4644e-05
4.48426e-06
-0.0019404
-9.86173e-05
-2.24212e-07
-0.00190663
-5.82952e-06
-0.00186749
-8.56561e-05
3.37068e-05
6.00346e-06
-0.00220707
1.87969e-05
7.35726e-06
-0.00221873
1.62243e-06
8.32923e-06
-0.00222688
-1.78844e-05
8.90862e-06
-0.00223093
-3.95246e-05
8.96639e-06
-0.0022296
-6.26156e-05
8.31555e-06
-0.00222135
-8.53545e-05
6.69596e-06
-0.00220392
-0.000103881
3.76996e-06
-0.00217483
-0.000111428
-7.08789e-07
-0.0021322
-6.62728e-06
-0.00208066
-9.91653e-05
3.44663e-05
3.61269e-06
-0.00243907
1.9963e-05
4.40712e-06
-0.00245256
3.21074e-06
5.08008e-06
-0.00246223
-1.59841e-05
5.49982e-06
-0.00246746
-3.77274e-05
5.63481e-06
-0.00246685
-6.1737e-05
5.3306e-06
-0.00245859
-8.66919e-05
4.42348e-06
-0.00243985
-0.000108902
2.58364e-06
-0.00240703
-0.000120696
-4.11604e-07
-0.00235607
-5.17325e-06
-0.00229112
-0.000110503
3.37984e-05
-0.00265815
1.9982e-05
-0.00267316
4.09176e-06
-0.00268436
-1.42284e-05
-0.00269072
-3.51832e-05
-0.00269069
-5.87371e-05
-0.00268221
-8.39753e-05
-0.00266201
-0.000107903
-0.00262553
-0.00012289
-0.00256737
-0.00248908
-0.000116001
1.18633e-06
2.57458e-06
-0.000569843
-1.65506e-06
2.70055e-06
-0.000570077
-4.44345e-06
2.73707e-06
-0.000569999
-6.98554e-06
2.69102e-06
-0.000569634
-9.09892e-06
2.56922e-06
-0.000569004
-1.06192e-05
2.3786e-06
-0.000568138
-1.14223e-05
2.13154e-06
-0.00056711
-1.14487e-05
1.8375e-06
-0.00056616
-1.06818e-05
1.49132e-06
-0.000566104
1.05824e-06
-0.000568625
-8.79181e-06
2.8526e-06
4.59177e-06
-0.000798908
-1.77626e-06
4.94582e-06
-0.000799383
-6.44592e-06
5.0843e-06
-0.0007993
-1.08239e-05
5.02764e-06
-0.000798656
-1.45649e-05
4.78636e-06
-0.000797464
-1.73183e-05
4.36993e-06
-0.000795764
-1.87524e-05
3.7998e-06
-0.000793627
-1.8607e-05
3.11388e-06
-0.000791165
-1.67879e-05
2.37559e-06
-0.000788534
1.67902e-06
-0.000785925
-1.35137e-05
6.6341e-06
6.08502e-06
-0.00102938
-1.87153e-07
6.70375e-06
-0.00103044
-7.27184e-06
7.00067e-06
-0.00103057
-1.41837e-05
6.98628e-06
-0.00102972
-2.04192e-05
6.66034e-06
-0.00102787
-2.53985e-05
6.01761e-06
-0.00102505
-2.84922e-05
5.07269e-06
-0.00102135
-2.90981e-05
3.87546e-06
-0.00101693
-2.67786e-05
2.52598e-06
-0.00101211
1.19657e-06
-0.00100733
-2.14935e-05
1.14578e-05
6.99332e-06
-0.00126043
2.63962e-06
7.9291e-06
-0.00126253
-6.81361e-06
8.44254e-06
-0.00126324
-1.63999e-05
8.5318e-06
-0.00126244
-2.54778e-05
8.16964e-06
-0.00126002
-3.32301e-05
7.32489e-06
-0.00125591
-3.86656e-05
5.99325e-06
-0.00125015
-4.06982e-05
4.22467e-06
-0.00124296
-3.83588e-05
2.15151e-06
-0.00123481
6.36864e-08
-0.00122662
-3.13061e-05
1.68347e-05
7.49337e-06
-0.00149377
6.17095e-06
8.70035e-06
-0.00149733
-5.51611e-06
9.41703e-06
-0.00149904
-1.77361e-05
9.62771e-06
-0.00149862
-2.97808e-05
9.26633e-06
-0.00149583
-4.06494e-05
8.26133e-06
-0.00149044
-4.89826e-05
6.56715e-06
-0.00148231
-5.30923e-05
4.20466e-06
-0.0014716
-5.12067e-05
1.30887e-06
-0.00145893
-1.71215e-06
-0.00144583
-4.23493e-05
2.18782e-05
7.5057e-06
-0.00172685
9.73632e-06
8.90994e-06
-0.00173228
-3.81519e-06
9.78493e-06
-0.00173533
-1.83577e-05
1.01166e-05
-0.00173562
-3.31826e-05
9.80007e-06
-0.0017327
-4.71924e-05
8.72264e-06
-0.00172608
-5.87183e-05
6.78092e-06
-0.00171536
-6.54459e-05
3.93973e-06
-0.00170044
-6.46164e-05
3.02829e-07
-0.00168194
-3.60134e-06
-0.00166228
-5.43589e-05
2.61331e-05
7.03095e-06
-0.00196035
1.29561e-05
8.46766e-06
-0.0019678
-1.93356e-06
9.40144e-06
-0.0019724
-1.82382e-05
9.81955e-06
-0.00197365
-3.53429e-05
9.59751e-06
-0.00197083
-5.21731e-05
8.58549e-06
-0.00196317
-6.68715e-05
6.61421e-06
-0.00194985
-7.65498e-05
3.55745e-06
-0.00193034
-7.73043e-05
-5.8388e-07
-0.00190499
-5.24923e-06
-0.00187719
-6.59612e-05
2.86798e-05
5.67801e-06
-0.0021941
1.5092e-05
6.93043e-06
-0.0022036
-3.998e-07
7.78283e-06
-0.00220977
-1.76544e-05
8.2233e-06
-0.00221208
-3.62194e-05
8.12809e-06
-0.00220957
-5.51688e-05
7.34062e-06
-0.00220116
-7.26397e-05
5.66287e-06
-0.0021855
-8.53371e-05
2.86509e-06
-0.00216144
-8.83021e-05
-1.12184e-06
-0.0021287
-6.02735e-06
-0.00209148
-7.67101e-05
2.9727e-05
3.42629e-06
-0.00242523
1.63291e-05
4.1659e-06
-0.00243639
9.915e-07
4.76821e-06
-0.00244387
-1.62472e-05
5.09848e-06
-0.00244709
-3.51652e-05
5.12189e-06
-0.00244492
-5.51051e-05
4.70084e-06