/*--------------------------------*- C++ -*----------------------------------*\
| =========                 |                                                 |
| \\      /  F ield         | foam-extend: Open Source CFD                    |
|  \\    /   O peration     | Version:     4.0                                |
|   \\  /    A nd           | Web:         http://www.foam-extend.org         |
|    \\/     M anipulation  |                                                 |
\*---------------------------------------------------------------------------*/
FoamFile
{
    version     2.0;
    format      ascii;
    class       volScalarField;
    location    "2600";
    object      T;
}
// * * * * * * * * * * * * * * * * * * * * * * * * * * * * * * * * * * * * * //

dimensions      [0 0 0 1 0 0 0];

internalField   nonuniform List<scalar> 
34480
(
278.154
277.709
277.264
276.799
276.288
275.736
275.271
275.289
276.385
280.272
277.442
276.921
276.417
275.916
275.369
274.728
274.024
273.526
273.708
276.622
277.301
276.719
276.146
275.566
274.934
274.172
273.246
272.346
271.816
273.785
277.374
276.676
275.975
275.256
274.485
273.578
272.457
271.219
270.055
271.13
277.478
276.672
275.853
275.004
274.095
273.043
271.74
270.193
268.446
268.705
277.651
276.756
275.841
274.885
273.857
272.677
271.216
269.391
267.104
266.583
277.786
276.825
275.842
274.813
273.701
272.425
270.836
268.759
265.94
264.615
277.944
276.945
275.926
274.858
273.701
272.377
270.718
268.447
265.117
262.924
278.049
277.034
275.993
274.891
273.685
272.306
270.584
268.154
264.293
261.2
278.906
277.893
276.845
275.733
274.522
273.15
271.446
268.975
264.61
260.407
279.629
279.448
279.352
279.36
279.501
279.829
280.423
281.39
282.988
286.175
278.449
278.175
277.977
277.882
277.914
278.116
278.585
279.465
280.976
284.328
277.95
277.605
277.325
277.128
277.038
277.087
277.368
278.064
279.413
282.879
277.716
277.271
276.879
276.555
276.327
276.229
276.346
276.87
278.04
281.524
277.559
277.025
276.535
276.101
275.75
275.52
275.49
275.846
276.833
280.284
277.504
276.896
276.33
275.809
275.359
275.018
274.861
275.064
275.883
279.311
277.448
276.79
276.173
275.595
275.074
274.649
274.386
274.439
275.073
278.433
277.466
276.779
276.134
275.522
274.961
274.481
274.138
274.055
274.476
277.668
277.49
276.792
276.132
275.495
274.892
274.352
273.93
273.718
273.881
276.769
278.261
277.559
276.888
276.24
275.627
275.076
274.625
274.339
274.197
276.495
280.781
280.686
280.685
280.792
281.028
281.426
282.025
282.869
284.031
285.65
279.462
279.279
279.186
279.206
279.371
279.728
280.344
281.306
282.733
284.8
278.838
278.579
278.401
278.329
278.39
278.64
279.169
280.112
281.654
284.134
278.499
278.143
277.861
277.671
277.612
277.741
278.166
279.062
280.675
283.511
278.262
277.82
277.443
277.148
276.975
276.986
277.299
278.123
279.76
282.883
278.142
277.627
277.171
276.789
276.519
276.425
276.632
277.371
279.002
282.347
278.038
277.469
276.957
276.512
276.168
275.986
276.095
276.734
278.316
281.807
278.012
277.409
276.863
276.376
275.98
275.731
275.754
276.283
277.768
281.322
277.998
277.383
276.82
276.307
275.866
275.551
275.48
275.884
277.231
280.795
278.705
278.087
277.513
276.99
276.538
276.209
276.09
276.389
277.536
280.993
281.573
281.529
281.565
281.69
281.914
282.246
282.691
283.242
283.881
284.635
280.262
280.149
280.123
280.2
280.403
280.757
281.293
282.036
282.999
284.153
279.588
279.404
279.306
279.315
279.457
279.771
280.31
281.134
282.302
283.827
279.183
278.912
278.723
278.639
278.694
278.938
279.448
280.323
281.669
283.567
278.886
278.534
278.26
278.084
278.049
278.212
278.671
279.562
281.049
283.286
278.714
278.29
277.941
277.684
277.566
277.65
278.049
278.936
280.533
283.074
278.566
278.088
277.682
277.364
277.177
277.188
277.523
278.38
280.044
282.835
278.504
277.99
277.545
277.183
276.941
276.89
277.157
277.961
279.642
282.618
278.467
277.938
277.476
277.086
276.803
276.691
276.877
277.594
279.237
282.366
279.13
278.597
278.121
277.717
277.418
277.287
277.43
278.066
279.593
282.793
282.048
282.026
282.064
282.162
282.325
282.551
282.835
283.152
283.457
283.736
280.848
280.779
280.783
280.868
281.046
281.327
281.72
282.221
282.809
283.422
280.198
280.07
280.02
280.065
280.221
280.51
280.957
281.576
282.363
283.248
279.774
279.571
279.45
279.429
279.535
279.802
280.273
280.991
281.978
283.165
279.447
279.172
278.978
278.886
278.93
279.155
279.625
280.413
281.582
283.072
279.241
278.899
278.638
278.478
278.459
278.635
279.09
279.929
281.26
283.046
279.064
278.669
278.354
278.138
278.062
278.189
278.615
279.478
280.939
282.991
278.975
278.542
278.189
277.929
277.805
277.882
278.269
279.128
280.678
282.957
278.919
278.47
278.097
277.811
277.652
277.681
278.012
278.828
280.413
282.894
279.541
279.086
278.698
278.397
278.22
278.23
278.53
279.304
280.848
283.465
282.294
282.283
282.31
282.377
282.482
282.622
282.788
282.958
283.082
283.125
281.25
281.209
281.222
281.294
281.429
281.628
281.89
282.205
282.551
282.882
280.671
280.584
280.562
280.616
280.754
280.986
281.318
281.747
282.25
282.765
280.265
280.117
280.043
280.056
280.173
280.415
280.8
281.338
282.016
282.752
279.934
279.724
279.592
279.554
279.636
279.868
280.285
280.916
281.767
282.741
279.713
279.444
279.254
279.164
279.205
279.416
279.851
280.562
281.581
282.804
279.519
279.2
278.963
278.825
278.825
279.01
279.447
280.215
281.385
282.847
279.413
279.056
278.782
278.606
278.568
278.721
279.146
279.945
281.235
282.917
279.343
278.967
278.673
278.474
278.407
278.527
278.923
279.719
281.083
282.968
279.929
279.547
279.237
279.022
278.939
279.042
279.42
280.205
281.58
283.614
282.39
282.382
282.399
282.439
282.502
282.582
282.674
282.759
282.79
282.709
281.506
281.481
281.494
281.546
281.639
281.771
281.936
282.126
282.325
282.506
281.022
280.963
280.955
281.004
281.112
281.283
281.514
281.798
282.111
282.415
280.658
280.553
280.508
280.535
280.642
280.839
281.131
281.514
281.965
282.423
280.344
280.188
280.1
280.095
280.187
280.395
280.735
281.211
281.807
282.442
280.126
279.917
279.784
279.741
279.81
280.02
280.397
280.961
281.709
282.537
279.927
279.674
279.5
279.42
279.464
279.666
280.067
280.704
281.595
282.62
279.813
279.524
279.316
279.206
279.223
279.41
279.82
280.509
281.524
282.739
279.732
279.424
279.197
279.066
279.063
279.231
279.634
280.345
281.449
282.841
280.287
279.971
279.729
279.583
279.566
279.723
280.12
280.841
281.983
283.507
282.395
282.389
282.398
282.421
282.455
282.5
282.549
282.588
282.572
282.426
281.656
281.64
281.649
281.684
281.744
281.826
281.926
282.038
282.151
282.252
281.269
281.231
281.229
281.266
281.345
281.463
281.618
281.799
281.992
282.174
280.961
280.887
280.862
280.891
280.978
281.128
281.339
281.601
281.896
282.184
280.68
280.565
280.509
280.519
280.605
280.777
281.038
281.384
281.793
282.208
280.476
280.319
280.227
280.212
280.291
280.477
280.784
281.213
281.746
282.307
280.283
280.086
279.961
279.921
279.987
280.18
280.522
281.026
281.683
282.397
280.169
279.94
279.787
279.723
279.773
279.964
280.329
280.893
281.662
282.528
280.082
279.834
279.664
279.583
279.619
279.804
280.176
280.776
281.632
282.641
280.61
280.353
280.169
280.076
280.101
280.28
280.655
281.277
282.182
283.297
282.352
282.347
282.351
282.363
282.382
282.406
282.431
282.446
282.408
282.228
281.732
281.722
281.728
281.749
281.785
281.835
281.894
281.959
282.023
282.079
281.436
281.411
281.411
281.437
281.491
281.57
281.669
281.783
281.901
282.01
281.186
281.136
281.121
281.146
281.213
281.321
281.467
281.643
281.834
282.015
280.945
280.863
280.827
280.843
280.916
281.05
281.243
281.487
281.762
282.034
280.766
280.649
280.587
280.589
280.663
280.818
281.056
281.372
281.745
282.123
280.586
280.436
280.348
280.333
280.404
280.573
280.851
281.235
281.709
282.203
280.48
280.302
280.192
280.16
280.224
280.401
280.707
281.15
281.718
282.329
280.391
280.195
280.07
280.025
280.081
280.259
280.582
281.066
281.71
282.43
280.893
280.69
280.552
280.498
280.547
280.724
281.056
281.566
282.258
283.058
282.287
282.283
282.284
282.29
282.3
282.313
282.326
282.328
282.282
282.084
281.762
281.756
281.758
281.771
281.792
281.821
281.855
281.892
281.928
281.96
281.543
281.526
281.527
281.545
281.579
281.63
281.693
281.763
281.835
281.9
281.348
281.313
281.305
281.324
281.372
281.447
281.546
281.662
281.784
281.898
281.15
281.092
281.069
281.085
281.143
281.242
281.38
281.548
281.732
281.909
280.999
280.914
280.873
280.882
280.946
281.067
281.245
281.472
281.729
281.983
280.837
280.725
280.665
280.664
280.73
280.87
281.086
281.37
281.706
282.044
280.745
280.61
280.532
280.52
280.585
280.738
280.984
281.321
281.732
282.157
280.657
280.506
280.415
280.394
280.456
280.615
280.881
281.257
281.73
282.236
281.135
280.978
280.877
280.849
280.908
281.069
281.347
281.749
282.263
282.829
282.216
282.212
282.213
282.216
282.221
282.227
282.234
282.231
282.182
281.976
281.765
281.76
281.762
281.769
281.781
281.797
281.817
281.837
281.857
281.875
281.609
281.598
281.598
281.609
281.631
281.662
281.701
281.744
281.787
281.826
281.46
281.437
281.431
281.445
281.478
281.529
281.594
281.668
281.746
281.818
281.303
281.263
281.249
281.263
281.305
281.376
281.471
281.585
281.706
281.821
281.182
281.122
281.095
281.105
281.156
281.248
281.377
281.536
281.711
281.88
281.04
280.958
280.918
280.923
280.98
281.09
281.251
281.457
281.691
281.921
280.967
280.866
280.812
280.812
280.871
280.995
281.185
281.434
281.725
282.019
280.88
280.766
280.702
280.696
280.755
280.888
281.098
281.38
281.721
282.072
281.336
281.217
281.146
281.134
281.193
281.33
281.552
281.859
282.232
282.625
282.147
282.144
282.143
282.145
282.147
282.151
282.154
282.149
282.102
281.895
281.753
281.75
281.75
281.754
281.761
281.77
281.781
281.792
281.803
281.813
281.647
281.64
281.639
281.646
281.659
281.678
281.702
281.727
281.753
281.777
281.534
281.519
281.515
281.525
281.546
281.579
281.621
281.669
281.717
281.763
281.415
281.388
281.379
281.39
281.42
281.469
281.533
281.608
281.687
281.762
281.322
281.28
281.262
281.272
281.311
281.377
281.468
281.577
281.694
281.806
281.199
281.141
281.114
281.122
281.167
281.25
281.367
281.513
281.673
281.828
281.148
281.075
281.038
281.043
281.092
281.189
281.33
281.51
281.712
281.912
281.063
280.979
280.935
280.936
280.988
281.094
281.253
281.46
281.699
281.941
281.497
281.409
281.359
281.358
281.41
281.522
281.692
281.918
282.183
282.453
282.083
282.08
282.079
282.08
282.082
282.083
282.085
282.08
282.036
281.832
281.734
281.732
281.732
281.734
281.738
281.743
281.749
281.755
281.761
281.767
281.668
281.663
281.663
281.667
281.675
281.686
281.7
281.715
281.73
281.744
281.581
281.571
281.569
281.575
281.589
281.61
281.636
281.666
281.696
281.724
281.496
281.477
281.472
281.479
281.5
281.532
281.575
281.624
281.675
281.722
281.427
281.398
281.387
281.395
281.422
281.469
281.531
281.604
281.682
281.755
281.322
281.281
281.264
281.271
281.306
281.366
281.448
281.548
281.656
281.76
281.293
281.241
281.217
281.223
281.262
281.334
281.436
281.562
281.7
281.835
281.208
281.147
281.118
281.123
281.165
281.246
281.363
281.509
281.675
281.838
281.62
281.557
281.523
281.527
281.57
281.656
281.783
281.945
282.128
282.311
282.025
282.022
282.022
282.022
282.023
282.024
282.025
282.021
281.982
281.784
281.712
281.711
281.711
281.712
281.714
281.717
281.72
281.724
281.727
281.73
281.679
281.676
281.676
281.678
281.683
281.689
281.697
281.706
281.715
281.724
281.609
281.602
281.601
281.605
281.613
281.626
281.643
281.661
281.68
281.697
281.552
281.54
281.536
281.541
281.555
281.576
281.603
281.635
281.667
281.697
281.503
281.483
281.476
281.482
281.502
281.533
281.575
281.623
281.673
281.72
281.414
281.386
281.375
281.381
281.406
281.448
281.504
281.572
281.643
281.712
281.407
281.371
281.355
281.362
281.391
281.443
281.514
281.6
281.693
281.782
281.32
281.277
281.258
281.263
281.296
281.355
281.438
281.54
281.652
281.761
281.71
281.666
281.644
281.649
281.683
281.747
281.837
281.95
282.074
282.196
281.974
281.972
281.972
281.972
281.972
281.973
281.973
281.97
281.938
281.749
281.69
281.689
281.689
281.69
281.691
281.692
281.694
281.696
281.698
281.7
281.687
281.685
281.684
281.686
281.688
281.692
281.697
281.702
281.707
281.712
281.624
281.62
281.619
281.621
281.626
281.634
281.644
281.655
281.667
281.677
281.59
281.582
281.58
281.583
281.592
281.605
281.623
281.642
281.663
281.681
281.557
281.544
281.539
281.544
281.557
281.577
281.604
281.635
281.667
281.697
281.48
281.462
281.455
281.46
281.477
281.505
281.543
281.587
281.634
281.678
281.496
281.472
281.462
281.468
281.489
281.525
281.573
281.63
281.691
281.748
281.402
281.373
281.36
281.365
281.389
281.431
281.488
281.557
281.631
281.702
281.771
281.741
281.727
281.732
281.757
281.803
281.866
281.942
282.024
282.104
281.931
281.929
281.929
281.929
281.929
281.93
281.93
281.928
281.902
281.729
281.667
281.667
281.667
281.667
281.668
281.669
281.67
281.671
281.672
281.673
281.693
281.692
281.691
281.692
281.693
281.696
281.698
281.701
281.704
281.707
281.63
281.627
281.626
281.628
281.631
281.635
281.641
281.648
281.655
281.661
281.615
281.61
281.609
281.611
281.616
281.625
281.635
281.647
281.66
281.671
281.593
281.584
281.582
281.585
281.593
281.606
281.623
281.643
281.663
281.682
281.527
281.515
281.511
281.514
281.526
281.544
281.569
281.597
281.627
281.655
281.565
281.55
281.543
281.548
281.562
281.586
281.618
281.655
281.694
281.731
281.459
281.439
281.431
281.435
281.452
281.48
281.518
281.563
281.611
281.658
281.81
281.791
281.781
281.786
281.804
281.835
281.877
281.928
281.981
282.031
281.901
281.899
281.899
281.899
281.899
281.899
281.899
281.898
281.879
281.726
281.643
281.643
281.643
281.643
281.643
281.644
281.644
281.645
281.646
281.647
281.699
281.699
281.698
281.699
281.7
281.701
281.702
281.704
281.706
281.707
281.63
281.628
281.628
281.628
281.63
281.633
281.636
281.64
281.644
281.648
281.63
281.627
281.626
281.627
281.63
281.636
281.642
281.649
281.657
281.664
281.614
281.609
281.607
281.609
281.614
281.623
281.633
281.645
281.658
281.67
281.559
281.551
281.548
281.551
281.558
281.57
281.585
281.603
281.621
281.639
281.616
281.607
281.603
281.606
281.616
281.631
281.652
281.675
281.7
281.722
281.492
281.479
281.474
281.477
281.488
281.507
281.531
281.56
281.591
281.621
281.836
281.824
281.819
281.822
281.834
281.855
281.882
281.915
281.948
281.98
281.894
281.893
281.893
281.893
281.893
281.893
281.893
281.893
281.881
281.756
281.613
281.612
281.612
281.612
281.613
281.613
281.613
281.613
281.614
281.614
281.704
281.704
281.704
281.704
281.705
281.706
281.707
281.708
281.709
281.71
281.626
281.625
281.625
281.625
281.626
281.627
281.629
281.631
281.634
281.636
281.636
281.634
281.633
281.634
281.636
281.639
281.643
281.648
281.652
281.657
281.623
281.62
281.619
281.62
281.624
281.629
281.635
281.643
281.65
281.658
281.577
281.573
281.571
281.573
281.577
281.584
281.594
281.605
281.616
281.626
281.647
281.641
281.639
281.641
281.647
281.657
281.671
281.686
281.701
281.715
281.5
281.492
281.489
281.491
281.498
281.51
281.526
281.544
281.563
281.582
281.865
281.858
281.855
281.857
281.865
281.878
281.896
281.917
281.937
281.957
281.936
281.929
281.929
281.93
281.93
281.931
281.932
281.932
281.928
281.841
281.568
281.568
281.567
281.567
281.567
281.567
281.566
281.566
281.566
281.565
281.701
281.701
281.702
281.702
281.703
281.703
281.705
281.706
281.707
281.708
281.622
281.621
281.621
281.621
281.621
281.622
281.623
281.624
281.625
281.626
281.635
281.634
281.634
281.634
281.636
281.638
281.64
281.643
281.646
281.649
281.624
281.622
281.621
281.622
281.624
281.627
281.631
281.636
281.641
281.645
281.586
281.583
281.582
281.583
281.586
281.59
281.596
281.603
281.609
281.616
281.65
281.646
281.644
281.646
281.65
281.657
281.665
281.676
281.687
281.696
281.477
281.472
281.47
281.472
281.477
281.484
281.494
281.505
281.516
281.529
281.916
281.911
281.909
281.91
281.916
281.924
281.936
281.95
281.963
281.977
281.998
281.999
281.999
282
282.002
282.004
282.007
282.01
282.014
281.984
281.505
281.505
281.504
281.504
281.503
281.502
281.5
281.499
281.496
281.494
281.687
281.687
281.687
281.688
281.689
281.689
281.691
281.692
281.694
281.696
281.62
281.62
281.619
281.619
281.619
281.62
281.62
281.621
281.621
281.621
281.632
281.631
281.631
281.631
281.632
281.634
281.635
281.637
281.639
281.642
281.62
281.619
281.618
281.619
281.62
281.622
281.625
281.629
281.632
281.636
281.589
281.586
281.586
281.586
281.588
281.592
281.596
281.601
281.605
281.609
281.625
281.621
281.62
281.621
281.625
281.63
281.636
281.644
281.653
281.662
281.425
281.421
281.42
281.421
281.425
281.43
281.437
281.445
281.451
281.457
281.983
281.977
281.975
281.976
281.981
281.987
281.996
282.006
282.017
282.03
292.013
296.752
297.819
295.39
291.291
296.399
297.709
295.608
291.308
296.707
298.292
296.947
291.291
296.909
298.851
298.453
291.329
297.09
299.354
299.622
291.301
297.043
299.425
299.737
291.203
296.86
299.293
299.679
291.141
296.688
299.182
299.785
290.856
296.312
298.913
299.836
290.674
296.079
298.854
300.213
291.566
293.116
293.359
292.356
291.085
292.843
293.147
292.148
291.273
293.185
293.653
292.776
291.531
293.596
294.274
293.604
291.844
294.038
294.874
294.41
292.384
294.666
295.597
295.288
292.916
295.231
296.204
296.04
293.387
295.684
296.647
296.515
293.572
295.861
296.857
296.823
293.698
296.083
297.26
297.489
287.701
288.397
288.61
288.266
287.096
288.001
288.282
287.894
287.232
288.265
288.627
288.337
287.534
288.698
289.164
288.998
287.902
289.186
289.755
289.686
288.388
289.763
290.39
290.353
288.865
290.315
290.987
290.995
289.351
290.851
291.561
291.642
289.683
291.201
291.962
292.159
290.189
291.682
292.558
293.006
285.871
286.137
286.249
286.205
285.143
285.585
285.751
285.656
285.2
285.73
285.962
285.923
285.44
286.071
286.381
286.401
285.739
286.466
286.849
286.919
286.17
286.986
287.433
287.554
286.615
287.512
288.017
288.192
287.094
288.058
288.616
288.858
287.524
288.523
289.133
289.465
288.335
289.303
289.979
290.498
284.647
284.72
284.787
284.847
283.873
284.097
284.206
284.203
283.883
284.164
284.322
284.362
284.067
284.417
284.633
284.72
284.298
284.719
284.991
285.125
284.648
285.14
285.467
285.651
285.015
285.573
285.954
286.189
285.43
286.049
286.483
286.775
285.821
286.481
286.961
287.33
286.625
287.265
287.796
288.33
283.913
283.893
283.932
284.029
283.113
283.234
283.302
283.319
283.094
283.252
283.355
283.403
283.232
283.436
283.581
283.666
283.41
283.665
283.852
283.976
283.702
284.008
284.24
284.404
284.008
284.366
284.641
284.846
284.366
284.772
285.089
285.338
284.71
285.147
285.501
285.807
285.496
285.92
286.304
286.733
283.439
283.372
283.395
283.507
282.633
282.701
282.742
282.759
282.599
282.69
282.756
282.795
282.698
282.821
282.917
282.983
282.833
282.991
283.117
283.213
283.071
283.265
283.425
283.551
283.319
283.55
283.743
283.9
283.619
283.885
284.109
284.299
283.906
284.194
284.442
284.673
284.649
284.931
285.2
285.514
283.124
283.03
283.043
283.163
282.326
282.365
282.39
282.402
282.281
282.336
282.378
282.405
282.35
282.427
282.488
282.535
282.448
282.549
282.633
282.701
282.64
282.766
282.873
282.964
282.837
282.988
283.12
283.233
283.085
283.26
283.414
283.55
283.313
283.503
283.674
283.836
284.009
284.197
284.38
284.597
282.901
282.792
282.799
282.924
282.124
282.147
282.162
282.171
282.074
282.108
282.134
282.152
282.118
282.166
282.206
282.237
282.186
282.251
282.306
282.353
282.337
282.419
282.492
282.554
282.487
282.588
282.677
282.756
282.69
282.806
282.91
283.005
282.863
282.989
283.105
283.216
283.509
283.635
283.759
283.904
282.735
282.615
282.619
282.748
281.989
282.002
282.012
282.017
281.939
281.959
281.975
281.987
281.962
281.993
282.019
282.039
282.006
282.048
282.085
282.116
282.122
282.176
282.225
282.268
282.232
282.298
282.359
282.413
282.395
282.472
282.543
282.608
282.52
282.605
282.683
282.758
283.116
283.201
283.284
283.381
282.605
282.477
282.48
282.612
281.895
281.903
281.909
281.912
281.85
281.862
281.872
281.88
281.858
281.878
281.894
281.908
281.884
281.911
281.936
281.956
281.971
282.007
282.039
282.068
282.045
282.089
282.13
282.166
282.176
282.228
282.275
282.319
282.261
282.318
282.37
282.42
282.808
282.864
282.92
282.984
282.497
282.364
282.365
282.501
281.828
281.833
281.836
281.838
281.791
281.799
281.805
281.81
281.788
281.8
281.811
281.82
281.802
281.82
281.836
281.849
281.866
281.889
281.911
281.93
281.91
281.94
281.967
281.991
282.016
282.051
282.083
282.113
282.066
282.104
282.14
282.173
282.567
282.604
282.642
282.684
282.404
282.268
282.268
282.407
281.778
281.781
281.783
281.784
281.753
281.757
281.761
281.764
281.741
281.748
281.755
281.761
281.748
281.76
281.77
281.779
281.794
281.809
281.823
281.836
281.814
281.834
281.852
281.868
281.903
281.926
281.948
281.967
281.922
281.948
281.972
281.993
282.38
282.405
282.43
282.457
282.321
282.183
282.183
282.322
281.739
281.741
281.742
281.742
281.729
281.731
281.734
281.736
281.708
281.712
281.717
281.72
281.713
281.721
281.727
281.733
281.745
281.755
281.764
281.773
281.747
281.76
281.772
281.782
281.826
281.841
281.855
281.869
281.817
281.834
281.85
281.864
282.235
282.252
282.268
282.286
282.244
282.107
282.107
282.244
281.707
281.708
281.709
281.709
281.715
281.716
281.718
281.719
281.684
281.687
281.689
281.691
281.692
281.696
281.7
281.704
281.713
281.72
281.725
281.731
281.701
281.709
281.717
281.724
281.777
281.787
281.796
281.804
281.741
281.752
281.762
281.771
282.124
282.135
282.145
282.157
282.171
282.039
282.039
282.172
281.679
281.68
281.68
281.68
281.709
281.709
281.71
281.711
281.665
281.667
281.669
281.67
281.678
281.68
281.683
281.685
281.692
281.696
281.699
281.703
281.67
281.675
281.68
281.684
281.748
281.755
281.76
281.766
281.684
281.692
281.699
281.704
282.04
282.047
282.054
282.061
282.106
281.984
281.984
282.106
281.651
281.652
281.652
281.652
281.708
281.709
281.709
281.71
281.65
281.651
281.652
281.653
281.668
281.669
281.671
281.672
281.676
281.678
281.68
281.682
281.648
281.651
281.654
281.657
281.733
281.737
281.741
281.744
281.64
281.645
281.649
281.652
281.982
281.986
281.99
281.995
282.057
281.952
281.952
282.058
281.618
281.618
281.619
281.618
281.711
281.711
281.711
281.712
281.637
281.638
281.638
281.639
281.659
281.66
281.661
281.662
281.662
281.663
281.665
281.666
281.632
281.634
281.636
281.637
281.722
281.725
281.727
281.729
281.597
281.601
281.603
281.605
281.956
281.959
281.961
281.964
282.046
281.969
281.969
282.046
281.568
281.568
281.569
281.569
281.709
281.71
281.71
281.71
281.627
281.627
281.627
281.628
281.65
281.651
281.652
281.652
281.648
281.649
281.65
281.651
281.618
281.62
281.621
281.622
281.703
281.705
281.706
281.707
281.541
281.544
281.546
281.546
281.976
281.977
281.979
281.981
282.071
282.037
282.037
282.071
281.494
281.493
281.493
281.494
281.698
281.698
281.699
281.698
281.621
281.621
281.621
281.622
281.643
281.644
281.644
281.644
281.638
281.639
281.639
281.64
281.61
281.611
281.612
281.613
281.672
281.674
281.675
281.675
281.462
281.464
281.465
281.466
282.032
282.034
282.035
282.036
287.129
284.077
282.674
281.844
281.183
280.581
280.021
279.516
279.046
278.598
287.405
284.942
283.336
282.168
281.211
280.424
279.736
279.113
278.532
277.978
288.625
285.998
283.931
282.607
281.513
280.618
279.835
279.131
278.483
277.883
290.095
287.096
284.863
283.38
282.161
281.158
280.274
279.472
278.73
278.05
291.406
288.152
285.766
284.116
282.785
281.678
280.701
279.812
278.986
278.24
293.034
289.249
286.706
284.89
283.447
282.237
281.171
280.201
279.298
278.489
294.62
290.215
287.52
285.539
283.99
282.687
281.541
280.5
279.534
278.682
296.084
291.133
288.291
286.156
284.509
283.116
281.9
280.797
279.778
278.881
297.29
291.912
288.951
286.683
284.939
283.451
282.159
280.997
279.937
279.006
298.768
293.218
290.203
287.864
286.029
284.467
283.11
281.888
280.779
279.797
288.403
285.949
284.354
283.167
282.265
281.564
281.004
280.547
280.174
279.872
288.233
285.691
283.88
282.556
281.563
280.792
280.164
279.636
279.182
278.789
288.523
285.815
283.804
282.435
281.395
280.573
279.888
279.3
278.789
278.344
289.089
286.27
284.155
282.733
281.618
280.721
279.958
279.292
278.704
278.189
289.696
286.808
284.594
283.077
281.877
280.899
280.061
279.325
278.67
278.098
290.518
287.48
285.137
283.5
282.208
281.149
280.24
279.441
278.724
278.101
291.387
288.072
285.599
283.827
282.453
281.319
280.353
279.502
278.742
278.084
292.383
288.619
286.059
284.15
282.712
281.515
280.503
279.612
278.819
278.132
293.307
289.022
286.457
284.419
282.935
281.676
280.622
279.697
278.884
278.176
294.691
289.885
287.479
285.36
283.844
282.536
281.445
280.484
279.643
278.906
286.58
285.421
284.481
283.674
282.981
282.396
281.91
281.511
281.193
280.952
286.605
285.208
284.014
283.017
282.188
281.501
280.929
280.452
280.054
279.725
286.905
285.329
283.95
282.847
281.939
281.189
280.557
280.018
279.558
279.167
287.439
285.744
284.231
283.038
282.05
281.226
280.52
279.906
279.369
278.906
287.997
286.239
284.596
283.305
282.231
281.328
280.549
279.865
279.26
278.736
288.763
286.864
285.081
283.673
282.508
281.524
280.674
279.925
279.257
278.677
289.58
287.435
285.511
283.975
282.723
281.664
280.752
279.95
279.233
278.614
290.495
287.969
285.939
284.272
282.951
281.828
280.868
280.025
279.273
278.622
291.362
288.338
286.283
284.489
283.118
281.938
280.941
280.068
279.299
278.627
292.669
289.124
287.212
285.339
283.945
282.729
281.706
280.807
280.018
279.323
285.15
284.695
284.192
283.677
283.195
282.767
282.401
282.098
281.859
281.685
285.22
284.498
283.749
283.05
282.427
281.886
281.423
281.033
280.712
280.454
285.481
284.622
283.717
282.898
282.18
281.559
281.023
280.564
280.174
279.848
285.968
285.006
283.971
283.049
282.239
281.536
280.921
280.385
279.917
279.519
286.5
285.458
284.3
283.274
282.373
281.587
280.896
280.287
279.75
279.289
287.191
286.038
284.751
283.609
282.612
281.742
280.977
280.3
279.698
279.177
287.914
286.583
285.163
283.894
282.805
281.856
281.025
280.292
279.638
279.074
288.729
287.105
285.577
284.18
283.014
281.998
281.116
280.339
279.647
279.048
289.527
287.482
285.915
284.387
283.164
282.09
281.17
280.362
279.652
279.031
290.773
288.283
286.81
285.2
283.951
282.843
281.9
281.069
280.339
279.697
284.015
283.924
283.703
283.418
283.124
282.849
282.605
282.399
282.236
282.119
284.061
283.718
283.298
282.86
282.439
282.053
281.711
281.418
281.175
280.984
284.261
283.842
283.306
282.758
282.237
281.762
281.339
280.971
280.657
280.398
284.673
284.192
283.551
282.9
282.283
281.719
281.213
280.765
280.375
280.044
285.139
284.603
283.86
283.106
282.394
281.744
281.159
280.637
280.176
279.781
285.748
285.135
284.284
283.419
282.611
281.874
281.211
280.619
280.091
279.636
286.385
285.646
284.68
283.694
282.791
281.973
281.241
280.588
280.006
279.504
287.095
286.147
285.082
283.974
282.99
282.101
281.314
280.615
279.992
279.453
287.79
286.521
285.407
284.174
283.128
282.181
281.354
280.624
279.98
279.418
288.938
287.336
286.27
284.955
283.88
282.9
282.05
281.298
280.636
280.052
283.279
283.355
283.279
283.131
282.963
282.797
282.646
282.515
282.411
282.339
283.271
283.11
282.88
282.619
282.351
282.093
281.857
281.65
281.478
281.343
283.401
283.205
282.901
282.552
282.195
281.852
281.537
281.257
281.017
280.819
283.721
283.498
283.12
282.683
282.237
281.808
281.411
281.053
280.74
280.475
284.099
283.85
283.398
282.871
282.335
281.821
281.345
280.913
280.531
280.204
284.607
284.32
283.786
283.161
282.533
281.934
281.38
280.878
280.429
280.042
285.139
284.778
284.154
283.423
282.703
282.022
281.398
280.833
280.328
279.893
285.733
285.241
284.534
283.694
282.893
282.142
281.46
280.847
280.299
279.824
286.309
285.598
284.839
283.886
283.022
282.214
281.491
280.845
280.273
279.775
287.349
286.414
285.668
284.64
283.744
282.902
282.156
281.489
280.898
280.379
282.794
282.949
282.946
282.875
282.783
282.688
282.6
282.522
282.459
282.417
282.743
282.667
282.545
282.395
282.232
282.068
281.914
281.776
281.66
281.568
282.817
282.727
282.558
282.344
282.11
281.875
281.651
281.449
281.273
281.128
283.051
282.956
282.74
282.458
282.148
281.836
281.538
281.264
281.022
280.817
283.339
283.241
282.975
282.621
282.234
281.843
281.47
281.126
280.819
280.557
283.747
283.638
283.317
282.883
282.414
281.944
281.497
281.084
280.712
280.392
284.172
284.031
283.645
283.123
282.57
282.022
281.505
281.031
280.604
280.237
284.655
284.442
283.993
283.379
282.75
282.134
281.561
281.037
280.567
280.159
285.11
284.763
284.265
283.559
282.869
282.199
281.584
281.027
280.531
280.1
286.041
285.56
285.056
284.285
283.562
282.859
282.22
281.642
281.127
280.674
282.473
282.664
282.696
282.666
282.617
282.565
282.515
282.47
282.435
282.411
282.395
282.36
282.296
282.212
282.116
282.016
281.919
281.83
281.755
281.696
282.427
282.387
282.294
282.166
282.018
281.862
281.71
281.569
281.446
281.344
282.591
282.555
282.434
282.257
282.049
281.83
281.614
281.412
281.231
281.079
282.802
282.774
282.622
282.391
282.119
281.833
281.551
281.285
281.046
280.842
283.12
283.097
282.91
282.618
282.277
281.921
281.571
281.242
280.944
280.687
283.449
283.42
283.189
282.828
282.415
281.989
281.574
281.187
280.836
280.534
283.831
283.771
283.495
283.061
282.583
282.094
281.625
281.19
280.796
280.455
284.176
284.044
283.729
283.223
282.69
282.151
281.642
281.174
280.754
280.389
285.008
284.805
284.476
283.918
283.352
282.782
282.249
281.76
281.322
280.935
282.254
282.461
282.508
282.498
282.474
282.446
282.418
282.393
282.374
282.361
282.166
282.149
282.116
282.07
282.015
281.955
281.897
281.842
281.795
281.758
282.169
282.152
282.102
282.026
281.935
281.835
281.735
281.641
281.557
281.487
282.279
282.268
282.201
282.092
281.956
281.807
281.656
281.512
281.382
281.271
282.427
282.428
282.343
282.195
282.01
281.806
281.599
281.401
281.221
281.067
282.669
282.682
282.576
282.384
282.144
281.881
281.616
281.362
281.129
280.928
282.916
282.936
282.801
282.558
282.259
281.936
281.613
281.306
281.025
280.784
283.213
283.226
283.062
282.765
282.411
282.034
281.661
281.309
280.988
280.71
283.466
283.447
283.255
282.904
282.503
282.082
281.672
281.288
280.942
280.641
284.212
284.161
283.954
283.563
283.132