/*--------------------------------*- C++ -*----------------------------------*\
| =========                 |                                                 |
| \\      /  F ield         | foam-extend: Open Source CFD                    |
|  \\    /   O peration     | Version:     4.0                                |
|   \\  /    A nd           | Web:         http://www.foam-extend.org         |
|    \\/     M anipulation  |                                                 |
\*---------------------------------------------------------------------------*/
FoamFile
{
    version     2.0;
    format      ascii;
    class       volVectorField;
    location    "2600";
    object      U;
}
// * * * * * * * * * * * * * * * * * * * * * * * * * * * * * * * * * * * * * //

dimensions      [0 1 -1 0 0 0 0];

internalField   nonuniform List<vector> 
34480
(
(212.106 7.0671 2.31139)
(213.716 5.25289 -1.77403)
(215.131 3.65265 -6.58282)
(216.363 2.27174 -12.3998)
(217.386 1.11898 -19.6238)
(217.967 0.21201 -28.7395)
(217.242 -0.417059 -40.0987)
(212.897 -0.831878 -54.2069)
(200.035 -1.35746 -73.6019)
(167.925 -1.95276 -94.217)
(214.233 10.7564 2.6035)
(216.148 9.67237 -0.76358)
(217.834 8.58583 -4.59153)
(219.282 7.5247 -9.15539)
(220.573 6.48128 -14.9267)
(221.676 5.42976 -22.6037)
(222.073 4.36749 -32.981)
(219.993 3.28199 -46.9054)
(210.883 1.85385 -68.0979)
(180.443 -0.146073 -96.4794)
(215.428 10.1985 4.88057)
(217.611 9.42328 1.93914)
(219.613 8.56646 -1.37461)
(221.44 7.65613 -5.33022)
(223.164 6.69756 -10.3661)
(224.864 5.65241 -17.2918)
(226.228 4.501 -27.1978)
(225.77 3.25618 -41.2469)
(219.383 1.62628 -63.8797)
(190.57 -0.710827 -98.7017)
(215.712 10.4738 6.68645)
(218.372 9.77494 3.88944)
(220.885 8.96837 0.718262)
(223.261 8.09086 -3.0629)
(225.525 7.14155 -7.84713)
(227.767 6.08091 -14.4349)
(229.809 4.87797 -24.0677)
(230.444 3.54015 -38.2459)
(225.989 1.75913 -61.953)
(198.231 -0.88525 -101.553)
(215.908 9.77375 8.56657)
(218.993 8.96235 5.85299)
(221.948 8.03233 2.69801)
(224.802 7.04565 -1.04756)
(227.554 5.97882 -5.77854)
(230.277 4.79109 -12.2431)
(232.866 3.43769 -21.7624)
(234.355 1.91966 -36.1651)
(231.392 -0.0954416 -60.896)
(204.23 -3.1446 -104.296)
(215.741 10.0499 9.3964)
(219.153 9.14472 6.78617)
(222.433 8.10905 3.69578)
(225.639 7.03691 0.0210735)
(228.767 5.89981 -4.64413)
(231.871 4.66773 -10.9957)
(234.885 3.29221 -20.3882)
(237.043 1.75777 -34.9618)
(235.238 -0.335369 -60.6291)
(208.281 -3.68806 -107.231)
(215.728 9.02057 10.4295)
(219.352 7.92176 7.89009)
(222.821 6.71044 4.81105)
(226.23 5.49337 1.15999)
(229.58 4.22566 -3.48226)
(232.928 2.8905 -9.75502)
(236.254 1.45524 -19.0203)
(239.003 -0.0665191 -33.7153)
(238.289 -2.04175 -60.2253)
(211.649 -5.24472 -109.575)
(215.473 9.25065 10.1765)
(219.184 8.03853 7.7977)
(222.712 6.74222 4.86349)
(226.173 5.46343 1.34956)
(229.577 4.16374 -3.14193)
(232.987 2.84957 -9.18798)
(236.447 1.53315 -18.1083)
(239.67 0.264834 -32.5618)
(240.102 -1.30803 -59.456)
(214.219 -4.03246 -110.931)
(215.494 7.32584 10.6416)
(219.216 5.95793 8.4238)
(222.744 4.58614 5.58626)
(226.224 3.26169 2.11968)
(229.657 1.92604 -2.37745)
(233.086 0.597838 -8.3923)
(236.579 -0.656356 -17.1363)
(240.12 -1.68583 -31.3071)
(241.63 -2.58576 -58.4549)
(216.605 -4.102 -111.348)
(214.418 6.91308 10.0464)
(218.15 5.46747 8.17796)
(221.698 4.02071 5.64281)
(225.182 2.63646 2.42435)
(228.556 1.31551 -1.85745)
(231.834 0.107911 -7.65803)
(235.114 -0.877366 -16.075)
(238.696 -1.43157 -29.5094)
(241.415 -1.58219 -56.0882)
(218.282 -1.87048 -109.223)
(204.29 6.14194 1.56061)
(205.219 4.59765 -1.86973)
(205.645 3.2436 -5.77694)
(205.457 2.10561 -10.2264)
(204.465 1.18212 -15.3696)
(202.34 0.483648 -21.3318)
(198.578 0.0079328 -28.1624)
(192.522 -0.272226 -35.672)
(182.724 -0.419353 -42.8905)
(164.056 -0.559855 -45.4031)
(208.276 9.63077 1.58846)
(209.654 8.68337 -1.42718)
(210.611 7.71597 -4.82969)
(210.993 6.78505 -8.67498)
(210.662 5.89245 -13.1615)
(209.334 5.02098 -18.5793)
(206.396 4.15044 -25.3171)
(200.927 3.27399 -33.6392)
(191.476 2.35871 -43.4761)
(171.617 1.28202 -50.4692)
(210.605 9.17338 3.66765)
(212.334 8.46401 0.906016)
(213.712 7.67664 -2.1804)
(214.638 6.83792 -5.75934)
(214.976 5.97587 -9.99446)
(214.503 5.06915 -15.2712)
(212.63 4.09062 -22.1935)
(208.214 3.02138 -31.4296)
(199.591 1.82898 -43.7744)
(178.841 0.4245 -55.8125)
(211.628 9.51174 5.41684)
(213.847 8.86815 2.7437)
(215.769 8.12477 -0.265433)
(217.323 7.30188 -3.81357)
(218.346 6.42641 -8.06022)
(218.621 5.48109 -13.4046)
(217.602 4.43949 -20.5569)
(214.079 3.27299 -30.5173)
(206.239 1.91601 -44.9316)
(184.753 0.280283 -61.8754)
(212.305 8.86348 7.33357)
(214.961 8.11919 4.71297)
(217.36 7.2669 1.68104)
(219.448 6.34754 -1.90363)
(221.065 5.36333 -6.25715)
(221.989 4.29943 -11.7493)
(221.701 3.11859 -19.1583)
(218.991 1.78939 -29.7741)
(211.91 0.233021 -45.9996)
(189.779 -1.6093 -67.6744)
(212.485 9.22597 8.23357)
(215.492 8.40132 5.70249)
(218.259 7.45343 2.71567)
(220.757 6.45549 -0.831714)
(222.846 5.40138 -5.21087)
(224.296 4.29086 -10.7676)
(224.617 3.08616 -18.3211)
(222.629 1.75186 -29.411)
(216.244 0.165996 -47.0613)
(193.409 -1.76353 -72.948)
(212.716 8.24676 9.38484)
(215.967 7.246 6.91903)
(218.976 6.14107 3.93171)
(221.744 5.0212 0.387179)
(224.159 3.85945 -4.03219)
(226.002 2.66645 -9.64769)
(226.829 1.40696 -17.302)
(225.538 0.0625345 -28.771)
(219.923 -1.45637 -47.6562)
(196.592 -3.27687 -77.5007)
(212.627 8.55068 9.26098)
(216.006 7.44526 6.95813)
(219.135 6.26284 4.12057)
(222.042 5.09414 0.713424)
(224.64 3.91373 -3.58647)
(226.732 2.74643 -9.08089)
(227.937 1.58628 -16.605)
(227.297 0.444881 -28.1097)
(222.612 -0.766556 -47.7908)
(199.274 -2.38978 -81.1482)
(212.671 6.69727 9.83866)
(216.081 5.42142 7.71175)
(219.253 4.15466 4.99975)
(222.245 2.94472 1.68642)
(224.997 1.74726 -2.5979)
(227.32 0.586545 -8.13138)
(228.853 -0.513895 -15.7032)
(228.779 -1.48029 -27.2278)
(225.072 -2.19527 -47.6305)
(201.921 -3.22081 -84.015)
(211.703 6.48515 9.27345)
(215.125 5.0909 7.43985)
(218.34 3.73912 5.04438)
(221.377 2.44981 2.02395)
(224.162 1.23648 -1.96964)
(226.524 0.145026 -7.25166)
(228.176 -0.756312 -14.6346)
(228.478 -1.31583 -25.7667)
(225.913 -1.36176 -46.3571)
(203.737 -1.22799 -84.6921)
(198.505 4.90338 0.455572)
(198.998 3.72677 -2.21858)
(198.966 2.70215 -5.15288)
(198.33 1.84196 -8.36212)
(196.958 1.163 -11.8021)
(194.673 0.673313 -15.372)
(191.254 0.357838 -18.8722)
(186.468 0.163094 -21.9776)
(179.961 0.00974667 -23.9478)
(171.055 -0.208859 -23.0071)
(203.361 8.23787 0.413131)
(204.288 7.46142 -2.1415)
(204.735 6.65357 -4.9646)
(204.572 5.8622 -8.06792)
(203.627 5.0982 -11.4889)
(201.638 4.35903 -15.2143)
(198.226 3.63389 -19.171)
(192.881 2.90691 -23.1369)
(184.9 2.16276 -26.4405)
(173.287 1.36547 -27.0815)
(206.387 7.99822 2.32931)
(207.695 7.37315 -0.151472)
(208.571 6.66364 -2.91319)
(208.896 5.90407 -6.03142)
(208.506 5.11609 -9.57161)
(207.108 4.28851 -13.6383)
(204.193 3.40779 -18.3056)
(198.992 2.46014 -23.4946)
(190.413 1.43329 -28.6739)
(176.486 0.301658 -31.7283)
(207.989 8.44894 3.9468)
(209.771 7.86891 1.47322)
(211.166 7.18573 -1.30451)
(212.071 6.41901 -4.54074)
(212.288 5.5992 -8.29026)
(211.507 4.711 -12.7326)
(209.132 3.74118 -18.052)
(204.173 2.67369 -24.3471)
(195.178 1.48639 -31.3291)
(179.137 0.154659 -37.1169)
(209.101 7.86138 5.83554)
(211.312 7.18291 3.36013)
(213.175 6.39906 0.504186)
(214.598 5.53889 -2.86863)
(215.372 4.61642 -6.85686)
(215.174 3.61323 -11.6679)
(213.35 2.50572 -17.5865)
(208.733 1.27217 -24.9155)
(199.527 -0.111741 -33.6543)
(181.634 -1.63689 -42.4726)
(209.619 8.30841 6.75521)
(212.189 7.55732 4.33619)
(214.432 6.68787 1.4897)
(216.275 5.75452 -1.90554)
(217.516 4.7657 -6.01066)
(217.822 3.71428 -11.0467)
(216.507 2.57397 -17.3863)
(212.277 1.31644 -25.5496)
(203.003 -0.111216 -35.8338)
(183.511 -1.72517 -47.7098)
(210.102 7.36067 7.99184)
(212.933 6.44687 5.61602)
(215.446 5.43649 2.74415)
(217.589 4.39735 -0.688265)
(219.185 3.31857 -4.9024)
(219.902 2.20072 -10.1256)
(219.055 1.01678 -16.8076)
(215.279 -0.25751 -25.7041)
(206.136 -1.65695 -37.4524)
(185.36 -3.20637 -52.4992)
(210.204 7.72697 7.96384)
(213.189 6.71559 5.73852)
(215.86 5.6344 3.00675)
(218.191 4.55594 -0.304401)
(220.03 3.47139 -4.44059)
(221.062 2.39103 -9.63955)
(220.628 1.3063 -16.4023)
(217.367 0.210803 -25.703)
(208.599 -0.932733 -38.5859)
(186.942 -2.37352 -56.596)
(210.36 5.90719 8.625)
(213.392 4.72087 6.553)
(216.124 3.5476 3.93452)
(218.56 2.42412 0.721832)
(220.586 1.33012 -3.39225)
(221.908 0.278795 -8.66538)
(221.889 -0.709611 -15.6275)
(219.185 -1.6019 -25.3123)
(210.933 -2.29134 -39.2977)
(188.493 -3.29449 -59.8485)
(209.569 5.86759 8.1112)
(212.61 4.54725 6.28549)
(215.389 3.28898 3.95997)
(217.873 2.08543 1.02329)
(219.943 0.97058 -2.80685)
(221.327 -0.0152529 -7.81138)
(221.528 -0.804028 -14.6002)
(219.328 -1.28859 -24.1869)
(211.837 -1.30419 -38.8529)
(189.044 -1.19848 -60.8216)
(194.402 3.82622 -0.0959587)
(194.634 3.00827 -1.97584)
(194.424 2.29127 -3.97602)
(193.729 1.6877 -6.06938)
(192.491 1.21279 -8.16653)
(190.654 0.868752 -10.1443)
(188.193 0.640208 -11.8175)
(185.17 0.477028 -12.9431)
(181.724 0.29916 -13.1121)
(177.8 0.0197576 -11.7335)
(199.378 6.84111 -0.297072)
(199.957 6.26018 -2.29977)
(200.075 5.63652 -4.44066)
(199.643 5.00634 -6.72323)
(198.546 4.38938 -9.10092)
(196.637 3.78962 -11.4633)
(193.751 3.20087 -13.6254)
(189.748 2.61145 -15.2886)
(184.541 2.0166 -15.8844)
(178.27 1.42742 -14.6616)
(202.709 6.79118 1.32552)
(203.648 6.27411 -0.775117)
(204.136 5.66868 -3.08168)
(204.064 5.01334 -5.60385)
(203.295 4.32621 -8.3418)
(201.621 3.60521 -11.251)
(198.75 2.84311 -14.1974)
(194.346 2.03055 -16.8714)
(188.079 1.16262 -18.5551)
(179.824 0.253007 -18.1477)
(204.684 7.36479 2.70974)
(206.055 6.86742 0.525383)
(206.997 6.26297 -1.9074)
(207.394 5.57735 -4.67183)
(207.068 4.83707 -7.76835)
(205.752 4.03546 -11.218)
(203.037 3.16849 -14.9393)
(198.376 2.2272 -18.6538)
(191.165 1.20122 -21.554)
(180.891 0.103857 -22.3268)
(206.124 6.84222 4.49057)
(207.901 6.2422 2.23781)
(209.27 5.53846 -0.341884)
(210.123 4.75668 -3.35076)
(210.248 3.9153 -6.80093)
(209.336 2.99847 -10.7701)
(206.875 1.99619 -15.2417)
(202.112 0.89537 -20.0154)
(194.135 -0.316543 -24.2502)
(181.956 -1.60137 -26.6177)
(206.924 7.37359 5.36742)
(209.053 6.70501 3.12502)
(210.788 5.92292 0.5067)
(212.035 5.07024 -2.60145)
(212.564 4.16429 -6.26088)
(212.041 3.19491 -10.5849)
(209.866 2.14927 -15.6316)
(205.102 1.0091 -21.3133)
(196.503 -0.257599 -26.8022)
(182.556 -1.63583 -30.9313)
(207.63 6.45864 6.6429)
(210.026 5.63566 4.41017)
(212.038 4.72371 1.72945)
(213.586 3.77438 -1.47313)
(214.449 2.78925 -5.32009)
(214.274 1.76218 -9.95034)
(212.407 0.677812 -15.5031)
(207.759 -0.482458 -22.042)
(198.741 -1.74541 -28.8218)
(183.241 -3.09555 -34.9915)
(207.907 6.90423 6.6751)
(210.475 5.98955 4.57089)
(212.666 5.01022 2.00802)
(214.423 4.02414 -1.10667)
(215.543 3.03701 -4.93085)
(215.671 2.04957 -9.63348)
(214.129 1.057 -15.4256)
(209.723 0.0492733 -22.5453)
(200.546 -1.00685 -30.4238)
(183.792 -2.29544 -38.6408)
(208.158 5.13115 7.44375)
(210.79 4.04292 5.46606)
(213.059 2.96622 2.98984)
(214.931 1.93001 -0.0441794)
(216.238 0.933388 -3.8575)
(216.644 -0.0162421 -8.6611)
(215.473 -0.894237 -14.7454)
(211.451 -1.6855 -22.4624)
(202.348 -2.32848 -31.5361)
(184.416 -3.25679 -41.6449)
(207.485 5.26312 6.98293)
(210.135 4.03831 5.21728)
(212.464 2.88429 3.00788)
(214.401 1.77837 0.22359)
(215.78 0.770784 -3.33189)
(216.278 -0.105374 -7.88411)
(215.31 -0.777882 -13.8118)
(211.666 -1.16513 -21.5963)
(202.973 -1.14091 -31.5519)
(184.158 -1.05136 -42.6976)
(191.875 2.90992 -0.317669)
(191.988 2.37837 -1.5443)
(191.781 1.90332 -2.82103)
(191.241 1.49818 -4.1048)
(190.355 1.17341 -5.31842)
(189.122 0.929279 -6.36969)
(187.582 0.7551 -7.13783)
(185.867 0.61091 -7.50631)
(184.264 0.428829 -7.30405)
(182.948 0.127476 -6.34012)
(196.413 5.53573 -0.659568)
(196.767 5.1388 -2.12939)
(196.739 4.68873 -3.64613)
(196.28 4.21447 -5.20752)
(195.33 3.73941 -6.7453)
(193.832 3.27127 -8.14979)
(191.742 2.80991 -9.26249)
(189.072 2.34978 -9.87508)
(185.931 1.89385 -9.6824)
(182.651 1.46621 -8.45877)
(199.666 5.61454 0.643535)
(200.323 5.21064 -1.04242)
(200.57 4.7191 -2.85836)
(200.326 4.17736 -4.77965)
(199.5 3.60282 -6.76818)
(197.975 2.99918 -8.72609)
(195.624 2.36378 -10.4865)
(192.355 1.69247 -11.7753)
(188.183 0.986962 -12.1176)
(183.472 0.274665 -11.0367)
(201.772 6.29991 1.74589)
(202.803 5.89467 -0.0982016)
(203.413 5.38249 -2.12431)
(203.501 4.79229 -4.36192)
(202.935 4.14868 -6.77311)
(201.53 3.4523 -9.29349)
(199.057 2.70442 -11.7554)
(195.28 1.90234 -13.837)
(190.066 1.04385 -14.8835)
(183.752 0.160417 -14.1809)
(203.392 5.83743 3.36353)
(204.79 5.3248 1.38983)
(205.766 4.71044 -0.849727)
(206.215 4.02191 -3.40403)
(205.962 3.276 -6.24069)
(204.766 2.46451 -9.33618)
(202.294 1.58528 -12.5419)
(198.144 0.631792 -15.5251)
(191.971 -0.402418 -17.464)
(184.022 -1.46707 -17.4865)
(204.377 6.44834 4.14738)
(206.108 5.8702 2.13604)
(207.417 5.1828 -0.18923)
(208.203 4.42388 -2.91365)
(208.259 3.61452 -6.02579)
(207.303 2.74659 -9.54522)
(204.901 1.81619 -13.3597)
(200.48 0.811409 -17.1608)
(193.44 -0.2903 -19.9887)
(183.875 -1.45824 -20.8988)
(205.244 5.56642 5.41832)
(207.239 4.84028 3.37832)
(208.813 4.03071 0.949733)
(209.876 3.17986 -1.92822)
(210.209 2.29717 -5.29526)
(209.498 1.37564 -9.20254)
(207.226 0.408138 -13.5945)
(202.658 -0.619897 -18.227)
(194.902 -1.73324 -22.0551)
(183.825 -2.89667 -24.1547)
(205.659 6.09941 5.47475)
(207.835 5.28846 3.53432)
(209.595 4.41527 1.19305)
(210.866 3.52884 -1.63955)
(211.432 2.64443 -5.03967)
(210.962 1.76034 -9.0968)
(208.882 0.874618 -13.8182)
(204.316 -0.0268784 -19.0628)
(196.062 -0.97935 -23.7816)
(183.653 -2.10562 -27.1464)
(206.004 4.37195 6.33845)
(208.258 3.39222 4.49336)
(210.107 2.41966 2.20263)
(211.495 1.48079 -0.58393)
(212.229 0.586896 -4.00411)
(211.985 -0.255363 -8.19314)
(210.165 -1.02271 -13.2541)
(205.776 -1.71372 -19.1539)
(197.264 -2.29623 -24.949)
(183.593 -3.10541 -29.6309)
(205.429 4.67555 5.90441)
(207.712 3.56392 4.24384)
(209.63 2.52408 2.19118)
(211.091 1.52906 -0.378752)
(211.908 0.638058 -3.58407)
(211.758 -0.119933 -7.576)
(210.087 -0.676363 -12.5312)
(205.894 -0.968865 -18.5395)
(197.463 -0.913996 -25.1209)
(182.771 -0.833281 -30.4955)
(190.515 2.15596 -0.3572)
(190.575 1.82872 -1.11089)
(190.425 1.52751 -1.88504)
(190.064 1.26496 -2.63759)
(189.497 1.04688 -3.31716)
(188.742 0.873343 -3.86659)
(187.847 0.739001 -4.21476)
(186.939 0.614254 -4.31963)
(186.311 0.444425 -4.10333)
(186.251 0.142309 -3.53158)
(194.352 4.38325 -0.791934)
(194.566 4.13906 -1.81205)
(194.493 3.83614 -2.82692)
(194.109 3.49748 -3.83421)
(193.393 3.14619 -4.77377)
(192.336 2.79201 -5.56585)
(190.947 2.43997 -6.10675)
(189.278 2.09045 -6.27872)
(187.447 1.75147 -5.93517)
(185.687 1.4461 -5.04339)
(197.273 4.51706 0.221352)
(197.723 4.21911 -1.06623)
(197.831 3.83844 -2.42383)
(197.547 3.40791 -3.81704)
(196.821 2.94416 -5.19571)
(195.602 2.45389 -6.46213)
(193.857 1.93831 -7.47909)
(191.604 1.39816 -8.06107)
(188.955 0.840731 -7.95007)
(186.234 0.293514 -6.97131)
(199.319 5.28908 1.0343)
(200.075 4.97687 -0.456217)
(200.452 4.56216 -2.0657)
(200.375 4.0731 -3.79389)
(199.757 3.53308 -5.58451)
(198.492 2.94741 -7.34533)
(196.48 2.32072 -8.91052)
(193.663 1.65568 -10.0259)
(190.106 0.958078 -10.2797)
(186.228 0.263229 -9.32749)
(200.984 4.87442 2.45874)
(202.057 4.45218 0.793453)
(202.729 3.93286 -1.07486)
(202.91 3.34433 -3.15262)
(202.473 2.7017 -5.38519)
(201.257 2.00324 -7.69678)
(199.079 1.25125 -9.90806)
(195.775 0.445012 -11.7142)
(191.309 -0.413974 -12.5292)
(186.166 -1.27395 -11.8521)
(202.062 5.55445 3.11422)
(203.437 5.07052 1.37019)
(204.394 4.48223 -0.623608)
(204.839 3.82557 -2.91416)
(204.608 3.1208 -5.45233)
(203.492 2.36439 -8.19275)
(201.218 1.55747 -10.9589)
(197.499 0.693523 -13.4196)
(192.145 -0.239533 -14.8158)
(185.676 -1.2035 -14.5098)
(203.026 4.70355 4.34344)
(204.652 4.07794 2.53377)
(205.849 3.37335 0.399753)
(206.529 2.62718 -2.09284)
(206.5 1.85235 -4.92774)
(205.517 1.04398 -8.08813)
(203.221 0.200097 -11.4231)
(199.19 -0.689879 -14.6063)
(193.031 -1.64326 -16.729)
(185.249 -2.6126 -17.0498)
(203.537 5.32678 4.38952)
(205.345 4.62476 2.6476)
(206.722 3.86162 0.567773)
(207.588 3.08175 -1.92166)
(207.746 2.30521 -4.83368)
(206.921 1.53127 -8.18829)
(204.684 0.759585 -11.875)
(200.48 -0.0268367 -15.6103)
(193.677 -0.860272 -18.3867)
(184.673 -1.80719 -19.4004)
(203.958 3.64027 5.32531)
(205.856 2.77605 3.64492)
(207.326 1.91342 1.57482)
(208.305 1.08014 -0.912392)
(208.6 0.293624 -3.88532)
(207.931 -0.438192 -7.40195)
(205.83 -1.0957 -11.4356)
(201.622 -1.68824 -15.778)
(194.382 -2.19898 -19.4231)
(184.21 -2.85856 -21.2823)
(203.455 4.11679 4.8924)
(205.389 3.12989 3.3727)
(206.934 2.21111 1.51109)
(207.988 1.33584 -0.795237)
(208.366 0.566022 -3.60055)
(207.777 -0.0718346 -6.98268)
(205.763 -0.517636 -10.9719)
(201.594 -0.727357 -15.4269)
(194.215 -0.654247 -19.645)
(183.071 -0.570729 -21.8917)
(189.941 1.554 -0.313768)
(189.98 1.36008 -0.755596)
(189.888 1.17479 -1.20896)
(189.671 1.00939 -1.63778)
(189.337 0.866263 -2.0129)
(188.904 0.745934 -2.30194)
(188.411 0.646985 -2.46246)
(187.961 0.546514 -2.48989)
(187.83 0.398977 -2.3337)
(188.411 0.107542 -2.02519)
(193.027 3.41316 -0.792392)
(193.157 3.28325 -1.46851)
(193.088 3.09486 -2.11584)
(192.809 2.8657 -2.73516)
(192.318 2.61659 -3.28272)
(191.623 2.35771 -3.70774)
(190.749 2.09712 -3.95065)
(189.746 1.83933 -3.95266)
(188.698 1.5948 -3.64727)
(187.737 1.38116 -3.05665)
(195.484 3.53424 -0.013123)
(195.787 3.32627 -0.953627)
(195.825 3.04396 -1.9243)
(195.572 2.71418 -2.89366)
(195.004 2.35194 -3.81556)
(194.108 1.96492 -4.61343)
(192.893 1.55697 -5.19192)
(191.407 1.13217 -5.43982)
(189.759 0.700317 -5.22844)
(188.162 0.284417 -4.51105)
(197.334 4.3608 0.532162)
(197.875 4.13473 -0.623971)
(198.1 3.81393 -1.84787)
(197.957 3.42364 -3.12798)
(197.396 2.98577 -4.40639)
(196.367 2.50828 -5.59575)
(194.843 1.99796 -6.56443)
(192.843 1.4613 -7.13949)
(190.484 0.909121 -7.09088)
(188.08 0.373427 -6.27221)
(198.93 3.97719 1.75626)
(199.735 3.64199 0.400909)
(200.184 3.21717 -1.0996)
(200.208 2.72835 -2.72733)
(199.723 2.18974 -4.42079)
(198.636 1.604 -6.09069)
(196.864 0.976253 -7.57609)
(194.374 0.31034 -8.64519)
(191.253 -0.385746 -8.93392)
(187.918 -1.06582 -8.18739)
(200.014 4.71098 2.26452)
(201.083 4.31963 0.801996)
(201.763 3.83063 -0.849077)
(201.976 3.27815 -2.70277)
(201.604 2.68019 -4.69724)
(200.51 2.03786 -6.75496)
(198.544 1.35512 -8.69725)
(195.598 0.630325 -10.2447)
(191.686 -0.139138 -10.8853)
(187.328 -0.916295 -10.2415)
(201.015 3.88676 3.42401)
(202.313 3.3612 1.86552)
(203.198 2.76121 0.0460221)
(203.594 2.12158 -2.03851)
(203.351 1.45543 -4.34385)
(202.292 0.761533 -6.8112)
(200.198 0.0410976 -9.26286)
(196.865 -0.711826 -11.3917)
(192.193 -1.50521 -12.5388)
(186.773 -2.28897 -12.1978)
(201.576 4.59835 3.43085)
(203.049 4.00637 1.91003)
(204.097 3.35427 0.114632)
(204.648 2.68416 -2.00119)
(204.536 2.01716 -4.4096)
(203.552 1.35491 -7.08184)
(201.412 0.698561 -9.85745)
(197.806 0.031644 -12.432)
(192.478 -0.673417 -14.0227)
(186.034 -1.44503 -14.011)
(202.052 2.94567 4.41532)
(203.62 2.19947 2.9226)
(204.763 1.44915 1.09669)
(205.414 0.725284 -1.0615)
(205.404 0.0468541 -3.5712)
(204.509 -0.576389 -6.42826)
(202.398 -1.12822 -9.5315)
(198.663 -1.62288 -12.6137)
(192.843 -2.0517 -14.8545)
(185.416 -2.56528 -15.3597)
(201.597 3.597 3.96006)
(203.206 2.74069 2.6071)
(204.423 1.94611 0.961583)
(205.145 1.19431 -1.04931)
(205.206 0.545019 -3.4332)
(204.368 0.0226676 -6.20733)
(202.286 -0.323351 -9.31218)
(198.486 -0.464652 -12.5014)
(192.412 -0.383179 -15.1191)
(184.173 -0.298679 -15.7967)
(189.838 1.08591 -0.241222)
(189.869 0.973366 -0.490268)
(189.819 0.861126 -0.75081)
(189.697 0.759372 -0.991647)
(189.511 0.667892 -1.19911)
(189.274 0.587589 -1.35556)
(189.012 0.51949 -1.43307)
(188.81 0.444528 -1.44487)
(188.922 0.322748 -1.34422)
(189.829 0.046933 -1.19447)
(192.248 2.62929 -0.728216)
(192.329 2.57767 -1.15919)
(192.28 2.47227 -1.55454)
(192.096 2.32631 -1.9187)
(191.781 2.15765 -2.22357)
(191.347 1.97594 -2.43897)
(190.817 1.79019 -2.53271)
(190.229 1.60666 -2.47699)
(189.633 1.43645 -2.24268)
(189.101 1.29203 -1.85928)
(194.211 2.68805 -0.121678)
(194.413 2.54966 -0.783035)
(194.422 2.34785 -1.45215)
(194.224 2.10357 -2.10372)
(193.813 1.82934 -2.70188)
(193.192 1.53255 -3.19369)
(192.382 1.21816 -3.51921)
(191.43 0.891573 -3.61655)
(190.416 0.562453 -3.4231)
(189.464 0.248461 -2.93725)
(195.79 3.53667 0.194207)
(196.17 3.38407 -0.669218)
(196.301 3.1468 -1.56358)
(196.149 2.84652 -2.47601)
(195.69 2.50312 -3.35636)
(194.909 2.12572 -4.13542)
(193.81 1.72227 -4.72075)
(192.438 1.3012 -5.00451)
(190.897 0.875096 -4.86511)
(189.39 0.470211 -4.2463)
(197.236 3.16586 1.2281)
(197.827 2.90904 0.161326)
(198.119 2.57221 -1.00257)
(198.063 2.17737 -2.23521)
(197.61 1.73784 -3.47869)
(196.714 1.259 -4.6519)
(195.351 0.747654 -5.63016)
(193.545 0.210591 -6.25439)
(191.407 -0.340896 -6.31296)
(189.232 -0.868943 -5.68718)
(198.257 3.93455 1.58554)
(199.069 3.62917 0.398081)
(199.54 3.23497 -0.923248)
(199.609 2.78263 -2.37261)
(199.197 2.28869 -3.88668)
(198.226 1.75737 -5.383)
(196.628 1.19439 -6.71022)
(194.389 0.601859 -7.65949)
(191.602 -0.0163628 -7.91167)
(188.663 -0.629578 -7.26158)
(199.241 3.1311 2.65738)
(200.254 2.70068 1.3536)
(200.893 2.20142 -0.152924)
(201.092 1.66567 -1.84032)
(200.746 1.105 -3.65673)
(199.739 0.522181 -5.52452)
(197.955 -0.079602 -7.27955)
(195.322 -0.701823 -8.6722)
(191.88 -1.34474 -9.26756)
(188.122 -1.96227 -8.74873)
(199.806 3.92498 2.60364)
(200.981 3.43964 1.31316)
(201.76 2.89598 -0.192348)
(202.078 2.33441 -1.93313)
(201.811 1.77465 -3.86091)
(200.812 1.22119 -5.91868)
(198.911 0.67667 -7.94181)
(195.968 0.127852 -9.66237)
(191.936 -0.447516 -10.5326)
(187.367 -1.05955 -10.1316)
(200.314 2.297 3.61619)
(201.584 1.66677 2.32359)
(202.451 1.02747 0.752533)
(202.854 0.412373 -1.06896)
(202.655 -0.161075 -3.1304)
(201.689 -0.681516 -5.38622)
(199.744 -1.13541 -7.70589)
(196.606 -1.53726 -9.82732)
(192.104 -1.8809 -11.1573)
(186.759 -2.26556 -11.061)
(199.885 3.1253 3.11767)
(201.196 2.40008 1.94694)
(202.133 1.72886 0.531673)
(202.597 1.0992 -1.17038)
(202.451 0.565107 -3.13717)
(201.515 0.14882 -5.34291)
(199.554 -0.111578 -7.6851)
(196.293 -0.200207 -9.89516)
(191.504 -0.118001 -11.4578)
(185.523 -0.0387564 -11.3986)
(189.986 0.728525 -0.16538)
(190.011 0.662982 -0.300874)
(189.987 0.594631 -0.450932)
(189.923 0.533185 -0.586499)
(189.823 0.476313 -0.703873)
(189.697 0.425035 -0.793463)
(189.563 0.381632 -0.834263)
(189.488 0.329159 -0.848346)
(189.712 0.231383 -0.786061)
(190.785 -0.0284385 -0.728863)
(191.847 2.01816 -0.641684)
(191.899 2.016 -0.907199)
(191.869 1.96709 -1.13813)
(191.756 1.88099 -1.34167)
(191.564 1.77269 -1.50171)
(191.304 1.65094 -1.60115)
(190.992 1.52456 -1.62322)
(190.653 1.39997 -1.55485)
(190.316 1.28767 -1.38332)
(190.018 1.19586 -1.13281)
(193.349 1.985 -0.151899)
(193.483 1.89591 -0.602951)
(193.482 1.75567 -1.0518)
(193.342 1.57989 -1.47892)
(193.06 1.37826 -1.859)
(192.648 1.15707 -2.15763)
(192.126 0.921261 -2.33916)
(191.529 0.676042 -2.37076)
(190.909 0.42942 -2.22224)
(190.339 0.194001 -1.90548)
(194.634 2.82886 -0.0210543)
(194.898 2.73432 -0.644225)
(194.973 2.56649 -1.27508)
(194.841 2.3435 -1.90342)
(194.492 2.08278 -2.48995)
(193.927 1.79354 -2.98473)
(193.163 1.48392 -3.32764)
(192.245 1.16282 -3.45545)
(191.25 0.84244 -3.30669)
(190.301 0.543145 -2.86219)
(195.882 2.45408 0.843747)
(196.308 2.26373 0.029286)
(196.494 2.00437 -0.846208)
(196.41 1.69393 -1.75255)
(196.027 1.34455 -2.64043)
(195.33 0.962936 -3.44485)
(194.324 0.556654 -4.07753)
(193.05 0.133821 -4.43693)
(191.607 -0.293682 -4.40528)
(190.186 -0.696735 -3.932)
(196.791 3.23762 1.05887)
(197.395 3.00798 0.124287)
(197.715 2.69991 -0.899484)
(197.703 2.33966 -1.99729)
(197.315 1.94259 -3.11092)
(196.51 1.51476 -4.16692)
(195.268 1.06293 -5.04996)
(193.62 0.591476 -5.61629)
(191.67 0.107624 -5.67699)
(189.692 -0.36626 -5.12824)
(197.716 2.44867 2.03454)
(198.491 2.1049 0.974097)
(198.941 1.69943 -0.238033)
(199.015 1.26067 -1.56537)
(198.645 0.799306 -2.95577)
(197.762 0.320651 -4.33134)
(196.316 -0.170763 -5.55834)
(194.308 -0.672902 -6.45215)
(191.827 -1.18133 -6.74297)
(189.234 -1.65701 -6.24445)
(198.247 3.31568 1.90692)
(199.163 2.92958 0.843425)
(199.729 2.48829 -0.382104)
(199.888 2.02983 -1.77018)
(199.553 1.57145 -3.26634)
(198.632 1.12011 -4.80188)
(197.036 0.679738 -6.23217)
(194.723 0.241192 -7.34714)
(191.749 -0.21212 -7.78773)
(188.538 -0.684967 -7.29472)
(198.766 1.70172 2.93141)
(199.773 1.18122 1.84065)
(200.415 0.648083 0.52223)
(200.64 0.137056 -0.974134)
(200.344 -0.337722 -2.62454)
(199.416 -0.76382 -4.36126)
(197.733 -1.1301 -6.0553)
(195.207 -1.44919 -7.48189)
(191.826 -1.71371 -8.24132)
(188.031 -1.99241 -7.92712)
(198.343 2.70918 2.37167)
(199.388 2.11073 1.38841)
(200.092 1.55813 0.206151)
(200.365 1.04477 -1.19102)
(200.104 0.616809 -2.76591)
(199.181 0.294115 -4.46702)
(197.452 0.104096 -6.18189)
(194.78 0.0533421 -7.66581)
(191.128 0.130124 -8.55487)
(186.858 0.198033 -8.19705)
(190.241 0.457527 -0.0960937)
(190.263 0.417893 -0.16707)
(190.254 0.374802 -0.25634)
(190.221 0.338073 -0.334678)
(190.169 0.303645 -0.404693)
(190.103 0.272491 -0.46098)
(190.037 0.247441 -0.485691)
(190.025 0.212789 -0.505935)
(190.293 0.135197 -0.467606)
(191.443 -0.110507 -0.464475)
(191.686 1.55685 -0.55622)
(191.72 1.58355 -0.714594)
(191.705 1.57101 -0.842215)
(191.639 1.52594 -0.947719)
(191.527 1.4609 -1.02321)
(191.376 1.3836 -1.05938)
(191.196 1.30215 -1.04771)
(191.003 1.22249 -0.981892)
(190.814 1.15418 -0.856311)
(190.647 1.10214 -0.687882)
(192.793 1.41769 -0.137368)
(192.882 1.36074 -0.437709)
(192.88 1.26504 -0.73318)
(192.786 1.14154 -1.009)
(192.603 0.997129 -1.24834)
(192.339 0.83669 -1.42959)
(192.011 0.664373 -1.53196)
(191.642 0.484392 -1.53825)
(191.266 0.302521 -1.43358)
(190.924 0.127062 -1.23231)
(193.802 2.23912 -0.148699)
(193.981 2.18743 -0.584388)
(194.025 2.07423 -1.01522)
(193.923 1.91445 -1.43464)
(193.673 1.72282 -1.81405)
(193.28 1.50785 -2.11929)
(192.765 1.27714 -2.31286)
(192.162 1.03905 -2.35905)
(191.524 0.804338 -2.22809)
(190.927 0.588549 -1.91505)
(194.832 1.84787 0.573329)
(195.133 1.71096 -0.0314711)
(195.252 1.51666 -0.672571)
(195.167 1.27892 -1.3227)
(194.867 1.0083 -1.94271)
(194.349 0.711796 -2.48417)
(193.63 0.396913 -2.88781)
(192.752 0.0718399 -3.09182)
(191.789 -0.252564 -3.03278)
(190.862 -0.554816 -2.69247)
(195.602 2.62733 0.663014)
(196.042 2.4613 -0.0504602)
(196.255 2.22803 -0.819591)
(196.208 1.94923 -1.62702)
(195.875 1.63875 -2.42318)
(195.242 1.30352 -3.14863)
(194.313 0.950644 -3.72089)
(193.13 0.585593 -4.04658)
(191.786 0.21667 -4.01825)
(190.46 -0.141595 -3.58765)
(196.441 1.84781 1.54163)
(197.02 1.5798 0.702306)
(197.331 1.25842 -0.246723)
(197.335 0.907358 -1.26403)
(196.989 0.53648 -2.30185)
(196.261 0.152379 -3.29153)
(195.136 -0.239681 -4.13209)
(193.647 -0.635402 -4.69554)
(191.891 -1.02835 -4.82312)
(190.114 -1.38669 -4.40921)
(196.904 2.77698 1.3345)
(197.603 2.47972 0.484134)
(198.005 2.13185 -0.482979)
(198.064 1.76752 -1.5571)
(197.723 1.40196 -2.68415)
(196.93 1.04319 -3.797)
(195.648 0.696013 -4.77901)
(193.889 0.354819 -5.47804)
(191.741 0.00833298 -5.66884)
(189.507 -0.348311 -5.20698)
(197.419 1.1653 2.36006)
(198.2 0.744884 1.46302)
(198.665 0.309976 0.383973)
(198.771 -0.105222 -0.814335)
(198.446 -0.490037 -2.10422)
(197.621 -0.831932 -3.4118)
(196.235 -1.12203 -4.62607)
(194.274 -1.37076 -5.57054)
(191.794 -1.56847 -5.99015)
(189.132 -1.7658 -5.64331)
(196.987 2.35424 1.72418)
(197.8 1.8742 0.924294)
(198.316 1.43197 -0.0328499)
(198.457 1.02545 -1.14348)
(198.15 0.691993 -2.36635)
(197.311 0.449024 -3.63851)
(195.864 0.314743 -4.85731)
(193.759 0.289586 -5.82137)
(191.05 0.356941 -6.29478)
(188.044 0.41054 -5.85612)
(190.525 0.250232 -0.0352865)
(190.543 0.224296 -0.0706856)
(190.541 0.195101 -0.12792)
(190.525 0.173019 -0.176142)
(190.498 0.152623 -0.222019)
(190.464 0.134801 -0.262256)
(190.432 0.122604 -0.280405)
(190.449 0.101203 -0.306981)
(190.725 0.0399724 -0.283011)
(191.903 -0.193791 -0.312783)
(191.669 1.21932 -0.482965)
(191.691 1.26141 -0.574051)
(191.685 1.27107 -0.63854)
(191.648 1.25296 -0.685473)
(191.584 1.21765 -0.71226)
(191.498 1.1719 -0.713992)
(191.396 1.12294 -0.686527)
(191.288 1.07605 -0.626627)
(191.183 1.03998 -0.531813)
(191.089 1.01734 -0.412625)
(192.452 0.970092 -0.100262)
(192.511 0.932342 -0.296784)
(192.51 0.867303 -0.489209)
(192.452 0.782029 -0.666384)
(192.337 0.680891 -0.817475)
(192.173 0.567269 -0.929202)
(191.97 0.444251 -0.98945)
(191.746 0.314733 -0.989082)
(191.52 0.182228 -0.920121)
(191.314 0.0514758 -0.795996)
(193.224 1.76074 -0.216776)
(193.345 1.73866 -0.511884)
(193.371 1.66641 -0.796713)
(193.299 1.5562 -1.06795)
(193.127 1.42002 -1.30612)
(192.863 1.26526 -1.48865)
(192.524 1.09846 -1.59277)
(192.134 0.926865 -1.59863)
(191.729 0.759477 -1.49238)
(191.353 0.608232 -1.27365)
(194.041 1.34646 0.389376)
(194.25 1.25053 -0.048362)
(194.325 1.10863 -0.506663)
(194.253 0.931137 -0.963208)
(194.03 0.726815 -1.38869)
(193.661 0.502167 -1.74881)
(193.162 0.264027 -2.00513)
(192.568 0.0198162 -2.12105)
(191.933 -0.221402 -2.06295)
(191.33 -0.444167 -1.82708)
(194.663 2.1053 0.375479)
(194.977 1.99032 -0.152782)
(195.117 1.81944 -0.713346)
(195.06 1.61008 -1.2906)
(194.795 1.37423 -1.84505)
(194.318 1.11882 -2.33158)
(193.645 0.850713 -2.69373)
(192.816 0.575474 -2.87309)
(191.902 0.301126 -2.81008)
(191.017 0.036026 -2.48552)
(195.403 1.33286 1.16149)
(195.827 1.12862 0.514517)
(196.037 0.879932 -0.20945)
(196.007 0.605618 -0.9707)
(195.713 0.314544 -1.7286)
(195.14 0.0135482 -2.42754)
(194.295 -0.292006 -2.99516)
(193.22 -0.596748 -3.34634)
(191.997 -0.894177 -3.39216)
(190.788 -1.1582 -3.07325)
(195.775 2.31243 0.875901)
(196.296 2.09175 0.217195)
(196.575 1.82607 -0.521622)