/*--------------------------------*- C++ -*----------------------------------*\
| =========                 |                                                 |
| \\      /  F ield         | foam-extend: Open Source CFD                    |
|  \\    /   O peration     | Version:     4.0                                |
|   \\  /    A nd           | Web:         http://www.foam-extend.org         |
|    \\/     M anipulation  |                                                 |
\*---------------------------------------------------------------------------*/
FoamFile
{
    version     2.0;
    format      ascii;
    class       volScalarField;
    location    "700";
    object      alphat;
}
// * * * * * * * * * * * * * * * * * * * * * * * * * * * * * * * * * * * * * //

dimensions      [1 -1 -1 0 0 0 0];

internalField   nonuniform List<scalar> 
34480
(
0.00189581
0.00189455
0.00189429
0.00189492
0.00189674
0.00190029
0.00190762
0.00192596
0.00196559
0.00203708
0.0161074
0.0153007
0.0149776
0.014664
0.0129661
0.00821847
0.00340887
0.00137439
0.00102205
0.00150563
0.0444532
0.0427754
0.0410776
0.0375816
0.0286916
0.0146933
0.00515979
0.00186673
0.00127873
0.00185602
0.0485636
0.0464516
0.0445381
0.0404497
0.0297869
0.0142149
0.00483986
0.00180469
0.00131366
0.00200558
0.0477729
0.0454623
0.0437535
0.0398734
0.0289235
0.0132453
0.00444905
0.00170565
0.00131768
0.00211417
0.0459616
0.0436163
0.0420159
0.0381881
0.0268847
0.0116621
0.00389217
0.00157077
0.00132317
0.00224105
0.0438041
0.0416254
0.0402203
0.036562
0.0252935
0.0105879
0.00352397
0.00147691
0.00133162
0.00235301
0.0363813
0.0347873
0.03379
0.0310106
0.0214448
0.00867478
0.00284167
0.00125688
0.00125897
0.00236855
0.0124061
0.0120996
0.0119995
0.0117268
0.00992586
0.00512673
0.00168895
0.000748463
0.000854012
0.00181698
0.00180228
0.00180171
0.00180284
0.00180556
0.00180987
0.00181559
0.00182329
0.00183417
0.00185027
0.00181022
0.00189472
0.00189294
0.00189232
0.0018927
0.00189431
0.00189742
0.00190272
0.00191217
0.00193013
0.00197192
0.0151801
0.014554
0.0143471
0.0145038
0.0148778
0.0148635
0.0129726
0.00767229
0.0025531
0.00213991
0.0410203
0.0397862
0.0391229
0.0385686
0.0369178
0.0321364
0.0230931
0.0113728
0.00335445
0.00289965
0.0450612
0.0434414
0.0426794
0.0421055
0.0402243
0.0346384
0.0243228
0.0114991
0.0033438
0.00323358
0.0447852
0.0429321
0.0422555
0.041916
0.0404108
0.0350616
0.0245789
0.0113211
0.00325903
0.00348903
0.0435047
0.0415651
0.0409116
0.0407139
0.0394883
0.0344277
0.0240821
0.0108676
0.00317897
0.00381717
0.0418617
0.0400089
0.0394419
0.039331
0.0383537
0.0336773
0.0236694
0.0105636
0.00314053
0.00413718
0.0351694
0.0337846
0.033358
0.0333661
0.0328731
0.0295454
0.0212261
0.00939897
0.00287365
0.0042301
0.0123512
0.0120567
0.0119981
0.0120656
0.0122172
0.0120965
0.010677
0.00546699
0.0017266
0.00286558
0.00179855
0.00179573
0.00179479
0.00179548
0.00179781
0.0018015
0.00180727
0.00181656
0.00183994
0.00188547
0.00188949
0.001888
0.00188748
0.00188785
0.00188924
0.00189173
0.00189555
0.00190156
0.00191067
0.00192457
0.0142834
0.0138811
0.0137378
0.0138663
0.0142734
0.0148623
0.0152242
0.0142866
0.0101694
0.00597753
0.0375197
0.0365596
0.0362269
0.036365
0.0366653
0.0362016
0.0331844
0.0254413
0.0134148
0.00726478
0.0413662
0.040111
0.039717
0.0399513
0.0404401
0.0400369
0.036397
0.0266567
0.0125367
0.00729618
0.0415011
0.0400746
0.0397164
0.0400832
0.0408996
0.0409947
0.0375741
0.0266911
0.0113601
0.00720216
0.0406985
0.0391946
0.0388194
0.0392584
0.040314
0.0409166
0.0379111
0.0261309
0.0102136
0.00724036
0.0395496
0.0380884
0.0377534
0.0382002
0.0393699
0.0403567
0.0378807
0.0254675
0.00928166
0.00731437
0.0336818
0.0325872
0.0323121
0.032661
0.0336462
0.0348475
0.0336402
0.0225832
0.00788843
0.00705098
0.0122479
0.0120032
0.0119608
0.01203
0.0122453
0.0125177
0.0126966
0.0106599
0.00445751
0.00449512
0.00179189
0.0017887
0.00178743
0.00178788
0.00179012
0.00179406
0.00180066
0.0018119
0.00183771
0.00188959
0.00188086
0.00187986
0.00187952
0.00187981
0.00188082
0.00188246
0.00188466
0.00188776
0.00189183
0.00189669
0.0136638
0.0134379
0.0133443
0.0134205
0.0136787
0.0140812
0.0145406
0.0149914
0.0147341
0.0130126
0.0343466
0.0336758
0.0334858
0.033682
0.0342388
0.034898
0.0348805
0.0325804
0.0257816
0.0175857
0.0379416
0.0370436
0.0368028
0.0371004
0.0379086
0.038895
0.0388763
0.0354127
0.0257681
0.0168257
0.0384127
0.037393
0.0371685
0.0375457
0.0385742
0.0399482
0.0402578
0.0362121
0.024502
0.0158712
0.038039
0.0369438
0.0366872
0.0371099
0.038297
0.0400509
0.0408202
0.0363672
0.022925
0.015239
0.0373369
0.0362432
0.0360054
0.0364244
0.0376643
0.0396341
0.0408096
0.0360595
0.0212662
0.0147035
0.0322883
0.0314593
0.0312546
0.0315671
0.032514
0.0341937
0.0356724
0.0320057
0.0182794
0.0135917
0.0121845
0.0119835
0.0119524
0.0120056
0.0121699
0.012391
0.0126216
0.0127295
0.00950987
0.00827238
0.00178359
0.00178032
0.00177898
0.00177939
0.00178169
0.00178595
0.0017931
0.00180523
0.00183055
0.00187662
0.00186959
0.00186903
0.00186885
0.00186905
0.00186968
0.00187061
0.00187172
0.00187315
0.0018748
0.00187635
0.0133374
0.0132305
0.0131739
0.0132158
0.0133606
0.0135621
0.0137964
0.0141277
0.0144599
0.0146147
0.0317886
0.0314003
0.0312993
0.0314186
0.0317939
0.0324003
0.033089
0.033356
0.0318599
0.0277107
0.0350614
0.034494
0.0343449
0.0345427
0.0351366
0.0361157
0.0371893
0.0373322
0.0341857
0.0276245
0.0357463
0.0350804
0.0349365
0.0351897
0.0359421
0.0372099
0.0386346
0.038753
0.0341881
0.0263231
0.0357025
0.0349541
0.0347714
0.0350643
0.0359419
0.0374955
0.0393475
0.0395822
0.0336625
0.0252837
0.0353562
0.0345749
0.0343982
0.0346951
0.0356235
0.0373218
0.0394566
0.039752
0.0325817
0.0242362
0.0310568
0.0304501
0.030293
0.0305188
0.0312163
0.0325581
0.0344429
0.0351345
0.028678
0.022058
0.0121678
0.012003
0.0119808
0.0120175
0.0121302
0.012269
0.012357
0.0127573
0.0125561
0.012124
0.00177385
0.00177061
0.00176926
0.00176966
0.00177196
0.00177632
0.00178354
0.00179539
0.00181742
0.00185312
0.00185616
0.00185593
0.00185588
0.001856
0.00185634
0.00185676
0.00185725
0.00185784
0.00185846
0.00185889
0.0132463
0.0132171
0.0131886
0.0132118
0.0132881
0.0133729
0.0134793
0.0136282
0.0137915
0.013922
0.029987
0.029807
0.0297659
0.0298208
0.0300054
0.0303278
0.0308048
0.0313845
0.0317259
0.0313856
0.0328696
0.0325568
0.0324731
0.0325795
0.0329206
0.0335401
0.0344504
0.0354705
0.0356984
0.0341883
0.0336124
0.0332205
0.033137
0.0332821
0.0337387
0.0345714
0.0358041
0.0371411
0.0370196
0.0341763
0.0337676
0.0332921
0.0331691
0.0333498
0.0339127
0.0349737
0.0365892
0.0383504
0.0378472
0.0338236
0.0336631
0.0331358
0.033011
0.0332017
0.0338221
0.0350097
0.0368555
0.0388773
0.0378636
0.0329521
0.030009
0.0295861
0.0294716
0.0296237
0.0300948
0.0310121
0.0324829
0.0343664
0.033655
0.029743
0.0122014
0.0120676
0.0120541
0.0120776
0.0121488
0.0122144
0.0121783
0.0123798
0.0127625
0.0135975
0.00176249
0.0017594
0.00175808
0.00175848
0.00176071
0.00176495
0.00177182
0.00178263
0.00180057
0.00182641
0.00184091
0.00184091
0.00184094
0.00184101
0.00184116
0.00184129
0.00184145
0.00184165
0.00184185
0.00184193
0.0133189
0.0133428
0.0133361
0.0133488
0.0133826
0.0134178
0.0134702
0.0135387
0.0136026
0.0136226
0.0288773
0.0288162
0.0288091
0.0288306
0.0289041
0.0290354
0.0292478
0.0295464
0.0298647
0.0301225
0.0313591
0.0312059
0.0311637
0.0312146
0.0313864
0.031707
0.032213
0.0329189
0.0336156
0.0340516
0.0320343
0.0318256
0.0317832
0.0318583
0.0321066
0.0325667
0.0332998
0.0343436
0.0352836
0.0356012
0.0322691
0.0319869
0.0319088
0.0320122
0.0323446
0.0329777
0.0340108
0.0355229
0.0367751
0.03683
0.0322995
0.031962
0.0318787
0.0319928
0.03238
0.0331236
0.0343491
0.0361806
0.0375362
0.0371
0.0291748
0.0288942
0.0288153
0.0289118
0.0292103
0.0297812
0.0307097
0.0322603
0.0335612
0.0334638
0.0122939
0.0121852
0.0121797
0.0121931
0.012232
0.0122374
0.0121239
0.0121311
0.012302
0.0129713
0.00174938
0.00174651
0.00174529
0.00174567
0.00174775
0.00175169
0.00175791
0.00176726
0.00178127
0.00179942
0.00182407
0.00182418
0.00182426
0.00182429
0.00182432
0.00182433
0.00182435
0.00182438
0.00182441
0.00182437
0.0135192
0.0135623
0.013574
0.0135802
0.0135917
0.0136122
0.0136428
0.0136802
0.0137074
0.01369
0.0282808
0.028274
0.0282833
0.0282915
0.0283145
0.0283612
0.0284416
0.0285568
0.0286845
0.0288025
0.0304031
0.0303352
0.0303163
0.0303394
0.0304212
0.0305747
0.0308168
0.0311603
0.0315474
0.0319227
0.0309477
0.0308472
0.0308293
0.0308656
0.0309923
0.0312245
0.0315929
0.0321382
0.0327635
0.0333717
0.03118
0.0310227
0.0309759
0.0310319
0.0312184
0.0315694
0.0321388
0.0330188
0.034045
0.0350083
0.0312644
0.0310586
0.0310058
0.0310702
0.0313011
0.0317374
0.032449
0.0335869
0.0348984
0.0360234
0.028561
0.0283843
0.0283332
0.0283912
0.0285691
0.0288973
0.029411
0.0303319
0.0315162
0.0327253
0.0124517
0.0123625
0.0123642
0.0123701
0.0123848
0.0123443
0.0121928
0.0120879
0.0120566
0.0122995
0.00173437
0.00173182
0.00173073
0.00173108
0.00173295
0.00173644
0.00174182
0.00174955
0.00176015
0.00177268
0.00180571
0.00180584
0.00180593
0.00180594
0.00180594
0.00180591
0.00180587
0.00180583
0.00180581
0.00180573
0.0138134
0.0138637
0.0138784
0.0138847
0.0138929
0.0139069
0.0139275
0.0139513
0.0139634
0.0139321
0.0280174
0.0280305
0.028045
0.0280491
0.0280557
0.0280713
0.0281014
0.0281451
0.028191
0.0282303
0.0298422
0.0298147
0.0298072
0.029818
0.0298574
0.0299317
0.0300469
0.0302043
0.0303774
0.0305447
0.0302475
0.030204
0.0301988
0.0302157
0.0302787
0.0303925
0.0305678
0.0308172
0.0311048
0.0314019
0.0304363
0.0303534
0.0303266
0.0303559
0.0304579
0.0306463
0.0309425
0.0313846
0.0319239
0.0325065
0.0305252
0.0304045
0.0303724
0.030407
0.030541
0.0307885
0.0311787
0.0317844
0.0325352
0.0333397
0.0281561
0.0280507
0.02802
0.0280528
0.0281519
0.0283243
0.0285805
0.0290426
0.0297028
0.0305608
0.0126799
0.0126052
0.0126132
0.0126137
0.0126106
0.0125387
0.0123763
0.0122239
0.01209
0.012133
0.00171739
0.0017152
0.00171425
0.00171457
0.00171619
0.00171915
0.00172361
0.00172975
0.00173754
0.00174604
0.00178581
0.00178594
0.00178602
0.00178603
0.00178602
0.00178597
0.00178592
0.00178587
0.00178583
0.00178574
0.0141831
0.0142384
0.0142553
0.0142618
0.0142683
0.0142787
0.0142935
0.0143098
0.0143139
0.014275
0.0279531
0.0279725
0.0279873
0.0279908
0.0279928
0.0279983
0.0280112
0.0280307
0.0280497
0.0280645
0.0295373
0.0295272
0.0295245
0.0295301
0.0295507
0.0295894
0.0296483
0.0297258
0.0298074
0.0298841
0.0298242
0.0298076
0.0298075
0.0298156
0.0298475
0.0299046
0.0299897
0.0301033
0.0302271
0.0303524
0.0299593
0.0299174
0.0299024
0.0299176
0.0299733
0.0300742
0.0302276
0.0304424
0.0306954
0.0309658
0.0300303
0.029961
0.0299419
0.0299601
0.0300372
0.0301764
0.0303883
0.0306967
0.0310654
0.0314469
0.0279345
0.027875
0.0278584
0.027876
0.0279263
0.0280047
0.0281192
0.0283247
0.0286261
0.0290485
0.0129829
0.0129185
0.0129323
0.012929
0.0129126
0.0128235
0.0126675
0.0125068
0.0123367
0.0123238
0.00169836
0.00169655
0.00169576
0.00169603
0.00169738
0.00169979
0.00170335
0.00170805
0.00171362
0.0017193
0.0017643
0.00176443
0.0017645
0.0017645
0.00176449
0.00176444
0.0017644
0.00176435
0.00176431
0.00176423
0.0146228
0.0146821
0.0147009
0.0147076
0.014713
0.0147207
0.0147317
0.0147428
0.0147412
0.0146967
0.0280023
0.0280226
0.0280359
0.0280395
0.0280406
0.0280433
0.0280504
0.0280613
0.0280717
0.0280789
0.0293862
0.0293828
0.029382
0.0293853
0.0293971
0.0294193
0.0294526
0.0294954
0.0295396
0.0295818
0.0295846
0.029579
0.0295801
0.0295843
0.0296018
0.0296327
0.0296771
0.0297327
0.0297889
0.0298464
0.0296725
0.0296517
0.0296432
0.0296513
0.0296823
0.0297378
0.0298192
0.0299256
0.0300439
0.0301718
0.0297216
0.0296814
0.0296699
0.0296795
0.0297247
0.0298045
0.0299219
0.0300812
0.0302573
0.0304278
0.0278625
0.0278311
0.0278237
0.0278324
0.0278541
0.0278814
0.0279239
0.0280026
0.0281202
0.0283203
0.0133655
0.0133083
0.0133277
0.0133215
0.0132947
0.0132022
0.0130627
0.0129151
0.0127448
0.0127361
0.00167724
0.0016758
0.00167517
0.00167539
0.00167646
0.00167836
0.00168109
0.00168457
0.00168846
0.00169219
0.0017411
0.00174121
0.00174127
0.00174127
0.00174126
0.00174122
0.00174118
0.00174114
0.00174111
0.00174104
0.0151364
0.0151994
0.0152197
0.0152265
0.0152309
0.0152367
0.0152445
0.0152516
0.0152456
0.0151961
0.0281144
0.0281335
0.0281449
0.0281484
0.0281496
0.0281515
0.0281562
0.0281636
0.0281707
0.0281751
0.0293212
0.0293202
0.0293198
0.0293219
0.0293293
0.029343
0.0293634
0.0293893
0.0294166
0.0294444
0.0294585
0.0294564
0.0294571
0.0294596
0.0294702
0.0294889
0.0295149
0.0295453
0.029574
0.0296046
0.0295116
0.0295009
0.0294958
0.0295003
0.0295183
0.0295502
0.0295953
0.0296506
0.0297082
0.0297745
0.029544
0.0295195
0.0295123
0.0295177
0.0295452
0.029593
0.0296612
0.0297476
0.0298343
0.0299139
0.027905
0.0278894
0.0278878
0.0278916
0.0278975
0.0279012
0.0279104
0.0279321
0.0279669
0.0280714
0.013834
0.0137823
0.0138072
0.0137987
0.013763
0.0136812
0.0135632
0.0134383
0.0132851
0.0133022
0.00165399
0.00165289
0.00165241
0.00165258
0.0016534
0.00165484
0.00165687
0.00165935
0.00166201
0.00166443
0.00171609
0.00171619
0.00171624
0.00171624
0.00171623
0.0017162
0.00171617
0.00171614
0.00171611
0.00171605
0.0157347
0.0158013
0.0158228
0.0158297
0.0158333
0.0158375
0.0158429
0.0158467
0.0158369
0.0157824
0.0282611
0.0282781
0.0282875
0.0282907
0.0282919
0.0282935
0.028297
0.0283023
0.0283079
0.0283111
0.0293011
0.0293006
0.0293003
0.0293016
0.0293063
0.029315
0.0293279
0.0293445
0.0293629
0.0293837
0.0293979
0.0293961
0.029396
0.0293976
0.0294047
0.0294173
0.0294342
0.0294531
0.0294701
0.029489
0.0294281
0.0294218
0.0294184
0.0294211
0.0294321
0.0294513
0.0294777
0.0295082
0.0295383
0.0295766
0.0294519
0.0294356
0.0294306
0.029434
0.0294517
0.0294822
0.0295241
0.0295746
0.0296205
0.0296613
0.0280322
0.0280219
0.0280236
0.028025
0.0280228
0.0280191
0.0280153
0.0280147
0.0280164
0.0280815
0.01441
0.0143516
0.0143827
0.014372
0.014336
0.0142712
0.0141763
0.0140768
0.0139468
0.0139951
0.00162862
0.0016278
0.00162746
0.00162758
0.00162818
0.00162923
0.00163069
0.00163241
0.00163417
0.00163573
0.00168917
0.00168926
0.0016893
0.0016893
0.00168929
0.00168927
0.00168925
0.00168923
0.00168921
0.00168915
0.0164353
0.0165056
0.0165282
0.016535
0.016538
0.0165408
0.0165443
0.0165455
0.0165324
0.0164726
0.028426
0.0284406
0.0284481
0.0284508
0.028452
0.0284534
0.028456
0.02846
0.0284646
0.0284674
0.029302
0.0293014
0.0293011
0.0293018
0.0293047
0.0293101
0.0293181
0.0293289
0.0293421
0.0293591
0.0293718
0.0293696
0.0293687
0.0293697
0.0293749
0.0293838
0.0293957
0.0294086
0.0294202
0.0294337
0.0293881
0.0293838
0.0293813
0.0293828
0.0293899
0.029402
0.0294182
0.0294362
0.0294534
0.0294784
0.0294105
0.0293984
0.0293946
0.0293971
0.0294091
0.0294296
0.029457
0.0294888
0.029516
0.0295406
0.0282154
0.0282053
0.0282072
0.0282075
0.0282048
0.0281999
0.0281929
0.0281857
0.0281769
0.0282259
0.015115
0.0150469
0.0150718
0.0150642
0.0150376
0.0149894
0.0149169
0.0148415
0.0147353
0.0148127
0.00160111
0.00160052
0.00160027
0.00160036
0.00160079
0.00160153
0.00160254
0.00160369
0.00160484
0.00160583
0.00166024
0.00166032
0.00166035
0.00166035
0.00166034
0.00166033
0.00166032
0.0016603
0.00166029
0.00166024
0.0172637
0.0173381
0.0173615
0.0173682
0.0173706
0.0173724
0.0173744
0.0173736
0.0173576
0.0172918
0.0285994
0.0286115
0.0286172
0.0286194
0.0286205
0.0286217
0.0286237
0.0286267
0.0286307
0.0286336
0.0293107
0.0293099
0.0293095
0.0293098
0.0293114
0.0293146
0.0293195
0.0293264
0.0293362
0.029351
0.029362
0.0293593
0.0293579
0.0293585
0.0293622
0.0293688
0.0293773
0.0293866
0.0293955
0.0294066
0.0293701
0.0293666
0.0293646
0.0293655
0.0293701
0.029378
0.0293884
0.0293997
0.0294106
0.0294289
0.0293953
0.0293857
0.0293827
0.0293846
0.0293931
0.0294074
0.029426
0.0294473
0.0294654
0.0294836
0.0284309
0.0284204
0.0284217
0.0284219
0.0284199
0.0284163
0.0284103
0.0284031
0.028393
0.0284346
0.0159754
0.015899
0.0159173
0.0159126
0.0158949
0.015862
0.0158099
0.0157556
0.0156711
0.0157728
0.00157144
0.00157104
0.00157086
0.00157092
0.00157122
0.00157172
0.00157239
0.00157314
0.00157386
0.00157449
0.00162924
0.00162931
0.00162934
0.00162934
0.00162933
0.00162932
0.00162931
0.0016293
0.00162929
0.00162925
0.0182569
0.018336
0.0183598
0.0183661
0.018368
0.0183691
0.01837
0.0183676
0.0183494
0.0182767
0.028774
0.0287837
0.0287878
0.0287894
0.0287903
0.0287913
0.0287929
0.0287951
0.0287988
0.0288022
0.0293202
0.0293192
0.0293188
0.0293188
0.0293196
0.0293213
0.029324
0.0293284
0.0293359
0.0293494
0.0293578
0.0293549
0.0293533
0.0293536
0.0293562
0.0293609
0.029367
0.0293738
0.0293809
0.0293911
0.0293609
0.029358
0.0293563
0.0293568
0.0293598
0.029365
0.0293717
0.0293791
0.0293867
0.0294014
0.0293902
0.0293825
0.0293801
0.0293815
0.0293875
0.0293975
0.0294103
0.029425
0.0294381
0.029454
0.0286589
0.0286483
0.028649
0.0286494
0.0286485
0.0286467
0.028643
0.0286381
0.0286298
0.0286661
0.0170302
0.0169473
0.016959
0.016957
0.0169471
0.016928
0.0168943
0.0168574
0.0167925
0.0169118
0.00153964
0.00153937
0.00153925
0.00153929
0.00153948
0.00153981
0.00154024
0.00154071
0.00154116
0.00154155
0.00159622
0.00159628
0.0015963
0.0015963
0.00159629
0.00159629
0.00159628
0.00159627
0.00159626
0.00159622
0.019469
0.0195533
0.0195769
0.0195827
0.0195841
0.0195847
0.0195848
0.0195817
0.0195619
0.0194813
0.0289424
0.0289498
0.0289525
0.0289536
0.0289543
0.0289552
0.0289564
0.0289581
0.0289614
0.0289656
0.0293266
0.0293255
0.0293251
0.029325
0.0293253
0.029326
0.0293274
0.0293301
0.0293359
0.0293483
0.0293532
0.0293504
0.0293489
0.029349
0.0293507
0.0293538
0.029358
0.0293628
0.0293686
0.0293782
0.0293533
0.0293508
0.0293495
0.0293497
0.0293516
0.0293549
0.0293592
0.0293641
0.0293695
0.0293815
0.0293846
0.0293786
0.0293767
0.0293777
0.0293818
0.0293885
0.0293971
0.029407
0.0294168
0.0294316
0.028881
0.0288711
0.0288714
0.0288718
0.0288719
0.0288716
0.0288701
0.0288677
0.0288618
0.0288923
0.018337
0.0182502
0.0182549
0.018255
0.0182523
0.0182457
0.0182289
0.0182062
0.0181599
0.0182886
0.00150579
0.00150562
0.00150554
0.00150556
0.00150568
0.00150589
0.00150615
0.00150643
0.00150671
0.00150694
0.00156141
0.00156144
0.00156145
0.00156145
0.00156145
0.00156145
0.00156144
0.00156143
0.00156142
0.00156138
0.0209833
0.0210725
0.0210949
0.0210998
0.0211007
0.0211009
0.0211007
0.0210974
0.0210775
0.0209886
0.0290953
0.0291004
0.029102
0.0291026
0.029103
0.0291037
0.0291046
0.029106
0.0291086
0.0291135
0.0293275
0.0293265
0.0293261
0.029326
0.029326
0.0293262
0.0293268
0.0293284
0.0293327
0.029344
0.029345
0.0293428
0.0293416
0.0293415
0.0293425
0.0293444
0.029347
0.0293502
0.0293545
0.0293632
0.0293435
0.0293417
0.0293407
0.0293408
0.0293419
0.0293438
0.0293463
0.0293493
0.029353
0.0293622
0.0293716
0.0293673
0.0293659
0.0293666
0.0293691
0.0293732
0.0293785
0.0293847
0.0293915
0.0294048
0.029077
0.0290687
0.0290688
0.0290692
0.0290698
0.0290703
0.0290702
0.0290695
0.0290657
0.0290887
0.0199805
0.0198929
0.0198893
0.0198909
0.0198949
0.0199006
0.0199004
0.0198902
0.0198646
0.0199914
0.00147008
0.00146997
0.00146992
0.00146993
0.00147001
0.00147013
0.00147029
0.00147045
0.00147063
0.00147076
0.00152498
0.00152501
0.00152502
0.00152501
0.00152501
0.00152501
0.00152501
0.00152501
0.001525
0.00152498
0.0229341
0.0230254
0.0230447
0.0230485
0.0230491
0.0230491
0.0230486
0.0230455
0.0230274
0.0229327
0.0292199
0.0292226
0.0292232
0.0292233
0.0292235
0.029224
0.0292247
0.0292256
0.0292272
0.0292316
0.029322
0.0293211
0.0293209
0.0293208
0.0293208
0.0293208
0.0293209
0.0293216
0.0293244
0.0293337
0.0293329
0.0293313
0.0293306
0.0293305
0.029331
0.029332
0.0293334
0.0293351
0.0293378
0.0293444
0.0293309
0.0293298
0.0293293
0.0293293
0.0293299
0.0293308
0.029332
0.0293335
0.0293355
0.0293415
0.0293489
0.0293463
0.0293455
0.0293458
0.0293472
0.0293494
0.0293522
0.0293554
0.0293595
0.0293696
0.0292244
0.0292185
0.0292185
0.0292189
0.0292194
0.0292198
0.02922
0.02922
0.029218
0.0292327
0.0220919
0.0220114
0.0220086
0.0220099
0.0220129
0.0220173
0.022022
0.022026
0.0220289
0.0221383
0.00143263
0.00143256
0.00143253
0.00143254
0.00143259
0.00143266
0.00143276
0.00143286
0.00143298
0.00143305
0.00148618
0.00148618
0.00148616
0.00148616
0.00148615
0.00148616
0.00148616
0.00148618
0.0014862
0.00148623
0.0255624
0.0256421
0.0256555
0.025658
0.0256585
0.0256583
0.0256574
0.0256547
0.0256412
0.0255549
0.0293019
0.0293023
0.029302
0.0293018
0.0293018
0.0293021
0.0293026
0.0293033
0.029304
0.0293061
0.0293111
0.0293108
0.0293108
0.0293109
0.0293109
0.0293109
0.0293108
0.0293109
0.0293118
0.0293172
0.0293185
0.0293178
0.0293175
0.0293176
0.0293179
0.0293184
0.029319
0.0293197
0.0293207
0.0293238
0.0293174
0.029317
0.0293169
0.029317
0.0293173
0.0293178
0.0293183
0.0293188
0.0293194
0.0293217
0.0293231
0.0293219
0.0293216
0.0293219
0.0293226
0.0293237
0.029325
0.0293264
0.0293281
0.0293331
0.0293097
0.0293064
0.0293063
0.0293063
0.0293064
0.0293064
0.0293063
0.0293062
0.0293058
0.0293129
0.0250058
0.0249455
0.0249439
0.0249448
0.0249468
0.0249496
0.0249527
0.0249551
0.0249565
0.0250384
0.0013927
0.00139265
0.00139263
0.00139264
0.00139267
0.00139273
0.0013928
0.00139288
0.00139295
0.001393
0.00234715
0.00236736
0.00235691
0.0023234
0.00141549
0.00143609
0.00143227
0.00142745
0.001883
0.00192184
0.00191125
0.00188643
0.0022623
0.00231681
0.00229583
0.00224934
0.00260462
0.00267181
0.00263847
0.00257346
0.00294292
0.0030211
0.00298217
0.00290966
0.00322313
0.00330977
0.00326947
0.00319655
0.00339296
0.00348651
0.00344906
0.00338015
0.00303309
0.00312013
0.00308379
0.00302693
0.00236679
0.0023834
0.00234986
0.00226989
0.0020339
0.00203912
0.00203993
0.00203686
0.00241027
0.00247913
0.00237083
0.00217344
0.00334978
0.00344905
0.00330894
0.00306587
0.00409244
0.00424602
0.00407916
0.00377686
0.0048621
0.00508341
0.00488102
0.0045005
0.00584349
0.00615354
0.00590339
0.00541037
0.00681401
0.00721007
0.00689996
0.00629248
0.00753236
0.00801146
0.00764438
0.0069373
0.00597888
0.00639943
0.00603404
0.00542223
0.00217686
0.00220896
0.00220207
0.00216661
0.00193831
0.00194016
0.00194017
0.00193891
0.00416517
0.00412432
0.00412024
0.0042076
0.00507024
0.0050289
0.005032
0.00513626
0.00553501
0.00553746
0.00554343
0.0055966
0.00602237
0.00606398
0.00605433
0.00601699
0.00675982
0.00684614
0.0067856
0.00660474
0.00752016
0.00763339
0.00749566
0.00715327
0.00808494
0.00823396
0.00801804
0.0075117
0.00617946
0.00630848
0.00609992
0.00560763
0.00204442
0.00206138
0.00205935
0.00204172
0.00189907
0.00189916
0.00189922
0.00189927
0.0103879
0.0100875
0.0102072
0.0107182
0.0121187
0.011746
0.0120278
0.0129285
0.0115332
0.0113274
0.011687
0.012598
0.0111226
0.0110496
0.0114395
0.0122918
0.0112094
0.0112462
0.0116222
0.0123684
0.0113928
0.0114931
0.0118156
0.0124142
0.0113651
0.0115427
0.0117931
0.0121825
0.00804465
0.00823015
0.00833033
0.008378
0.0019549
0.00196527
0.00196622
0.00195837
0.001877
0.00187695
0.00187694
0.00187696
0.014627
0.014546
0.0145582
0.0146603
0.0241074
0.023751
0.0239161
0.0245367
0.022439
0.0221237
0.0224646
0.0233996
0.0204801
0.0202937
0.0207738
0.0219044
0.0193655
0.0193415
0.0199174
0.0211461
0.0185171
0.0186078
0.0192085
0.0204355
0.0173413
0.0175752
0.0181375
0.0191849
0.0108899
0.0111404
0.0113773
0.0117026
0.0018933
0.00189975
0.00190123
0.00189793
0.00185907
0.00185897
0.00185892
0.00185893
0.0142101
0.0141213
0.0140988
0.0141464
0.0306688
0.0305307
0.030532
0.0306661
0.0320384
0.0317796
0.0318553
0.0322283
0.030597
0.0303059
0.0305256
0.0311927
0.0291241
0.028921
0.0293231
0.0302705
0.0274972
0.0274
0.0279375
0.0290871
0.0248182
0.0249258
0.0255088
0.026605
0.0131875
0.0134379
0.0136165
0.0137746
0.00184683
0.00185075
0.00185206
0.00185079
0.00184204
0.00184193
0.00184188
0.00184189
0.0138869
0.0137875
0.0137614
0.01381
0.0301772
0.0301531
0.0301452
0.0301576
0.0339372
0.0339183
0.0339318
0.0339803
0.035033
0.0349767
0.0350287
0.0351822
0.0355106
0.0354344
0.0355754
0.0359071
0.0348227
0.0347364
0.0349845
0.0355239
0.0311947
0.0312703
0.0316038
0.0321662
0.0133512
0.0136406
0.0137014
0.013582
0.00180978
0.00181218
0.00181317
0.00181273
0.00182449
0.00182439
0.00182434
0.00182435
0.0139515
0.013849
0.0138231
0.0138741
0.028858
0.0288341
0.0288224
0.028826
0.0320214
0.0320318
0.0320345
0.0320339
0.0335564
0.0335925
0.0336151
0.0336303
0.0352786
0.0353544
0.0354131
0.0354607
0.0361105
0.0361904
0.0362799
0.0363825
0.0327815
0.0329713
0.0331063
0.0331908
0.0124322
0.0127018
0.0127425
0.0125921
0.00177809
0.00177961
0.00178028
0.00178011
0.00180589
0.0018058
0.00180575
0.00180576
0.0142012
0.0140975
0.0140722
0.014125
0.0282721
0.028249
0.0282386
0.0282429
0.0305818
0.0305807
0.030577
0.0305738
0.0315122
0.0315295
0.0315368
0.0315378
0.0327981
0.03286
0.0328907
0.0328951
0.0337214
0.0338141
0.0338601
0.033867
0.0309687
0.0311648
0.0312392
0.0312012
0.0119919
0.0122299
0.0122738
0.0121431
0.00174899
0.00175002
0.00175046
0.00175033
0.00178596
0.00178587
0.00178583
0.00178584
0.0145539
0.0144486
0.0144236
0.0144782
0.0281075
0.0280879
0.02808
0.0280852
0.0298969
0.0298931
0.0298891
0.029887
0.0303947
0.0303992
0.0304004
0.0304003
0.0311097
0.0311391
0.0311531
0.031154
0.031636
0.0316831
0.0317055
0.0317057
0.0292341
0.0293711
0.0294183
0.0293774
0.0120629
0.0122939
0.0123383
0.012209
0.00172096
0.00172172
0.001722
0.00172185
0.0017645
0.00176442
0.00176439
0.0017644
0.0149866
0.0148791
0.014854
0.0149104
0.0281249
0.0281084
0.0281024
0.0281081
0.0295907
0.029588
0.0295853
0.0295841
0.0298679
0.0298697
0.0298698
0.0298695
0.0302485
0.0302642
0.0302714
0.0302712
0.0305084
0.0305311
0.0305419
0.0305414
0.0283668
0.028465
0.0284965
0.0284605
0.0124257
0.0126657
0.0127109
0.0125737
0.00169315
0.00169374
0.00169392
0.00169375
0.00174138
0.0017413
0.00174127
0.00174128
0.0154981
0.0153879
0.0153623
0.0154208
0.0282226
0.0282087
0.0282041
0.0282097
0.0294543
0.0294532
0.0294517
0.029451
0.0296203
0.0296222
0.0296224
0.0296218
0.0298239
0.0298344
0.029839
0.0298381
0.0299524
0.0299656
0.0299717
0.0299706
0.0280626
0.0281408
0.0281643
0.0281316
0.0129658
0.0132224
0.0132697
0.0131215
0.00166498
0.00166547
0.00166559
0.00166541
0.00171645
0.00171638
0.00171635
0.00171635
0.016098
0.0159842
0.0159581
0.0160188
0.0283584
0.0283465
0.0283429
0.0283483
0.0293955
0.0293957
0.029395
0.0293944
0.0295023
0.0295044
0.0295048
0.0295039
0.0296121
0.02962
0.0296233
0.0296219
0.0296819
0.0296906
0.0296946
0.0296936
0.0280517
0.028118
0.0281369
0.0281072
0.0136391
0.0139164
0.0139669
0.0138061
0.00163605
0.00163647
0.00163655
0.00163636
0.0016896
0.00168953
0.0016895
0.0016895
0.0168036
0.0166851
0.0166581
0.0167215
0.0285131
0.028503
0.0285
0.0285049
0.0293723
0.0293735
0.0293734
0.0293726
0.029445
0.0294471
0.0294474
0.0294463
0.0295048
0.0295109
0.0295131
0.0295115
0.0295514
0.0295574
0.0295602
0.0295597
0.0281888
0.0282464
0.0282621
0.0282353
0.0144382
0.0147393
0.0147936
0.0146188
0.001606
0.00160637
0.00160643
0.00160624
0.00166072
0.00166066
0.00166063
0.00166063
0.0176402
0.0175158
0.0174874
0.017554
0.0286763
0.0286678
0.0286653
0.0286696
0.0293647
0.0293666
0.0293668
0.0293656
0.0294154
0.0294171
0.0294173
0.0294161
0.0294485
0.0294529
0.0294544
0.0294529
0.0294887
0.0294925
0.0294945
0.0294946
0.0283974
0.0284476
0.0284608
0.0284368
0.0153788
0.015707
0.0157655
0.0155749
0.00157458
0.00157491
0.00157495
0.00157476
0.00162976
0.0016297
0.00162966
0.00162966
0.0186448
0.0185124
0.018482
0.0185525
0.0288408
0.0288336
0.0288315
0.0288349
0.0293621
0.0293642
0.0293644
0.0293629
0.0293972
0.0293983
0.0293984
0.0293974
0.0294157
0.0294187
0.0294196
0.0294183
0.0294561
0.0294582
0.0294597
0.0294603
0.0286342
0.0286776
0.0286887
0.0286673
0.0164958
0.0168548
0.0169179
0.0167092
0.00154159
0.00154189
0.00154191
0.00154174
0.00159675
0.00159668
0.00159665
0.00159665
0.0198711
0.0197278
0.0196946
0.01977
0.0289985
0.0289926
0.0289907
0.0289931
0.0293585
0.0293602
0.0293603
0.0293588
0.0293819
0.0293823
0.0293823
0.0293818
0.0293918
0.0293937
0.0293941
0.0293934
0.029433
0.029434
0.029435
0.029436
0.0288694
0.0289067
0.0289157
0.0288966
0.0178454
0.0182384
0.0183058
0.0180772
0.00150696
0.00150722
0.00150723
0.00150708
0.00156192
0.00156184
0.0015618
0.00156181
0.0213999
0.0212407
0.0212032
0.0212856
0.0291406
0.0291361
0.0291344
0.0291358
0.0293503
0.0293512
0.029351
0.0293499
0.0293652
0.0293651
0.0293651
0.0293653
0.0293696
0.0293706
0.0293708
0.0293706
0.0294073
0.0294077
0.0294084
0.0294092
0.029077
0.0291081
0.0291151
0.0290985
0.0195101
0.0199337
0.0200043
0.0197577
0.00147078
0.00147099
0.001471
0.00147088
0.00152552
0.00152543
0.0015254
0.00152542
0.0233581
0.0231751
0.0231318
0.0232249
0.0292523
0.0292494
0.0292482
0.0292491
0.0293363
0.0293362
0.0293358
0.0293351
0.0293459
0.0293456
0.0293456
0.0293463
0.0293468
0.0293473
0.0293475
0.0293474
0.0293737
0.0293741
0.0293743
0.0293746
0.0292313
0.0292553
0.0292601
0.0292465
0.0216146
0.0220685
0.0221364
0.0218683
0.00143317
0.00143334
0.00143335
0.00143325
0.00148676
0.00148668
0.00148667
0.0014867
0.0259469
0.025737
0.0256908
0.0257984
0.0293175
0.0293161
0.0293158
0.0293169
0.0293176
0.0293169
0.0293162
0.0293157
0.0293252
0.029325
0.029325
0.0293253
0.0293248
0.0293251
0.0293251
0.0293248
0.0293366
0.0293368
0.0293367
0.0293364
0.0293175
0.0293309
0.0293333
0.0293252
0.0245796
0.0250082
0.0250585
0.0247965
0.00139338
0.00139351
0.00139352
0.00139341
0.00216194
0.00204585
0.00198169
0.00194937
0.00193023
0.00191775
0.00190946
0.00190415
0.00190085
0.00189868
0.00176898
0.00163399
0.00486103
0.00953982
0.0140489
0.0172166
0.0187067
0.0188573
0.018251
0.0173486
0.00237482
0.00266899
0.00746513
0.0157304
0.0251464
0.0332757
0.0392872
0.0431176
0.044995
0.0453576
0.00277228
0.00380241
0.00845722
0.0180265
0.0292981
0.0386298
0.0451203
0.0488667
0.0503028
0.0500915
0.00307395
0.00399098
0.00888484
0.0195367
0.0321372
0.0419316
0.0480953
0.0509374
0.0512428
0.050058
0.00338956
0.00410956
0.00909664
0.020576
0.034213
0.0441292
0.0496698
0.0514453
0.0506743
0.0487
0.00363797
0.00413134
0.00914686
0.0213157
0.0357462
0.0454375
0.0500687
0.050697
0.0490115
0.0465844