/*--------------------------------*- C++ -*----------------------------------*\
| =========                 |                                                 |
| \\      /  F ield         | foam-extend: Open Source CFD                    |
|  \\    /   O peration     | Version:     4.0                                |
|   \\  /    A nd           | Web:         http://www.foam-extend.org         |
|    \\/     M anipulation  |                                                 |
\*---------------------------------------------------------------------------*/
FoamFile
{
    version     2.0;
    format      ascii;
    class       volScalarField;
    location    "700";
    object      epsilon;
}
// * * * * * * * * * * * * * * * * * * * * * * * * * * * * * * * * * * * * * //

dimensions      [0 2 -3 0 0 0 0];

internalField   nonuniform List<scalar> 
34480
(
4912.74
4910.91
4910.62
4911.77
4914.44
4918.95
4932.22
4989.31
5185.77
5725
653.841
599.557
599.147
652.177
841.932
1598.94
5217.86
23404.4
105944
388657
614.046
521.639
510.069
571.716
818.179
1859.89
7170.81
35652.1
174346
702288
519.146
438.737
429.459
489.693
744.67
1917.14
8346.33
44869.5
233282
1.00887e+06
450.67
384.319
379.876
438.56
697.179
1964.64
9314.81
53058.8
289957
1.32791e+06
387.584
332.973
329.474
384.27
641.446
1996.35
10274.2
61578.2
351448
1.69051e+06
349.014
303.087
301.111
351.803
603.682
2000.72
10871.3
67688.8
400786
2.01093e+06
319.731
283.772
281.149
323.043
545.506
1854.67
10482.5
67435.5
413047
2.15553e+06
461.338
439.181
437.641
464.057
605.248
1431.83
6928.8
44047.9
276837
1.49444e+06
5693.67
5691.87
5695.44
5705.86
5721.64
5741.25
5764.91
5800.59
5867.85
5938.45
4837.48
4835.53
4835.09
4836.31
4839.7
4845.64
4856.65
4884.29
4950.55
5180.47
514.733
479.846
474.121
488.66
534.314
654.389
1021
2425.46
12257.8
107054
449.673
387.387
374.464
394.512
464.807
656.619
1255.54
3655.25
21888
201102
399.856
341.576
329.606
350.36
423.714
632.288
1321.24
4371.46
30715.4
297063
364.164
313.032
304.383
325.031
398.338
611.893
1350.21
4894.16
39203.4
397948
324.374
280.539
272.527
291.308
359.597
567.201
1323.75
5270.07
47937.7
509684
300.382
262.063
255.543
272.216
335.567
533.423
1284.05
5448.43
54862.3
608604
282.522
251.869
245.417
258.119
307.63
467.038
1098.97
4911.08
55721.6
653534
434.407
414.048
409.751
417.73
448.434
538.011
860.727
3029.75
36968.1
470024
5577.91
5572
5570.91
5576.18
5586.82
5600.85
5619.41
5651.33
5717.75
5891.67
4752.27
4750.66
4750.1
4750.72
4752.74
4755.7
4760.15
4772.14
4798.47
4857.23
403.3
387.966
385.071
390.146
406.269
444.005
537.536
782.837
1593.66
6095.02
313.157
281.709
275.108
284.549
315.653
387.27
564.217
1061.79
2970.97
15560.3
293.176
260.538
253.628
264.719
300.75
386.728
611.071
1309.63
4523.09
29559.4
281.662
250.776
245.475
257.267
295.612
388.875
643.593
1511.71
6264.19
48480.2
261.299
233.25
227.9
239.221
276.32
370.043
640.401
1659.69
8315.1
74030.7
249.901
224.11
219.626
230.04
265.528
356.92
631.892
1760.14
10370.7
102713
243.191
221.934
217.367
225.736
254.208
328.98
562.958
1629.65
11297.3
124500
404.458
389.23
386.072
392.111
412.945
466.451
614.649
1256.55
7878.81
93697.7
5470.06
5461.74
5458.09
5460.45
5468.23
5479.54
5495.1
5524.61
5595.14
5778.82
4656.66
4656.07
4655.95
4656.44
4657.62
4658.68
4659.28
4662.84
4671.71
4689.58
331.35
325.716
324.653
325.99
330.869
343.008
371.804
433.474
565.513
1000.92
224.011
210.404
207.632
211.773
225.484
254.713
317.427
459.901
804.407
2188.69
217.801
201.633
198.113
203.874
222.224
262.625
353.757
579.001
1199.05
4261.62
219.286
202.467
199.585
206.257
227.513
275.257
388.078
689.335
1639.31
7282.55
211.563
194.984
191.666
198.614
220.645
272.181
400.977
776.37
2152.44
11767.7
208.706
192.379
189.462
196.21
218.475
271.575
409.946
843.066
2677.15
17346.1
210.5
196.383
193.233
199.032
217.842
263.748
387.865
810.837
2917.14
22192.9
377.605
366.404
363.976
368.438
383.665
420.969
514.019
792.06
2223.51
16878
5349.49
5341.45
5337.75
5339.72
5347.03
5358.64
5374.77
5404.33
5469.23
5610.17
4552.04
4552.35
4552.58
4552.87
4553.24
4552.69
4551.22
4550.55
4551.4
4553.95
287.782
285.844
285.502
285.471
286.147
289.394
297.93
314.193
340.804
394.5
171.473
166.234
165.25
166.69
171.823
182.428
203.31
244.919
320.617
509.438
169.318
161.935
160.229
162.811
171.178
188.716
224.413
300.977
453.685
917.662
175.675
167.156
165.673
169.006
179.74
202.556
251.024
363.022
610.025
1525.62
174.707
165.408
163.372
167.228
179.372
206.277
266.594
417.893
792.7
2467.66
176.664
166.735
164.836
168.824
181.954
211.585
280.64
465.079
976.502
3680.84
184.045
174.96
172.77
176.476
188.254
215.585
281.631
471.115
1071.27
4808.91
353.431
345.365
343.436
346.493
357.189
382.595
442.01
586.433
1018.04
3871.47
5221.13
5213.48
5209.82
5211.45
5218.19
5229.47
5245.15
5272.27
5326.3
5426.57
4439.3
4440.26
4440.76
4440.9
4440.68
4439.29
4437.33
4435.53
4434.38
4433.69
261.736
260.823
260.648
260.308
259.94
260.759
263.186
267.801
274.681
285.01
141.933
140.203
139.999
140.378
141.999
145.383
151.741
163.318
181.123
212.406
139.654
136.549
135.802
136.861
140.393
147.492
160.713
185.98
227.252
312.311
146.5
142.533
141.886
143.424
148.482
158.659
178.252
218.607
289.889
466.461
148.364
143.464
142.305
144.327
150.666
163.955
190.824
250.816
367.029
710.26
152.438
146.711
145.569
147.8
155.19
170.947
203.938
282.168
446.928
1022.39
162.983
157.433
156.001
158.279
165.371
181.035
215.177
301.373
503.481
1331.81
331.675
326.121
324.646
326.691
334.116
351.467
390.068
470.74
641.659
1297.55
5084.4
5077.34
5073.88
5075.27
5081.39
5091.89
5106.48
5130.28
5171.98
5237.57
4319.06
4320.44
4321.12
4321.15
4320.55
4319.07
4317.23
4315.43
4314.08
4312.96
245.707
244.78
244.518
244.212
243.882
244.069
244.755
246.314
248.804
252.5
125.657
125.249
125.326
125.357
125.724
126.611
128.36
131.475
135.844
141.943
122.132
120.939
120.651
121.052
122.464
125.227
130.035
138.325
150.059
167.932
127.741
126.074
125.863
126.52
128.773
133.095
140.731
154.828
176.157
214.041
130.297
127.874
127.258
128.264
131.432
137.757
149.392
172.553
210.591
288.925
134.87
131.727
131.086
132.264
136.265
144.368
159.72
192.101
248.861
383.93
146.818
143.607
142.717
144.058
148.168
156.882
174.263
213.077
287.872
492.138
312.444
308.791
307.668
309.002
314.131
326.17
351.744
398.781
480.767
666.934
4939.05
4932.75
4929.61
4930.79
4936.21
4945.53
4958.51
4978.58
5009.99
5052.58
4192.12
4193.37
4194.15
4194.12
4193.46
4192.26
4190.77
4189.32
4188.26
4187.33
234.658
233.775
233.344
233.153
233.03
233.013
233.253
234.008
235.417
237.832
116.695
116.736
116.882
116.831
116.823
116.933
117.316
118.134
119.329
120.944
112.021
111.629
111.54
111.683
112.228
113.292
115.074
117.924
121.574
126.152
116.034
115.447
115.437
115.696
116.654
118.427
121.366
126.295
132.931
142.143
118.317
117.214
116.911
117.39
118.924
121.871
126.901
135.868
148.9
169.016
122.569
120.934
120.602
121.192
123.298
127.389
134.53
147.927
168.404
203.299
134.78
133.039
132.516
133.277
135.584
140.333
149.202
166.764
196.272
252.703
295.555
293.277
292.406
293.274
296.864
305.49
322.792
351.264
395.223
461.9
4784.94
4779.52
4776.77
4777.77
4782.43
4790.32
4801.37
4817.65
4840.76
4868.81
4058.63
4059.65
4060.3
4060.29
4059.8
4058.9
4057.79
4056.73
4056
4055.3
225.941
225.108
224.725
224.564
224.465
224.437
224.586
225.115
226.2
228.235
111.701
111.864
112.005
111.953
111.86
111.777
111.796
112.003
112.415
113.106
106.32
106.236
106.223
106.273
106.482
106.901
107.595
108.66
109.954
111.5
108.933
108.81
108.872
108.964
109.355
110.063
111.191
112.942
115.102
117.751
110.632
110.192
110.056
110.276
111.001
112.355
114.55
118.108
122.83
128.892
114.246
113.444
113.289
113.569
114.659
116.711
120.082
125.767
133.557
143.753
126.05
125.187
124.896
125.316
126.576
129.133
133.698
141.803
154.098
172.029
280.668
279.34
278.633
279.214
281.813
288.238
300.161
317.992
343.109
371.491
4622.03
4617.56
4615.27
4616.1
4619.94
4626.32
4635.35
4648.04
4664.61
4683.02
3918.64
3919.45
3919.97
3919.98
3919.64
3918.99
3918.2
3917.47
3917.02
3916.51
218.162
217.344
216.994
216.862
216.797
216.794
216.931
217.373
218.309
220.142
108.829
108.995
109.108
109.072
108.986
108.888
108.838
108.896
109.107
109.563
103.193
103.209
103.22
103.237
103.323
103.501
103.798
104.246
104.786
105.492
104.76
104.804
104.877
104.905
105.062
105.344
105.782
106.418
107.138
108.055
105.875
105.742
105.689
105.787
106.124
106.743
107.711
109.158
110.941
113.123
108.808
108.439
108.374
108.503
109.065
110.103
111.732
114.236
117.343
120.75
119.852
119.48
119.329
119.557
120.234
121.609
123.968
127.784
133.089
139.663
267.341
266.639
266.026
266.445
268.427
273.354
281.684
293.166
308.133
321.284
4450.48
4446.96
4445.13
4445.79
4448.83
4453.77
4460.86
4470.38
4481.94
4493.83
3772.18
3772.82
3773.24
3773.25
3773.02
3772.57
3772.03
3771.55
3771.28
3770.91
210.596
209.791
209.467
209.355
209.316
209.332
209.461
209.842
210.668
212.336
107.071
107.204
107.285
107.263
107.204
107.133
107.09
107.119
107.272
107.639
101.53
101.566
101.58
101.588
101.629
101.716
101.863
102.08
102.351
102.763
102.396
102.475
102.533
102.541
102.608
102.73
102.914
103.159
103.402
103.782
103.046
103.038
103.022
103.066
103.222
103.508
103.942
104.543
105.224
106.139
105.381
105.221
105.197
105.256
105.554
106.096
106.913
108.07
109.352
110.608
115.504
115.384
115.312
115.437
115.8
116.544
117.76
119.579
121.873
124.557
255.091
254.783
254.211
254.547
256.158
259.948
265.805
273.339
282.551
288.655
4270.56
4267.92
4266.55
4267.04
4269.32
4273.02
4278.36
4285.25
4293.09
4300.62
3619.36
3619.86
3620.18
3620.2
3620.04
3619.74
3619.38
3619.06
3618.92
3618.64
202.867
202.078
201.779
201.682
201.657
201.68
201.796
202.118
202.841
204.356
105.885
105.98
106.032
106.02
105.984
105.941
105.916
105.941
106.068
106.38
100.678
100.708
100.718
100.722
100.746
100.796
100.878
100.999
101.158
101.44
101.111
101.177
101.213
101.216
101.252
101.318
101.413
101.525
101.614
101.803
101.441
101.471
101.469
101.489
101.564
101.701
101.903
102.16
102.417
102.856
103.303
103.23
103.222
103.252
103.42
103.722
104.158
104.732
105.284
105.779
112.438
112.436
112.405
112.476
112.677
113.079
113.7
114.566
115.519
116.7
243.449
243.368
242.803
243.102
244.498
247.298
251.406
256.393
262.209
264.761
4082.7
4080.83
4079.87
4080.22
4081.82
4084.53
4088.4
4093.2
4098.36
4103.05
3460.34
3460.73
3460.97
3460.98
3460.88
3460.69
3460.45
3460.24
3460.17
3459.95
194.77
194.003
193.727
193.641
193.624
193.647
193.742
194.007
194.632
196.002
104.988
105.047
105.076
105.07
105.05
105.028
105.017
105.04
105.148
105.413
100.259
100.278
100.284
100.286
100.301
100.332
100.381
100.453
100.557
100.768
100.449
100.487
100.504
100.506
100.532
100.58
100.645
100.713
100.756
100.873
100.578
100.611
100.611
100.621
100.661
100.732
100.833
100.949
101.045
101.289
102.084
102.044
102.039
102.057
102.163
102.346
102.601
102.916
103.175
103.394
110.202
110.256
110.247
110.289
110.407
110.618
110.927
111.333
111.682
112.243
231.797
232.024
231.441
231.728
232.861
234.84
237.692
240.991
244.727
245.427
3887.54
3886.22
3885.61
3885.84
3886.93
3888.86
3891.56
3894.77
3898.06
3900.93
3295.4
3295.69
3295.87
3295.88
3295.82
3295.69
3295.53
3295.4
3295.36
3295.19
186.179
185.439
185.185
185.11
185.096
185.114
185.188
185.399
185.932
187.163
104.233
104.263
104.275
104.272
104.262
104.253
104.251
104.272
104.362
104.587
100.066
100.075
100.078
100.079
100.088
100.106
100.135
100.178
100.25
100.419
100.128
100.143
100.146
100.147
100.169
100.209
100.262
100.314
100.348
100.439
100.145
100.168
100.168
100.173
100.196
100.238
100.294
100.353
100.391
100.552
101.386
101.355
101.349
101.364
101.435
101.557
101.721
101.915
102.059
102.186
108.473
108.551
108.557
108.585
108.648
108.756
108.903
109.084
109.164
109.465
219.743
220.212
219.804
220.008
220.799
222.163
224.104
226.267
228.685
228.436
3685.76
3684.86
3684.44
3684.6
3685.35
3686.67
3688.46
3690.53
3692.54
3694.28
3124.92
3125.13
3125.26
3125.27
3125.22
3125.14
3125.04
3124.96
3124.94
3124.8
176.998
176.29
176.06
175.996
175.983
175.995
176.048
176.21
176.658
177.756
103.548
103.556
103.557
103.555
103.552
103.55
103.553
103.572
103.646
103.837
99.9865
99.9895
99.991
99.9911
99.995
100.004
100.019
100.044
100.097
100.24
99.9884
99.9858
99.9806
99.9821
100.001
100.034
100.078
100.122
100.156
100.242
99.9493
99.9609
99.9588
99.9619
99.9772
100.004
100.039
100.075
100.094
100.219
100.985
100.954
100.946
100.959
101.011
101.097
101.21
101.341
101.44
101.547
107.03
107.11
107.126
107.144
107.178
107.23
107.293
107.366
107.332
107.522
207.051
207.657
207.396
207.536
208.068
208.974
210.254
211.65
213.204
212.512
3478.11
3477.52
3477.24
3477.35
3477.84
3478.69
3479.83
3481.09
3482.27
3483.32
2949.42
2949.58
2949.66
2949.67
2949.64
2949.59
2949.53
2949.48
2949.46
2949.34
167.136
166.467
166.262
166.209
166.197
166.203
166.239
166.358
166.729
167.698
102.901
102.894
102.888
102.887
102.887
102.89
102.896
102.912
102.972
103.136
99.9642
99.9637
99.9644
99.9638
99.9644
99.9672
99.9734
99.9871
100.027
100.157
99.9385
99.9272
99.9184
99.9192
99.9338
99.9605
99.9954
100.032
100.066
100.155
99.8768
99.88
99.8768
99.8786
99.8892
99.9077
99.9316
99.9555
99.9708
100.077
100.736
100.706
100.697
100.707
100.745
100.807
100.887
100.98
101.057
101.169
105.732
105.804
105.824
105.837
105.855
105.879
105.9
105.922
105.845
105.983
193.544
194.204
194.061
194.155
194.493
195.06
195.864
196.742
197.711
196.875
3265.48
3265.11
3264.94
3265.01
3265.31
3265.82
3266.5
3267.22
3267.87
3268.51
2769.63
2769.76
2769.81
2769.81
2769.8
2769.77
2769.73
2769.7
2769.69
2769.58
156.49
155.866
155.689
155.648
155.638
155.64
155.661
155.744
156.045
156.893
102.282
102.267
102.259
102.258
102.26
102.264
102.271
102.284
102.331
102.474
99.9691
99.9664
99.9662
99.9651
99.9639
99.9632
99.9646
99.9719
100.004
100.127
99.9309
99.917
99.9081
99.9082
99.9185
99.9378
99.9633
99.9912
100.022
100.113
99.866
99.8646
99.8612
99.8621
99.8691
99.8816
99.8978
99.9146
99.9281
100.017
100.552
100.524
100.515
100.522
100.549
100.591
100.646
100.711
100.773
100.891
104.502
104.559
104.58
104.59
104.599
104.608
104.61
104.61
104.525
104.627
179.08
179.728
179.68
179.74
179.934
180.252
180.711
181.238
181.792
180.995
3048.95
3048.73
3048.63
3048.67
3048.84
3049.12
3049.5
3049.87
3050.19
3050.58
2586.59
2586.69
2586.72
2586.73
2586.72
2586.7
2586.68
2586.66
2586.64
2586.54
144.92
144.351
144.207
144.178
144.171
144.169
144.18
144.233
144.468
145.204
101.695
101.678
101.672
101.671
101.673
101.678
101.684
101.694
101.725
101.845
99.9821
99.977
99.9757
99.9742
99.9724
99.9706
99.9702
99.9747
100
100.117
99.9411
99.9288
99.9216
99.9212
99.9276
99.9398
99.9565
99.9758
100
100.082
99.8846
99.8819
99.8791
99.8794
99.8835
99.8909
99.9006
99.9113
99.9223
99.9887
100.379
100.355
100.348
100.352
100.368
100.395
100.429
100.47
100.517
100.628
103.308
103.35
103.368
103.375
103.379
103.379
103.372
103.362
103.287
103.35
163.504
164.087
164.118
164.155
164.243
164.375
164.577
164.855
165.091
164.447
2829.82
2829.7
2829.64
2829.66
2829.74
2829.89
2830.07
2830.23
2830.37
2830.59
2401.42
2401.55
2401.57
2401.57
2401.57
2401.56
2401.55
2401.53
2401.52
2401.44
132.188
131.69
131.59
131.574
131.57
131.567
131.569
131.597
131.761
132.393
101.158
101.145
101.141
101.14
101.142
101.145
101.15
101.156
101.171
101.252
99.9882
99.981
99.9787
99.9771
99.9755
99.9742
99.9738
99.9772
99.9966
100.097
99.9583
99.9495
99.9446
99.944
99.9473
99.954
99.9634
99.975
99.9916
100.052
99.9163
99.9143
99.9125
99.9124
99.9142
99.9175
99.9219
99.9272
99.9344
99.9752
100.197
100.181
100.175
100.177
100.185
100.199
100.216
100.238
100.268
100.355
102.165
102.19
102.202
102.205
102.204
102.199
102.187
102.173
102.119
102.146
146.461
146.917
146.938
146.966
147.026
147.112
147.207
147.289
147.254
146.82
2609.5
2609.44
2609.43
2609.43
2609.46
2609.5
2609.55
2609.61
2609.66
2609.78
2214.83
2214.86
2214.87
2214.87
2214.86
2214.86
2214.86
2214.86
2214.86
2214.83
117.717
117.36
117.318
117.317
117.317
117.313
117.308
117.312
117.383
117.867
100.676
100.665
100.66
100.658
100.658
100.661
100.665
100.67
100.676
100.707
99.987
99.9807
99.9788
99.9777
99.9769
99.9763
99.9763
99.9782
99.9892
100.054
99.9803
99.9753
99.9727
99.9723
99.9737
99.9766
99.9809
99.9864
99.995
100.026
99.9542
99.9534
99.9528
99.9527
99.9531
99.9539
99.9548
99.9561
99.9589
99.9771
100.049
100.041
100.038
100.039
100.042
100.047
100.053
100.062
100.075
100.124
101.109
101.117
101.121
101.121
101.116
101.108
101.097
101.084
101.064
101.075
126.373
126.642
126.652
126.668
126.699
126.745
126.794
126.83
126.801
126.532
2388.79
2388.76
2388.76
2388.77
2388.77
2388.77
2388.76
2388.76
2388.75
2388.81
7160.28
7264.12
7218.53
7015.68
662423
683868
687820
696230
1.48849e+06
1.56687e+06
1.57032e+06
1.54973e+06
2.49738e+06
2.66139e+06
2.65243e+06
2.56776e+06
3.71439e+06
3.98819e+06
3.95342e+06
3.78359e+06
5.24173e+06
5.65565e+06
5.59941e+06
5.38626e+06
6.77836e+06
7.34201e+06
7.27629e+06
7.07172e+06
7.7848e+06
8.47637e+06
8.42403e+06
8.27926e+06
5.5704e+06
6.10802e+06
6.05141e+06
6.00045e+06
7862.89
8105.97
7946.25
7538.53
5737.86
5785.73
5785.72
5746.63
309576
321991
341195
372648
684597
767876
808590
843801
1.16464e+06
1.37478e+06
1.43258e+06
1.45538e+06
1.74122e+06
2.13212e+06
2.19909e+06
2.20788e+06
2.42386e+06
3.04043e+06
3.14341e+06
3.18491e+06
3.08484e+06
3.94674e+06
4.11702e+06
4.23825e+06
3.52172e+06
4.6006e+06
4.8582e+06
5.08959e+06
2.77364e+06
3.74435e+06
3.95651e+06
4.26163e+06
7103.06
7331.31
7262.71
7038.89
4923.03
4932.36
4930.36
4920.27
21886.5
25902.1
24426.1
19837.5
61461.6
72471.3
67462.5
54658.4
127725
150117
137711
111123
225982
265209
240367
193874
368433
433492
393745
319180
539386
636097
580843
474864
696189
824625
757568
624462
580860
686421
622139
516115
6319.03
6404.88
6380.93
6284.47
4698.79
4700.04
4699.97
4698.88
1636.77
1731.93
1687.12
1552.48
4738.84
5146.23
4950.34
4376.92
11214.7
12339.1
11691.3
9994.84
22423.2
24835.8
23167.2
19242.2
41449
46195.4
42661.1
34714.6
67866.7
75787.5
69417.5
55781.8
96757.2
108451
98768.5
78702.8
83295.4
92780.1
83065.7
65944.6
5880.17
5921.26
5917.67
5879.78
4550.83
4551.24
4551.06
4550.26
436.319
445.514
445.177
437.886
722.258
760.606
759.461
728.726
1601.54
1725.09
1706.27
1587.19
3198.09
3489.1
3398.34
3058.78
6126.34
6748.82
6476.05
5650.35
10464.7
11558.2
10922.1
9281.49
15674.8
17388.5
16223.1
13467.8
13881
15287
13940.8
11376.4
5558.07
5579.84
5581.12
5565.79
4428.67
4429.05
4428.83
4428
283.366
284.904
284.609
283.06
232.41
235.631
236.049
234.569
390.925
405.322
407.212
399.813
678.314
717.135
717.556
690.618
1220.15
1313.41
1303.23
1222.55
2027.66
2202.12
2155.87
1969.06
3057
3350.78
3236.42
2874.53
2938.11
3176.07
3001.62
2634.53
5300.74
5311.4
5313.53
5308.29
4307.75
4308.13
4307.95
4307.19
247.563
248.808
248.674
247.412
143.721
143.793
143.606
143.376
179.111
180.985
181.423
180.9
246.394
252.459
253.804
251.716
373.154
389.678
392.196
384.416
554.02
586.026
586.846
566.242
802.675
860.412
854.909
808.131
987.49
1031.57
1009.37
959.35
5081.34
5086.13
5088.07
5087.15
4182.31
4182.68
4182.53
4181.88
232.843
234.177
234.182
233.02
120.668
120.476
120.261
120.121
127.965
128.099
128.049
127.965
148.034
149.016
149.291
149.133
185.977
189.397
190.416
189.641
236.689
243.314
244.797
242.634
318.576
331.571
333.216
327.002
544.085
550.39
547.573
543.175
4881.94
4883.85
4885.24
4885.74
4050.54
4050.88
4050.77
4050.22
223.539
224.955
225.057
223.959
112.76
112.644
112.502
112.39
111.868
111.806
111.715
111.669
119.097
119.246
119.264
119.239
133.348
134.241
134.557
134.438
151.57
153.156
153.704
153.516
189.642
193.095
194.024
193.091
401.021
398.593
397.985
400.497
4689.12
4689.71
4690.57
4691.32
3912.05
3912.36
3912.28
3911.82
215.723
217.176
217.335
216.292
109.351
109.313
109.229
109.134
105.66
105.616
105.557
105.522
108.522
108.55
108.535
108.516
114.788
115.123
115.241
115.183
123.014
123.473
123.671
123.676
146.057
147.157
147.547
147.347
336.328
331.562
330.979
334.477
4496.53
4496.52
4497.02
4497.7
3766.79
3767.07
3767.01
3766.64
208.171
209.63
209.826
208.831
107.546
107.562
107.515
107.431
102.933
102.928
102.897
102.867
104.058
104.086
104.079
104.057
107.026
107.217
107.281
107.23
111.461
111.637
111.726
111.738
127.788
128.21
128.375
128.288
298.81
293.431
292.699
296.201
4301.55
4301.32
4301.59
4302.13
3614.9
3615.15
3615.11
3614.82
200.433
201.88
202.099
201.151
106.372
106.424
106.401
106.322
101.632
101.654
101.642
101.611
102.019
102.055
102.058
102.034
103.442
103.58
103.625
103.577
106.191
106.281
106.333
106.341
118.806
118.994
119.065
119.001
272.851
267.402
266.586
269.933
4103
4102.73
4102.88
4103.26
3456.64
3456.86
3456.84
3456.6
192.312
193.732
193.967
193.064
105.465
105.538
105.531
105.455
100.97
101.008
101.007
100.973
101.046
101.085
101.09
101.066
101.708
101.813
101.846
101.804
103.626
103.678
103.713
103.722
113.832
113.92
113.945
113.891
252.412
247.093
246.25
249.417
3900.31
3900.11
3900.19
3900.43
3292.33
3292.52
3292.51
3292.32
183.697
185.079
185.322
184.467
104.674
104.76
104.762
104.686
100.613
100.658
100.661
100.625
100.568
100.601
100.606
100.584
100.854
100.93
100.952
100.918
102.327
102.354
102.377
102.391
110.756
110.793
110.794
110.746
234.701
229.604
228.768
231.746
3693.33
3693.25
3693.29
3693.39
3122.41
3122.58
3122.57
3122.41
174.503
175.834
176.082
175.276
103.94
104.029
104.035
103.961
100.411
100.453
100.456
100.42
100.328
100.349
100.351
100.335
100.432
100.481
100.493
100.469
101.638
101.646
101.661
101.679
108.613
108.624
108.611
108.566
218.242
213.426
212.62
215.396
3482.18
3482.23
3482.25
3482.23
2947.44
2947.58
2947.57
2947.43
164.643
165.914
166.162
165.41
103.239
103.322
103.328
103.256
100.291
100.323
100.323
100.291
100.202
100.209
100.208
100.2
100.22
100.245
100.25
100.238
101.238
101.231
101.24
101.262
106.921
106.922
106.903
106.858
202.165
197.683
196.927
199.479
3267.26
3267.44
3267.46
3267.34
2768.17
2768.28
2768.25
2768.13
154.026
155.225
155.472
154.779
102.564
102.635
102.637
102.571
100.218
100.234
100.229
100.204
100.132
100.125
100.122
100.126
100.109
100.114
100.115
100.115
100.954
100.941
100.945
100.966
105.423
105.428
105.409
105.362
185.892
181.814
181.129
183.425
3049.28
3049.57
3049.59
3049.4
2585.63
2585.7
2585.66
2585.55
142.543
143.669
143.913
143.284
101.911
101.963
101.963
101.911
100.168
100.167
100.157
100.143
100.088
100.071
100.068
100.082
100.044
100.035
100.034
100.045
100.695
100.682
100.681
100.698
103.984
104
103.987
103.938
168.97
165.422
164.834
166.808
2829.31
2829.66
2829.68
2829.45
2401.04
2401.04
2400.99
2400.91
130.03
131.087
131.326
130.754
101.287
101.319
101.32
101.291
100.123
100.108
100.096
100.091
100.055
100.037
100.034
100.052
100.005
99.9924
99.9909
100.004
100.42
100.413
100.41
100.419
102.564
102.587
102.581
102.539
150.828
147.884
147.44
149.08
2608.65
2609.03
2609.06
2608.81
2214.94
2214.82
2214.77
2214.78
116.095
117.052
117.247
116.717
100.707
100.721
100.727
100.724
100.07
100.053
100.041
100.04
100.033
100.021
100.019
100.03
99.9924
99.9847
99.9827
99.9899
100.17
100.167
100.163
100.165
101.244
101.252
101.251
101.235
129.142
127.136
126.895
128.037
2388.07
2388.47
2388.48
2388.21
6100.53
5434.84
5162.04
5064.3
5007.31
4966.94
4939.87
4923.95
4916.12
4912.19
791661
187205
32671
11483.1
5189.4
2784
1723.67
1201.07
924.366
764.26
1.39705e+06
234578
42837.7
14668.5
6566.44
3524.51
2134.88
1422.22
1026.68
791.682
1.94492e+06
222861
44916.4
14438.5
6224.11
3251.24
1920.23
1250.62
885.697
673.876
2.37298e+06
241147
46888.7
13917
5812.63
2948.66
1705.39
1094.58
766.598
580.965
2.83546e+06
264422
48936.5
13312.2
5345.26
2615.2
1478.03
934.914
651.348
494.479
3.1969e+06
281702
49609.1
12484.2
4860.46
2317
1296.25
818.758
572.253
438.216
3.27327e+06
274389
45460.1
10436.2
3917.74
1830.72
1035.31
671.125
487.978
387.7
2.25813e+06
173983
26070.6
5437.75
2174.56
1197.09
839.247
662.784
564.276
505.094
6016.41
5979.12
5834.22
5807.84
5764.56
5740.56
5721.77
5711.55
5704.47
5698.32
5427.71
5158.86
5028.35
4954.99
4908.51
4877.57
4857.39
4845.31
4839.23
4836.22
178104
44434.4
13532
5296.05
2625.01
1563.24
1065.27
805.725
660.944
577.301
366408
84141.5
22943.1
8122.61
3815.39
2148.24
1361.72
944.865
706.481
565.871
576110
121670
29671.8
9348.77
4099.6
2193.42
1333.97
894.13
650.02
510.565
800085
158078
34923.8
10016.9
4151.59
2132.42
1260.87
829.382
594.374
463.797
1.0756e+06
199107
40029
10418.2
4063.75
1996.75
1146.84
740.192
526.019
410.141
1.34534e+06
234482
43355.4
10361.8
3858.12
1840.01
1042.89
671.122
477.616
374.785
1.51673e+06
248196
42039.1
9115.29
3227.08
1506.51
861.348
567.984
419.772
340.987
1.14961e+06
171786
25657.4
5022.6
1894.61
1062.83
758.961
609.651
524.535
475.588
6233.52
5934.95
5777.22
5718.45
5668.31
5638.28
5616.63
5603.27
5593.68
5585.55
4886.08
4850.88
4822.71
4799.13
4780.61
4767.15
4758.23
4753
4750.57
4749.55
9239.11
4212.12
2318.55
1443.65
992.869
741.986
597.128
511.356
458.522
426.123
23652.2
9451.11
4598.6
2519.75
1527.91
1003.07
709.879
538.77
433.931
369.189
44272.4
15562.8
6772.91
3332.67
1857.03
1135.77
758.443
549.027
426.028
353.232
71192.9
22131.2
8726.21
3932.31
2055.13
1195.38
770.139
544.273
414.787
340.465
108584
29975
10674.8
4396.37
2156.95
1193.11
742.122
512.204
385.627
315.181
151023
37447.7
12128.2
4615.95
2160.79
1156.4
707.245
485.378
364.946
299.136
185610
41332.1
12079.6
4220.97
1895.13
996.345
615.388
432.392
336.19
283.571
137458
26748.9
7045.4
2463.67
1273.4
828.295
636.371
534.217
472.618
436.445
5995.57
5816.67
5694.39
5621.72
5570.03
5538
5515.76
5500.5
5489.05
5479.45
4693.84
4685.24
4675.62
4666.9
4660.24
4655.72
4652.98
4651.71
4651.74
4652.44
1225.42
922.425
720.142
578.778
485.863
426.389
388.432
363.874
347.284
336.262
3009.81
1912.39
1265.93
858.94
612.537
462.264
369.375
310.727
272.163
246.969
6105.45
3418.35
2021.85
1233.12
802.596
559.046
417.467
332.475
279.256
246.243
10462.4
5208.68
2805.91
1573.24
957.51
631.29
452.392
350.204
287.822
250.238
16867.2
7448.45
3659.25
1888.06
1076.22
671.794
462.294
347.878
281.183
242.35
24459
9639.57
4361.74
2099.75
1141.71
688.059
463.821
345.689
277.795
238.897
31154.7
10903.5
4522.11
2031.35
1066.78
634.63
431.916
327.981
270.122
236.921
22821.5
7142.67
2878.64
1409.29
890.951
657.163
540.3
472.443
428.708
402.276
5767.67
5642.15
5545.61
5483.34
5440.71
5412.9
5392.92
5378.48
5367.45
5358.41
4548.92
4547.46
4545.9
4544.61
4543.77
4543.38
4543.41
4543.92
4545.11
4546.74
420.498
390.402
362.843
340.126
323.002
310.469
301.419
294.903
290.032
286.347
639.056
514.869
413.758
336.687
282.091
244.359
218.608
201.01
188.476
179.774
1273.48
916.625
660.47
483.551
368.761
294.737
247.038
215.979
195.11
181.545
2234.69
1453.79
957.04
643.837
457.334
345.246
277.432
235.638
208.143
190.65
3737.27
2193.06
1320.67
816.224
539.939
384.506
295.862
243.694
211.097
191.12
5570.84
2969.92
1657.1
956.71
601.566
412.561
309.908
251.822
215.926
194.166
7289.58
3514.08
1818.61
990.048
604.134
409.988
309.543
253.981
220.769
200.664
5523.47
2575.71
1407.77
891.159
660.209
537.506
466.956
422.36
391.586
372.467
5516.86
5442.99
5379.64
5334.83
5302.21
5278.93
5261.34
5248.05
5237.67
5229.31
4427.39
4427.39
4427.46
4427.68
4428.07
4428.62
4429.31
4430.26
4431.72
4433.54
283.168
279.692
275.595
271.7
268.274
265.396
263.094
261.3
259.841
258.524
228.556
213.346
197.144
182.759
171.182
162.321
155.776
151
147.282
144.55
373.057
321.743
273.554
234.157
204.615
183.259
168.13
157.443
149.715
144.517
608.559
483.849
379.657
301.783
248.147
212.144
188.257
172.332
160.906
153.241
1002.99
728.983
524.236
383.811
294.756
238.873
203.841
181.466
166.325
156.587
1501.48
1006.33
671.69
460.228
336.084
262.599
218.712
191.814
173.702
162.072
2017.81
1246.42
778.662
507.872
361.13
278.768
231.559
203.114
184.728
173.031
1786.42
1164.52
815.814
624.787
518.731
453.279
410.644
381.531
360.098
346.447
5287.36
5247.32
5209.01
5178.42
5154.07
5135.16
5120.18
5108.41
5099.01
5091.55
4306.86
4307.11
4307.38
4307.76
4308.28
4308.89
4309.59
4310.49
4311.86
4313.57
248.426
247.742
246.919
246.08
245.233
244.435
243.746
243.161
242.617
241.946
142.785
140.491
137.743
135.074
132.702
130.732
129.203
128.048
127.039
126.26
178
169.491
159.924
150.963
143.323
137.165
132.376
128.707
125.865
123.944
242.309
220.43
198.094
178.862
163.803
152.574
144.412
138.519
133.862
130.601
356.053
303.229
254.563
215.997
188.107
168.614
155.139
145.741
138.826
134.216
502.536
401.84
316.601
254.437
212.741
185.25
167.109
154.996
146.037
139.972
678.942
509.551
380.27
293.641
239.499
205.413
183.665
169.348
159.35
152.731
820.839
670.304
557.084
481.089
429.843
393.829
367.765
348.715
333.836
324.155
5078.58
5057.89
5035.2
5014.62
4996.77
4981.9
4969.59
4959.58
4951.39
4944.96
4181.71
4181.99
4182.18
4182.43
4182.8
4183.24
4183.75
4184.43
4185.56
4187.05
234.107
233.809
233.484
233.153
232.791
232.429
232.097
231.776
231.419
230.86
120.029
119.543
119.017
118.501
118.006
117.581
117.272
117.06
116.824
116.634
127.523
125.805
123.694
121.463
119.306
117.38
115.758
114.426
113.342
112.64
147.797
143.441
138.385
133.447
129.083
125.492
122.663
120.469
118.55
117.167
185.099
173.656
161.543
150.608
141.662
134.718
129.443
125.44
122.252
120.094
232.861
210.745
188.576
170.127
156.068
145.739
138.219
132.767
128.333
125.194
304.356
263.896
227.322
199.116
178.873
164.581
154.487
147.275
141.876
138.207
514.827
472.053
430.92
397.732
371.504
351.002
334.82
322.274
311.943
305.153
4881.85
4870.95
4857.37
4843.65
4830.87
4819.59
4809.85
4801.67
4794.81
4789.47
4050.19
4050.47
4050.57
4050.68
4050.88
4051.14
4051.45
4051.9
4052.77
4054.02
225.022
224.791
224.544
224.288
224.012
223.739
223.478
223.199
222.849
222.272
112.34
112.115
111.941
111.795
111.659
111.558
111.518
111.519
111.478
111.446
111.538
111.047
110.466
109.79
109.063
108.366
107.748
107.213
106.764
106.499
118.943
117.873
116.595
115.202
113.832
112.615
111.598
110.761
109.941
109.34
133.317
130.283
126.925
123.536
120.45
117.83
115.676
113.913
112.407
111.392
151.628
146.099
139.914
134.117
129.148
125.121
121.928
119.437