/*--------------------------------*- C++ -*----------------------------------*\
| =========                 |                                                 |
| \\      /  F ield         | foam-extend: Open Source CFD                    |
|  \\    /   O peration     | Version:     4.0                                |
|   \\  /    A nd           | Web:         http://www.foam-extend.org         |
|    \\/     M anipulation  |                                                 |
\*---------------------------------------------------------------------------*/
FoamFile
{
    version     2.0;
    format      ascii;
    class       volScalarField;
    location    "700";
    object      k;
}
// * * * * * * * * * * * * * * * * * * * * * * * * * * * * * * * * * * * * * //

dimensions      [0 2 -2 0 0 0 0];

internalField   nonuniform List<scalar> 
34480
(
8.74746
8.74543
8.74516
8.74647
8.74949
8.75465
8.77027
8.83766
9.06794
9.68561
9.30083
8.68275
8.58797
8.86447
9.4672
10.3793
12.0584
16.1697
29.5449
68.6589
14.9847
13.5516
13.132
13.2967
13.894
14.9814
17.4093
23.2854
42.4371
102.777
14.4103
12.9592
12.5547
12.7749
13.515
14.9726
18.208
25.7165
49.8193
128.483
13.3245
12.0066
11.7105
12.011
12.8953
14.6432
18.4607
27.2212
55.7074
151.851
12.1229
10.9486
10.6894
11.0052
11.9282
13.8554
18.1429
28.1636
61.5235
176.905
11.2377
10.2112
10.0048
10.3105
11.2322
13.2267
17.7738
28.6645
66.0066
198.297
9.8008
9.03066
8.85899
9.09639
9.82768
11.5217
15.6654
26.3857
65.1645
206.314
6.87934
6.63003
6.59089
6.70859
7.04672
7.78602
9.82274
16.4643
43.985
150.8
9.22115
9.21938
9.22331
9.23456
9.25156
9.27261
9.29806
9.33642
9.40843
9.48392
8.65755
8.65535
8.6549
8.65633
8.66026
8.6672
8.68022
8.71302
8.79153
9.0613
7.99336
7.56034
7.46272
7.61704
8.0642
8.91404
10.3898
12.2906
15.8812
42.746
12.2909
11.2406
10.9608
11.17
11.8585
13.1418
15.3862
18.3822
24.3182
68.0791
12.1553
11.0367
10.7482
11.0069
11.8281
13.4008
16.2143
20.2339
28.7739
87.3267
11.5712
10.51
10.2843
10.5855
11.5044
13.2758
16.4949
21.2689
32.1218
105.022
10.7656
9.79195
9.57767
9.8796
10.8093
12.672
16.177
21.643
35.1096
124.4
10.1682
9.29112
9.11252
9.39376
10.2992
12.1654
15.8122
21.7246
37.3843
141.726
9.03713
8.36856
8.21116
8.42351
9.12746
10.6597
13.8503
19.4561
36.0519
148.615
6.64509
6.41388
6.36729
6.44831
6.72281
7.3256
8.69944
11.6643
22.7921
103.894
9.09568
9.0894
9.08829
9.09401
9.10556
9.12073
9.14088
9.1755
9.24719
9.43348
8.55534
8.55349
8.55289
8.55361
8.55595
8.55942
8.56472
8.57901
8.61045
8.68051
6.85212
6.6281
6.57009
6.64342
6.87551
7.32936
8.15314
9.51624
11.4287
17.0886
9.79356
9.17357
9.02545
9.1956
9.72119
10.6913
12.34
14.7934
17.9101
30.0405
9.95661
9.24742
9.08069
9.30385
9.97352
11.2447
13.4593
16.8263
21.3586
41.4346
9.78093
9.07447
8.93976
9.19406
9.95201
11.4197
14.0466
18.1041
23.9325
52.6773
9.33151
8.65734
8.51861
8.77713
9.55651
11.1345
14.0818
18.7799
26.1493
65.2263
9.00162
8.37112
8.25279
8.49679
9.26535
10.87
13.9959
19.1129
27.8617
77.2348
8.19368
7.70423
7.59461
7.78174
8.37964
9.69606
12.4476
17.3175
26.8072
83.4557
6.37607
6.19623
6.16215
6.22876
6.44785
6.9251
7.99696
10.4561
16.8458
57.8457
8.97797
8.96899
8.96506
8.96764
8.97614
8.98846
9.00549
9.03774
9.11443
9.31249
8.43998
8.43933
8.43923
8.43981
8.44119
8.44245
8.44315
8.44739
8.45805
8.47958
6.06703
5.96744
5.93763
5.96627
6.06634
6.26325
6.62084
7.25089
8.19937
10.2382
7.91413
7.59809
7.52761
7.62381
7.92852
8.50168
9.47845
11.0101
12.9253
17.5688
8.2071
7.80662
7.71436
7.85667
8.28826
9.11989
10.5692
12.8819
15.7669
23.9397
8.29075
7.86465
7.78666
7.9555
8.46592
9.4692
11.2723
14.2196
17.9722
30.3539
8.10582
7.67371
7.5836
7.76415
8.31045
9.43216
11.5422
15.1268
19.9137
37.7601
7.98132
7.55488
7.47486
7.6513
8.20753
9.38048
11.6789
15.7087
21.3972
45.0058
7.45315
7.11072
7.0326
7.17323
7.61393
8.58554
10.6197
14.5115
20.6991
48.8892
6.13616
5.99855
5.9728
6.02301
6.18642
6.53442
7.27763
9.05175
13.0435
33.2601
8.84547
8.83672
8.8327
8.83488
8.84293
8.85568
8.87346
8.90599
8.97709
9.13038
8.31292
8.31331
8.31363
8.31398
8.3144
8.31378
8.31195
8.31108
8.31206
8.31517
5.58087
5.54121
5.52657
5.53464
5.57006
5.64128
5.76969
5.99144
6.30797
6.8185
6.65385
6.5137
6.48473
6.52474
6.66178
6.92555
7.38243
8.12674
9.07531
10.6559
6.94775
6.7425
6.69345
6.76603
6.99456
7.44078
8.2253
9.5305
11.1753
14.2593
7.14934
6.91241
6.86893
6.96237
7.25371
7.82932
8.87063
10.6658
12.9528
17.9243
7.12696
6.86575
6.80714
6.91573
7.24885
7.93378
9.22764
11.5654
14.643
22.3102
7.13632
6.86043
6.80563
6.91715
7.27402
8.02277
9.48745
12.2338
15.9895
26.6557
6.82599
6.59448
6.53803
6.63237
6.9255
7.56298
8.87837
11.5724
15.7014
29.0252
5.9247
5.82091
5.80101
5.83578
5.95086
6.1893
6.66687
7.78461
10.1317
19.2992
8.70335
8.69494
8.69092
8.69274
8.70021
8.71272
8.73014
8.76023
8.81992
8.93008
8.17494
8.17611
8.17675
8.17692
8.17665
8.17497
8.17252
8.17028
8.16881
8.16798
5.30032
5.28625
5.27913
5.28004
5.29058
5.31424
5.35802
5.43209
5.53181
5.6596
5.87433
5.82259
5.8149
5.82773
5.87793
5.97684
6.15028
6.43561
6.80863
7.32875
6.10335
6.00867
5.98536
6.01805
6.12512
6.33335
6.69477
7.30002
8.08505
9.26487
6.32395
6.20434
6.18355
6.23021
6.38025
6.67188
7.18968
8.09847
9.29401
11.3082
6.38
6.23287
6.19752
6.25808
6.44544
6.82326
7.52069
8.81326
10.5669
13.8636
6.46076
6.29231
6.25749
6.32332
6.53739
6.97556
7.80753
9.41528
11.6614
16.4042
6.3068
6.15858
6.12028
6.18054
6.36512
6.75528
7.52734
9.14487
11.6595
17.7615
5.74051
5.6647
5.65031
5.67352
5.75237
5.91112
6.20948
6.86298
8.10699
11.8469
8.55067
8.54283
8.53899
8.54056
8.54741
8.55916
8.57551
8.60215
8.64866
8.72152
8.02654
8.0282
8.02906
8.0291
8.02839
8.02653
8.02422
8.02195
8.02023
8.01886
5.14667
5.14221
5.13841
5.13745
5.13987
5.14761
5.16361
5.19178
5.22894
5.27065
5.42017
5.40682
5.40822
5.41063
5.42445
5.45419
5.50949
5.60158
5.72165
5.8717
5.57043
5.53134
5.52164
5.53501
5.58109
5.67
5.82015
6.06365
6.37678
6.78476
5.75968
5.70566
5.69796
5.71923
5.79068
5.9259
6.15682
6.55159
7.07468
7.82489
5.83912
5.762
5.74217
5.77385
5.87309
6.06756
6.41068
7.0323
7.89171
9.23631
5.94666
5.84944
5.82885
5.86527
5.98718
6.22878
6.66448
7.49001
8.66557
10.6786
5.89595
5.80636
5.78185
5.81843
5.92905
6.15577
6.58031
7.44519
8.80516
11.4665
5.58676
5.53278
5.52288
5.5377
5.59028
5.69336
5.87745
6.24836
6.88993
8.30617
8.38688
8.37981
8.37628
8.37763
8.38376
8.39429
8.40898
8.43167
8.46706
8.51491
7.86835
7.8699
7.87089
7.87084
7.87001
7.86849
7.86661
7.86475
7.86338
7.86223
5.06509
5.06401
5.06166
5.06063
5.06106
5.06407
5.0716
5.08597
5.10562
5.12812
5.16615
5.16723
5.17161
5.17103
5.1723
5.17787
5.19223
5.2192
5.25568
5.30093
5.2495
5.23572
5.23247
5.23758
5.25643
5.29288
5.35305
5.44618
5.56106
5.69598
5.39145
5.37087
5.36975
5.37866
5.41067
5.4697
5.56635
5.72277
5.92313
6.1772
5.4651
5.42801
5.41776
5.43348
5.48376
5.57953
5.74024
6.01452
6.38612
6.89237
5.5726
5.51971
5.50849
5.52746
5.59424
5.72244
5.94086
6.33041
6.87482
7.66359
5.58428
5.53373
5.51904
5.54026
5.60359
5.72984
5.95436
6.38403
7.04708
8.13357
5.46337
5.42572
5.41924
5.42834
5.46279
5.52874
5.64199
5.85117
6.18567
6.73894
8.21146
8.2053
8.20219
8.20334
8.20866
8.21767
8.23032
8.24891
8.27524
8.30713
7.70028
7.70155
7.70238
7.70237
7.70174
7.70059
7.69916
7.69779
7.69683
7.69597
5.0221
5.02219
5.02068
5.01994
5.02008
5.02192
5.02686
5.03664
5.05058
5.06742
5.02846
5.03385
5.03853
5.03761
5.03568
5.03447
5.03667
5.04428
5.05674
5.07526
5.06416
5.06071
5.06013
5.06205
5.0697
5.08478
5.10949
5.14633
5.18989
5.23925
5.1613
5.15602
5.15755
5.16097
5.17466
5.19946
5.23873
5.29852
5.37086
5.45574
5.21777
5.20195
5.19713
5.20462
5.22926
5.27515
5.34899
5.46614
5.61756
5.80284
5.31228
5.28524
5.27966
5.289
5.3246
5.39116
5.49908
5.67699
5.91264
6.20362
5.3579
5.3318
5.32366
5.33547
5.37012
5.43768
5.55332
5.75899
6.06339
6.49029
5.36835
5.34235
5.33832
5.34375
5.36621
5.40834
5.47823
5.5969
5.77303
6.00836
8.02399
8.01884
8.01621
8.01717
8.02162
8.02899
8.03944
8.0541
8.07322
8.09441
7.52207
7.52309
7.52376
7.52376
7.52332
7.52249
7.52146
7.5205
7.51987
7.51925
4.99896
4.99943
4.99844
4.99801
4.99827
4.99982
5.00375
5.01145
5.02276
5.03693
4.95579
4.96166
4.96567
4.96509
4.96304
4.96084
4.96027
4.96273
4.9687
4.98011
4.96149
4.96166
4.96196
4.96275
4.96605
4.97277
4.98383
4.99992
5.0186
5.04115
5.02346
5.02411
5.02622
5.02743
5.03319
5.04358
5.05963
5.08255
5.10832
5.13927
5.06147
5.05602
5.05401
5.05748
5.06932
5.09104
5.12488
5.17481
5.23568
5.30777
5.13909
5.1261
5.12359
5.128
5.14679
5.18121
5.23482
5.31636
5.41647
5.52458
5.20061
5.18881
5.18476
5.19111
5.20921
5.24393
5.30189
5.39811
5.53311
5.70499
5.29813
5.28012
5.2777
5.28095
5.29579
5.32307
5.36669
5.43502
5.52795
5.63579
7.82418
7.82006
7.81794
7.81872
7.82227
7.82806
7.83637
7.84751
7.86102
7.87489
7.33338
7.33418
7.33471
7.33473
7.33442
7.33384
7.33313
7.33248
7.33209
7.33164
4.98575
4.98637
4.98575
4.98553
4.98589
4.98727
4.99051
4.99679
5.00627
5.01849
4.91833
4.92343
4.92655
4.92633
4.92489
4.92321
4.92248
4.92374
4.92787
4.93681
4.90711
4.90816
4.90861
4.909
4.91066
4.91409
4.91973
4.92781
4.93731
4.95028
4.94451
4.94668
4.94844
4.94888
4.95147
4.95618
4.96324
4.97256
4.9819
4.99493
4.96732
4.96632
4.96561
4.96722
4.97292
4.9833
4.99901
5.02056
5.04496
5.07611
5.02912
5.02314
5.0221
5.02417
5.03428
5.05247
5.07982
5.11832
5.16103
5.20292
5.09617
5.09206
5.0904
5.09375
5.10276
5.11983
5.14785
5.19164
5.24881
5.32214
5.24826
5.23552
5.2341
5.23615
5.24629
5.26448
5.29227
5.3326
5.3817
5.43381
7.61185
7.60872
7.60711
7.6077
7.6104
7.61479
7.62114
7.62931
7.63861
7.64753
7.13389
7.13451
7.13493
7.13495
7.13474
7.13435
7.13386
7.13343
7.1332
7.13287
4.97746
4.97815
4.97782
4.97773
4.97809
4.97925
4.98187
4.98693
4.99482
5.00534
4.89947
4.90349
4.90576
4.90577
4.90493
4.90393
4.90354
4.90454
4.90793
4.91548
4.87977
4.88074
4.88109
4.88133
4.8823
4.88431
4.88755
4.89215
4.89781
4.90663
4.90139
4.90331
4.90444
4.90464
4.90607
4.90867
4.91241
4.91684
4.92058
4.9271
4.91344
4.91397
4.91377
4.91454
4.9174
4.92255
4.93011
4.93971
4.94949
4.96463
4.96256
4.95971
4.95926
4.96032
4.96607
4.97625
4.99099
5.0103
5.02906
5.04612
5.02985
5.02943
5.02906
5.03083
5.03509
5.04307
5.05589
5.07494
5.09689
5.13053
5.21402
5.2047
5.20386
5.2053
5.21259
5.22518
5.24344
5.26808
5.29421
5.32083
7.38696
7.38471
7.38356
7.38398
7.38591
7.38918
7.39385
7.39963
7.40584
7.41149
6.92333
6.92382
6.92413
6.92415
6.92401
6.92375
6.92342
6.92314
6.92301
6.92276
4.97164
4.97236
4.97223
4.97222
4.97253
4.97343
4.97545
4.97941
4.98587
4.99481
4.89022
4.8932
4.89474
4.89486
4.89444
4.89395
4.89387
4.89475
4.89763
4.90407
4.86694
4.86758
4.8678
4.86795
4.86856
4.8698
4.87178
4.87458
4.87834
4.88496
4.87906
4.88021
4.88074
4.88088
4.88188
4.88371
4.88621
4.8889
4.89085
4.89484
4.88431
4.88508
4.88501
4.88541
4.88696
4.88972
4.89362
4.89817
4.90217
4.9106
4.92413
4.92248
4.9222
4.92287
4.92644
4.93264
4.94129
4.95193
4.96089
4.96856
4.98928
4.99034
4.99061
4.99158
4.99349
4.99697
5.00232
5.00993
5.0164
5.03361
5.19091
5.1839
5.18338
5.18454
5.19002
5.19909
5.21157
5.22729
5.24138
5.2563
7.14966
7.14805
7.1473
7.14758
7.14892
7.15129
7.15459
7.15853
7.16255
7.16608
6.70151
6.70189
6.70212
6.70213
6.70204
6.70187
6.70166
6.70147
6.7014
6.7012
4.96705
4.96779
4.96782
4.96784
4.96808
4.96872
4.9702
4.97318
4.97833
4.98576
4.88585
4.8879
4.88886
4.88901
4.88886
4.88869
4.8888
4.88956
4.89199
4.89749
4.86155
4.8619
4.86202
4.8621
4.86246
4.8632
4.86439
4.86612
4.86877
4.87409
4.86819
4.86861
4.8687
4.86881
4.86961
4.87109
4.87303
4.87503
4.87649
4.87952
4.86956
4.8701
4.87003
4.87025
4.87118
4.87281
4.87503
4.87742
4.87922
4.88474
4.90281
4.90153
4.90125
4.90176
4.90419
4.90832
4.91388
4.92045
4.92547
4.92989
4.96486
4.96628
4.96685
4.96742
4.96823
4.96959
4.97144
4.97394
4.97398
4.98437
5.17512
5.16969
5.16943
5.17045
5.17469
5.18151
5.19039
5.20091
5.20862
5.21836
6.90011
6.89898
6.89845
6.89866
6.8996
6.90124
6.90347
6.90605
6.90856
6.91075
6.46834
6.46863
6.46879
6.4688
6.46874
6.46863
6.4685
6.46838
6.46834
6.46817
4.96309
4.96386
4.96399
4.96404
4.96419
4.9646
4.96561
4.96774
4.97175
4.9777
4.88383
4.88512
4.88565
4.88579
4.88578
4.8858
4.88601
4.88665
4.88869
4.89342
4.85982
4.85996
4.86002
4.86005
4.86023
4.86061
4.86126
4.86231
4.86426
4.86881
4.86332
4.86321
4.86303
4.86311
4.86377
4.86498
4.86655
4.86816
4.86951
4.8723
4.86267
4.86291
4.86279
4.86292
4.86353
4.86459
4.86598
4.86742
4.86844
4.87266
4.8911
4.88991
4.8896
4.89002
4.89178
4.8947
4.89854
4.90298
4.9064
4.91003
4.94955
4.95085
4.95151
4.9519
4.95223
4.95267
4.953
4.95339
4.95105
4.95856
5.16367
5.15937
5.15927
5.16022
5.16361
5.16891
5.17547
5.18284
5.18707
5.19468
6.6385
6.63774
6.63739
6.63753
6.63816
6.63924
6.64068
6.64229
6.64378
6.64514
6.22386
6.22408
6.22419
6.22419
6.22416
6.22409
6.22401
6.22393
6.22391
6.22376
4.95941
4.96022
4.96041
4.96049
4.96056
4.96078
4.96141
4.96284
4.96586
4.97035
4.8828
4.88351
4.88374
4.88385
4.88392
4.88404
4.88428
4.88483
4.88652
4.89068
4.85978
4.85979
4.85981
4.8598
4.85985
4.86
4.8603
4.8609
4.86239
4.86651
4.86137
4.86098
4.86068
4.86072
4.86123
4.86217
4.86339
4.86469
4.86596
4.86879
4.85982
4.85982
4.85968
4.85975
4.86016
4.86088
4.86181
4.86277
4.86353
4.86707
4.8842
4.88305
4.88272
4.88306
4.88434
4.88644
4.88916
4.89231
4.89497
4.89867
4.93847
4.93946
4.94013
4.94042
4.94058
4.94067
4.94045
4.94012
4.93717
4.94321
5.15419
5.15077
5.15078
5.15168
5.15444
5.15865
5.16365
5.169
5.17123
5.17807
6.36517
6.36468
6.36446
6.36455
6.36494
6.36561
6.36649
6.36743
6.36827
6.36911
5.96833
5.96851
5.96858
5.96859
5.96857
5.96853
5.96848
5.96843
5.96841
5.96828
4.95575
4.95661
4.95681
4.9569
4.95691
4.957
4.95734
4.95821
4.96046
4.96356
4.88197
4.88227
4.88234
4.88241
4.88251
4.88267
4.88291
4.88335
4.88471
4.88843
4.86036
4.86028
4.86027
4.86023
4.8602
4.86022
4.86032
4.86066
4.86184
4.86572
4.86069
4.86022
4.85991
4.85992
4.86028
4.86094
4.86183
4.86281
4.86393
4.86678
4.85889
4.85877
4.85863
4.85866
4.85893
4.8594
4.86002
4.86068
4.8613
4.86425
4.87907
4.87802
4.8777
4.87794
4.87883
4.88028
4.88215
4.88436
4.8865
4.89034
4.9283
4.92898
4.92958
4.92983
4.92993
4.92992
4.92959
4.9291
4.9263
4.93109
5.14458
5.14192
5.14196
5.14281
5.14507
5.14845
5.15232
5.15626
5.15726
5.16377
6.08066
6.08037
6.08023
6.08028
6.08051
6.08089
6.08139
6.08189
6.08231
6.08284
5.7025
5.70259
5.70264
5.70264
5.70263
5.7026
5.70257
5.70254
5.70252
5.7024
4.95168
4.9525
4.95267
4.95275
4.95273
4.95273
4.95287
4.95335
4.95501
4.95701
4.88084
4.88091
4.88092
4.88096
4.88105
4.88121
4.88142
4.88173
4.88266
4.88588
4.8609
4.86073
4.86068
4.86062
4.86057
4.86053
4.86055
4.86076
4.8617
4.86535
4.86046
4.86003
4.85978
4.85977
4.85998
4.8604
4.86098
4.86165
4.86254
4.86511
4.85879
4.85865
4.85854
4.85854
4.8587
4.85897
4.85934
4.85975
4.86023
4.86246
4.87383
4.87296
4.87268
4.87282
4.87338
4.87428
4.87544
4.87685
4.87847
4.88211
4.9169
4.91732
4.91781
4.91801
4.91807
4.918
4.91766
4.91718
4.91486
4.91817
5.13189
5.12991
5.12997
5.13074
5.13254
5.13518
5.13813
5.14094
5.14114
5.1472
5.7858
5.78563
5.78555
5.78558
5.78569
5.78589
5.78613
5.78636
5.78656
5.78686
5.42699
5.42719
5.42722
5.42722
5.42721
5.4272
5.42718
5.42717
5.42715
5.42705
4.94554
4.94606
4.94624
4.94632
4.9463
4.94624
4.94624
4.94645
4.94758
4.94913
4.87905
4.87899
4.87898
4.87898
4.87905
4.87917
4.87933
4.87952
4.87996
4.8822
4.86089
4.86064
4.86056
4.8605
4.86045
4.86041
4.86041
4.86056
4.86127
4.86442
4.8603
4.85999
4.85982
4.8598
4.85991
4.86013
4.86045
4.86085
4.86145
4.86338
4.859
4.8589
4.85883
4.85882
4.85889
4.85901
4.85917
4.85937
4.85967
4.86107
4.86778
4.86718
4.86699
4.86704
4.86732
4.86778
4.86837
4.86911
4.87015
4.87305
4.90309
4.9033
4.90362
4.90373
4.90368
4.9035
4.90313
4.90266
4.90107
4.90281
5.10865
5.10732
5.10738
5.10802
5.10933
5.11123
5.1133
5.11507
5.11474
5.11976
5.48156
5.48148
5.48145
5.48146
5.48149
5.48155
5.48163
5.48171
5.48178
5.48196
5.14216
5.14221
5.14222
5.14221
5.14221
5.14221
5.14221
5.1422
5.14221
5.14218
4.92906
4.92915
4.92947
4.92963
4.92965
4.92956
4.92941
4.92931
4.9296
4.93158
4.87541
4.87521
4.87509
4.87503
4.87504
4.87512
4.87525
4.87541
4.87559
4.87646
4.86033
4.86012
4.86005
4.86001
4.85998
4.85996
4.85996
4.86004
4.86043
4.86251
4.86019
4.86001
4.85992
4.85991
4.85995
4.86005
4.86019
4.86038
4.86068
4.86172
4.85934
4.8593
4.85928
4.85927
4.85929
4.85932
4.85935
4.85939
4.8595
4.86015
4.86239
4.8621
4.86201
4.86202
4.86213
4.8623
4.86251
4.86278
4.86325
4.86489
4.8863
4.88629
4.88641
4.8864
4.88625
4.88598
4.8856
4.8852
4.88457
4.88533
5.05043
5.0497
5.04974
5.05013
5.0509
5.05199
5.05318
5.05405
5.05361
5.05662
5.16806
5.16802
5.16802
5.16802
5.16803
5.16803
5.16803
5.16802
5.168
5.16809
11.2444
11.3526
11.3048
11.0917
83.1313
84.916
85.2387
85.9128
142.545
147.504
147.719
146.414
201.195
209.909
209.442
204.969
262.104
274.834
273.244
265.399
329.788
346.939
344.643
335.893
391.551
412.988
410.528
402.873
429.608
454.716
452.847
447.738
343.832
365.626
363.33
361.354
11.4388
11.6732
11.5189
11.1207
9.70149
9.75538
9.75526
9.71103
77.0123
79.6167
80.1174
80.1748
134.136
144.013
144.684
142.358
192.184
212.396
212.407
206.266
254.667
287.677
286.149
275.857
327.587
375.821
374.155
361.431
397.257
461.341
460.847
447.774
444.209
522.615
524.545
512.983
350.428
420.435
419.643
414.112
10.6875
10.9151
10.8464
10.6227
8.7598
8.77087
8.76851
8.75656
26.9615
29.1765
28.316
25.7883
49.6487
53.6623
51.7828
47.0958
74.4871
80.7069
77.327
69.8101
102.955
111.804
106.333
95.2401
138.713
151.234
143.467
127.517
176.41
192.74
182.476
161.323
206.994
226.999
214.668
188.862
164.97
180.902
169.329
148.085
9.88535
9.9746
9.94963
9.84921
8.49159
8.49308
8.493
8.49174
11.6911
11.8501
11.7646
11.5642
21.4301
21.982
21.8151
21.267
32.0699
33.3264
32.9467
31.629
44.407
46.5572
45.7445
43.2199
60.4197
63.8448
62.3576
58.0417
77.7306
82.4292
79.9682
73.5057
92.3909
98.4727
94.9628
86.203
72.0031
76.7715
73.0605
65.3285
9.42216
9.46597
9.46211
9.42166
8.31226
8.31273
8.31252
8.3116
7.17214
7.22695
7.22707
7.19267
11.8269
12.0456
12.0778
11.9833
16.9579
17.4726
17.5091
17.235
22.8469
23.7482
23.7103
23.0991
30.676
32.1638
31.9679
30.7694
39.1261
41.1982
40.6823
38.6859
46.2157
48.9717
48.0421
45.0269
34.4183
36.5041
35.2185
32.2745
9.07488
9.09855
9.09991
9.08319
8.16274
8.16318
8.16292
8.16195
5.70112
5.69865
5.69111
5.6851
7.57664
7.61154
7.6183
7.61089
10.0298
10.1707
10.206
10.1717
12.8918
13.1905
13.2412
13.1311
16.8384
17.4052
17.4559
17.1776
21.0608
21.9026
21.8799
21.3363
24.514
25.7102
25.5571
24.5986
17.4994
18.3572
17.96
16.9242
8.79259
8.80437
8.8067
8.80085
8.01339
8.01386
8.01364
8.01274
5.26931
5.26362
5.25721
5.25304
5.9134
5.91249
5.90783
5.90421
6.99385
7.02815
7.03788
7.03259
8.32502
8.41949
8.44779
8.43113
10.3001
10.5131
10.5673
10.5103
12.4153
12.7508
12.8039
12.6733
14.1188
14.6319
14.6608
14.38
10.2364
10.572
10.479
10.1713
8.54826
8.55364
8.55579
8.55472
7.85698
7.85746
7.85729
7.8565
5.12247
5.11827
5.11355
5.11017
5.29997
5.29359
5.28777
5.28494
5.74517
5.74906
5.74808
5.74604
6.32016
6.34428
6.3521
6.35003
7.25534
7.32913
7.35458
7.34434
8.27465
8.3981
8.43351
8.40775
9.13329
9.34331
9.38482
9.30843
7.34627
7.46697
7.45888
7.38468
8.32312
8.32531
8.32688
8.3274
7.69102
7.69149
7.69136
7.69068
5.06345
5.06095
5.05755
5.05462
5.07137
5.06673
5.06259
5.0604
5.25093
5.24935
5.24687
5.24542
5.49592
5.50079
5.50174
5.50117
5.92757
5.95276
5.96239
5.96003
6.40449
6.44637
6.46202
6.45855
6.85681
6.94022
6.9648
6.9436
6.20276
6.24427
6.25022
6.23628
8.10248
8.10319
8.10417
8.105
7.51465
7.5151
7.51502
7.51443
5.03483
5.03351
5.031
5.02836
4.97927
4.9767
4.97408
4.97235
5.0462
5.04486
5.04307
5.042
5.15367
5.15469
5.15438
5.15385
5.35846
5.36869
5.37256
5.3712
5.59186
5.60622
5.61255
5.61258
5.85117
5.88658
5.89888
5.89067
5.70291
5.71587
5.72086
5.72071
7.87908
7.8791
7.87968
7.88044
7.32744
7.32786
7.32781
7.32731
5.01801
5.01754
5.01564
5.0132
4.93887
4.93784
4.93624
4.93478
4.95513
4.95479
4.95381
4.95293
5.00323
5.00403
5.00385
5.00323
5.10335
5.10915
5.11123
5.10993
5.22923
5.23517
5.23809
5.23826
5.39419
5.41223
5.41859
5.41326
5.45958
5.46192
5.46466
5.46745
7.64964
7.6494
7.64972
7.65032
7.1291
7.1295
7.12947
7.12906
5.00626
5.00645
5.00501
5.00272
4.91958
4.91959
4.91867
4.91732
4.91211
4.91256
4.91214
4.9113
4.93353
4.93456
4.93461
4.93394
4.98259
4.98675
4.98816
4.98691
5.05877
5.06193
5.06361
5.06368
5.17515
5.18632
5.18995
5.18551
5.33194
5.33022
5.33148
5.33477
7.41241
7.41212
7.4123
7.41273
6.91946
6.91983
6.91982
6.91947
4.99694
4.99763
4.99657
4.99439
4.90946
4.91018
4.9097
4.90836
4.89082
4.89178
4.89167
4.89079
4.90005
4.90115
4.9013
4.90062
4.92346
4.92662
4.92764
4.9265
4.97554
4.97744
4.97857
4.97869
5.06592
5.07376
5.07599
5.07209
5.26174
5.25853
5.25898
5.26214
7.16627
7.16606
7.16615
7.16641
6.69841
6.69875
6.69875
6.69845
4.98887
4.98994
4.98918
4.9871
4.90352
4.90468
4.90447
4.90312
4.87987
4.88105
4.8811
4.88015
4.88348
4.88442
4.88457
4.88393
4.89402
4.89633
4.89702
4.89605
4.93391
4.93499
4.93577
4.93604
5.00997
5.01583
5.01723
5.01376
5.22168
5.21814
5.21816
5.22091
6.91047
6.9104
6.91045
6.91055
6.46591
6.46622
6.46622
6.46595
4.98144
4.98276
4.98222
4.98026
4.89953
4.90089
4.90082
4.89943
4.87401
4.87518
4.87524
4.87427
4.87495
4.87557
4.87564
4.87514
4.87919
4.88069
4.8811
4.88039
4.9124
4.91284
4.91336
4.91381
4.98003
4.98459
4.98544
4.98232
5.1977
5.1945
5.1943
5.1964
6.64455
6.64465
6.64468
6.64463
6.22205
6.22232
6.2223
6.22206
4.97425
4.97564
4.97527
4.97344
4.89634
4.8977
4.89765
4.89624
4.8707
4.87163
4.87163
4.87072
4.87025
4.87046
4.87043
4.87018
4.87146
4.87225
4.87243
4.87204
4.90026
4.90024
4.90055
4.90115
4.96189
4.96561
4.96611
4.96324
5.18192
5.17954
5.17927
5.18049
6.36832
6.36858
6.3686
6.36843
5.96714
5.96735
5.96732
5.9671
4.96694
4.96822
4.96797
4.96636
4.89322
4.89439
4.89429
4.89294
4.86862
4.86912
4.869
4.86829
4.86732
4.86713
4.86704
4.86712
4.86704
4.86724
4.86728
4.86726
4.89178
4.89149
4.89165
4.89228
4.94749
4.95071
4.95103
4.94834
5.16912
5.16802
5.16778
5.16788
6.0819
6.08229
6.08232
6.08205
5.70186
5.70199
5.70194
5.70175
4.95921
4.96019
4.96001
4.95876
4.88953
4.89036
4.89021
4.8891
4.86697
4.86696
4.8667
4.86629
4.86515
4.86468
4.86459
4.86498
4.8641
4.86391
4.86389
4.86416
4.88376
4.88343
4.88346
4.88399
4.93183
4.93478
4.93504
4.93252
5.15415
5.15476
5.15467
5.1534
5.78585
5.78633
5.78636
5.78604
5.42716
5.42718
5.4271
5.42697
4.95003
4.95058
4.95045
4.94961
4.88447
4.88494
4.88485
4.88425
4.86514
4.86473
4.86438
4.86426
4.86334
4.86281
4.86274
4.86326
4.86197
4.86165
4.86161
4.86198
4.87487
4.87467
4.87462
4.87489
4.91228
4.91475
4.915
4.9129
5.12744
5.13015
5.13031
5.12745
5.48104
5.48159
5.48163
5.48127
5.14299
5.14281
5.14272
5.14274
4.93204
4.93231
4.93201
4.93116
4.87713
4.87729
4.87738
4.87743
4.86291
4.86244
4.86209
4.86206
4.86189
4.86156
4.8615
4.86183
4.86069
4.86049
4.86044
4.86063
4.86633
4.86628
4.86618
4.8662
4.88947
4.89069
4.89085
4.88984
5.06198
5.06622
5.06654
5.06255
5.16765
5.16823
5.16825
5.16786
10.1062
9.35792
9.04251
8.9281
8.86106
8.81345
8.78146
8.76271
8.75347
8.74885
103.741
49.0347
35.6436
29.7574
24.3472
19.7772
16.2402
13.6219
11.7628
10.4319
159.623
70.2169
50.6699
43.2428
36.6838
30.9697
26.2202
22.4372
19.4837
17.1826
203.732
81.816
55.342
45.9864
38.5934
32.0783
26.671
22.4154
19.1475
16.6705
237.472
87.3637
58.0671
47.0634
39.1073
31.8592
25.973
21.427
17.9923
15.4837
273.346
92.9832
60.112
47.2755
38.7206
30.7939
24.581
19.9062
16.496
14.0927
301.795
96.4201
60.8035
46.653
37.7835
29.438
23.131
18.5063
15.2168
12.9838
310.089
92.2524
55.8917
41.2258
32.7897
24.8846
19.2895
15.3862
12.7947
11.0934
220.933
55.2027
30.1204
20.6634
15.8562
11.9473
9.78799
8.51508
7.74746
7.25151
9.56655
9.52758
9.37309
9.34506
9.29873
9.27307
9.25298
9.24212
9.23466
9.22824
9.34954
9.03869
8.88574
8.79912
8.74401
8.70726
8.68326
8.66889
8.66168
8.65811
53.2532
28.857
22.698
19.5012
16.6823
14.1999
12.1725
10.6298
9.51196
8.73537
89.2136
46.0422
35.699
30.8648
27.0089
23.3497
20.1693
17.5626
15.4874
13.9118
120.406
57.9044
42.4851
35.2415
30.1494
25.4045
21.4082
18.2188
15.746
13.9309
149.62
67.6663
47.2687
37.9612
31.7884
26.1335
21.5392
17.9754
15.263
13.3454
183.218
77.5707
51.4531
39.7969
32.522
26.0085
20.9364
17.1243
14.3375
12.44
213.449
85.0199
53.9575
40.4621
32.4842
25.4175
20.1211
16.2591
13.5039
11.6947
229.596
85.4342
51.2732
36.7738
28.7886
21.9313
17.1155
13.7885
11.5828
10.1864
165.145
53.9223
28.6672
19.0297
14.3827
11.0204
9.14898
8.05585
7.39045
6.98094
9.79652
9.48088
9.31214
9.24905
9.19505
9.16268
9.13935
9.12498
9.11468
9.10602
8.71715
8.67537
8.64174
8.61353
8.59134
8.57522
8.56453
8.55827
8.55536
8.55415
20.1135
16.732
14.6108
12.7586
11.1713
9.86026
8.84647
8.10597
7.57778
7.2129
35.8298
28.6841
24.8794
21.6386
18.8744
16.4828
14.5111
12.9367
11.6929
10.7574
50.5453
37.6211
31.2692
26.1117
22.0562
18.6755
15.9781
13.8785
12.2654
11.0965
65.1997
45.1109
36.175
29.198
24.0196
19.8184
16.5742
14.1217
12.2713
10.9775
81.9907
52.6111
40.5912
31.5849
25.2683
20.2643
16.5372
13.8063
11.8322
10.5042
97.5892
58.3457
43.5098
32.8497
25.7593
20.2249
16.2387
13.4072
11.4074
10.106
106.934
59.004
42.0262
30.4349
23.2366
17.8072
14.1388
11.6758
10.0595
9.03989
74.9356
36.1663
23.5223
15.9872
12.0145
9.54973
8.20922
7.42392
6.93424
6.62892
9.54573
9.35465
9.22312
9.14461
9.08857
9.05379
9.02963
9.01306
9.00064
8.99026
8.48691
8.4766
8.46498
8.45443
8.44638
8.44092
8.43762
8.43609
8.43615
8.43697
11.0483
10.2438
9.37245
8.51074
7.79205
7.24198
6.84091
6.55637
6.35388
6.21332
19.8736
18.0522
16.19
14.3198
12.7126
11.3935
10.3441
9.52513
8.88508
8.40767
28.2946
24.4782
21.0546
17.8854
15.325
13.2759
11.6765
10.451
9.5197
8.85278
36.8415
30.3335
25.1571
20.6433
17.1827
14.4892
12.4501
10.9355
9.80273
9.01539
46.8995
36.5226
29.1617
23.0581
18.6043
15.2271
12.756
10.9784
9.70646
8.85511
56.3082
41.5167
32.0924
24.6154
19.4147
15.5559
12.825
10.9244
9.59122
8.72171
62.0317
42.7364
31.6471
23.3287
17.9155
14.0695
11.5193
9.84117
8.74131
8.03948
42.1741
25.8535
17.7049
12.5992
9.89507
8.3121
7.42497
6.88992
6.54234
6.32052
9.30236
9.16673
9.06192
8.99406
8.94745
8.91699
8.8951
8.87928
8.86721
8.85733
8.31119
8.30945
8.30753
8.30594
8.30491
8.30445
8.30448
8.30512
8.30656
8.30856
7.07573
6.8345
6.5697
6.32166
6.11556
5.95338
5.83056
5.74048
5.67502
5.63004
11.6519
10.9727
10.1928
9.41641
8.73289
8.16356
7.70906
7.35597
7.07861
6.87156
16.3933
14.9131
13.3398
11.8412
10.5663
9.52488
8.70665
8.08169
7.60818
7.27244
21.3882
18.788
16.2384
13.9219
12.0411
10.5573
9.43181
8.60192
7.97966
7.54681
27.5404
23.2213
19.3277
15.9444
13.3253
11.3271
9.86418
8.81944
8.07101
7.56892
33.4024
27.0667
21.8034
17.4279
14.2023
11.8172
10.1312
8.96787
8.14517
7.60174
37.0458
28.4644
21.9909
16.9375
13.4678
11.0387
9.42993
8.37393
7.67061
7.21216
24.238
17.1082
12.645
9.84699
8.29272
7.36137
6.80394
6.45219
6.21172
6.05502
9.03078
8.94988
8.88036
8.83102
8.79503
8.7693
8.74985
8.73516
8.7237
8.71446
8.16237
8.16238
8.16245
8.16271
8.1632
8.16388
8.16472
8.16589
8.16769
8.16992
5.6694
5.62002
5.56024
5.50137
5.44824
5.40305
5.36715
5.34061
5.32237
5.31166
7.5597
7.36571
7.11218
6.85225
6.61674
6.41761
6.25794
6.13356
6.03295
5.9568
9.99362
9.48342
8.86482
8.2489
7.7032
7.24928
6.88908
6.61164
6.39885
6.24907
12.7078
11.7352
10.6332
9.58399
8.69575
7.98642
7.44569
7.04527
6.73799
6.52206
16.2693
14.5308
12.6922
11.0176
9.6631
8.61966
7.85094
7.29826
6.89453
6.62117
19.7527
17.1041
14.4674
12.1787
10.4156
9.10539
8.17302
7.52527
7.05379
6.73535
21.9925
18.2547
14.8644
12.1257
10.1661
8.79292
7.87116
7.25515
6.83098
6.54739
14.2643
11.4171
9.34306
7.99661
7.181
6.65933
6.32157
6.09762
5.93597
5.82919
8.77865
8.73422
8.69167
8.65763
8.63049
8.60939
8.59266
8.57953
8.56904
8.56071
8.01343
8.01374
8.01406
8.01453
8.01517
8.01593
8.0168
8.01791
8.0196
8.02171
5.24733
5.23171
5.21489
5.1984
5.18249
5.1682
5.15683
5.14908
5.14523
5.14496
5.89118
5.83951
5.7726
5.70345
5.63866
5.58229
5.53667
5.50098
5.47011
5.44628
6.98806
6.82446
6.61638
6.40151
6.20265
6.03124
5.89079
5.77913
5.69095
5.6298
8.31929
7.97442
7.55803
7.14808
6.7885
6.49462
6.26553
6.09142
5.95093
5.8505
10.237
9.54974
8.76996
8.03632
7.42243
6.94023
6.57663
6.30735
6.10254
5.96221
12.1814
11.0855
9.89366
8.82773
7.97801
7.33615
6.86863
6.53447
6.27842
6.10035
13.5009
11.8893
10.2925
8.9677
7.98341
7.27938
6.7904
6.45081
6.20595
6.03821
9.37618
8.33033
7.4691
6.8608
6.44811
6.16186
5.96157
5.82226
5.71593
5.64526
8.54607
8.52279
8.49729
8.47412
8.45401
8.43725
8.42336
8.41207
8.40283
8.39558
7.85733
7.85766
7.85788
7.8582
7.85865
7.85921
7.85984
7.8607
7.8621
7.86395
5.10637
5.09683
5.08813
5.08019
5.07256
5.06581
5.06076
5.05788
5.05764
5.05969
5.28027
5.2658
5.24968
5.23348
5.21764
5.20364
5.19292
5.18517
5.17742
5.17146
5.73412
5.68626
5.62461
5.55707
5.4898
5.42818
5.37517
5.33113
5.29526
5.27147
6.32116
6.21332
6.07854
5.93888
5.80927
5.69833
5.60821
5.53676
5.47477
5.42978
7.26022
7.01174
6.72134
6.43643
6.18655
5.98184
5.82028
5.6945
5.5936
5.52413
8.25765
7.84094
7.36586
6.92545
6.55866
6.27065
6.05114
5.88665
5.75174
5.65493
9.00883
8.35935
7.68937
7.11219
6.66128
6.3239
6.07697
5.89652
5.75957
5.66401
7.1696
6.80102
6.45553
6.18171
5.97396
5.81797
5.70082
5.61563
5.5468
5.50112
8.32393
8.31151
8.29605
8.28042
8.26586
8.253
8.24189
8.23256
8.22473
8.21863
7.69161
7.69193
7.69203
7.69218
7.69243
7.69277
7.69315
7.69372
7.69481
7.69637
5.05116
5.04284
5.0357
5.02942
5.02366
5.01882
5.01541
5.0137
5.01404
5.01614
5.05713
5.05013
5.0445
5.03962
5.03499
5.03134
5.02946
5.02893
5.02765
5.02695
5.24097
5.22536
5.20622
5.18373
5.15933
5.13562
5.11435
5.09594
5.08063
5.07134
5.49256
5.45989
5.41916
5.37384
5.32845
5.28741
5.25259
5.22361
5.19611
5.17595
5.93071
5.84443
5.7442
5.63979
5.54204
5.4572
5.38638
5.3279
5.27827
5.24434
6.41353
6.26875
6.09792
5.93033
5.78134
5.65726
5.55704
5.47761
5.40717
5.35499
6.83643
6.58956
6.33162
6.09598
5.89914
5.74268
5.62128
5.52766
5.45283
5.40004
6.17618
6.04137
5.90057
5.77518
5.67014
5.58525
5.51727
5.46577
5.4216
5.39257