/*--------------------------------*- C++ -*----------------------------------*\
| =========                 |                                                 |
| \\      /  F ield         | foam-extend: Open Source CFD                    |
|  \\    /   O peration     | Version:     4.0                                |
|   \\  /    A nd           | Web:         http://www.foam-extend.org         |
|    \\/     M anipulation  |                                                 |
\*---------------------------------------------------------------------------*/
FoamFile
{
    version     2.0;
    format      ascii;
    class       volScalarField;
    location    "700";
    object      MaU;
}
// * * * * * * * * * * * * * * * * * * * * * * * * * * * * * * * * * * * * * //

dimensions      [0 0 0 0 0 0 0];

internalField   nonuniform List<scalar> 
34480
(
0.616412
0.617518
0.618165
0.618403
0.618239
0.617606
0.61637
0.613844
0.607954
0.602323
0.6195
0.620569
0.621211
0.621398
0.620985
0.619841
0.617983
0.615146
0.608182
0.60273
0.621514
0.622554
0.623131
0.623214
0.62265
0.62149
0.619916
0.61784
0.611005
0.606254
0.621355
0.62244
0.623122
0.623388
0.623111
0.622428
0.621438
0.62019
0.613911
0.609906
0.62155
0.622785
0.623662
0.624214
0.624325
0.624184
0.623804
0.623411
0.618052
0.614776
0.620849
0.62221
0.623245
0.623999
0.624409
0.62472
0.62491
0.625391
0.621318
0.619077
0.620788
0.622361
0.62357
0.62452
0.625182
0.625853
0.626548
0.627868
0.625314
0.624061
0.620114
0.621781
0.622995
0.623862
0.624419
0.625034
0.62586
0.627706
0.626698
0.626779
0.620032
0.62185
0.623171
0.624148
0.624832
0.625553
0.626583
0.628896
0.629181
0.629319
0.616361
0.617941
0.618481
0.618049
0.61679
0.615112
0.613524
0.613411
0.613347
0.615776
0.606858
0.608386
0.609037
0.608885
0.607855
0.605671
0.601709
0.594607
0.584065
0.570319
0.611097
0.612612
0.613291
0.613167
0.612059
0.6096
0.605184
0.59743
0.584795
0.568637
0.613923
0.615392
0.616047
0.615916
0.614763
0.612298
0.608009
0.600505
0.587166
0.570078
0.614529
0.616025
0.616775
0.616824
0.615936
0.613883
0.610077
0.603118
0.589563
0.572327
0.615354
0.616961
0.617877
0.618192
0.617664
0.616126
0.612908
0.606684
0.593371
0.576539
0.615149
0.616858
0.61792
0.618436
0.618199
0.617122
0.61449
0.609114
0.596464
0.580627
0.6155
0.617377
0.618595
0.619306
0.619324
0.618641
0.616563
0.612077
0.600442
0.585881
0.615105
0.61706
0.61829
0.618948
0.618922
0.618296
0.616497
0.612729
0.60233
0.589625
0.615208
0.617268
0.618587
0.619344
0.619463
0.61903
0.617588
0.614546
0.605431
0.593699
0.611684
0.613579
0.614364
0.614114
0.61286
0.610779
0.607649
0.603291
0.594647
0.586125
0.599422
0.601029
0.601647
0.601396
0.600237
0.598011
0.594415
0.588938
0.580921
0.570683
0.603946
0.605655
0.60634
0.606076
0.604755
0.60211
0.597616
0.590378
0.578882
0.563424
0.607007
0.608748
0.609456
0.60922
0.60787
0.605091
0.600248
0.592187
0.578185
0.558242
0.608078
0.609885
0.610696
0.610615
0.609447
0.606877
0.602114
0.593744
0.57776
0.553969
0.609351
0.611273
0.612236
0.612391
0.61151
0.609308
0.604854
0.596564
0.579232
0.552399
0.60954
0.611568
0.612675
0.613021
0.612394
0.61056
0.606497
0.598555
0.580457
0.551467
0.610231
0.612406
0.613657
0.614195
0.613806
0.612324
0.608694
0.601277
0.58297
0.552519
0.610103
0.612347
0.613622
0.614133
0.613729
0.612335
0.608976
0.602106
0.584077
0.552962
0.610409
0.612719
0.614065
0.614657
0.61436
0.613132
0.610115
0.603909
0.58656
0.554217
0.607085
0.609246
0.610199
0.61004
0.608734
0.606304
0.60213
0.59515
0.578369
0.546517
0.593921
0.595317
0.595825
0.595564
0.594528
0.592657
0.589847
0.58599
0.581042
0.575433
0.5982
0.599815
0.600429
0.600112
0.598797
0.596334
0.592452
0.586767
0.57877
0.569412
0.601099
0.60286
0.603536
0.603218
0.601789
0.59902
0.594465
0.587463
0.576785
0.563522
0.602358
0.604252
0.605037
0.604823
0.60345
0.600646
0.595777
0.587882
0.574692
0.55737
0.603889
0.605928
0.606854
0.606823
0.605626
0.602984
0.598076
0.589686
0.574382
0.553277
0.604362
0.606524
0.607588
0.607718
0.606701
0.604272
0.599471
0.590892
0.573903
0.549503
0.605319
0.607622
0.608817
0.609119
0.608292
0.606113
0.601528
0.593004
0.574834
0.547671
0.605425
0.607793
0.609021
0.609313
0.608481
0.606361
0.601918
0.593594
0.574802
0.545542
0.605903
0.608314
0.6096
0.609963
0.609224
0.607225
0.60296
0.594987
0.576212
0.544571
0.602789
0.605068
0.606082
0.605913
0.60447
0.601648
0.596611
0.588035
0.56948
0.536713
0.590015
0.591107
0.59149
0.591284
0.590505
0.589159
0.587257
0.584858
0.582096
0.579304
0.593774
0.595142
0.595659
0.595373
0.594261
0.592262
0.589288
0.585277
0.580225
0.574965
0.596225
0.597846
0.598458
0.59814
0.596821
0.594374
0.590564
0.585139
0.577751
0.569709
0.597416
0.599244
0.599978
0.599709
0.598324
0.595632
0.591225
0.584616
0.574814
0.563527
0.598992
0.601015
0.601888
0.601747
0.600422
0.597682
0.592934
0.585449
0.573371
0.558677
0.599598
0.601782
0.602794
0.602777
0.601542
0.598842
0.593917
0.585832
0.571701
0.553676
0.600707
0.603049
0.604184
0.604311
0.603203
0.600624
0.595673
0.587241
0.571413
0.550276
0.600977
0.603393
0.604573
0.604699
0.603581
0.601006
0.596031
0.587449
0.570413
0.546564
0.601584
0.604039
0.605267
0.605454
0.604406
0.601912
0.596991
0.588399
0.570778
0.543985
0.598664
0.601001
0.602047
0.601863
0.600331
0.597271
0.591824
0.582715
0.564901
0.53608
0.587247
0.588053
0.588324
0.588181
0.587649
0.586761
0.58556
0.584134
0.582604
0.5811
0.590456
0.591521
0.591926
0.591703
0.590849
0.589362
0.587246
0.584562
0.581455
0.578409
0.592353
0.593726
0.594245
0.593967
0.592856
0.590863
0.587911
0.583982
0.579126
0.574256
0.593314
0.594951
0.5956
0.595327
0.594057
0.591684
0.588007
0.58287
0.576024
0.568898
0.594769
0.59665
0.59744
0.597243
0.595929
0.593343
0.589125
0.582948
0.574056
0.564336
0.595379
0.597464
0.598394
0.59828
0.596968
0.594265
0.589651
0.582624
0.571727
0.559246
0.596535
0.598806
0.599858
0.599854
0.598598
0.595882
0.591032
0.583372
0.57066
0.555387
0.59689
0.599256
0.600363
0.600361
0.599075
0.596294
0.591262
0.583169
0.569005
0.551095
0.59758
0.599994
0.601145
0.601192
0.599949
0.597197
0.592104
0.583737
0.568635
0.54783
0.594825
0.597137
0.598174
0.597969
0.596396
0.593251
0.587773
0.578921
0.563347
0.540353
0.585244
0.585827
0.586011
0.585921
0.585584
0.585034
0.584314
0.583495
0.582651
0.58179
0.587989
0.588767
0.589066
0.588908
0.588301
0.587265
0.585839
0.584105
0.5822
0.580358
0.589342
0.590429
0.590843
0.590623
0.589755
0.588235
0.586072
0.583345
0.58022
0.57723
0.590003
0.591377
0.591923
0.591678
0.590601
0.588648
0.585758
0.581957
0.577336
0.572855
0.59123
0.592882
0.593567
0.593356
0.592158
0.589889
0.586372
0.581541
0.575255
0.56893
0.591745
0.593636
0.594463
0.594298
0.593027
0.590523
0.58648
0.580711
0.572679
0.564253
0.592862
0.59497
0.595918
0.59583
0.594547
0.591915
0.587487
0.580933
0.571213
0.560533
0.593226
0.595453
0.596466
0.596376
0.595036
0.592272
0.587541
0.580379
0.56921
0.55628
0.593956
0.59625
0.597307
0.597255
0.595927
0.593136
0.588251
0.580657
0.56843
0.553023
0.591331
0.593539
0.594533
0.594312
0.592759
0.589684
0.584488
0.576426
0.563582
0.546242
0.583733
0.584162
0.584285
0.584233
0.584029
0.583703
0.583284
0.582821
0.582347
0.581807
0.586141
0.586679
0.58689
0.586787
0.586379
0.585692
0.584767
0.583668
0.582482
0.581298
0.587022
0.587833
0.588146
0.587985
0.587345
0.586246
0.584729
0.58289
0.580889
0.579001
0.587388
0.588475
0.588912
0.588712
0.587852
0.586332
0.584166
0.581454
0.578387
0.57556
0.588336
0.589711
0.590282
0.590085
0.589063
0.587184
0.584397
0.580769
0.576434
0.572353
0.588697
0.590332
0.591041
0.590861
0.589714
0.587532
0.584174
0.579641
0.573894
0.568291
0.589718
0.591592
0.592421
0.592288
0.591075
0.588682
0.584859
0.579509
0.572324
0.565002
0.590023
0.592038
0.592939
0.592797
0.5915
0.588922
0.584723
0.578697
0.570215
0.561116
0.590762
0.592867
0.593814
0.593699
0.592384
0.589729
0.585307
0.578778
0.569278
0.558242
0.588229
0.590266
0.591186
0.590958
0.589486
0.586615
0.581922
0.574947
0.564803
0.552245
0.58254
0.582867
0.582951
0.582923
0.582804
0.582616
0.582377
0.582117
0.581844
0.581476
0.584729
0.585084
0.585226
0.585162
0.584901
0.584462
0.583876
0.583184
0.582431
0.581624
0.585232
0.585805
0.586029
0.585917
0.585468
0.584707
0.583679
0.582467
0.581185
0.579959
0.58535
0.586166
0.586499
0.586346
0.585695
0.584565
0.583004
0.581124
0.579111
0.577317
0.586016
0.587105
0.58756
0.587394
0.586568
0.585087
0.582969
0.580333
0.577394
0.574779
0.586201
0.587551
0.588136
0.587966
0.586988
0.585182
0.582513
0.579079
0.575053
0.571375
0.587096
0.588696
0.589397
0.58925
0.588169
0.586108
0.582956
0.578756
0.573574
0.568639
0.58729
0.589045
0.589822
0.589658
0.588474
0.586195
0.58264
0.57778
0.571518
0.56525
0.58802
0.589886
0.59071
0.590564
0.589339
0.586944
0.583129
0.57776
0.570607
0.562907
0.585548
0.58736
0.588182
0.587961
0.58662
0.58405
0.579991
0.574215
0.56647
0.557655
0.581557
0.581821
0.581879
0.581866
0.581798
0.581692
0.581557
0.58141
0.581247
0.580977
0.58362
0.583843
0.583935
0.583897
0.583734
0.583461
0.583096
0.58266
0.582167
0.58159
0.583833
0.584215
0.584367
0.584292
0.58399
0.583481
0.582804
0.582018
0.581196
0.58038
0.583774
0.584356
0.584599
0.584488
0.584016
0.583208
0.582118
0.580847
0.579538
0.578398
0.584181
0.585005
0.585353
0.585221
0.584584
0.583464
0.581911
0.58005
0.578089
0.576429
0.584197
0.585264
0.585731
0.585583
0.58479
0.583359
0.581317
0.578795
0.576025
0.573645
0.584963
0.586276
0.58685
0.586709
0.585796
0.5841
0.581603
0.578415
0.574752
0.571482
0.585011
0.586481
0.58713
0.586967
0.585939
0.584015
0.581128
0.577349
0.572833
0.568602
0.585732
0.587328
0.588025
0.587872
0.586787
0.584725
0.581569
0.57732
0.572071
0.56682
0.583293
0.584846
0.585557
0.585352
0.584177
0.58197
0.578594
0.57399
0.568243
0.562214
0.580726
0.58095
0.580991
0.580986
0.580947
0.580888
0.580812
0.580728
0.580628
0.580418
0.582729
0.582859
0.582914
0.582892
0.582794
0.582626
0.5824
0.582123
0.581792
0.581364
0.582719
0.582956
0.583051
0.583003
0.582805
0.582475
0.58204
0.581537
0.58101
0.58046
0.582561
0.582953
0.583122
0.583045
0.582716
0.582157
0.581417
0.580574
0.579733
0.579016
0.582744
0.583339
0.583594
0.583495
0.583023
0.582207
0.581104
0.579822
0.578533
0.577502
0.582618
0.583426
0.583784
0.583664
0.583048
0.581958
0.580447
0.578646
0.576771
0.575265
0.583271
0.584307
0.584762
0.58464
0.583902
0.582562
0.580653
0.578305
0.575763
0.573639
0.58315
0.584334
0.584858
0.58471
0.583858
0.582301
0.580041
0.577197
0.574009
0.571215
0.583876
0.585195
0.585766
0.585623
0.584706
0.583005
0.58049
0.57724
0.573476
0.569965
0.58145
0.582731
0.583325
0.583145
0.582156
0.580331
0.577625
0.57408
0.569922
0.56589
0.580015
0.580211
0.580242
0.580241
0.580219
0.580187
0.580143
0.580095
0.58003
0.57986
0.582003
0.582068
0.582098
0.582084
0.582025
0.581924
0.581784
0.581605
0.581378
0.581059
0.581812
0.581942
0.581995
0.581963
0.581838
0.581629
0.581355
0.581038
0.580704
0.580337
0.581628
0.581876
0.581989
0.581938
0.581715
0.58134
0.580849
0.580299
0.579766
0.57933
0.581626
0.582034
0.582214
0.582143
0.581806
0.581231
0.580468
0.579605
0.578774
0.57816
0.581392
0.581979
0.582244
0.582152
0.581692
0.580891
0.579805
0.57855
0.577304
0.576383
0.58196
0.582748
0.583096
0.582997
0.582426
0.581407
0.579993
0.57831
0.576577
0.575234
0.581657
0.582574
0.582983
0.582858
0.582181
0.580968
0.579258
0.577182
0.574976
0.573177
0.58242
0.583472
0.583925
0.583802
0.583059
0.581711
0.579777
0.577367
0.574723
0.57242
0.579987
0.581004
0.581484
0.581332
0.58053
0.579078
0.576984
0.574341
0.571402
0.568761
0.579408
0.579585
0.579608
0.57961
0.579597
0.579579
0.579554
0.579526
0.579482
0.57934
0.581414
0.581434
0.581446
0.581437
0.581402
0.58134
0.581253
0.581136
0.580979
0.580746
0.581055
0.581109
0.581133
0.581111
0.581033
0.580904
0.580734
0.580539
0.580333
0.580102
0.580915
0.581058
0.581131
0.581098
0.580952
0.580705
0.580386
0.580033
0.579703
0.57946
0.58076
0.581024
0.581146
0.581096
0.580864
0.58047
0.579955
0.579387
0.578864
0.578531
0.580456
0.580864
0.581054
0.580987
0.580656
0.580085
0.579327
0.578472
0.577658
0.577129
0.58097
0.581548
0.581806
0.581731
0.581304
0.580556
0.579541
0.578365
0.577204
0.576386
0.580475
0.581159
0.581467
0.581367
0.580849
0.579939
0.578686
0.577213
0.575716
0.574595
0.581319
0.582131
0.582478
0.582379
0.581802
0.580773
0.579336
0.5776
0.575779
0.574297
0.578861
0.579635
0.58001
0.579888
0.579263
0.578149
0.576581
0.574672
0.57264
0.570946
0.578899
0.57906
0.579076
0.579079
0.579072
0.579062
0.579048
0.579031
0.579001
0.578878
0.580952
0.580939
0.58094
0.580933
0.580912
0.580874
0.580819
0.580743
0.580636
0.580475
0.580413
0.580414
0.580417
0.580401
0.580353
0.580274
0.580172
0.580055
0.579937
0.579814
0.580379
0.580451
0.580495
0.580475
0.580382
0.580223
0.580018
0.579795
0.579598
0.579492
0.580094
0.580254
0.580333
0.580299
0.580143
0.57988
0.579541
0.579175
0.578855
0.578713
0.579756
0.580028
0.58016
0.580113
0.579882
0.579488
0.578971
0.578401
0.577879
0.57761
0.580245
0.580652
0.580838
0.580783
0.580477
0.579946
0.579238
0.578435
0.577673
0.577203
0.579548
0.580037
0.580261
0.580185
0.579804
0.579144
0.578254
0.577237
0.576241
0.575574
0.580531
0.581136
0.581394
0.581319
0.580888
0.580131
0.579097
0.577881
0.576652
0.575716
0.578019
0.578584
0.578866
0.578773
0.578303
0.577479
0.576344
0.575005
0.57363
0.572569
0.578479
0.578624
0.578636
0.578639
0.578635
0.578629
0.578621
0.578611
0.57859
0.578483
0.580617
0.580584
0.580578
0.580572
0.580559
0.580535
0.5805
0.580449
0.58038
0.580283
0.579858
0.579824
0.579814
0.579801
0.579772
0.579725
0.579665
0.579599
0.579542
0.579508
0.579993
0.580019
0.580044
0.580033
0.579974
0.579873
0.579743
0.579604
0.579493
0.579485
0.579595
0.579682
0.579731
0.579709
0.579607
0.579436
0.579217
0.578985
0.578798
0.578782
0.579254
0.579427
0.579516
0.579485
0.579329
0.579064
0.57872
0.578347
0.578019
0.577916
0.579734
0.58001
0.580139
0.580101
0.579888
0.579523
0.579044
0.57851
0.57802
0.577774
0.578821
0.579156
0.579314
0.579259
0.578988
0.578526
0.577912
0.577228
0.576577
0.576207
0.580012
0.580451
0.580635
0.580581
0.580272
0.579734
0.579014
0.578185
0.577374
0.576792
0.577398
0.577792
0.577998
0.57793
0.57759
0.577002
0.576206
0.575295
0.574383
0.573738
0.57812
0.57825
0.578257
0.578259
0.578257
0.578254
0.57825
0.578244
0.57823
0.578137
0.580424
0.58038
0.580371
0.580367
0.580358
0.580341
0.580317
0.580284
0.580243
0.580201
0.579376
0.579322
0.579306
0.579295
0.579276
0.579249
0.579214
0.579181
0.579165
0.579205
0.57974
0.579739
0.579753
0.579746
0.57971
0.579647
0.579565
0.579478
0.579422
0.579482
0.579245
0.579286
0.579316
0.579302
0.579237
0.579128
0.57899
0.578845
0.578739
0.578801
0.578927
0.579033
0.579092
0.579072
0.57897
0.578796
0.578572
0.578332
0.578128
0.578124
0.579398
0.579577
0.579663
0.579637
0.579494
0.579251
0.578936
0.57859
0.578284
0.578177
0.578256
0.578476
0.578584
0.578546
0.578361
0.578047
0.577635
0.577185
0.576765
0.576582
0.579733
0.580041
0.580169
0.580132
0.579918
0.579551
0.579065
0.578515
0.577992
0.577634
0.576917
0.577179
0.577325
0.577277
0.577041
0.576636
0.576095
0.575493
0.5749
0.574522
0.577735
0.577846
0.577849
0.577851
0.57785
0.577849
0.577847
0.577844
0.577837
0.577757
0.580404
0.58036
0.580351
0.580348
0.580342
0.58033
0.580312
0.580288
0.580266
0.58027
0.578974
0.578913
0.578896
0.578888
0.578876
0.57886
0.57884
0.578824
0.578833
0.57893
0.579611
0.579596
0.579602
0.579598
0.579575
0.579536
0.579486
0.579434
0.57941
0.579513
0.579045
0.57906
0.579079
0.579071
0.579031
0.578962
0.578876
0.578786
0.578727
0.578827
0.57877
0.578833
0.578872
0.57886
0.578795
0.578684
0.578541
0.578388
0.578262
0.578306
0.579214
0.579322
0.579376
0.579357
0.579265
0.579108
0.578909
0.578692
0.578508
0.578481
0.57785
0.577991
0.578065
0.57804
0.577918
0.57771
0.577441
0.57715
0.576879
0.576802
0.579691
0.5799
0.579986
0.57996
0.579817
0.579575
0.579259
0.578905
0.578578
0.578355
0.576444
0.57661
0.576712
0.576679
0.576521
0.576251
0.575894
0.575509
0.575127
0.574919
0.577106
0.577195
0.577196
0.577198
0.577198
0.577198
0.577198
0.577198
0.577197
0.577134
0.580632
0.580596
0.580589
0.580586
0.580581
0.580572
0.580558
0.580542
0.580532
0.580566
0.578704
0.578651
0.578641
0.578637
0.57863
0.57862
0.578607
0.578597
0.578612
0.578738
0.579597
0.579575
0.579575
0.57957
0.579556
0.579533
0.579505
0.579477
0.579474
0.579594
0.579
0.579004
0.579016
0.579012
0.578987
0.578946
0.578894
0.578839
0.578805
0.578908
0.578783
0.57882
0.578844
0.578837
0.578797
0.578728
0.57864
0.578545
0.578468
0.578521
0.579171
0.57923
0.57926
0.579246
0.579187
0.57909
0.578968
0.57884
0.578738
0.57875
0.577685
0.577778
0.577829
0.577815
0.577736
0.577603
0.577429
0.577242
0.577062
0.577028
0.579941
0.580074
0.580128
0.580109
0.580016
0.57986
0.579662
0.579445
0.579252
0.579111
0.575755
0.575857
0.575927
0.575905
0.575802
0.575626
0.575396
0.575154
0.574904
0.574801
0.575919
0.575981
0.575984
0.575986
0.575987
0.575988
0.575988
0.575987
0.575988
0.575939
0.581252
0.581221
0.581206
0.581197
0.581191
0.581186
0.581183
0.581182
0.58119
0.581243
0.578688
0.57866
0.578662
0.578665
0.578663
0.578656
0.578646
0.578634
0.578637
0.578746
0.579678
0.579651
0.579642
0.579635
0.579625
0.579614
0.579603
0.579597
0.57961
0.579722
0.579101
0.579101
0.579108
0.579104
0.57909
0.579066
0.579037
0.579007
0.57899
0.579068
0.578944
0.578965
0.578978
0.578973
0.578947
0.578906
0.578854
0.5788
0.578756
0.578796
0.579258
0.579284
0.579297
0.579284
0.579246
0.579187
0.579116
0.579046
0.578998
0.579024
0.577927
0.577997
0.578033
0.578025
0.577974
0.577888
0.577776
0.577653
0.577528
0.57749
0.580617
0.580689
0.580717
0.580699
0.580637
0.580537
0.580415
0.580289
0.580193
0.580119
0.574578
0.574644
0.574692
0.574677
0.574608
0.574493
0.574344
0.574189
0.574019
0.57397
0.574249
0.574286
0.574296
0.574302
0.574304
0.574303
0.574297
0.574287
0.574274
0.574229
0.5823
0.582238
0.582197
0.582172
0.582161
0.582163
0.582178
0.582209
0.582262
0.582358
0.578994
0.579
0.579012
0.579019
0.57902
0.579015
0.579007
0.578994
0.578981
0.579024
0.579808
0.579775
0.579758
0.579746
0.579738
0.579733
0.579735
0.579746
0.579776
0.579865
0.579297
0.579294
0.579294
0.579289
0.579278
0.579264
0.57925
0.579239
0.579238
0.579284
0.579182
0.579191
0.579195
0.579188
0.579169
0.579142
0.579112
0.579084
0.579067
0.579091
0.579418
0.579427
0.579429
0.579417
0.579388
0.579348
0.579302
0.579264
0.579249
0.579283
0.578579
0.57864
0.578667
0.57866
0.578623
0.578561
0.578482
0.578397
0.578306
0.578245
0.58171
0.581731
0.581741
0.581723
0.581675
0.581603
0.58152
0.581444
0.58141
0.581433
0.573032
0.573088
0.573121
0.573109
0.573057
0.572972
0.572864
0.572753
0.572631
0.572596
0.434277
0.413527
0.420204
0.460889
0.386344
0.363012
0.373664
0.430625
0.343899
0.316652
0.333466
0.412038
0.306622
0.277082
0.300745
0.401729
0.275769
0.245488
0.27622
0.399744
0.249406
0.219438
0.258754
0.394358
0.228064
0.199825
0.247786
0.391708
0.207946
0.183106
0.239828
0.389635
0.190213
0.171379
0.236342
0.391319
0.170905
0.160166
0.232114
0.387031
0.493509
0.483257
0.483495
0.493118
0.462698
0.44989
0.45083
0.463352
0.432443
0.415519
0.417459
0.434799
0.404197
0.383031
0.386293
0.408707
0.380184
0.354515
0.359341
0.387005
0.358779
0.328154
0.333089
0.365784
0.341398
0.305761
0.310329
0.348023
0.325375
0.284908
0.288846
0.331454
0.31221
0.267692
0.270996
0.31797
0.297252
0.250283
0.251098
0.300611
0.560089
0.557804
0.557238
0.558376
0.541485
0.537623
0.536833
0.539112
0.521885
0.515806
0.514866
0.519133
0.500331
0.491882
0.490921
0.497638
0.479912
0.469013
0.468187
0.477748
0.45931
0.445794
0.445083
0.457509
0.4408
0.424596
0.423981
0.439275
0.422544
0.40376
0.403208
0.421201
0.406646
0.386146
0.385585
0.405452
0.388152
0.368102
0.366796
0.386122
0.572337
0.571192
0.570827
0.571211
0.561654
0.560081
0.559527
0.559924
0.549968
0.547304
0.546502
0.547412
0.535721
0.531751
0.530748
0.532453
0.521729
0.516312
0.515176
0.517969
0.506506
0.499502
0.498268
0.502397
0.492234
0.483578
0.48229
0.487954
0.47723
0.466991
0.465705
0.472986
0.463342
0.45215
0.450895
0.459429
0.445873
0.435722
0.43419
0.442206
0.579034
0.578388
0.578179
0.578409
0.572032
0.57139
0.571108
0.571175
0.564587
0.563467
0.562979
0.563099
0.554895
0.55308
0.552355
0.552653
0.545276
0.542596
0.541637
0.54227
0.534241
0.530548
0.529375
0.530513
0.523758
0.518966
0.51762
0.519446
0.51222
0.506352
0.504904
0.507563
0.50136
0.494851
0.493398
0.496797
0.4869
0.481549
0.479964
0.482761
0.581456
0.58093
0.58078
0.581009
0.57678
0.576408
0.576254
0.576317
0.571645
0.571049
0.570778
0.570827
0.564745
0.563811
0.563377
0.563426
0.557947
0.556548
0.555914
0.556005
0.549822
0.547828
0.546975
0.547178
0.542176
0.539494
0.538432
0.53885
0.533476
0.530088
0.528871
0.529625
0.525351
0.521542
0.52029
0.521406
0.513639
0.510975
0.509643
0.510051
0.582406
0.581934
0.581809
0.582037
0.579281
0.579031
0.578939
0.579007
0.575662
0.575299
0.575146
0.5752
0.570556
0.570026
0.569778
0.569809
0.565547
0.564774
0.564395
0.564398
0.559334
0.558229
0.557683
0.557672
0.553621
0.552107
0.551382
0.551396
0.546981
0.545029
0.54415
0.544258
0.541105
0.538878
0.537942
0.538192
0.53153
0.53044
0.52945
0.528906
0.582546
0.582098
0.581984
0.582207
0.580453
0.580255
0.580192
0.580265
0.577904
0.577651
0.577556
0.57762
0.574115
0.57378
0.573635
0.573678
0.570372
0.569912
0.569688
0.5697
0.565513
0.564868
0.564535
0.56451
0.561164
0.560283
0.559823
0.559768
0.55601
0.554871
0.55429
0.554238
0.55185
0.550545
0.549899
0.549865
0.543804
0.543643
0.542974
0.54212
0.582296
0.581864
0.581755
0.581971
0.580916
0.580749
0.580701
0.580774
0.579121
0.578928
0.578864
0.578931
0.576327
0.576097
0.576008
0.57606
0.573538
0.573247
0.573114
0.57314
0.569726
0.569335
0.569136
0.569126
0.566424
0.5659
0.565616
0.56557
0.562374
0.561702
0.561335
0.561264
0.559425
0.55866
0.558236
0.558133
0.552505
0.552882
0.552463
0.551553
0.581859
0.581441
0.581335
0.581541
0.58098
0.580835
0.580797
0.580866
0.579709
0.579555
0.57951
0.579575
0.577679
0.577513
0.577456
0.577509
0.575613
0.575422
0.575342
0.575376
0.572634
0.572393
0.572273
0.572277
0.570177
0.569861
0.569688
0.569658
0.566968
0.566571
0.566344
0.566285
0.564895
0.564449
0.564178
0.564074
0.55883
0.559506
0.559259
0.558382
0.581351
0.580946
0.58084
0.581035
0.580841
0.580717
0.580686
0.58075
0.57992
0.579796
0.579764
0.579824
0.578486
0.578364
0.578327
0.578378
0.576963
0.576836
0.576789
0.576824
0.574649
0.5745
0.574429
0.574439
0.572879
0.572691
0.572586
0.572567
0.570306
0.570076
0.569937
0.569889
0.568908
0.568653
0.568482
0.568391
0.563498
0.564328
0.56419
0.563369
0.580835
0.580443
0.580338
0.580521
0.580619
0.580516
0.580491
0.580547
0.579912
0.579815
0.579792
0.579846
0.578951
0.578863
0.578841
0.578886
0.577823
0.577745
0.577719
0.57775
0.576039
0.575953
0.575913
0.57592
0.574828
0.574725
0.574663
0.574644
0.57272
0.572598
0.572514
0.57247
0.571869
0.571734
0.571627
0.571546
0.566962
0.567856
0.567786
0.567026
0.580348
0.579967
0.579863
0.580034
0.580391
0.580308
0.580288
0.580336
0.579785
0.579713
0.579699
0.579746
0.579212
0.579156
0.579144
0.57918
0.578359
0.578319
0.578309
0.57833
0.576989
0.576952
0.576932
0.576931
0.576231
0.576188
0.576153
0.576129
0.574441
0.574392
0.574343
0.574296
0.574058
0.573999
0.573933
0.573857
0.569532
0.570431
0.5704
0.569703
0.579908
0.579537
0.579434
0.579594
0.580207
0.580143
0.580129
0.580169
0.579603
0.579555
0.57955
0.579589
0.579367
0.579338
0.579335
0.579361
0.578686
0.578679
0.578679
0.578689
0.577635
0.577637
0.57763
0.577617
0.577237
0.577239
0.577222
0.577187
0.575633
0.575636
0.57561
0.575553
0.575675
0.575667
0.575627
0.575552
0.571428
0.572292
0.572283
0.57165
0.579515
0.579153
0.579053
0.579205
0.580102
0.580059
0.58005
0.58008
0.579404
0.579381
0.579383
0.579413
0.579479
0.579478
0.579482
0.579494
0.578886
0.57891
0.578917
0.578912
0.578079
0.578113
0.578115
0.578086
0.577956
0.577995
0.577989
0.57794
0.576418
0.57646
0.576447
0.576379
0.576876
0.576903
0.57688
0.576804
0.572808
0.573608
0.57361
0.573046
0.579147
0.578792
0.578696
0.578844
0.580109
0.580085
0.580081
0.580102
0.579212
0.579214
0.579223
0.579242
0.579594
0.579619
0.579628
0.579625
0.579024
0.579074
0.579087
0.579062
0.5784
0.578462
0.578468
0.57842
0.578472
0.57854
0.578542
0.578477
0.576897
0.576966
0.57696
0.576881
0.577792
0.57784
0.577829
0.577753
0.573772
0.574483
0.574489
0.574001
0.578713
0.578366
0.578277
0.578425
0.580266
0.580261
0.580261
0.580271
0.579049
0.579075
0.579089
0.579095
0.579737
0.579787
0.579801
0.579779
0.579147
0.579221
0.579235
0.57919
0.578664
0.578746
0.578754
0.578688
0.578853
0.578943
0.578949
0.57887
0.577169
0.577254
0.577253
0.577163
0.578546
0.578607
0.578602
0.578528
0.574335
0.574933
0.574939
0.574534
0.577991
0.577658
0.577583
0.577733
0.580647
0.580661
0.580664
0.580661
0.578959
0.579009
0.579025
0.579011
0.579915
0.579988
0.580003
0.579963
0.57929
0.57938
0.579393
0.579329
0.578916
0.57901
0.579018
0.578938
0.579156
0.579259
0.579267
0.57918
0.577383
0.577471
0.577469
0.577376
0.579299
0.579363
0.579363
0.579296
0.574376
0.574839
0.574841
0.574529
0.57663
0.576335
0.576282
0.576426
0.581402
0.581434
0.58144
0.581425
0.579029
0.579092
0.579105
0.579068
0.580098
0.580187
0.580203
0.580148
0.579453
0.579547
0.579557
0.579482
0.579167
0.57926
0.579266
0.579184
0.579408
0.57951
0.579519
0.579435
0.577742
0.577812
0.577808
0.577728
0.580293
0.580354
0.580358
0.580306
0.573668
0.573963
0.57396
0.57376
0.574637
0.574457
0.574433
0.574525
0.582592
0.582647
0.582665
0.582647
0.579268
0.579328
0.579332
0.57928
0.580214
0.580301
0.580316
0.580261
0.579586
0.579667
0.579674
0.579609
0.579366
0.579441
0.579446
0.579382
0.579585
0.57967
0.579679
0.579615
0.578319
0.578352
0.578346
0.5783
0.58168
0.581748
0.581759
0.581717
0.572332
0.57241
0.572406
0.572359
0.587784
0.595986
0.600064
0.603197
0.606343
0.609119
0.611383
0.613166
0.614578
0.615774
0.587437
0.590663
0.598279
0.603423
0.607991
0.611464
0.614025
0.615905
0.617282
0.618373
0.591196
0.587484
0.598621
0.604365
0.60971
0.613363
0.616018
0.617956
0.619348
0.620405
0.594643
0.583743
0.598425
0.603961
0.609819
0.613386
0.616011
0.617891
0.619233
0.620255
0.598954
0.581795
0.599014
0.604274
0.610503
0.613886
0.616464
0.618255
0.619508
0.620452
0.601853
0.579056
0.598601
0.60329
0.609893
0.61305
0.61563
0.617379
0.618655
0.619662
0.605672
0.577692
0.59922
0.603114
0.610042
0.612907
0.6155
0.617212
0.61849
0.619507
0.607059
0.574548
0.598083
0.601165
0.60853
0.611226
0.613994
0.615821
0.61733
0.618619
0.608591
0.573069
0.598554
0.600413
0.607998
0.610298
0.613299
0.615251
0.616928
0.618382
0.593113
0.557481
0.585544
0.587857
0.597317
0.601169
0.605803
0.609
0.611698
0.613936
0.531305
0.553199
0.569427
0.580945
0.588826
0.594322
0.598306
0.601293
0.60361
0.605547
0.516533
0.546905
0.568902
0.582771
0.591616
0.59763
0.601921
0.605067
0.607404
0.609185
0.50636
0.54372
0.569862
0.584729
0.594133
0.600392
0.604815
0.608024
0.610358
0.612085
0.49824
0.540848
0.570081
0.585188
0.594936
0.601231
0.605638
0.608794
0.611068
0.61274
0.493882
0.540019
0.571177
0.586304
0.596281
0.602487
0.606817
0.609867
0.612037
0.613619
0.490719
0.538846
0.571393
0.586199
0.596346
0.602391
0.60665
0.60962
0.611766
0.613367
0.490221
0.539116
0.572663
0.586868
0.597111
0.602903
0.607083
0.609971
0.612083
0.613675
0.489288
0.538013
0.572434
0.585905
0.596293
0.60188
0.606102
0.609036
0.6113
0.613093
0.48965
0.538264
0.573586
0.585885
0.596142
0.601317
0.605645
0.608683
0.611089
0.613047
0.480527
0.528327
0.564402
0.576294
0.587594
0.593773
0.599249
0.603184
0.606329
0.608769
0.562305
0.568575
0.574616
0.579944
0.584483
0.58828
0.59143
0.594039
0.596229
0.598124
0.547995
0.55943
0.569626
0.57795
0.584623
0.589889
0.594016
0.59725
0.59979
0.601769
0.535039
0.55211
0.566382
0.577188
0.585448
0.591681
0.596401
0.599993
0.602723
0.604782
0.522289
0.544912
0.563032
0.575845
0.585308
0.592153
0.597194
0.600945
0.603751
0.605836
0.512623
0.540113
0.561515
0.575821
0.586133
0.593319
0.598504
0.602289
0.605085
0.607138
0.503838
0.535495
0.559727
0.575072
0.585993
0.593343
0.598592
0.602381
0.605191
0.607275
0.497819
0.532843
0.559428
0.575376
0.586692
0.594045
0.59929
0.603047
0.605849
0.607936
0.492093
0.529685
0.558279
0.574493
0.586091
0.593395
0.59868
0.602486
0.605404
0.607646
0.488352
0.528303
0.558649
0.574577
0.586111
0.593169
0.598522
0.602416
0.605447
0.607826
0.478253
0.519464
0.551016
0.566927
0.579171
0.586943
0.593085
0.597624
0.601176
0.603834
0.572043
0.574502
0.577404
0.58033
0.583081
0.58557
0.587774
0.589705
0.591415
0.592972
0.562105
0.567031
0.572523
0.577705
0.582271
0.58616
0.589417
0.592121
0.594347
0.596149
0.551643
0.559782
0.568181
0.575576
0.581776
0.586839
0.590928
0.594203
0.596803
0.598834
0.539722
0.551731
0.563335
0.572893
0.580559
0.586568
0.591267
0.594934
0.597783
0.599963
0.529284
0.545405
0.560155
0.571626
0.580502
0.587211
0.592321
0.59622
0.599204
0.601446
0.518765
0.539039
0.556793
0.569882
0.579741
0.586956
0.592349
0.596406
0.599498
0.601826
0.510284
0.534531
0.555026
0.569383
0.579987
0.587515
0.593077
0.597216
0.60037
0.602737
0.501932
0.529824
0.552788
0.568079
0.579245
0.586964
0.592669
0.596913
0.600191
0.602696
0.495451
0.526929
0.552089
0.567801
0.57919
0.586908
0.592728
0.597073
0.600447
0.603063
0.484569
0.518656
0.545251
0.561361
0.57339
0.581663
0.588042
0.592847
0.596586
0.599335
0.578413
0.579238
0.580416
0.581778
0.583203
0.584608
0.585944
0.587192
0.588368
0.589515
0.571859
0.573938
0.576576
0.579372
0.582096
0.584622
0.586893
0.588889
0.590612
0.592063
0.564301
0.567866
0.572235
0.576644
0.580746
0.584387
0.587524
0.590174
0.592373
0.594161
0.554831
0.560482
0.567002
0.573199
0.5787
0.583382
0.587278
0.590472
0.593056
0.595103
0.545934
0.554113
0.563005
0.570992
0.577793
0.583363
0.587862
0.59146
0.594318
0.596531
0.536238
0.547276
0.558657
0.568348
0.576313
0.582624
0.587604
0.591518
0.5946
0.596976
0.527846
0.541928
0.55578
0.566989
0.575938
0.582817
0.588151
0.592284
0.59552
0.597994
0.5192
0.53638
0.552604
0.565095
0.574844
0.582147
0.58776
0.592089
0.595489
0.598109
0.512147