/*--------------------------------*- C++ -*----------------------------------*\
| =========                 |                                                 |
| \\      /  F ield         | foam-extend: Open Source CFD                    |
|  \\    /   O peration     | Version:     4.0                                |
|   \\  /    A nd           | Web:         http://www.foam-extend.org         |
|    \\/     M anipulation  |                                                 |
\*---------------------------------------------------------------------------*/
FoamFile
{
    version     2.0;
    format      ascii;
    class       surfaceScalarField;
    location    "700";
    object      phi;
}
// * * * * * * * * * * * * * * * * * * * * * * * * * * * * * * * * * * * * * //

dimensions      [1 0 -1 0 0 0 0];

internalField   nonuniform List<scalar> 
97302
(
-0.000109909
7.89992e-07
-0.000863833
0.000873117
-0.000119605
9.82507e-07
-0.000864951
0.000873664
-0.000129442
1.05323e-06
-0.00086558
0.000874364
-0.000139989
1.00698e-06
-0.000865723
0.000875263
-0.000152074
8.32494e-07
-0.000865375
0.000876627
-0.000167179
5.19466e-07
-0.000864319
0.000878904
-0.000188391
4.1476e-08
-0.000861948
0.000883119
-0.00022269
-6.42828e-07
-0.000856421
0.000891362
-0.000271201
-1.6486e-06
-0.000846684
0.00089684
-4.33724e-06
-0.000819133
-0.000352756
0.000905025
-0.000151144
1.247e-06
-0.00115737
0.00116746
-0.000161247
1.61493e-06
-0.00115874
0.00116821
-0.000171461
1.76322e-06
-0.00115961
0.00116912
-0.000182314
1.70953e-06
-0.00115984
0.00116999
-0.000194592
1.4329e-06
-0.00115918
0.00117086
-0.00021
9.20167e-07
-0.00115728
0.00117229
-0.000232373
1.1113e-07
-0.00115371
0.00117601
-0.000271057
-1.08457e-06
-0.0011468
0.00118592
-0.000327526
-2.95567e-06
-0.00113414
0.00119192
-7.41265e-06
-0.0010958
-0.000431535
0.00120288
-0.000191308
1.33206e-06
-0.00144943
0.00146022
-0.000201672
1.85251e-06
-0.00145105
0.00146117
-0.000212037
2.09194e-06
-0.00145209
0.00146213
-0.000222897
2.08323e-06
-0.00145219
0.00146268
-0.000235165
1.7991e-06
-0.00145108
0.00146298
-0.000250968
1.22447e-06
-0.0014486
0.0014641
-0.000274769
2.7385e-07
-0.00144484
0.00146848
-0.000317642
-1.14608e-06
-0.00143826
0.0014812
-0.000380655
-3.47135e-06
-0.00142488
0.00148841
-9.14865e-06
-0.00137601
-0.000499199
0.00149629
-0.000231247
1.36097e-06
-0.00173731
0.00174841
-0.000241882
2.05264e-06
-0.00173929
0.00174973
-0.000252544
2.40046e-06
-0.00174074
0.00175109
-0.000263735
2.45814e-06
-0.0017412
0.00175202
-0.000276436
2.1883e-06
-0.00174043
0.00175274
-0.00029296
1.57633e-06
-0.00173838
0.00175456
-0.000318095
5.12353e-07
-0.00173515
0.00176004
-0.000364186
-1.08884e-06
-0.00172917
0.00177521
-0.00043196
-3.81751e-06
-0.00171567
0.00178379
-1.06699e-05
-0.00165614
-0.000559353
0.00178505
-0.000271051
1.51987e-06
-0.00202569
0.00203684
-0.000281845
2.30991e-06
-0.00202825
0.00203879
-0.000292684
2.7163e-06
-0.00203042
0.00204094
-0.00030409
2.80527e-06
-0.00203158
0.00204264
-0.000317112
2.53973e-06
-0.00203156
0.00204423
-0.000334181
1.90507e-06
-0.00203035
0.00204709
-0.00036037
7.77877e-07
-0.00202797
0.00205389
-0.00040906
-9.17603e-07
-0.00202295
0.00207147
-0.000480835
-3.92292e-06
-0.00201019
0.00208207
-1.18785e-05
-0.00193938
-0.000613816
0.00207357
-0.000311427
1.65952e-06
-0.0023122
0.00232351
-0.000322332
2.49141e-06
-0.00231552
0.00232624
-0.00033326
2.88937e-06
-0.00231838
0.00232913
-0.000344752
2.94773e-06
-0.00232022
0.00233157
-0.000357909
2.64197e-06
-0.00232095
0.002334
-0.000375238
1.96875e-06
-0.00232069
0.00233795
-0.000402085
8.07246e-07
-0.00231943
0.00234624
-0.000452703
-8.95963e-07
-0.00231577
0.00236637
-0.000527837
-3.94841e-06
-0.00230491
0.00238007
-1.27606e-05
-0.00222254
-0.000664599
0.00236018
-0.000351701
1.84393e-06
-0.0025984
0.00260968
-0.000362567
2.57452e-06
-0.00260267
0.00261345
-0.00037344
2.88075e-06
-0.0026064
0.00261728
-0.000384861
2.82598e-06
-0.00260897
0.00262052
-0.000397983
2.41673e-06
-0.00261048
0.00262383
-0.00041534
1.64921e-06
-0.00261119
0.00262887
-0.000442519
4.62865e-07
-0.00261122
0.00263874
-0.000494461
-1.14196e-06
-0.00260941
0.0026616
-0.00057235
-3.802e-06
-0.00260163
0.00267937
-1.2802e-05
-0.00250756
-0.000711168
0.00264642
-0.000393334
1.78279e-06
-0.0028856
0.00289723
-0.000404279
2.29021e-06
-0.0028908
0.00290203
-0.000415178
2.37178e-06
-0.0028949
0.00290631
-0.000426571
2.07021e-06
-0.00289761
0.00290976
-0.00043957
1.42447e-06
-0.00289913
0.00291312
-0.000456646
4.43709e-07
-0.00290008
0.00291836
-0.000483529
-8.31296e-07
-0.00290089
0.00292906
-0.000535618
-2.31575e-06
-0.0029007
0.00295396
-0.000614918
-4.00439e-06
-0.00289667
0.00297617
-1.18696e-05
-0.00279275
-0.000754156
0.00293105
-0.000434527
1.02434e-06
-0.00317027
0.00318213
-0.000445069
1.12723e-06
-0.00317651
0.00318822
-0.000455608
8.65906e-07
-0.00318137
0.00319342
-0.000466732
1.50691e-07
-0.00318476
0.0031978
-0.000479566
-9.00927e-07
-0.00318703
0.00320219
-0.000496464
-2.25561e-06
-0.00318895
0.00320854
-0.00052316
-3.71175e-06
-0.00319119
0.00322077
-0.000574911
-4.98538e-06
-0.00319342
0.00324784
-0.00065407
-5.31083e-06
-0.00319217
0.00327263
-9.92367e-06
-0.00307826
-0.000790773
0.00321302
-0.000476039
-0.00343589
0.00344847
-0.000487207
-0.0034419
0.0034542
-0.000498354
-0.00344461
0.00345662
-0.000510095
-0.00344364
0.00345554
-0.00052341
-0.00343966
0.00345207
-0.000540387
-0.00343391
0.00344863
-0.000566236
-0.00342784
0.00344997
-0.000615155
-0.00342332
0.00346726
-0.000687932
-0.00342221
0.00348967
-0.00331774
-0.000817035
0.00343692
1.47608e-05
7.10174e-07
-0.000855339
5.78191e-06
9.37207e-07
-0.000856909
-3.2556e-06
1.02989e-06
-0.000857573
-1.25367e-05
9.88019e-07
-0.000857429
-2.22619e-05
7.98909e-07
-0.000856449
-3.26564e-05
4.4367e-07
-0.000854368
-4.38786e-05
-1.12118e-07
-0.000850613
-5.53593e-05
-9.45935e-07
-0.000843995
-6.63332e-05
-2.25001e-06
-0.00083346
-3.97118e-06
-0.000817018
-6.44771e-05
1.58167e-05
1.13356e-06
-0.00114751
5.95248e-06
1.55235e-06
-0.00114949
-3.9511e-06
1.73514e-06
-0.00115042
-1.42053e-05
1.69346e-06
-0.00115029
-2.50679e-05
1.39822e-06
-0.00114892
-3.69038e-05
8.25113e-07
-0.00114582
-5.05592e-05
-8.87671e-08
-0.00114008
-6.70957e-05
-1.45663e-06
-0.00112975
-8.79638e-05
-3.65585e-06
-0.00111187
-6.6276e-06
-0.0010821
-9.90018e-05
1.73399e-05
1.23306e-06
-0.00143844
6.80498e-06
1.81667e-06
-0.00144078
-3.70699e-06
2.09614e-06
-0.00144194
-1.45119e-05
2.10002e-06
-0.00144179
-2.59374e-05
1.78439e-06
-0.00144004
-3.8721e-05
1.12174e-06
-0.00143612
-5.46176e-05
1.68115e-08
-0.00142905
-7.63893e-05
-1.64791e-06
-0.0014163
-0.000108196
-4.44724e-06
-0.00139228
-8.44751e-06
-0.00134804
-0.000134345
1.88626e-05
1.27595e-06
-0.00172574
7.86437e-06
2.04711e-06
-0.00172852
-3.13989e-06
2.44348e-06
-0.00173008
-1.45183e-05
2.51929e-06
-0.00173024
-2.67142e-05
2.21643e-06
-0.00172866
-4.07214e-05
1.50902e-06
-0.00172476
-5.88584e-05
2.601e-07
-0.00171725
-8.5294e-05
-1.63681e-06
-0.00170275
-0.000127663
-4.96968e-06
-0.00167278
-9.96276e-06
-0.00161259
-0.000169695
2.02831e-05
1.44341e-06
-0.00201386
9.00732e-06
2.32224e-06
-0.00201725
-2.29101e-06
2.78396e-06
-0.00201946
-1.40322e-05
2.89812e-06
-0.00202022
-2.67948e-05
2.6047e-06
-0.00201918
-4.17546e-05
1.87847e-06
-0.00201576
-6.16938e-05
5.43871e-07
-0.00200831
-9.20885e-05
-1.49383e-06
-0.0019927
-0.000144534
-5.21345e-06
-0.0019575
-1.10765e-05
-0.00188055
-0.000202245
2.12708e-05
1.6124e-06
-0.00230011
9.8039e-06
2.54354e-06
-0.00230427
-1.65597e-06
3.00641e-06
-0.00230714
-1.35785e-05
3.10217e-06
-0.0023085
-2.66576e-05
2.78135e-06
-0.00230805
-4.22243e-05
2.03155e-06
-0.00230527
-6.34894e-05
6.60278e-07
-0.00229828
-9.71154e-05
-1.41225e-06
-0.00228222
-0.000159039
-5.26511e-06
-0.00224293
-1.17993e-05
-0.00214906
-0.000231791
2.18891e-05
1.78948e-06
-0.00258619
1.04173e-05
2.62045e-06
-0.00259127
-1.02641e-06
2.99994e-06
-0.00259495
-1.29203e-05
2.99867e-06
-0.00259698
-2.60822e-05
2.61064e-06
-0.00259715
-4.19462e-05
1.81164e-06
-0.00259511
-6.41026e-05
4.30041e-07
-0.00258883
-0.000100264
-1.61095e-06
-0.00257305
-0.000170892
-5.19939e-06
-0.00253106
-1.20449e-05
-0.00242043
-0.000257781
2.17445e-05
1.75964e-06
-0.00287303
1.02301e-05
2.3728e-06
-0.00287903
-1.14743e-06
2.55985e-06
-0.00288309
-1.29073e-05
2.36719e-06
-0.00288522
-2.59158e-05
1.82665e-06
-0.00288534
-4.16716e-05
9.14305e-07
-0.00288343
-6.40651e-05
-4.51908e-07
-0.00287761
-0.000101648
-2.36588e-06
-0.00286236
-0.00017966
-5.08138e-06
-0.00281877
-1.16054e-05
-0.00269254
-0.000280305
2.11823e-05
1.00816e-06
-0.00315733
1.0119e-05
1.18868e-06
-0.00316427
-7.82347e-07
1.06178e-06
-0.00316897
-1.20618e-05
5.00579e-07
-0.00317161
-2.47194e-05
-3.63362e-07
-0.00317218
-4.03617e-05
-1.53393e-06
-0.00317085
-6.30877e-05
-2.93972e-06
-0.00316598
-0.000101926
-4.56663e-06
-0.00315238
-0.000185857
-5.95761e-06
-0.00310736
-9.7786e-06
-0.00296331
-0.000302638
1.99518e-05
-0.00342253
8.6356e-06
-0.0034294
-2.32563e-06
-0.00343259
-1.35427e-05
-0.00343193
-2.58889e-05
-0.00342767
-4.0931e-05
-0.0034204
-6.25987e-05
-0.00340911
-0.000100145
-0.00339035
-0.000185408
-0.0033429
-0.00319211
-0.000320823
1.23022e-05
5.82709e-07
-0.000848585
4.78076e-06
8.25731e-07
-0.000850213
-2.89058e-06
9.26147e-07
-0.000850827
-1.06251e-05
8.77343e-07
-0.000850572
-1.83011e-05
6.6982e-07
-0.000849442
-2.5676e-05
2.86712e-07
-0.00084728
-3.22015e-05
-2.94698e-07
-0.000843793
-3.65751e-05
-1.11151e-06
-0.000838509
-3.69174e-05
-2.24514e-06
-0.000830873
-3.4881e-06
-0.000821035
-2.94129e-05
1.42415e-05
9.62597e-07
-0.00113896
5.34309e-06
1.40534e-06
-0.00114117
-3.66703e-06
1.597e-06
-0.00114208
-1.2876e-05
1.54244e-06
-0.00114174
-2.22863e-05
1.21261e-06
-0.00114005
-3.17486e-05
5.80235e-07
-0.00113666
-4.08655e-05
-4.09036e-07
-0.00113085
-4.84922e-05
-1.82577e-06
-0.00112141
-5.21922e-05
-3.87602e-06
-0.00110654
-6.21925e-06
-0.00108635
-4.52131e-05
1.65498e-05
1.10283e-06
-0.00142831
6.51577e-06
1.7163e-06
-0.00143105
-3.58616e-06
2.0033e-06
-0.00143224
-1.39374e-05
1.98572e-06
-0.00143188
-2.46249e-05
1.61453e-06
-0.00142975
-3.57163e-05
8.50412e-07
-0.0014253
-4.73348e-05
-4.03823e-07
-0.00141744
-5.90367e-05
-2.24327e-06
-0.00140418
-6.84656e-05
-5.06837e-06
-0.00138166
-8.48946e-06
-0.00134861
-6.56268e-05
1.84943e-05
1.1985e-06
-0.00171469
7.69255e-06
2.00835e-06
-0.00171801
-3.1999e-06
2.41276e-06
-0.0017196
-1.44701e-05
2.4617e-06
-0.00171945
-2.63528e-05
2.08985e-06
-0.00171726
-3.91831e-05
1.25529e-06
-0.00171234
-5.35343e-05
-1.92704e-07
-0.00170311
-6.96387e-05
-2.37123e-06
-0.00168652
-8.58671e-05
-5.93779e-06
-0.00165568
-1.04621e-05
-0.00160721
-8.92748e-05
2.01889e-05
1.4108e-06
-0.00200227
8.89189e-06
2.33328e-06
-0.00200628
-2.49605e-06
2.80655e-06
-0.00200847
-1.43632e-05
2.89557e-06
-0.00200879
-2.71207e-05
2.53177e-06
-0.00200687
-4.13548e-05
1.6704e-06
-0.00200194
-5.80922e-05
1.054e-07
-0.00199188
-7.83803e-05
-2.30508e-06
-0.00197248
-0.000102086
-6.48968e-06
-0.00193324
-1.20494e-05
-0.00186757
-0.00011348
2.13941e-05
1.62585e-06
-0.00228807
9.75436e-06
2.60443e-06
-0.0022929
-1.93916e-06
3.08448e-06
-0.00229573
-1.41606e-05
3.16453e-06
-0.00229655
-2.74736e-05
2.78148e-06
-0.00229498
-4.2709e-05
1.90212e-06
-0.00229027
-6.13831e-05
2.92922e-07
-0.00227979
-8.54729e-05
-2.20609e-06
-0.00225823
-0.000117105
-6.73221e-06
-0.00221106
-1.31513e-05
-0.00212715
-0.000137916
2.21417e-05
1.82122e-06
-0.00257388
1.04026e-05
2.70066e-06
-0.00257963
-1.35894e-06
3.10599e-06
-0.00258321
-1.36553e-05
3.10626e-06
-0.00258462
-2.72104e-05
2.68527e-06
-0.0025835
-4.30596e-05
1.80149e-06
-0.00257916
-6.32073e-05
2.23041e-07
-0.00256862
-9.0587e-05
-2.25782e-06
-0.00254562
-0.000130186
-6.73877e-06
-0.00249146
-1.37855e-05
-0.00238888
-0.000161101
2.20726e-05
1.79896e-06
-0.00286031
1.0271e-05
2.45898e-06
-0.00286699
-1.43903e-06
2.69127e-06
-0.00287096
-1.36266e-05
2.54459e-06
-0.00287247
-2.71041e-05
2.03452e-06
-0.00287121
-4.30882e-05
1.12172e-06
-0.00286676
-6.40539e-05
-3.37761e-07
-0.00285608
-9.38442e-05
-2.59559e-06
-0.00283223
-0.00014085
-6.26195e-06
-0.00277224
-1.34648e-05
-0.00265126
-0.00018245
2.14268e-05
1.0669e-06
-0.00314421
1.00649e-05
1.27825e-06
-0.00315172
-1.16423e-06
1.23238e-06
-0.00315629
-1.28281e-05
7.84164e-07
-0.00315818
-2.58812e-05
5.75554e-08
-0.00315715
-4.17803e-05
-9.63828e-07
-0.00315287
-6.35119e-05
-2.26036e-06
-0.00314232
-9.56926e-05
-3.97073e-06
-0.00311883
-0.00014904
-6.17212e-06
-0.0030541
-1.1218e-05
-0.0029121
-0.000202492
2.01906e-05
-0.00340912
8.74538e-06
-0.00341667
-2.38376e-06
-0.00342023
-1.38409e-05
-0.00341969
-2.64604e-05
-0.003415
-4.17008e-05
-0.00340613
-6.25841e-05
-0.00339049
-9.46082e-05
-0.00336229
-0.000150663
-0.00329302
-0.0031368
-0.00021719
9.54587e-06
4.012e-07
-0.000843629
3.73343e-06
6.48148e-07
-0.000845049
-2.29044e-06
7.52617e-07
-0.000845556
-8.25539e-06
7.01418e-07
-0.000845309
-1.38553e-05
4.90174e-07
-0.000844333
-1.86665e-05
1.08572e-07
-0.000842577
-2.2045e-05
-4.5128e-07
-0.000839963
-2.29457e-05
-1.19095e-06
-0.000836418
-1.97737e-05
-2.1044e-06
-0.00083194
-2.96118e-06
-0.000826934
-1.09129e-05
1.20575e-05
7.05755e-07
-0.00113207
4.53528e-06
1.15869e-06
-0.00113416
-3.16498e-06
1.35442e-06
-0.00113498
-1.09027e-05
1.29017e-06
-0.00113459
-1.84592e-05
9.41227e-07
-0.00113295
-2.54444e-05
2.86221e-07
-0.00112985
-3.10943e-05
-7.07587e-07
-0.00112494
-3.38845e-05
-2.06099e-06
-0.00111775
-3.09722e-05
-3.82425e-06
-0.00110773
-5.57174e-06
-0.00109616
-1.85547e-05
1.49771e-05
8.8201e-07
-0.00141956
5.93114e-06
1.51025e-06
-0.00142236
-3.25469e-06
1.79667e-06
-0.0014235
-1.25697e-05
1.75409e-06
-0.00142303
-2.19013e-05
1.33533e-06
-0.00142081
-3.09551e-05
5.00969e-07
-0.00141646
-3.90543e-05
-8.2916e-07
-0.00140922
-4.4594e-05
-2.7058e-06
-0.001398
-4.3654e-05
-5.3133e-06
-0.00138111
-8.08431e-06
-0.00136039
-2.93562e-05
1.73405e-05
1.0362e-06
-0.00170471
7.19768e-06
1.87052e-06
-0.00170823
-3.10601e-06
2.27324e-06
-0.00170977
-1.36892e-05
2.28609e-06
-0.0017094
-2.45891e-05
1.84417e-06
-0.00170687
-3.57201e-05
9.00586e-07
-0.00170161
-4.66205e-05
-6.83776e-07
-0.00169236
-5.57221e-05
-3.00014e-06
-0.00167712
-5.81955e-05
-6.4659e-06
-0.00165206
-1.03724e-05
-0.0016192
-4.39122e-05
1.93586e-05
1.30056e-06
-0.00199144
8.44807e-06
2.25446e-06
-0.00199575
-2.61151e-06
2.72906e-06
-0.00199787
-1.40736e-05
2.77954e-06
-0.00199782
-2.61651e-05
2.33521e-06
-0.00199526
-3.90524e-05
1.34113e-06
-0.00198949
-5.25812e-05
-4.07097e-07
-0.00197862
-6.54175e-05
-3.05178e-06
-0.00195959
-7.23711e-05
-7.29602e-06
-0.00192546
-1.23448e-05
-0.00187794
-6.00269e-05
2.08366e-05
1.57133e-06
-0.00227655
9.37825e-06
2.58653e-06
-0.00228178
-2.18785e-06
3.07361e-06
-0.0022845
-1.42345e-05
3.12321e-06
-0.00228485
-2.71603e-05
2.66468e-06
-0.00228239
-4.14049e-05
1.64943e-06
-0.00227633
-5.7222e-05
-1.6799e-07
-0.00226421
-7.37308e-05
-2.97801e-06
-0.0022418
-8.60758e-05
-7.74555e-06
-0.00219827
-1.38076e-05
-0.0021342
-7.75588e-05
2.17737e-05
1.80085e-06
-0.00256188
1.00709e-05
2.7197e-06
-0.00256806
-1.70122e-06
3.14021e-06
-0.0025715
-1.3987e-05
3.12503e-06
-0.00257234
-2.73672e-05
2.64733e-06
-0.0025701
-4.2539e-05
1.65263e-06
-0.00256399
-6.02227e-05
-1.17286e-07
-0.00255098
-8.01313e-05
-2.93494e-06
-0.00252575
-9.84345e-05
-7.8559e-06
-0.00247304
-1.47911e-05
-0.0023912
-9.51262e-05
2.18518e-05
1.7965e-06
-0.00284781
1.00243e-05
2.49567e-06
-0.00285494
-1.76187e-06
2.75875e-06
-0.00285879
-1.40298e-05
2.63555e-06
-0.00285971
-2.74676e-05
2.12268e-06
-0.00285725
-4.30161e-05
1.17124e-06
-0.00285073
-6.19276e-05
-4.07315e-07
-0.00283688
-8.46486e-05
-2.9625e-06
-0.00280948
-0.00010906
-7.19694e-06
-0.00274849
-1.45932e-05
-0.00264828
-0.000112237
2.12735e-05
1.09982e-06
-0.00313121
9.83445e-06
1.33693e-06
-0.00313913
-1.52363e-06
1.35665e-06
-0.00314353
-1.33193e-05
9.96496e-07
-0.00314475
-2.63665e-05
3.68271e-07
-0.00314235
-4.18384e-05
-5.60989e-07
-0.00313567
-6.16203e-05
-1.81618e-06
-0.00312113
-8.72673e-05
-3.62598e-06
-0.00309252
-0.00011762
-6.29588e-06
-0.00302465
-1.1936e-05
-0.00290342
-0.000128954
2.0115e-05
-0.00339592
8.71579e-06
-0.00340394
-2.42808e-06
-0.00340772
-1.39321e-05
-0.00340719
-2.65177e-05
-0.00340204
-4.13887e-05
-0.00339182
-6.05262e-05
-0.00337316
-8.65838e-05
-0.00333986
-0.000120081
-0.00326582
-0.00312718
-0.000141634
7.01702e-06
2.06919e-07
-0.000840124
2.77965e-06
4.4132e-07
-0.000841253
-1.68224e-06
5.43991e-07
-0.000841638
-6.04009e-06
4.95306e-07
-0.000841446
-9.94844e-06
2.95897e-07
-0.00084072
-1.29991e-05
-5.66324e-08
-0.00083947
-1.46935e-05
-5.54961e-07
-0.000837714
-1.44186e-05
-1.17702e-06
-0.000835516
-1.14902e-05
-1.87427e-06
-0.000832994
-2.46013e-06
-0.000830362
-5.60243e-06
9.70256e-06
4.08631e-07
-0.00112677
3.6759e-06
8.50644e-07
-0.00112854
-2.57311e-06
1.04307e-06
-0.00112923
-8.7609e-06
9.74851e-07
-0.00112889
-1.45416e-05
6.27229e-07
-0.0011275
-1.94409e-05
-1.00083e-08
-0.001125
-2.27336e-05
-9.43792e-07
-0.00112126
-2.33029e-05
-2.1507e-06
-0.00111621
-1.94689e-05
-3.5768e-06
-0.00110986
-4.83445e-06
-0.00110316
-1.00942e-05
1.29822e-05
5.95077e-07
-0.00141238
5.20674e-06
1.21755e-06
-0.00141495
-2.77166e-06
1.49616e-06
-0.00141598
-1.07605e-05
1.43267e-06
-0.0014155
-1.84793e-05
9.85519e-07
-0.00141345
-2.54531e-05
1.24953e-07
-0.00140962
-3.07983e-05
-1.19877e-06
-0.00140362
-3.29247e-05
-2.98631e-06
-0.00139503
-2.89218e-05
-5.24619e-06
-0.00138345
-7.38422e-06
-0.00137079
-1.5973e-05
1.56692e-05
7.9241e-07
-0.0016961
6.52792e-06
1.63398e-06
-0.00169951
-2.8452e-06
2.02837e-06
-0.00170093
-1.23693e-05
2.00612e-06
-0.00170045
-2.18748e-05
1.50741e-06
-0.00169788
-3.09969e-05
4.91082e-07
-0.00169285
-3.88414e-05
-1.14928e-06
-0.00168456
-4.34681e-05
-3.45653e-06
-0.00167202
-4.05328e-05
-6.6046e-06
-0.00165363
-9.79445e-06
-0.00163253
-2.47953e-05
1.79923e-05
1.10177e-06
-0.00198172
7.8179e-06
2.07371e-06
-0.00198602
-2.57231e-06
2.54343e-06
-0.00198799
-1.32393e-05
2.55274e-06
-0.0019877
-2.41831e-05
2.03327e-06
-0.00198485
-3.52308e-05
9.29575e-07
-0.00197888
-4.56059e-05
-9.34308e-07
-0.00196846
-5.31812e-05
-3.66038e-06
-0.00195181
-5.23149e-05
-7.66513e-06
-0.00192526
-1.19864e-05
-0.0018931
-3.49602e-05
1.97556e-05
1.42716e-06
-0.00226593
8.81178e-06
2.46968e-06
-0.00227123
-2.30633e-06
2.95828e-06
-0.0022738
-1.37986e-05
2.97213e-06
-0.00227378
-2.58319e-05
2.43729e-06
-0.00227076
-3.84777e-05
1.29753e-06
-0.00226406
-5.12184e-05
-6.75643e-07
-0.00225173
-6.19581e-05
-3.65142e-06
-0.00223107
-6.4143e-05
-8.30382e-06
-0.00219544
-1.36951e-05
-0.00214996
-4.6676e-05
2.09122e-05
1.70005e-06
-0.00255057
9.552e-06
2.65342e-06
-0.00255689
-1.93984e-06
3.08494e-06
-0.00256014
-1.38629e-05
3.04833e-06
-0.00256049
-2.6573e-05
2.50782e-06
-0.00255746
-4.04e-05
1.39864e-06
-0.00255027
-5.51869e-05
-5.35153e-07
-0.00253634
-6.90481e-05
-3.56169e-06
-0.00251198
-7.50328e-05
-8.51917e-06
-0.00246684
-1.49058e-05
-0.00240623
-5.87875e-05
2.1183e-05
1.71893e-06
-0.00283587
9.60323e-06
2.45744e-06
-0.00284316
-2.00287e-06
2.74607e-06
-0.00284685
-1.40411e-05
2.63665e-06
-0.00284726
-2.69878e-05
2.10795e-06
-0.0028439
-4.14247e-05
1.10086e-06
-0.002836
-5.76766e-05
-5.94603e-07
-0.00282057
-7.43308e-05
-3.35193e-06
-0.00279304
-8.46936e-05
-7.79148e-06
-0.00273886
-1.48107e-05
-0.0026619
-7.11681e-05
2.07331e-05
1.08564e-06
-0.00311867
9.46155e-06
1.34898e-06
-0.00312675
-1.80103e-06
1.4258e-06
-0.00313094
-1.34646e-05
1.13712e-06
-0.00313159
-2.61424e-05
5.83121e-07
-0.00312815
-4.06206e-05
-2.85777e-07
-0.0031198
-5.77351e-05
-1.52935e-06
-0.00310308
-7.71941e-05
-3.41384e-06
-0.003073
-9.24071e-05
-6.284e-06
-0.00301095
-1.18234e-05
-0.002915
-8.38146e-05
1.96876e-05
-0.00338319
8.53199e-06
-0.00339143
-2.44652e-06
-0.00339532
-1.37809e-05
-0.00339471
-2.60262e-05
-0.00338921
-4.00452e-05
-0.00337808
-5.68137e-05
-0.00335793
-7.68904e-05
-0.0033232
-9.48184e-05
-0.00325417
-0.00314072
-9.30999e-05
4.95413e-06
2.81743e-08
-0.000837679
2.00084e-06
2.36971e-07
-0.000838537
-1.15672e-06
3.32731e-07
-0.000838813
-4.21021e-06
2.90391e-07
-0.000838683
-6.85092e-06
1.14634e-07
-0.000838194
-8.75224e-06
-1.91003e-07
-0.000837378
-9.5783e-06
-6.08964e-07
-0.000836279
-9.00624e-06
-1.10664e-06
-0.000834981
-6.79552e-06
-1.62435e-06
-0.000833581
-2.0234e-06
-0.000832106
-3.02853e-06
7.47733e-06
1.12123e-07
-0.00112283
2.86006e-06
5.22392e-07
-0.00112421
-1.99141e-06
7.03979e-07
-0.00112475
-6.74072e-06
6.38171e-07
-0.00112448
-1.10102e-05
3.12124e-07
-0.00112343
-1.43504e-05
-2.73028e-07
-0.00112157
-1.619e-05
-1.10307e-06
-0.00111892
-1.58322e-05
-2.12762e-06
-0.00111554
-1.24766e-05
-3.24662e-06
-0.0011116
-4.14592e-06
-0.00110758
-5.93623e-06
1.08482e-05
2.79174e-07
-0.0014067
4.43095e-06
8.71754e-07
-0.00140888
-2.22908e-06
1.13452e-06
-0.00140975
-8.8176e-06
1.05778e-06
-0.00140933
-1.49551e-05
6.07273e-07
-0.00140761
-2.01157e-05
-2.32251e-07
-0.0014045
-2.34904e-05
-1.47738e-06
-0.00139987
-2.38846e-05
-3.08649e-06
-0.00139368
-1.9559e-05
-4.96744e-06
-0.00138605
-6.59474e-06
-0.00137825
-9.65021e-06
1.36914e-05
4.93094e-07
-0.00168897
5.75379e-06
1.31893e-06
-0.00169202
-2.47397e-06
1.69744e-06
-0.00169326
-1.07401e-05
1.64662e-06
-0.00169277
-1.87127e-05
1.11505e-06
-0.00169042
-2.58756e-05
7.51027e-08
-0.001686
-3.12626e-05
-1.53625e-06
-0.00167912
-3.31986e-05
-3.70974e-06
-0.00166946
-2.86563e-05
-6.44401e-06
-0.0016567
-8.98523e-06
-0.00164334
-1.54521e-05
1.62328e-05
8.29596e-07
-0.00197332
7.05632e-06
1.79953e-06
-0.00197732
-2.40003e-06
2.25722e-06
-0.00197909
-1.20049e-05
2.22904e-06
-0.00197867
-2.155e-05
1.65316e-06
-0.00197584
-3.06202e-05
4.82893e-07
-0.00197022
-3.81977e-05
-1.41125e-06
-0.00196101
-4.22176e-05
-4.07343e-06
-0.00194743
-3.82052e-05
-7.67241e-06
-0.00192805
-1.12504e-05
-0.00190691
-2.21285e-05
1.82429e-05
1.19861e-06
-0.00225647
8.09818e-06
2.2529e-06
-0.00226154
-2.29088e-06
2.73661e-06
-0.00226389
-1.29298e-05
2.71496e-06
-0.00226362
-2.37494e-05
2.11571e-06
-0.0022604
-3.45086e-05
8.84489e-07
-0.0022537
-4.42806e-05
-1.16634e-06
-0.0022422
-5.07793e-05
-4.15402e-06
-0.00222449
-4.81541e-05
-8.4589e-06
-0.00219728
-1.30708e-05
-0.00216619
-3.00936e-05
1.96117e-05
1.51712e-06
-0.00254024
8.87979e-06
2.49505e-06
-0.0025464
-2.05476e-06
2.93269e-06
-0.0025494
-1.33101e-05
2.87324e-06
-0.00254939
-2.49944e-05
2.2761e-06
-0.00254594
-3.70829e-05
1.07386e-06
-0.00253837
-4.88557e-05
-9.62134e-07
-0.00252477
-5.79705e-05
-4.05061e-06
-0.00250297
-5.74477e-05
-8.75508e-06
-0.00246707
-1.43595e-05
-0.00242407
-3.83178e-05
2.00943e-05
1.56074e-06
-0.00282477
9.03104e-06
2.33504e-06
-0.00283194
-2.13664e-06
2.64362e-06
-0.00283539
-1.3655e-05
2.54115e-06
-0.00283541
-2.57578e-05
1.99227e-06
-0.00283151
-3.86458e-05
9.34552e-07
-0.00282297
-5.195e-05
-8.37461e-07
-0.00280739
-6.35566e-05
-3.66401e-06
-0.00278182
-6.58799e-05
-8.00167e-06
-0.00273728
-1.42805e-05
-0.00268086
-4.69967e-05
1.98056e-05
1.01799e-06
-0.0031069
8.95131e-06
1.30575e-06
-0.00311486
-1.97778e-06
1.43062e-06
-0.0031188
-1.32401e-05
1.19794e-06
-0.00311898
-2.52222e-05
6.98104e-07
-0.00311487
-3.83142e-05
-1.30492e-07
-0.00310564
-5.25006e-05
-1.36722e-06
-0.00308837
-6.64556e-05
-3.26336e-06
-0.00305944
-7.2277e-05
-6.1157e-06
-0.00300701
-1.10663e-05
-0.00293467
-5.58144e-05
1.8902e-05
-0.00337124
8.19568e-06
-0.00337942
-2.42142e-06
-0.00338327
-1.33585e-05
-0.00338258
-2.4974e-05
-0.0033769
-3.77668e-05
-0.00336542
-5.19023e-05
-0.00334516
-6.65974e-05
-0.00331177
-7.4519e-05
-0.00325237
-0.00316463
-6.16637e-05
3.40831e-06
-1.17879e-07
-0.000835951
1.41349e-06
5.82893e-08
-0.0008366
-7.50114e-07
1.43854e-07
-0.000836794
-2.82967e-06
1.09862e-07
-0.000836713
-4.58188e-06
-3.61084e-08
-0.000836406
-5.76935e-06
-2.87403e-07
-0.000835903
-6.18094e-06
-6.21804e-07
-0.000835246
-5.65814e-06
-1.00544e-06
-0.000834498
-4.14523e-06
-1.38262e-06
-0.000833711
-1.65169e-06
-0.000832805
-1.79385e-06
5.55678e-06
-1.52202e-07
-0.00111994
2.14439e-06
2.10537e-07
-0.00112095
-1.4868e-06
3.75191e-07
-0.00112135
-5.01366e-06
3.16915e-07
-0.00112117
-8.08871e-06
2.78358e-08
-0.00112042
-1.03392e-05
-4.82452e-07
-0.00111913
-1.13585e-05
-1.18595e-06
-0.00111734
-1.07469e-05
-2.02079e-06
-0.00111514
-8.18641e-06
-2.87802e-06
-0.00111266
-3.51535e-06
-0.0011101
-3.79816e-06
8.78811e-06
-2.97526e-08
-0.00140235
3.66955e-06
5.09885e-07
-0.00140406
-1.7024e-06
7.48981e-07
-0.00140475
-6.96309e-06
6.67333e-07
-0.00140442
-1.17052e-05
2.37874e-07
-0.00140308
-1.54341e-05
-5.40686e-07
-0.00140071
-1.75076e-05
-1.65621e-06
-0.00139733
-1.71444e-05
-3.03916e-06
-0.00139302
-1.34546e-05
-4.5525e-06
-0.00138807
-5.77596e-06
-0.00138313
-6.31076e-06
1.15966e-05
1.70911e-07
-0.00168326
4.93268e-06
9.55234e-07
-0.0016858
-2.0558e-06
1.30946e-06
-0.00168684
-9.00548e-06
1.23921e-06
-0.00168639
-1.54919e-05
7.03066e-07
-0.0016844
-2.0953e-05
-3.09658e-07
-0.00168077
-2.45289e-05
-1.8195e-06
-0.00167538
-2.49882e-05
-3.77198e-06
-0.00166827
-2.05219e-05
-6.06024e-06
-0.00165966
-8.0509e-06
-0.00165119
-1.04002e-05
1.42264e-05
5.09985e-07
-0.00196629
6.20853e-06
1.45233e-06
-0.0019698
-2.13741e-06
1.88932e-06
-0.00197133
-1.05272e-05
1.83127e-06
-0.00197088
-1.86014e-05
1.226e-06
-0.00196829
-2.58115e-05
4.21764e-08
-0.00196336
-3.1136e-05
-1.79686e-06
-0.00195571
-3.29025e-05
-4.27576e-06
-0.00194516
-2.81067e-05
-7.3841e-06
-0.00193152
-1.02819e-05
-0.00191778
-1.50017e-05
1.64023e-05
9.03525e-07
-0.0022483
7.27154e-06
1.94722e-06
-0.0022529
-2.16479e-06
2.41773e-06
-0.00225498
-1.17355e-05
2.365e-06
-0.00225459
-2.11769e-05
1.72295e-06
-0.00225145
-3.00313e-05
4.47942e-07
-0.00224525
-3.72304e-05
-1.59263e-06
-0.00223521
-4.07572e-05
-4.45132e-06
-0.00222079
-3.6286e-05
-8.26515e-06
-0.00220087
-1.21001e-05
-0.00218003
-2.06313e-05
1.79399e-05
1.26237e-06
-0.00253111
8.07838e-06
2.24798e-06
-0.00253683
-2.05436e-06
2.68467e-06
-0.00253954
-1.23936e-05
2.60413e-06
-0.00253929
-2.28244e-05
1.96559e-06
-0.00253575
-3.30402e-05
7.07986e-07
-0.00252841
-4.20275e-05
-1.3515e-06
-0.00251602
-4.75495e-05
-4.35589e-06
-0.00249754
-4.39828e-05
-8.60705e-06
-0.0024703
-1.33348e-05
-0.00244053
-2.62819e-05
1.86274e-05
1.32694e-06
-0.00281474
8.32356e-06
2.1273e-06
-0.00282152
-2.16341e-06
2.44854e-06
-0.00282467
-1.29062e-05
2.34864e-06
-0.00282441
-2.39069e-05
1.78251e-06
-0.00282033
-3.5039e-05
6.92282e-07
-0.00281182
-4.54901e-05
-1.10124e-06
-0.00279719
-5.30356e-05
-3.86134e-06
-0.00277477
-5.11207e-05
-7.85006e-06
-0.00273996
-1.31714e-05
-0.00269976
-3.23757e-05
1.85119e-05
8.97097e-07
-0.00309614
8.31076e-06
1.20381e-06
-0.00310374
-2.05175e-06
1.36695e-06
-0.00310736
-1.26619e-05
1.17683e-06
-0.0031072
-2.36829e-05
7.16792e-07
-0.00310278
-3.51567e-05
-8.02312e-08
-0.0030934
-4.64961e-05
-1.29879e-06
-0.00307683
-5.58832e-05
-3.13943e-06
-0.00305078
-5.62035e-05
-5.8074e-06
-0.00300873
-9.92326e-06
-0.00295599
-3.81271e-05
1.77716e-05
-0.00336032
7.71349e-06
-0.00336816
-2.34477e-06
-0.00337185
-1.26652e-05
-0.00337108
-2.3404e-05
-0.00336545
-3.47242e-05
-0.00335418
-4.62241e-05
-0.00333496
-5.63901e-05
-0.00330474
-5.82718e-05
-0.00325629
-0.00319129
-4.15371e-05
2.31507e-06
-2.24686e-07
-0.000834695
9.95763e-07
-8.21786e-08
-0.000835199
-4.56043e-07
-7.92971e-09
-0.000835334
-1.84771e-06
-3.32769e-08
-0.000835288
-3.00076e-06
-1.48815e-07
-0.000835104
-3.75044e-06
-3.46779e-07
-0.000834806
-3.96667e-06
-6.04942e-07
-0.000834424
-3.57252e-06
-8.93078e-07
-0.000834
-2.57266e-06
-1.1648e-06
-0.000833546
-1.34484e-06
-0.000832937
-1.09627e-06
4.00533e-06
-3.65613e-07
-0.00111782
1.55395e-06
-5.8469e-08
-0.00111852
-1.08545e-06
8.5581e-08
-0.0011188
-3.63756e-06
3.7865e-08
-0.00111868
-5.8135e-06
-2.05866e-07
-0.00111818
-7.32725e-06
-6.31455e-07
-0.00111733
-7.90394e-06
-1.20467e-06
-0.00111616
-7.32269e-06
-1.86312e-06
-0.00111475
-5.47946e-06
-2.50653e-06
-0.00111316
-2.94929e-06
-0.00111142
-2.55039e-06
6.94179e-06
-3.04049e-07
-0.00139905
2.97202e-06
1.65251e-07
-0.00140032
-1.23559e-06
3.74421e-07
-0.00140083
-5.32381e-06
2.94934e-07
-0.00140059
-8.91049e-06
-9.42455e-08
-0.0013996
-1.15739e-05
-7.84366e-07
-0.00139789
-1.28398e-05
-1.74346e-06
-0.00139552
-1.22271e-05
-2.88936e-06
-0.00139261
-9.3303e-06
-4.07486e-06
-0.0013894
-4.97597e-06
-0.00138618
-4.25748e-06
9.54563e-06
-1.42541e-07
-0.00167879
4.11841e-06
5.75953e-07
-0.00168078
-1.6396e-06
8.97861e-07
-0.0016816
-7.31753e-06
8.17677e-07
-0.00168124
-1.2465e-05
3.03811e-07
-0.00167965
-1.65495e-05
-6.38344e-07
-0.00167683
-1.88757e-05
-1.99557e-06
-0.0016728
-1.86103e-05
-3.68243e-06
-0.00166774
-1.47818e-05
-5.54047e-06
-0.00166202
-7.06552e-06
-0.00165663
-7.25353e-06
1.21224e-05
1.72443e-07
-0.00196058
5.32427e-06
1.05975e-06
-0.00196348
-1.82588e-06
1.46674e-06
-0.00196475
-8.94758e-06
1.38844e-06
-0.00196433
-1.55996e-05
7.83566e-07
-0.00196212
-2.11952e-05
-3.61414e-07
-0.00195804
-2.48334e-05
-2.07407e-06
-0.00195199
-2.52814e-05
-4.28996e-06
-0.0019441
-2.07347e-05
-6.88638e-06
-0.00193472
-9.17754e-06
-0.00192586
-1.0542e-05
1.43587e-05
5.66696e-07
-0.00224146
6.37415e-06
1.57296e-06
-0.00224543
-1.95756e-06
2.02058e-06
-0.00224721
-1.03311e-05
1.94408e-06
-0.00224677
-1.83514e-05
1.28662e-06
-0.00224394
-2.54492e-05
2.11914e-08
-0.00223853
-3.05916e-05
-1.92788e-06
-0.00223021
-3.21763e-05
-4.54982e-06
-0.00221894
-2.73668e-05
-7.80552e-06
-0.00220476
-1.09062e-05
-0.00219098
-1.46862e-05
1.59931e-05
9.53812e-07
-0.00252328
7.18126e-06
1.92438e-06
-0.00252837
-1.95674e-06
2.35118e-06
-0.00253073
-1.11994e-05
2.25396e-06
-0.00253036
-2.02605e-05
1.59575e-06
-0.002527
-2.8652e-05
3.29246e-07
-0.00252033
-3.5281e-05
-1.67422e-06
-0.00250965
-3.82499e-05
-4.47499e-06
-0.00249465
-3.35807e-05
-8.16204e-06
-0.00247461
-1.2004e-05
-0.00245437
-1.86408e-05
1.68549e-05
1.02975e-06
-0.00280594
7.50692e-06
1.84048e-06
-0.00281208
-2.09293e-06
2.16561e-06
-0.00281488
-1.18551e-05
2.06648e-06
-0.00281446
-2.15894e-05
1.49289e-06
-0.00281049
-3.0933e-05
3.98494e-07
-0.00280255
-3.88701e-05
-1.35667e-06
-0.00278957
-4.3358e-05
-3.94257e-06
-0.00277081
-3.94973e-05
-7.43659e-06
-0.00274454
-1.17268e-05
-0.00271652
-2.30156e-05
1.69034e-05
7.28469e-07
-0.00308661