/*--------------------------------*- C++ -*----------------------------------*\
| =========                 |                                                 |
| \\      /  F ield         | foam-extend: Open Source CFD                    |
|  \\    /   O peration     | Version:     4.0                                |
|   \\  /    A nd           | Web:         http://www.foam-extend.org         |
|    \\/     M anipulation  |                                                 |
\*---------------------------------------------------------------------------*/
FoamFile
{
    version     2.0;
    format      ascii;
    class       volScalarField;
    location    "700";
    object      rho;
}
// * * * * * * * * * * * * * * * * * * * * * * * * * * * * * * * * * * * * * //

dimensions      [1 -3 0 0 0 0 0];

internalField   nonuniform List<scalar> 
34480
(
1.35242
1.35165
1.35147
1.35183
1.35293
1.3551
1.35914
1.367
1.37736
1.38129
1.35273
1.35203
1.35192
1.35229
1.35332
1.35534
1.3592
1.36698
1.3783
1.37927
1.35071
1.35003
1.34999
1.35029
1.35116
1.35287
1.35643
1.36381
1.37549
1.37107
1.34901
1.34836
1.34834
1.34859
1.34932
1.3507
1.35382
1.36047
1.37191
1.36188
1.34739
1.34668
1.34666
1.34682
1.34738
1.34844
1.35115
1.35703
1.36796
1.35278
1.3468
1.34616
1.34614
1.34626
1.3467
1.34751
1.34984
1.35494
1.36506
1.34507
1.34513
1.3444
1.34435
1.3444
1.34476
1.3454
1.34744
1.35189
1.36106
1.33704
1.34555
1.34496
1.34497
1.34521
1.34578
1.34665
1.3487
1.3527
1.36067
1.33271
1.34375
1.3432
1.34323
1.34352
1.34426
1.34543
1.34762
1.35135
1.3578
1.32672
1.34091
1.34058
1.34112
1.34233
1.34429
1.34703
1.35089
1.35616
1.36281
1.32796
1.35873
1.35759
1.35716
1.35733
1.3582
1.35993
1.36272
1.36693
1.37363
1.3824
1.3588
1.35756
1.35711
1.35729
1.35822
1.36008
1.36331
1.36876
1.37871
1.39304
1.3567
1.35538
1.35491
1.35501
1.35582
1.35755
1.36085
1.36693
1.3795
1.39795
1.35497
1.35355
1.35299
1.35295
1.3536
1.35508
1.35818
1.36423
1.37834
1.39957
1.35342
1.35184
1.35118
1.35095
1.35138
1.35253
1.35526
1.36092
1.37585
1.39871
1.35289
1.35127
1.3505
1.35013
1.35036
1.35118
1.35352
1.35853
1.37362
1.39689
1.35132
1.34954
1.34866
1.34812
1.34816
1.3487
1.35064
1.35499
1.3698
1.39283
1.3518
1.35005
1.34913
1.34864
1.34874
1.3493
1.35112
1.35489
1.36886
1.39076
1.35009
1.34833
1.34736
1.34682
1.34687
1.34747
1.34924
1.35267
1.36523
1.38646
1.34735
1.34567
1.34503
1.34513
1.34602
1.34768
1.3505
1.35487
1.367
1.38699
1.3631
1.36216
1.36181
1.36202
1.36287
1.3644
1.36674
1.36996
1.37402
1.37845
1.36322
1.36207
1.36168
1.36195
1.36298
1.3649
1.36789
1.37223
1.37865
1.38626
1.36112
1.35982
1.35942
1.35968
1.36076
1.36281
1.36618
1.3715
1.38053
1.39182
1.35928
1.35785
1.35735
1.35753
1.35856
1.3606
1.36417
1.37004
1.38112
1.3958
1.35764
1.35603
1.35545
1.35547
1.35637
1.35826
1.3618
1.36785
1.38048
1.3981
1.35697
1.3553
1.35461
1.35452
1.35527
1.35697
1.36038
1.36632
1.38001
1.39986
1.35527
1.35346
1.35268
1.35243
1.35303
1.35452
1.35774
1.36345
1.37777
1.39937
1.35564
1.35385
1.35302
1.3528
1.35342
1.3549
1.35806
1.36353
1.3779
1.40044
1.3539
1.35209
1.35121
1.35091
1.35142
1.35281
1.35588
1.36128
1.37508
1.39858
1.35115
1.34939
1.34872
1.34886
1.34992
1.35198
1.35566
1.36168
1.37527
1.39905
1.36617
1.36549
1.36524
1.3654
1.36603
1.36713
1.36867
1.3706
1.3727
1.37449
1.36666
1.36569
1.36536
1.3656
1.36648
1.36805
1.37034
1.37334
1.37709
1.38063
1.36491
1.3637
1.36332
1.36359
1.36461
1.36647
1.36933
1.37338
1.37931
1.38553
1.36318
1.36178
1.36129
1.36151
1.36257
1.36461
1.36794
1.37289
1.38098
1.39017
1.36162
1.36001
1.35943
1.35953
1.36054
1.36259
1.36617
1.37172
1.38171
1.39387
1.36092
1.35921
1.35853
1.35854
1.35947
1.36146
1.36514
1.37102
1.3826
1.39747
1.35919
1.35733
1.35656
1.35644
1.35726
1.35914
1.36282
1.36886
1.38169
1.39909
1.35949
1.35763
1.35681
1.35671
1.35754
1.35943
1.36316
1.36928
1.38284
1.40223
1.35772
1.35584
1.35497
1.35481
1.35556
1.35738
1.36104
1.36729
1.38098
1.40237
1.35495
1.35311
1.35239
1.35253
1.35367
1.35593
1.35999
1.36668
1.38037
1.40324
1.36837
1.36792
1.36776
1.36788
1.36831
1.36903
1.37
1.37113
1.37227
1.37315
1.36927
1.36852
1.36827
1.36847
1.36915
1.37031
1.37194
1.37392
1.3761
1.37789
1.36798
1.36696
1.36663
1.36686
1.36774
1.36927
1.37152
1.37443
1.37805
1.3814
1.36648
1.36521
1.36477
1.36499
1.36598
1.36781
1.37063
1.3745
1.37987
1.38528
1.36511
1.36359
1.36305
1.3632
1.36422
1.3662
1.36943
1.37407
1.38118
1.38886
1.36445
1.36281
1.36216
1.36225
1.36325
1.36529
1.36881
1.37404
1.38279
1.39276
1.36277
1.36095
1.36022
1.36021
1.36116
1.36319
1.36687
1.37253
1.38273
1.39504
1.36304
1.36121
1.36042
1.36042
1.36139
1.36348
1.36732
1.37331
1.38462
1.39901
1.36126
1.35939
1.35857
1.35852
1.35945
1.36152
1.3654
1.37171
1.3836
1.40023
1.35852
1.35667
1.35594
1.3561
1.35729
1.35966
1.36382
1.37051
1.38264
1.40112
1.36999
1.36973
1.36963
1.36971
1.36998
1.37042
1.371
1.37163
1.37222
1.37261
1.37123
1.37071
1.37052
1.37067
1.37116
1.37196
1.37303
1.37427
1.37551
1.37641
1.37043
1.36962
1.36935
1.36954
1.37023
1.37141
1.37306
1.37507
1.37729
1.3791
1.36921
1.36814
1.36775
1.36795
1.3688
1.37032
1.37256
1.37545
1.37895
1.38211
1.36809
1.36675
1.36626
1.36643
1.36736
1.36912
1.37185
1.37553
1.38043
1.3852
1.36755
1.36605
1.36545
1.36558
1.36656
1.36848
1.3716
1.37597
1.38229
1.3888
1.36596
1.36426
1.36359
1.36365
1.36463
1.36663
1.37003
1.37498
1.38265
1.39106
1.36626
1.36452
1.36379
1.36385
1.36488
1.36699
1.37064
1.37607
1.38493
1.39516
1.36451
1.36271
1.36195
1.36198
1.36299
1.36513
1.3689
1.37476
1.38445
1.39679
1.36183
1.36005
1.35933
1.3595
1.36069
1.36303
1.36703
1.37324
1.38333
1.39734
1.37127
1.37114
1.37109
1.37113
1.3713
1.37155
1.37188
1.37223
1.37255
1.37271
1.37274
1.3724
1.37227
1.37237
1.3727
1.37322
1.3739
1.37465
1.37534
1.37578
1.37238
1.37178
1.37157
1.37171
1.37222
1.37308
1.37423
1.37557
1.37694
1.37795
1.37143
1.37057
1.37025
1.37041
1.37109
1.37229
1.37398
1.37605
1.37835
1.38025
1.37059
1.36945
1.36904
1.36919
1.37
1.37147
1.37365
1.37645
1.3798
1.38281
1.3702
1.36888
1.36836
1.3685
1.36939
1.37108
1.3737
1.37719
1.38168
1.38595
1.36875
1.36722
1.36662
1.36671
1.36765
1.36949
1.37246
1.37657
1.3822
1.3879
1.36911
1.36752
1.36686
1.36697
1.36797
1.36996
1.37323
1.37788
1.38459
1.39174
1.36741
1.36574
1.36505
1.36513
1.36615
1.36821
1.37166
1.37677
1.38433
1.39322
1.36484
1.36317
1.3625
1.36268
1.36381
1.36603
1.36967
1.37511
1.38312
1.39329
1.37235
1.3723
1.37228
1.3723
1.3724
1.37254
1.37273
1.37292
1.37308
1.37314
1.37394
1.37373
1.37365
1.37371
1.37392
1.37425
1.37466
1.3751
1.37547
1.37567
1.37395
1.37351
1.37336
1.37346
1.37382
1.37441
1.37518
1.37604
1.37687
1.37743
1.37322
1.37255
1.3723
1.37243
1.37295
1.37384
1.37506
1.3765
1.37799
1.37916
1.37265
1.37173
1.37139
1.37152
1.37217
1.37334
1.37501
1.37706
1.37934
1.38127
1.37242
1.37131
1.37087
1.37101
1.37177
1.37318
1.37528
1.37795
1.38112
1.38394
1.37111
1.36979
1.36927
1.36938
1.37022
1.37183
1.37429
1.37756
1.38163
1.38552
1.37158
1.37019
1.3696
1.36973
1.37066
1.37243
1.37522
1.37902
1.38399
1.38896
1.36994
1.36845
1.36783
1.36795
1.36891
1.37078
1.37378
1.37802
1.38373
1.38999
1.36753
1.36602
1.3654
1.36558
1.36662
1.36862
1.3718
1.37634
1.38248
1.38966
1.37332
1.37331
1.3733
1.37332
1.37337
1.37345
1.37355
1.37366
1.37374
1.37375
1.37494
1.37481
1.37475
1.37479
1.37492
1.37512
1.37537
1.37561
1.37581
1.37588
1.37522
1.37492
1.37481
1.37488
1.37512
1.37551
1.37601
1.37655
1.37705
1.37734
1.37465
1.37415
1.37396
1.37405
1.37443
1.37507
1.37592
1.3769
1.37786
1.37857
1.37432
1.3736
1.37334
1.37344
1.37395
1.37483
1.37606
1.37752
1.37905
1.38029
1.37424
1.37335
1.37299
1.37311
1.37373
1.37486
1.37647
1.37845
1.38065
1.38252
1.37308
1.37198
1.37155
1.37166
1.37237
1.3737
1.37567
1.37817
1.38107
1.38371
1.37368
1.3725
1.372
1.37213
1.37294
1.37445
1.37673
1.37971
1.38331
1.38674
1.3721
1.3708
1.37028
1.3704
1.37125
1.37288
1.37538
1.37876
1.38296
1.38727
1.36987
1.36855
1.36802
1.36818
1.3691
1.37084
1.37349
1.37714
1.3817
1.38665
1.37421
1.37423
1.37423
1.37423
1.37426
1.37431
1.37436
1.37442
1.37446
1.37444
1.37578
1.3757
1.37567
1.37569
1.37577
1.37589
1.37603
1.37617
1.37627
1.37627
1.37628
1.37607
1.37599
1.37603
1.37619
1.37644
1.37676
1.37709
1.37739
1.37753
1.37579
1.37544
1.3753
1.37536
1.37562
1.37606
1.37664
1.37729
1.3779
1.37834
1.37567
1.37513
1.37493
1.375
1.37538
1.37603
1.37691
1.37791
1.37893
1.37973
1.37572
1.37502
1.37474
1.37483
1.37532
1.37619
1.37738
1.37881
1.38031
1.38155
1.37469
1.3738
1.37346
1.37355
1.37413
1.37519
1.3767
1.37855
1.38058
1.38237
1.37542
1.37446
1.37405
1.37417
1.37484
1.37607
1.37787
1.38012
1.38269
1.38501
1.37389
1.3728
1.37237
1.37248
1.37321
1.37456
1.37656
1.37916
1.38218
1.38511
1.37188
1.37077
1.37032
1.37047
1.37125
1.37269
1.37483
1.37765
1.38096
1.38432
1.37504
1.37507
1.37507
1.37508
1.3751
1.37512
1.37515
1.37518
1.3752
1.37517
1.37651
1.37646
1.37644
1.37645
1.3765
1.37657
1.37665
1.37672
1.37677
1.37675
1.37717
1.37702
1.37697
1.377
1.37709
1.37725
1.37745
1.37765
1.37782
1.37789
1.37671
1.37646
1.37635
1.37639
1.37657
1.37687
1.37726
1.37768
1.37807
1.37835
1.37676
1.37636
1.37621
1.37626
1.37653
1.37699
1.3776
1.37828
1.37895
1.37947
1.37689
1.37637
1.37615
1.37623
1.37659
1.37723
1.37809
1.37909
1.38011
1.38093
1.37597
1.37528
1.37501
1.37509
1.37554
1.37635
1.37747
1.37881
1.3802
1.38141
1.37684
1.37609
1.37576
1.37586
1.3764
1.37737
1.37873
1.38038
1.38218
1.38373
1.37534
1.37446
1.37411
1.37421
1.3748
1.37588
1.37743
1.37936
1.38149
1.38345
1.37359
1.37269
1.37232
1.37244
1.37308
1.37423
1.3759
1.37801
1.38035
1.3826
1.37581
1.37585
1.37586
1.37586
1.37587
1.37588
1.3759
1.37591
1.37592
1.37589
1.37713
1.3771
1.37708
1.37709
1.37712
1.37716
1.37721
1.37725
1.37727
1.37724
1.37792
1.37782
1.37779
1.3778
1.37786
1.37796
1.37808
1.3782
1.3783
1.37832
1.37744
1.37726
1.37719
1.37721
1.37733
1.37752
1.37778
1.37805
1.3783
1.37849
1.37762
1.37734
1.37723
1.37727
1.37745
1.37777
1.37818
1.37863
1.37907
1.37941
1.37781
1.37743
1.37727
1.37733
1.37759
1.37805
1.37865
1.37934
1.38002
1.38057
1.37698
1.37646
1.37625
1.37631
1.37665
1.37725
1.37805
1.37899
1.37994
1.38075
1.37799
1.37741
1.37716
1.37725
1.37766
1.37839
1.37939
1.38057
1.3818
1.38283
1.37648
1.37579
1.37552
1.3756
1.37606
1.37689
1.37805
1.37945
1.38091
1.38222
1.37501
1.37431
1.37401
1.37411
1.37461
1.37551
1.37676
1.37829
1.37991
1.3814
1.37653
1.37657
1.37658
1.37658
1.37659
1.37659
1.3766
1.37661
1.37661
1.37658
1.37765
1.37763
1.37761
1.37762
1.37763
1.37766
1.37769
1.37771
1.37772
1.3777
1.37857
1.3785
1.37847
1.37848
1.37851
1.37857
1.37864
1.37872
1.37878
1.37878
1.37801
1.37789
1.37783
1.37784
1.37792
1.37804
1.37821
1.37838
1.37855
1.37869
1.37831
1.3781
1.37803
1.37805
1.37818
1.37839
1.37866
1.37896
1.37924
1.37948
1.37852
1.37825
1.37814
1.37817
1.37836
1.37867
1.37909
1.37955
1.38001
1.38037
1.37775
1.37737
1.37722
1.37726
1.3775
1.37793
1.37849
1.37914
1.37977
1.38032
1.37889
1.37847
1.37829
1.37835
1.37865
1.37918
1.3799
1.38072
1.38155
1.38223
1.37734
1.37682
1.37662
1.37668
1.37703
1.37764
1.37847
1.37946
1.38045
1.38132
1.3762
1.37566
1.37544
1.37552
1.3759
1.37656
1.37747
1.37855
1.37965
1.38062
1.37719
1.37723
1.37724
1.37724
1.37724
1.37724
1.37725
1.37725
1.37725
1.37722
1.37806
1.37804
1.37803
1.37802
1.37803
1.37805
1.37807
1.37809
1.3781
1.37809
1.37911
1.37905
1.37903
1.37904
1.37906
1.37909
1.37914
1.37918
1.37922
1.37923
1.37845
1.37835
1.37831
1.37831
1.37836
1.37844
1.37855
1.37866
1.37878
1.37889
1.37883
1.37869
1.37863
1.37865
1.37873
1.37887
1.37904
1.37924
1.37943
1.37959
1.37905
1.37886
1.37877
1.3788
1.37892
1.37914
1.37941
1.37972
1.38003
1.38028
1.37832
1.37805
1.37794
1.37797
1.37814
1.37843
1.37882
1.37925
1.37966
1.38005
1.37959
1.3793
1.37916
1.37921
1.37943
1.3798
1.3803
1.38085
1.38141
1.38185
1.37797
1.37758
1.37743
1.37748
1.37773
1.37817
1.37875
1.37943
1.38009
1.38067
1.37719
1.3768
1.37663
1.37669
1.37696
1.37744
1.37808
1.37882
1.37955
1.38018
1.37779
1.37782
1.37783
1.37783
1.37783
1.37784
1.37784
1.37784
1.37783
1.3778
1.37834
1.37832
1.3783
1.3783
1.3783
1.37832
1.37833
1.37835
1.37836
1.37837
1.37955
1.37951
1.37949
1.37949
1.3795
1.37953
1.37955
1.37958
1.37961
1.37962
1.37874
1.37867
1.37864
1.37864
1.37867
1.37872
1.37879
1.37887
1.37895
1.37905
1.3792
1.3791
1.37906
1.37907
1.37912
1.37921
1.37933
1.37945
1.37958
1.37971
1.3794
1.37927
1.37921
1.37923
1.37931
1.37945
1.37963
1.37983
1.38004
1.38022
1.37872
1.37854
1.37846
1.37848
1.3786
1.37879
1.37905
1.37933
1.3796
1.37987
1.38013
1.37993
1.37983
1.37987
1.38001
1.38027
1.38061
1.38097
1.38134
1.38162
1.37838
1.3781
1.378
1.37803
1.3782
1.3785
1.3789
1.37935
1.37978
1.38017
1.37803
1.37776
1.37764
1.37768
1.37787
1.3782
1.37864
1.37913
1.37961
1.38001
1.37835
1.37839
1.3784
1.3784
1.3784
1.3784
1.3784
1.3784
1.37839
1.37836
1.37846
1.37843
1.37842
1.37842
1.37842
1.37843
1.37844
1.37846
1.37848
1.37851
1.37988
1.37985
1.37983
1.37983
1.37984
1.37985
1.37987
1.37989
1.37991
1.37993
1.37891
1.37885
1.37883
1.37883
1.37885
1.37888
1.37892
1.37898
1.37903
1.37913
1.37942
1.37935
1.37932
1.37933
1.37936
1.37942
1.37949
1.37957
1.37966
1.37976
1.37959
1.3795
1.37946
1.37947
1.37952
1.37961
1.37973
1.37986
1.38
1.38014
1.37898
1.37886
1.37881
1.37882
1.3789
1.37902
1.37919
1.37937
1.37953
1.37973
1.38051
1.38038
1.38031
1.38033
1.38043
1.3806
1.38082
1.38106
1.38131
1.38148
1.37859
1.37839
1.37832
1.37834
1.37846
1.37866
1.37892
1.37921
1.37949
1.37976
1.37881
1.37862
1.37854
1.37857
1.37869
1.37891
1.37921
1.37952
1.37983
1.38008
1.37901
1.37904
1.37905
1.37905
1.37905
1.37905
1.37904
1.37904
1.37903
1.379
1.37838
1.37835
1.37834
1.37833
1.37833
1.37834
1.37836
1.37838
1.3784
1.37845
1.38007
1.38004
1.38003
1.38003
1.38003
1.38004
1.38005
1.38007
1.38009
1.38012
1.37895
1.37891
1.37889
1.37889
1.3789
1.37892
1.37895
1.37898
1.37902
1.37911
1.37948
1.37943
1.37941
1.37941
1.37943
1.37946
1.37951
1.37956
1.37962
1.37971
1.37961
1.37955
1.37952
1.37952
1.37956
1.37961
1.37969
1.37977
1.37987
1.37998
1.3791
1.37902
1.379
1.37901
1.37905
1.37913
1.37923
1.37934
1.37944
1.37957
1.3807
1.38061
1.38056
1.38057
1.38064
1.38075
1.38089
1.38105
1.38121
1.38132
1.37859
1.37845
1.37841
1.37842
1.3785
1.37862
1.37879
1.37897
1.37914
1.37933
1.37965
1.37953
1.37947
1.37949
1.37957
1.37972
1.37991
1.38011
1.38031
1.38046
1.37998
1.38001
1.38002
1.38002
1.38002
1.38002
1.38002
1.38001
1.38
1.37997
1.37801
1.37798
1.37798
1.37797
1.37797
1.37798
1.37799
1.37801
1.37803
1.3781
1.38004
1.38001
1.38
1.37999
1.37999
1.38
1.38001
1.38002
1.38005
1.38009
1.37887
1.37884
1.37884
1.37884
1.37885
1.37886
1.37887
1.37889
1.37891
1.37897
1.37937
1.37934
1.37933
1.37932
1.37934
1.37936
1.37938
1.37942
1.37946
1.37953
1.37947
1.37942
1.37941
1.37941
1.37943
1.37946
1.37951
1.37956
1.37962
1.3797
1.37908
1.37904
1.37902
1.37903
1.37906
1.37911
1.37917
1.37923
1.37928
1.37936
1.38057
1.3805
1.38047
1.38047
1.38051
1.38058
1.38068
1.38078
1.3809
1.38098
1.37828
1.37819
1.37817
1.37818
1.37823
1.37831
1.37841
1.37852
1.37861
1.37875
1.3808
1.38072
1.38068
1.38069
1.38074
1.38084
1.38096
1.38108
1.38122
1.3813
1.38157
1.38157
1.38157
1.38157
1.38157
1.38157
1.38157
1.38156
1.38156
1.38155
1.37721
1.3772
1.37722
1.37722
1.37723
1.37723
1.37723
1.37722
1.37722
1.37727
1.37965
1.37962
1.3796
1.37959
1.37959
1.37959
1.3796
1.37962
1.37965
1.3797
1.37869
1.37869
1.3787
1.37871
1.37871
1.37872
1.37872
1.37871
1.37871
1.37874
1.37913
1.37911
1.3791
1.3791
1.37911
1.37912
1.37914
1.37915
1.37917
1.37921
1.3792
1.37917
1.37916
1.37917
1.37918
1.3792
1.37923
1.37926
1.37928
1.37933
1.37894
1.37892
1.37892
1.37892
1.37895
1.37898
1.37901
1.37904
1.37906
1.37909
1.37996
1.37991
1.37988
1.37988
1.37991
1.37996
1.38002
1.38009
1.38018
1.38025
1.37753
1.37749
1.37748
1.37749
1.37753
1.37759
1.37765
1.37771
1.37775
1.37781
1.38242
1.38237
1.38234
1.38235
1.38239
1.38245
1.38254
1.38262
1.38273
1.38277
1.38318
1.38317
1.38315
1.38315
1.38315
1.38315
1.38316
1.38317
1.38319
1.38321
1.37616
1.37623
1.37627
1.3763
1.37631
1.3763
1.37629
1.37625
1.37619
1.37611
1.37898
1.37896
1.37894
1.37894
1.37894
1.37894
1.37895
1.37896
1.37897
1.37901
1.37848
1.3785
1.37852
1.37853
1.37853
1.37853
1.37853
1.37852
1.37849
1.37846
1.37882
1.37882
1.37882
1.37882
1.37883
1.37884
1.37885
1.37885
1.37885
1.37884
1.37889
1.37888
1.37888
1.37889
1.3789
1.37892
1.37894
1.37895
1.37895
1.37895
1.37874
1.37873
1.37873
1.37874
1.37876
1.37879
1.37882
1.37884
1.37885
1.37882
1.37911
1.37907
1.37905
1.37905
1.37908
1.37912
1.37917
1.37923
1.37929
1.37935
1.37656
1.37656
1.37656
1.37657
1.37661
1.37666
1.37671
1.37676
1.37677
1.37671
1.384
1.38396
1.38394
1.38395
1.38398
1.38404
1.38411
1.38419
1.38426
1.38429
1.47692
1.48256
1.47919
1.47218
1.50755
1.51332
1.50655
1.49608
1.53267
1.53781
1.52822
1.51527
1.55081
1.55487
1.54245
1.52754
1.56474
1.56746
1.55232
1.53596
1.57595
1.57725
1.56204
1.54342
1.58337
1.58306
1.56841
1.54748
1.59015
1.5881
1.57425
1.55109
1.58795
1.58401
1.57071
1.54554
1.5803
1.57535
1.56364
1.53741
1.37772
1.37743
1.37801
1.37912
1.39788
1.39924
1.40025
1.4
1.41618
1.41887
1.42014
1.41836
1.43383
1.43774
1.43916
1.43552
1.4504
1.45517
1.45656
1.45087
1.46651
1.47182
1.47284
1.46566
1.47996
1.48556
1.48619
1.47791
1.49371
1.49941
1.49972
1.49082
1.50048
1.50618
1.50633
1.49719
1.50411
1.51032
1.51049
1.50166
1.38173
1.38217
1.38237
1.38241
1.39341
1.39437
1.39466
1.39455
1.40467
1.40624
1.40666
1.40636
1.41576
1.418
1.41855
1.41791
1.42662
1.42951
1.4301
1.42895
1.43819
1.44173
1.44231
1.44049
1.44823
1.45229
1.45283
1.45024
1.45964
1.46411
1.46457
1.46121
1.46544
1.47024
1.47063
1.46643
1.46891
1.47447
1.47489
1.46967
1.37501
1.37496
1.37501
1.37513
1.38217
1.38238
1.38249
1.38254
1.38944
1.38996
1.39016
1.39015
1.39733
1.39828
1.39863
1.39851
1.40527
1.40672
1.40722
1.40688
1.41416
1.41616
1.41677
1.41613
1.42188
1.4244
1.42511
1.42406
1.43138
1.43439
1.43515
1.43364
1.4361
1.43953
1.44038
1.43837
1.4387
1.44299
1.44399
1.44131
1.37364
1.37358
1.37358
1.37366
1.37853
1.37865
1.37871
1.37873
1.3831
1.38339
1.3835
1.38351
1.38852
1.38904
1.38924
1.38923
1.39419
1.39499
1.39529
1.39524
1.40085
1.40198
1.4024
1.40225
1.40645
1.40794
1.40847
1.40817
1.41404
1.4159
1.41653
1.41602
1.41782
1.42003
1.42083
1.42012
1.41977
1.42276
1.42377
1.42262
1.37295
1.37284
1.37283
1.37291
1.37652
1.37653
1.37655
1.3766
1.37961
1.37969
1.37974
1.3798
1.38337
1.38359
1.38371
1.38377
1.38752
1.38791
1.38811
1.38817
1.39259
1.39321
1.39349
1.39354
1.39667
1.39753
1.39791
1.39791
1.4028
1.40392
1.40439
1.40432
1.40585
1.40724
1.40788
1.40774
1.40698
1.40902
1.40984
1.40935
1.37301
1.3729
1.37287
1.37295
1.37576
1.37574
1.37575
1.37579
1.3781
1.37812
1.37814
1.37819
1.38078
1.38087
1.38094
1.381
1.38387
1.38406
1.38419
1.38426
1.38778
1.38811
1.38831
1.38839
1.3907
1.39119
1.39146
1.39155
1.39567
1.39634
1.39669
1.39676
1.39802
1.39888
1.39935
1.3994
1.39832
1.39973
1.40032
1.40008
1.37342
1.3733
1.37327
1.37334
1.37557
1.37554
1.37554
1.37557
1.37743
1.37741
1.37742
1.37746
1.37937
1.37941
1.37945
1.37949
1.38178
1.38187
1.38195
1.38201
1.38488
1.38506
1.38519
1.38526
1.38698
1.38726
1.38743
1.38753
1.39105
1.39145
1.39169
1.39179
1.39264
1.39317
1.3935
1.39358
1.39229
1.3933
1.3937
1.39353
1.37402
1.3739
1.37387
1.37394
1.37576
1.37572
1.37572
1.37575
1.37728
1.37725
1.37726
1.37729
1.37865
1.37866
1.37868
1.37872
1.38056
1.3806
1.38065
1.3807
1.38306
1.38316
1.38324
1.3833
1.38454
1.38471
1.38482
1.3849
1.38794
1.38818
1.38834
1.38842
1.38881
1.38915
1.38936
1.38943
1.38803
1.38879
1.38905
1.38889
1.37472
1.3746
1.37457
1.37463
1.37614
1.37611
1.37611
1.37613
1.37744
1.37742
1.37742
1.37744
1.37836
1.37836
1.37837
1.3784
1.37987
1.37989
1.37992
1.37996
1.38187
1.38194
1.38199
1.38203
1.38287
1.38298
1.38305
1.38311
1.38575
1.3859
1.38601
1.38606
1.38605
1.38627
1.3864
1.38645
1.38502
1.38562
1.38579
1.38562
1.37546
1.37534
1.37531
1.37537
1.37663
1.3766
1.37659
1.37662
1.3778
1.37777
1.37777
1.37779
1.37834
1.37833
1.37834
1.37837
1.37955
1.37956
1.37958
1.37961
1.38115
1.38119
1.38122
1.38125
1.38174
1.3818
1.38186
1.38189
1.38422
1.38432
1.38439
1.38442
1.38407
1.38421
1.3843
1.38433
1.38292
1.38341
1.38353
1.38335
1.37619
1.37607
1.37604
1.37609
1.37714
1.37711
1.37711
1.37713
1.37825
1.37823
1.37822
1.37824
1.37848
1.37847
1.37848
1.3785
1.37947
1.37948
1.37949
1.37951
1.38073
1.38076
1.38078
1.3808
1.38099
1.38103
1.38107
1.38109
1.38318
1.38325
1.38329
1.38331
1.38265
1.38275
1.38281
1.38282
1.3815
1.38192
1.382
1.38182
1.37688
1.37677
1.37674
1.37679
1.37761
1.37759
1.37759
1.37761
1.37873
1.37871
1.37871
1.37872
1.37869
1.37868
1.37869
1.3787
1.37953
1.37954
1.37955
1.37956
1.38052
1.38054
1.38056
1.38057
1.38051
1.38054
1.38057
1.38058
1.3825
1.38255
1.38258
1.38259
1.38164
1.38171
1.38175
1.38175
1.3806
1.38096
1.38102
1.38084
1.37753
1.37742
1.37739
1.37743
1.37802
1.37801
1.37801
1.37802
1.37919
1.37918
1.37918
1.37919
1.3789
1.37891
1.37891
1.37892
1.37966
1.37967
1.37968
1.37968
1.38042
1.38045
1.38046
1.38046
1.38021
1.38024
1.38026
1.38026
1.38208
1.38212
1.38214
1.38214
1.38091
1.38097
1.381
1.38099
1.38009
1.3804
1.38044
1.38028
1.37811
1.378
1.37797
1.37802
1.37833
1.37832
1.37832
1.37833
1.37961
1.37961
1.37961
1.37961
1.37908
1.37909
1.3791
1.3791
1.37979
1.37981
1.37981
1.37981
1.38037
1.3804
1.38041
1.38041
1.38001
1.38004
1.38006
1.38005
1.38183
1.38188
1.38189
1.38188
1.38037
1.38042
1.38044
1.38043
1.37988
1.38015
1.38018
1.38003
1.37867
1.37856
1.37853
1.37857
1.37849
1.37849
1.37849
1.3785
1.37996
1.37996
1.37996
1.37996
1.37919
1.3792
1.37921
1.37921
1.37987
1.37989
1.3799
1.37989
1.3803
1.38034
1.38035
1.38033
1.37986
1.37989
1.3799
1.37989
1.38169
1.38173
1.38174
1.38172
1.37992
1.37997
1.37998
1.37996
1.37994
1.38017
1.38019
1.38006
1.37929
1.37918
1.37916
1.3792
1.37846
1.37847
1.37847
1.37848
1.38018
1.38019
1.3802
1.38019
1.37919
1.37921
1.37922
1.37921
1.37985
1.37987
1.37988
1.37987
1.38015
1.38019
1.3802
1.38018
1.3797
1.37973
1.37973
1.37972
1.38153
1.38158
1.38158
1.38156
1.37947
1.3795
1.37952
1.3795
1.38032
1.3805
1.38051
1.38041
1.38022
1.38012
1.3801
1.38014
1.37813
1.37814
1.37814
1.37815
1.3802
1.38022
1.38022
1.38021
1.37906
1.37909
1.37909
1.37908
1.37968
1.37971
1.37972
1.3797
1.37988
1.37992
1.37993
1.3799
1.37947
1.37949
1.3795
1.37948
1.3812
1.38125
1.38125
1.38123
1.37884
1.37887
1.37888
1.37886
1.38119
1.38132
1.38133
1.38126
1.38175
1.38166
1.38164
1.38168
1.37729
1.37729
1.37729
1.37729
1.37986
1.3799
1.3799
1.37989
1.37882
1.37884
1.37884
1.37882
1.37935
1.37938
1.37939
1.37937
1.37948
1.37951
1.37952
1.37949
1.37915
1.37918
1.37918
1.37916
1.38049
1.38055
1.38056
1.38052
1.3778
1.37782
1.37782
1.37781
1.38275
1.38284
1.38285
1.3828
1.38334
1.38329
1.38329
1.38333
1.37595
1.37592
1.3759
1.37589
1.37917
1.3792
1.37921
1.3792
1.37847
1.37847
1.37847
1.37845
1.3789
1.37891
1.37891
1.3789
1.379
1.37902
1.37902
1.379
1.3788
1.3788
1.3788
1.37879
1.37953
1.37958
1.37959
1.37956
1.37644
1.37638
1.37637
1.37641
1.38448
1.38454
1.38454
1.38449
1.4348
1.41078
1.39007
1.3761
1.36772
1.36253
1.3591
1.35674
1.35509
1.35389
1.44585
1.41357
1.38895
1.37457
1.36653
1.36159
1.35839
1.35624
1.35477
1.35375
1.44681
1.41093
1.38395
1.37106
1.36337
1.35865
1.35554
1.35344
1.35211
1.35139
1.44337
1.40661
1.3781
1.36752
1.36034
1.35615
1.35333
1.35146
1.35025
1.34959
1.43722
1.40106
1.37282
1.36392
1.35713
1.35349
1.35096
1.34934
1.34829
1.34783
1.42922
1.3965
1.36883
1.36175
1.35529
1.35226
1.35001
1.34864
1.34772
1.34724
1.4188
1.39092
1.36375
1.3585
1.35226
1.34983
1.34779
1.34665
1.34584
1.3455
1.4108
1.38847
1.36179
1.35838
1.35231
1.35041
1.34846
1.34741
1.34658
1.34604
1.39991
1.38234
1.35676
1.35539
1.34978
1.34846
1.34657
1.3456
1.34482
1.34428
1.39698
1.38233
1.35734
1.35649
1.35004
1.34806
1.3454
1.34385
1.34262
1.34157
1.38291
1.38032
1.37712
1.37386
1.37071
1.36786
1.3654
1.36335
1.36168
1.3604
1.39936
1.39175
1.38456
1.3784
1.37327
1.36921
1.36607
1.36363
1.36172
1.36031
1.41143
1.39884
1.38798
1.37946
1.37276
1.36778
1.3641
1.36137
1.35934
1.35804
1.42043
1.40339
1.38937
1.37938
1.37181
1.36647
1.36262
1.35981
1.35772
1.35636
1.42609
1.40583
1.38918
1.37829
1.37023
1.36479
1.36093
1.35816
1.35607
1.35478
1.43037
1.40803
1.3892
1.37792
1.3696
1.36427
1.36047
1.35778
1.35573
1.35435
1.43151
1.40806
1.38742
1.37609
1.36762
1.36248
1.35875
1.35615
1.35411
1.35278
1.43349
1.40991
1.3879
1.3769
1.3684
1.36346
1.35973
1.35711
1.35501
1.35346
1.43098
1.40742
1.38507
1.37498
1.36675
1.36203
1.35825
1.35558
1.35345
1.35182
1.43146
1.40838
1.38565
1.37557
1.36669
1.36135
1.35697
1.3538
1.3513
1.34919
1.38172
1.37979
1.37733
1.37481
1.37245
1.37034
1.36848
1.3669
1.36558
1.36455
1.39287
1.38855
1.38351
1.379
1.37526
1.37221
1.3697
1.36764
1.36595
1.36466
1.40306
1.39547
1.38735
1.38066
1.37541
1.37136
1.3682
1.36573
1.36382
1.36252
1.41235
1.40115
1.39015
1.38176
1.37542
1.3707
1.36712
1.36438
1.36227
1.36082
1.4203
1.40534
1.39166
1.38189
1.37472
1.36957
1.36574
1.36288
1.36066
1.35921
1.42791
1.40938
1.39326
1.38248
1.37471
1.36933
1.36539
1.36248
1.36022
1.35865
1.43302
1.4112
1.39291
1.38143
1.37321
1.36773
1.36372
1.36081
1.35851
1.35696
1.43898
1.41447
1.39448
1.38268
1.37419
1.36868
1.36459
1.36161
1.35925
1.3575
1.43993
1.41339
1.39283
1.38136
1.37292
1.36742
1.3632
1.36012
1.35769
1.35586
1.4411
1.4136
1.39272
1.38108
1.37211
1.36615
1.36151
1.35806
1.35538
1.3532
1.37513
1.37471
1.37395
1.37298
1.3719
1.37081
1.36975
1.36879
1.36793
1.36725
1.38231
1.38105
1.37922
1.37722
1.37523
1.37336
1.37166
1.37016
1.36887
1.36784
1.38937
1.38657
1.38295
1.37939
1.37617
1.37337
1.371
1.36901
1.36738
1.36622
1.39688
1.39217
1.38657
1.38148
1.37709
1.37346
1.3705
1.3681
1.36615
1.36474
1.40397
1.39699
1.3893
1.38275
1.37735
1.37306
1.36966
1.36697
1.3648
1.36329
1.41145
1.402
1.39219
1.38436
1.37811
1.37333
1.36962
1.36674
1.36443
1.36275
1.41712
1.40507
1.39319
1.38425
1.37729
1.37215
1.36821
1.3652
1.36278
1.36107
1.42411
1.40961
1.3959
1.38614
1.37865
1.37325
1.36911
1.36596
1.36344
1.36154
1.42674
1.41022
1.39553
1.38544
1.37766
1.37205
1.36771
1.36443
1.36182
1.35985
1.42885
1.41075
1.39522
1.38458
1.37631
1.37033
1.36569
1.36214
1.35937
1.35712
1.37357
1.37334
1.37295
1.37244
1.37186
1.37125
1.37064
1.37006
1.36954
1.36913
1.37864
1.37812
1.37726
1.37621
1.37506
1.37391
1.3728
1.37178
1.37088
1.37014
1.38319
1.38196
1.38019
1.37822
1.37627
1.37443
1.37275
1.37127
1.37
1.36907
1.38863
1.38644
1.38349
1.38044
1.37756
1.37497
1.37271
1.37077
1.36914
1.36789
1.3942
1.39076
1.38643
1.38221
1.37842
1.37514
1.37237
1.37005
1.36811
1.3667
1.40054
1.39561
1.38975
1.38439
1.37973
1.37587
1.37268
1.37006
1.3679
1.36627
1.40553
1.39887
1.39139
1.38493
1.37949
1.37512
1.37158
1.36874
1.36639
1.36468
1.41221
1.40378
1.39475
1.38734
1.38123
1.37643
1.37259
1.36953
1.36705
1.36513
1.41539
1.40539
1.39527
1.38715
1.38052
1.37535
1.37124
1.36803
1.36543
1.36345
1.41748
1.40594
1.39482
1.38604
1.37893
1.37343
1.36907
1.36565
1.36293
1.36072
1.37284
1.37274
1.37256
1.37231
1.37202
1.37169
1.37136
1.37103
1.37074
1.37053
1.37664
1.37646
1.37606
1.37552
1.37489
1.37422
1.37355
1.3729
1.37232
1.37182
1.37978
1.37929
1.37844
1.37738
1.37622
1.37505
1.37392
1.37288
1.37195
1.37126
1.38366
1.38268
1.38117
1.37941
1.37759
1.37582
1.37419
1.37271
1.37142
1.3704
1.38789
1.38625
1.38389
1.38131
1.37875
1.37638
1.37424
1.37236
1.37073
1.36951
1.393
1.39051
1.38715
1.38368
1.38038
1.37743
1.37483
1.37261
1.37072
1.36924
1.39699
1.39345
1.38896
1.38456
1.38053
1.37703
1.37403
1.37152
1.36938
1.36779
1.40288
1.3982
1.39254
1.38725
1.38253
1.37854
1.37518
1.37241
1.3701
1.36829
1.4059
1.4001
1.39343
1.38734
1.38201
1.37759
1.37393
1.37097
1.36853
1.36664
1.40731
1.40038
1.39284
1.38612
1.38035
1.37562
1.37173
1.36859
1.36605
1.36396
1.37288
1.37282
1.37273
1.3726
1.37244
1.37227
1.37209
1.37191
1.37175
1.37166
1.37585
1.37578
1.37559
1.37531
1.37496
1.37458
1.37419
1.3738
1.37343
1.37312
1.37822
1.37801
1.37756
1.37696
1.37626
1.37553
1.37479
1.37408
1.37345
1.37297
1.381
1.38054
1.37972
1.37868
1.37752
1.37634
1.37519
1.37412
1.37315
1.37237
1.38421
1.3834
1.38207
1.38047
1.37878
1.3771
1.37551
1.37406
1.37277
1.37178
1.38825
1.38697
1.38502
1.38279
1.38051
1.37832
1.37631
1.37452
1.37294
1.37168
1.39127
1.38938
1.38669
1.38375
1.38085
1.37816
1.37574
1.37364
1.3718
1.37039
1.39626
1.39367
1.39016
1.3865
1.38298
1.37981
1.37703
1.37464
1.37262
1.37098
1.3987
1.39533
1.39101
1.38663
1.38255
1.37896
1.37588
1.37329
1.37111
1.36938
1.39933
1.39524
1.39027
1.38538
1.38091
1.37703
1.37374
1.37099
1.36872
1.36681
1.37327
1.37323
1.37318
1.37312
1.37303
1.37294
1.37284
1.37275
1.37267
1.37265
1.37565
1.37565
1.37557
1.37542
1.37524
1.37503
1.37481
1.37458
1.37436
1.37418
1.37752
1.37743
1.3772
1.37686
1.37644
1.37599
1.37553
1.37507
1.37465
1.37434
1.37954
1.37931
1.37885
1.37822
1.37749
1.37672
1.37594
1.37519
1.3745
1.37392
1.38204
1.3816
1.38083
1.37983
1.3787
1.37754
1.37641
1.37534
1.37436
1.37359
1.38525
1.38456
1.38339
1.38195
1.38039
1.37882
1.37731
1.37593
1.37468
1.37365
1.38747
1.38642
1.38478
1.38283
1.38078
1.37878
1.3769
1.37522
1.37371
1.37253
1.39163
1.39016
1.38797
1.38547
1.38293
1.3805
1.37829
1.37634
1.37464
1.37322
1.3933
1.39132
1.38855
1.3855
1.38249
1.37971
1.37722
1.37507
1.37319
1.37169
1.3933
1.3909
1.38769
1.38425
1.38091
1.37788
1.3752
1.3729
1.37094
1.36927
1.37386
1.37383
1.37381
1.37377
1.37373
1.37368
1.37362
1.37358
1.37354
1.37356
1.37583
1.37586
1.37583
1.37577
1.37567
1.37556
1.37544
1.37531
1.37518
1.37507
1.37735
1.37733
1.3772
1.37701
1.37677
1.3765
1.37622
1.37592
1.37566
1.37547
1.37878
1.37867
1.3784
1.37802
1.37757
1.37707
1.37656
1.37605
1.37557
1.37516
1.38074
1.3805
1.38003
1.37939
1.37866
1.37788
1.37709
1.37632
1.3756
1.37504
1.38331
1.38291
1.38219
1.38126
1.3802
1.3791
1.37801
1.37698
1.37603
1.37523
1.3849
1.38428
1.38325
1.38196
1.38053
1.37908
1.37768
1.37639
1.3752
1.37425
1.38836
1.3875
1.3861
1.38442
1.38262
1.38083
1.37914
1.3776
1.37623
1.37506
1.3893
1.38813
1.38636
1.38429
1.38213
1.38004
1.37811
1.37638
1.37484
1.37359
1.38887
1.38746
1.3854