/*--------------------------------*- C++ -*----------------------------------*\
| =========                 |                                                 |
| \\      /  F ield         | foam-extend: Open Source CFD                    |
|  \\    /   O peration     | Version:     4.0                                |
|   \\  /    A nd           | Web:         http://www.foam-extend.org         |
|    \\/     M anipulation  |                                                 |
\*---------------------------------------------------------------------------*/
FoamFile
{
    version     2.0;
    format      ascii;
    class       volScalarField;
    location    "700";
    object      T;
}
// * * * * * * * * * * * * * * * * * * * * * * * * * * * * * * * * * * * * * //

dimensions      [0 0 0 1 0 0 0];

internalField   nonuniform List<scalar> 
34480
(
279.281
279.164
279.077
279.015
278.974
278.953
278.955
279.025
279.282
279.239
278.756
278.625
278.521
278.445
278.403
278.397
278.412
278.448
278.66
278.212
278.659
278.512
278.395
278.311
278.263
278.238
278.206
278.137
278.25
277.447
278.713
278.545
278.403
278.287
278.2
278.12
278.016
277.835
277.813
276.637
278.749
278.554
278.379
278.227
278.094
277.952
277.776
277.477
277.289
275.732
278.842
278.619
278.417
278.233
278.061
277.866
277.619
277.202
276.819
274.858
278.891
278.639
278.408
278.195
277.989
277.747
277.437
276.906
276.307
273.94
278.973
278.695
278.447
278.223
278.007
277.751
277.409
276.794
275.984
273.185
279.022
278.724
278.458
278.216
277.978
277.698
277.316
276.62
275.6
272.435
279.823
279.511
279.275
279.101
278.97
278.826
278.595
278.039
276.98
273.378
279.785
279.689
279.648
279.658
279.723
279.86
280.108
280.551
281.205
282.062
279.165
279.069
279.027
279.035
279.107
279.264
279.545
280.033
280.819
281.833
278.977
278.884
278.843
278.853
278.928
279.088
279.363
279.839
280.672
281.766
278.938
278.843
278.796
278.794
278.853
278.987
279.233
279.676
280.529
281.652
278.885
278.782
278.725
278.706
278.742
278.843
279.053
279.452
280.296
281.418
278.897
278.788
278.721
278.689
278.706
278.779
278.952
279.299
280.107
281.193
278.874
278.755
278.678
278.633
278.634
278.681
278.819
279.111
279.861
280.893
278.9
278.776
278.698
278.657
278.66
278.702
278.822
279.068
279.743
280.674
278.91
278.778
278.694
278.646
278.639
278.669
278.765
278.965
279.558
280.399
279.66
279.54
279.49
279.506
279.587
279.719
279.917
280.192
280.736
281.295
280.243
280.142
280.104
280.12
280.192
280.331
280.553
280.891
281.382
282.003
279.617
279.509
279.466
279.482
279.566
279.732
280.015
280.466
281.174
282.113
279.416
279.305
279.261
279.276
279.362
279.538
279.844
280.349
281.213
282.424
279.348
279.233
279.181
279.187
279.262
279.426
279.728
280.254
281.241
282.686
279.267
279.144
279.083
279.074
279.131
279.272
279.556
280.079
281.154
282.789
279.255
279.125
279.055
279.033
279.074
279.192
279.452
279.956
281.081
282.856
279.211
279.072
278.992
278.958
278.984
279.08
279.313
279.786
280.929
282.805
279.219
279.076
278.995
278.963
278.989
279.08
279.295
279.733
280.862
282.787
279.215
279.068
278.982
278.944
278.964
279.043
279.238
279.634
280.724
282.717
279.936
279.799
279.739
279.749
279.832
279.986
280.248
280.684
281.718
283.625
280.575
280.488
280.457
280.473
280.537
280.653
280.826
281.062
281.364
281.705
279.976
279.875
279.836
279.856
279.938
280.092
280.334
280.686
281.177
281.746
279.786
279.675
279.633
279.653
279.743
279.917
280.202
280.637
281.293
282.097
279.707
279.587
279.538
279.552
279.638
279.815
280.121
280.613
281.422
282.468
279.611
279.482
279.423
279.425
279.501
279.669
279.978
280.503
281.443
282.716
279.581
279.444
279.377
279.369
279.434
279.588
279.891
280.429
281.474
282.945
279.52
279.375
279.299
279.28
279.333
279.472
279.763
280.298
281.419
283.059
279.515
279.365
279.287
279.268
279.322
279.457
279.738
280.262
281.422
283.189
279.499
279.346
279.265
279.242
279.289
279.416
279.687
280.19
281.352
283.257
280.19
280.046
279.982
279.993
280.085
280.262
280.577
281.108
282.239
284.171
280.805
280.738
280.714
280.727
280.775
280.858
280.974
281.121
281.289
281.458
280.251
280.165
280.133
280.151
280.22
280.344
280.529
280.776
281.086
281.407
280.09
279.989
279.95
279.97
280.053
280.206
280.442
280.778
281.231
281.719
280.015
279.901
279.855
279.872
279.959
280.127
280.402
280.811
281.411
282.093
279.917
279.79
279.735
279.744
279.828
280
280.296
280.761
281.5
282.385
279.879
279.742
279.678
279.679
279.757
279.927
280.236
280.738
281.602
282.685
279.81
279.662
279.591
279.583
279.653
279.816
280.126
280.652
281.621
282.889
279.794
279.642
279.567
279.559
279.63
279.792
280.105
280.64
281.683
283.11
279.769
279.615
279.538
279.526
279.592
279.75
280.059
280.596
281.676
283.275
280.43
280.284
280.218
280.23
280.326
280.518
280.856
281.417
282.496
284.187
280.963
280.914
280.897
280.906
280.939
280.993
281.066
281.153
281.246
281.337
280.456
280.39
280.365
280.378
280.431
280.523
280.654
280.819
281.01
281.196
280.33
280.245
280.212
280.23
280.299
280.423
280.605
280.847
281.145
281.441
280.27
280.168
280.128
280.145
280.224
280.371
280.599
280.916
281.334
281.766
280.18
280.062
280.013
280.025
280.108
280.269
280.531
280.912
281.455
282.042
280.142
280.012
279.953
279.961
280.043
280.212
280.498
280.932
281.597
282.348
280.07
279.928
279.862
279.862
279.941
280.111
280.413
280.887
281.663
282.579
280.049
279.901
279.831
279.831
279.912
280.086
280.4
280.901
281.764
282.834
280.019
279.868
279.796
279.793
279.871
280.044
280.362
280.88
281.802
283.041
280.651
280.507
280.442
280.455
280.553
280.749
281.088
281.63
282.57
283.921
281.073
281.038
281.026
281.032
281.052
281.086
281.13
281.179
281.23
281.282
280.607
280.559
280.541
280.551
280.588
280.652
280.74
280.846
280.963
281.076
280.516
280.449
280.423
280.437
280.491
280.584
280.718
280.886
281.077
281.259
280.475
280.39
280.356
280.371
280.438
280.559
280.737
280.971
281.253
281.525
280.399
280.296
280.254
280.267
280.341
280.482
280.699
280.997
281.38
281.763
280.367
280.25
280.198
280.208
280.288
280.443
280.693
281.048
281.537
282.045
280.298
280.167
280.108
280.113
280.193
280.357
280.631
281.035
281.626
282.268
280.276
280.138
280.074
280.08
280.164
280.336
280.629
281.07
281.748
282.522
280.244
280.101
280.035
280.038
280.121
280.295
280.599
281.067
281.811
282.73
280.847
280.71
280.648
280.662
280.759
280.949
281.27
281.762
282.536
283.559
281.152
281.125
281.118
281.121
281.133
281.153
281.178
281.206
281.235
281.268
280.721
280.687
280.674
280.681
280.706
280.748
280.805
280.873
280.945
281.018
280.659
280.609
280.59
280.6
280.639
280.707
280.8
280.913
281.036
281.151
280.636
280.569
280.542
280.554
280.607
280.701
280.834
281.001
281.188
281.36
280.578
280.493
280.457
280.469
280.533
280.649
280.82
281.043
281.307
281.555
280.555
280.454
280.41
280.421
280.492
280.627
280.834
281.112
281.462
281.8
280.492
280.376
280.325
280.333
280.408
280.556
280.792
281.12
281.557
281.999
280.474
280.349
280.293
280.302
280.383
280.543
280.802
281.171
281.686
282.232
280.441
280.31
280.251
280.259
280.34
280.505
280.779
281.18
281.757
282.418
281.017
280.891
280.834
280.849
280.94
281.117
281.405
281.83
282.441
283.185
281.21
281.189
281.184
281.186
281.193
281.205
281.219
281.235
281.251
281.273
280.807
280.785
280.776
280.78
280.796
280.823
280.859
280.902
280.948
280.997
280.769
280.734
280.72
280.727
280.754
280.801
280.864
280.939
281.017
281.092
280.761
280.711
280.69
280.7
280.74
280.81
280.905
281.021
281.144
281.253
280.72
280.653
280.625
280.635
280.686
280.777
280.908
281.069
281.248
281.407
280.709
280.626
280.59
280.6
280.66
280.772
280.936
281.146
281.391
281.614
280.654
280.555
280.512
280.521
280.588
280.715
280.909
281.166
281.481
281.779
280.643
280.534
280.486
280.496
280.57
280.71
280.929
281.226
281.606
281.984
280.609
280.494
280.443
280.452
280.528
280.676
280.911
281.24
281.675
282.138
281.159
281.048
280.997
281.011
281.093
281.251
281.5
281.851
282.318
282.843
281.253
281.237
281.234
281.234
281.239
281.245
281.253
281.262
281.271
281.288
280.874
280.86
280.855
280.857
280.867
280.884
280.906
280.933
280.963
280.999
280.855
280.831
280.822
280.827
280.845
280.876
280.918
280.966
281.016
281.066
280.858
280.822
280.807
280.814
280.843
280.893
280.959
281.037
281.117
281.187
280.833
280.782
280.761
280.769
280.808
280.877
280.972
281.086
281.206
281.307
280.832
280.766
280.738
280.747
280.795
280.883
281.009
281.163
281.331
281.476
280.785
280.704
280.669
280.677
280.734
280.838
280.991
281.186
281.409
281.607
280.783
280.692
280.652
280.662
280.726
280.844
281.021
281.252
281.526
281.781
280.749
280.651
280.608
280.617
280.684
280.811
281.005
281.265
281.585
281.901
281.273
281.178
281.134
281.147
281.219
281.354
281.56
281.84
282.187
282.547
281.287
281.273
281.271
281.271
281.273
281.277
281.281
281.286
281.292
281.305
280.928
280.92
280.917
280.918
280.924
280.934
280.948
280.965
280.986
281.012
280.923
280.908
280.903
280.906
280.918
280.938
280.965
280.995
281.028
281.061
280.932
280.908
280.898
280.902
280.923
280.957
281.002
281.054
281.105
281.149
280.921
280.884
280.869
280.875
280.904
280.954
281.021
281.1
281.179
281.241
280.929
280.879
280.857
280.864
280.902
280.969
281.062
281.172
281.286
281.377
280.889
280.825
280.797
280.805
280.85
280.932
281.049
281.192
281.347
281.476
280.897
280.824
280.792
280.801
280.853
280.949
281.087
281.261
281.454
281.624
280.862
280.781
280.746
280.755
280.811
280.916
281.07
281.269
281.498
281.71
281.36
281.281
281.245
281.256
281.317
281.428
281.593
281.808
282.059
282.301
281.312
281.3
281.298
281.298
281.299
281.301
281.304
281.307
281.31
281.321
280.972
280.968
280.966
280.967
280.97
280.977
280.985
280.996
281.01
281.03
280.979
280.97
280.967
280.969
280.977
280.99
281.006
281.026
281.046
281.069
280.989
280.974
280.967
280.97
280.984
281.007
281.037
281.071
281.103
281.13
280.989
280.964
280.953
280.958
280.978
281.013
281.06
281.113
281.164
281.201
281.004
280.968
280.951
280.957
280.985
281.034
281.101
281.177
281.253
281.309
280.969
280.92
280.899
280.905
280.94
281.003
281.089
281.192
281.297
281.379
280.988
280.932
280.907
280.914
280.956
281.03
281.135
281.261
281.395
281.505
280.95
280.886
280.858
280.865
280.911
280.994
281.112
281.259
281.421
281.56
281.421
281.359
281.33
281.339
281.388
281.477
281.604
281.765
281.942
282.101
281.33
281.318
281.317
281.317
281.318
281.319
281.32
281.322
281.324
281.333
281.007
281.006
281.005
281.006
281.008
281.012
281.017
281.024
281.034
281.048
281.025
281.021
281.02
281.021
281.026
281.034
281.044
281.056
281.069
281.083
281.033
281.024
281.02
281.022
281.03
281.046
281.065
281.087
281.107
281.122
281.042
281.026
281.019
281.022
281.036
281.06
281.091
281.126
281.158
281.179
281.061
281.036
281.024
281.028
281.048
281.083
281.13
281.182
281.232
281.264
281.029
280.994
280.978
280.983
281.009
281.055
281.117
281.188
281.259
281.309
281.06
281.018
280.999
281.006
281.037
281.093
281.169
281.259
281.35
281.418
281.016
280.966
280.945
280.951
280.987
281.05
281.138
281.244
281.355
281.445
281.46
281.413
281.39
281.398
281.436
281.504
281.599
281.715
281.838
281.94
281.34
281.329
281.328
281.328
281.329
281.329
281.33
281.331
281.333
281.34
281.035
281.035
281.035
281.036
281.037
281.039
281.043
281.047
281.054
281.064
281.064
281.064
281.063
281.064
281.067
281.072
281.078
281.086
281.093
281.101
281.065
281.061
281.058
281.06
281.065
281.075
281.087
281.101
281.113
281.12
281.083
281.073
281.068
281.07
281.08
281.096
281.117
281.139
281.158
281.167
281.103
281.087
281.079
281.082
281.096
281.12
281.151
281.186
281.218
281.235
281.074
281.049
281.037
281.041
281.059
281.092
281.135
281.184
281.23
281.259
281.117
281.087
281.073
281.078
281.101
281.141
281.195
281.257
281.318
281.359
281.063
281.026
281.01
281.015
281.041
281.088
281.151
281.225
281.3
281.357
281.48
281.446
281.429
281.434
281.463
281.513
281.582
281.663
281.747
281.811
281.344
281.334
281.333
281.333
281.333
281.334
281.334
281.335
281.336
281.342
281.054
281.056
281.057
281.057
281.058
281.059
281.061
281.065
281.069
281.075
281.098
281.1
281.1
281.101
281.103
281.106
281.109
281.113
281.117
281.119
281.089
281.087
281.086
281.086
281.09
281.096
281.104
281.113
281.12
281.12
281.113
281.108
281.105
281.106
281.112
281.123
281.136
281.15
281.162
281.163
281.134
281.123
281.118
281.12
281.129
281.146
281.166
281.189
281.209
281.216
281.105
281.088
281.08
281.082
281.095
281.117
281.147
281.179
281.209
281.224
281.161
281.14
281.131
281.134
281.15
281.179
281.216
281.258
281.297
281.32
281.094
281.067
281.055
281.059
281.078
281.111
281.155
281.205
281.255
281.29
281.485
281.461
281.448
281.453
281.473
281.509
281.557
281.613
281.668
281.707
281.343
281.333
281.333
281.333
281.333
281.333
281.333
281.334
281.334
281.34
281.065
281.068
281.069
281.069
281.069
281.07
281.072
281.074
281.077
281.079
281.127
281.13
281.131
281.132
281.133
281.135
281.137
281.139
281.14
281.138
281.104
281.104
281.104
281.104
281.106
281.11
281.115
281.12
281.124
281.12
281.134
281.132
281.13
281.131
281.135
281.142
281.15
281.159
281.165
281.162
281.154
281.147
281.144
281.145
281.151
281.162
281.175
281.19
281.203
281.203
281.125
281.114
281.109
281.11
281.119
281.134
281.153
281.174
281.193
281.2
281.195
281.182
281.175
281.177
281.189
281.208
281.233
281.26
281.286
281.297
281.109
281.091
281.083
281.085
281.098
281.121
281.15
281.184
281.216
281.238
281.479
281.463
281.454
281.457
281.472
281.496
281.529
281.566
281.602
281.624
281.341
281.333
281.333
281.332
281.333
281.333
281.333
281.333
281.333
281.338
281.066
281.068
281.069
281.069
281.07
281.07
281.071
281.073
281.074
281.074
281.151
281.155
281.156
281.156
281.157
281.158
281.159
281.16
281.16
281.154
281.112
281.113
281.113
281.113
281.114
281.117
281.12
281.123
281.124
281.118
281.147
281.146
281.145
281.145
281.148
281.152
281.157
281.162
281.166
281.16
281.163
281.16
281.157
281.158
281.162
281.169
281.177
281.187
281.194
281.192
281.136
281.13
281.126
281.127
281.133
281.143
281.155
281.168
281.179
281.181
281.22
281.211
281.207
281.208
281.216
281.228
281.245
281.262
281.279
281.284
281.111
281.098
281.093
281.094
281.103
281.118
281.137
281.159
281.179
281.192
281.471
281.461
281.455
281.457
281.466
281.483
281.504
281.528
281.551
281.563
281.355
281.346
281.346
281.346
281.346
281.346
281.346
281.346
281.346
281.35
281.051
281.053
281.054
281.054
281.054
281.055
281.056
281.057
281.057
281.056
281.168
281.171
281.171
281.172
281.172
281.173
281.174
281.174
281.173
281.166
281.113
281.114
281.114
281.115
281.115
281.117
281.119
281.12
281.12
281.113
281.149
281.149
281.148
281.149
281.15
281.153
281.156
281.159
281.161
281.155
281.163
281.16
281.159
281.159
281.162
281.166
281.171
281.177
281.182
281.179
281.139
281.135
281.133
281.134
281.138
281.144
281.151
281.159
281.165
281.165
281.23
281.224
281.221
281.222
281.227
281.235
281.245
281.257
281.268
281.27
281.094
281.086
281.083
281.084
281.09
281.099
281.111
281.125
281.136
281.145
281.474
281.467
281.463
281.465
281.471
281.481
281.495
281.51
281.525
281.532
281.394
281.392
281.392
281.392
281.392
281.392
281.392
281.392
281.392
281.394
281.013
281.015
281.015
281.016
281.016
281.017
281.017
281.017
281.016
281.013
281.169
281.17
281.17
281.17
281.17
281.17
281.171
281.172
281.172
281.165
281.108
281.11
281.11
281.111
281.111
281.112
281.113
281.113
281.112
281.105
281.143
281.143
281.143
281.143
281.144
281.145
281.147
281.149
281.15
281.145
281.153
281.151
281.151
281.151
281.153
281.155
281.158
281.162
281.164
281.162
281.134
281.132
281.131
281.132
281.134
281.138
281.142
281.147
281.149
281.148
281.215
281.211
281.208
281.209
281.212
281.217
281.224
281.232
281.239
281.242
281.052
281.048
281.046
281.047
281.051
281.057
281.064
281.072
281.078
281.082
281.504
281.5
281.497
281.498
281.502
281.509
281.518
281.527
281.538
281.541
281.468
281.465
281.464
281.464
281.464
281.464
281.464
281.465
281.466
281.469
280.948
280.952
280.954
280.956
280.956
280.956
280.955
280.954
280.95
280.945
281.15
281.149
281.149
281.148
281.148
281.149
281.149
281.15
281.151
281.148
281.1
281.102
281.103
281.104
281.104
281.105
281.105
281.104
281.102
281.097
281.131
281.131
281.131
281.132
281.132
281.133
281.134
281.135
281.135
281.132
281.138
281.138
281.137
281.138
281.139
281.141
281.143
281.144
281.145
281.144
281.124
281.123
281.123
281.124
281.126
281.128
281.131
281.133
281.134
281.132
281.175
281.171
281.17
281.17
281.172
281.176
281.181
281.186
281.192
281.195
280.984
280.983
280.982
280.984
280.986
280.991
280.996
281.001
281.003
281.001
281.554
281.551
281.549
281.549
281.552
281.558
281.564
281.571
281.578
281.58
289.722
291.461
291.733
290.179
290.877
292.988
293.407
291.788
292.459
295.062
295.606
293.681
293.662
296.705
297.381
295.245
294.541
297.993
298.81
296.53
295.223
299.052
300.033
297.976
295.731
299.92
301.093
299.345
296.178
300.69
302.066
300.678
296.383
301.194
302.783
301.803
296.924
301.924
303.774
303.358
286.469
287.012
286.998
286.484
287.773
288.416
288.365
287.728
289.326
290.13
290.032
289.194
290.709
291.66
291.505
290.478
291.838
292.931
292.716
291.508
292.816
294.051
293.838
292.483
293.589
294.957
294.76
293.274
294.259
295.735
295.563
293.967
294.677
296.22
296.079
294.417
295.432
296.955
296.921
295.31
282.64
282.777
282.81
282.741
283.413
283.639
283.683
283.549
284.544
284.889
284.94
284.697
285.759
286.222
286.271
285.901
286.876
287.455
287.492
286.983
287.972
288.664
288.692
288.053
288.928
289.731
289.749
288.989
289.837
290.734
290.746
289.883
290.569
291.51
291.522
290.608
291.776
292.65
292.699
291.863
281.891
281.961
281.983
281.959
282.212
282.306
282.339
282.315
282.903
283.06
283.107
283.053
283.739
283.968
284.025
283.927
284.545
284.852
284.915
284.756
285.406
285.793
285.859
285.63
286.196
286.664
286.73
286.423
287.006
287.546
287.609
287.224
287.734
288.309
288.368
287.929
289.041
289.544
289.616
289.221
281.474
281.513
281.526
281.512
281.585
281.624
281.641
281.636
282.028
282.095
282.124
282.117
282.608
282.716
282.759
282.741
283.178
283.335
283.39
283.353
283.822
284.035
284.102
284.036
284.426
284.698
284.773
284.669
285.079
285.407
285.486
285.336
285.69
286.047
286.124
285.938
286.91
287.196
287.279
287.13
281.315
281.347
281.356
281.342
281.295
281.317
281.327
281.323
281.6
281.636
281.652
281.649
282.016
282.072
282.098
282.095
282.424
282.507
282.545
282.539
282.906
283.024
283.074
283.062
283.356
283.512
283.574
283.549
283.862
284.057
284.126
284.082
284.34
284.556
284.627
284.563
285.436
285.584
285.657
285.635
281.244
281.273
281.281
281.267
281.141
281.157
281.162
281.158
281.355
281.377
281.386
281.383
281.664
281.696
281.711
281.709
281.967
282.013
282.036
282.036
282.339
282.405
282.438
282.438
282.679
282.769
282.812
282.811
283.072
283.186
283.237
283.231
283.43
283.558
283.612
283.598
284.408
284.47
284.526
284.557
281.222
281.249
281.256
281.243
281.069
281.081
281.085
281.081
281.218
281.233
281.239
281.235
281.448
281.468
281.477
281.475
281.675
281.703
281.716
281.715
281.968
282.007
282.027
282.028
282.229
282.281
282.309
282.312
282.536
282.604
282.638
282.641
282.798
282.874
282.912
282.914
283.679
283.688
283.727
283.777
281.222
281.249
281.256
281.242
281.04
281.051
281.054
281.049
281.143
281.155
281.159
281.155
281.313
281.327
281.333
281.33
281.483
281.5
281.508
281.507
281.714
281.737
281.749
281.75
281.912
281.944
281.961
281.964
282.156
282.196
282.218
282.223
282.347
282.392
282.417
282.423
283.147
283.125
283.149
283.203
281.233
281.259
281.265
281.253
281.036
281.045
281.047
281.043
281.107
281.117
281.119
281.115
281.231
281.241
281.244
281.241
281.357
281.368
281.373
281.371
281.537
281.552
281.559
281.559
281.686
281.705
281.716
281.717
281.88
281.904
281.918
281.921
282.018
282.044
282.06
282.067
282.749
282.709
282.723
282.776
281.247
281.272
281.279
281.267
281.044
281.051
281.053
281.049
281.094
281.102
281.104
281.1
281.182
281.189
281.191
281.188
281.274
281.282
281.285
281.283
281.415
281.424
281.429
281.428
281.522
281.534
281.54
281.541
281.679
281.693
281.701
281.704
281.775
281.79
281.8
281.806
282.445
282.395
282.403
282.452
281.261
281.285
281.291
281.28
281.057
281.063
281.064
281.061
281.095
281.101
281.102
281.099
281.153
281.159
281.16
281.157
281.222
281.227
281.228
281.227
281.331
281.336
281.338
281.338
281.404
281.411
281.414
281.415
281.533
281.54
281.545
281.548
281.594
281.602
281.609
281.614
282.21
282.156
282.16
282.206
281.271
281.294
281.301
281.29
281.07
281.075
281.076
281.073
281.102
281.107
281.108
281.105
281.137
281.141
281.141
281.139
281.189
281.192
281.192
281.191
281.273
281.275
281.276
281.276
281.319
281.322
281.324
281.325
281.428
281.431
281.434
281.437
281.46
281.463
281.467
281.472
282.026
281.971
281.973
282.015
281.277
281.3
281.306
281.296
281.08
281.084
281.085
281.083
281.114
281.116
281.117
281.114
281.128
281.13
281.13
281.128
281.169
281.17
281.17
281.169
281.233
281.233
281.234
281.235
281.258
281.258
281.259
281.261
281.356
281.355
281.357
281.36
281.36
281.361
281.363
281.368
281.88
281.828
281.828
281.867
281.279
281.301
281.307
281.298
281.086
281.089
281.089
281.088
281.126
281.127
281.127
281.125
281.121
281.121
281.121
281.12
281.157
281.156
281.155
281.156
281.206
281.204
281.204
281.206
281.214
281.211
281.212
281.215
281.308
281.305
281.306
281.31
281.286
281.284
281.285
281.29
281.764
281.715
281.715
281.749
281.278
281.3
281.306
281.297
281.085
281.086
281.087
281.085
281.137
281.137
281.137
281.135
281.114
281.112
281.112
281.112
281.149
281.146
281.145
281.146
281.187
281.183
281.183
281.185
281.182
281.178
281.178
281.182
281.278
281.274
281.275
281.279
281.228
281.225
281.226
281.231
281.67
281.627
281.626
281.656
281.28
281.301
281.306
281.297
281.075
281.075
281.075
281.074
281.147
281.146
281.145
281.144
281.105
281.102
281.101
281.102
281.141
281.137
281.136
281.138
281.17
281.165
281.165
281.169
281.159
281.153
281.153
281.158
281.262
281.256
281.257
281.262
281.181
281.177
281.177
281.182
281.599
281.563
281.562
281.587
281.297
281.318
281.322
281.313
281.051
281.05
281.05
281.05
281.153
281.15
281.149
281.149
281.094
281.09
281.089
281.091
281.132
281.127
281.126
281.13
281.155
281.149
281.149
281.153
281.14
281.134
281.133
281.139
281.248
281.243
281.243
281.249
281.134
281.13
281.13
281.134
281.557
281.529
281.529
281.548
281.352
281.37
281.374
281.365
281.004
281.002
281.002
281.003
281.148
281.144
281.144
281.146
281.083
281.077
281.076
281.08
281.122
281.116
281.116
281.12
281.139
281.134
281.133
281.138
281.125
281.118
281.118
281.123
281.226
281.222
281.222
281.227
281.072
281.068
281.068
281.071
281.559
281.541
281.541
281.553
281.444
281.455
281.456
281.451
280.93
280.927
280.926
280.927
281.133
281.13
281.13
281.133
281.075
281.07
281.069
281.073
281.114
281.109
281.108
281.112
281.127
281.123
281.122
281.126
281.114
281.108
281.108
281.112
281.191
281.189
281.189
281.192
280.986
280.982
280.981
280.984
281.596
281.592
281.592
281.595
282.625
281.35
280.807
280.462
280.17
279.93
279.739
279.587
279.464
279.358
282.841
281.621
280.788
280.263
279.846
279.537
279.306
279.131
278.995
278.882
283.399
282.119
281
280.366
279.87
279.524
279.268
279.073
278.923
278.8
283.968
282.634
281.258
280.566
280.01
279.644
279.371
279.164
279.003
278.87
284.425
283.081
281.47
280.731
280.121
279.739
279.45
279.232
279.063
278.923
284.969
283.566
281.741
280.975
280.312
279.917
279.61
279.379
279.194
279.037
285.442
283.961
281.947
281.164
280.453
280.048
279.722
279.477
279.278
279.109
286.002
284.446
282.252
281.457
280.694
280.273
279.918
279.648
279.421
279.219
286.447
284.832
282.461
281.684
280.883
280.454
280.064
279.766
279.513
279.288
288.15
286.528
284.005
283.17
282.244
281.692
281.183
280.787
280.453
280.154
284.349
283.061
282.09
281.39
280.906
280.566
280.319
280.133
279.988
279.867
284.853
283.095
281.784
280.937
280.39
280.014
279.745
279.546
279.399
279.286
285.435
283.284
281.725
280.813
280.228
279.834
279.555
279.352
279.204
279.094
285.901
283.459
281.715
280.787
280.178
279.782
279.503
279.302
279.158
279.052
286.157
283.514
281.652
280.719
280.094
279.703
279.428
279.234
279.096
278.995
286.35
283.589
281.642
280.727
280.09
279.708
279.438
279.249
279.113
279.011
286.397
283.579
281.568
280.687
280.042
279.676
279.41
279.227
279.092
278.991
286.459
283.645
281.582
280.746
280.093
279.74
279.473
279.286
279.142
279.028
286.424
283.638
281.527
280.765
280.123
279.796
279.521
279.327
279.173
279.048
287.321
284.679
282.572
281.856
281.165
280.783
280.443
280.197
279.999
279.845
282.505
282.129
281.765
281.441
281.164
280.931
280.737
280.576
280.44
280.323
283.028
282.35
281.738
281.232
280.822
280.496
280.239
280.037
279.878
279.753
283.783
282.784
281.932
281.276
280.768
280.38
280.085
279.859
279.687
279.557
284.521
283.213
282.138
281.361
280.779
280.352
280.036
279.8
279.622
279.49
285.073
283.498
282.233
281.365
280.729
280.281
279.955
279.716
279.538
279.408
285.572
283.77
282.344
281.413
280.739
280.28
279.95
279.71
279.531
279.399
285.914
283.928
282.364
281.396
280.697
280.236
279.906
279.668
279.49
279.357
286.233
284.111
282.433
281.45
280.734
280.277
279.944
279.703
279.518
279.376
286.436
284.198
282.422
281.457
280.746
280.305
279.969
279.723
279.53
279.379
287.411
285.165
283.353
282.408
281.667
281.191
280.812
280.53
280.308
280.141
281.909
281.76
281.585
281.407
281.239
281.087
280.952
280.834
280.729
280.633
282.185
281.89
281.558
281.242
280.963
280.723
280.522
280.354
280.216
280.103
282.803
282.321
281.817
281.368
280.988
280.676
280.422
280.218
280.056
279.928
283.505
282.802
282.111
281.533
281.065
280.694
280.402
280.173
279.995
279.858
284.112
283.177
282.304
281.613
281.07
280.655
280.338
280.094
279.906
279.765
284.714
283.552
282.508
281.72
281.118
280.672
280.336
280.082
279.888
279.741
285.195
283.816
282.615
281.752
281.104
280.638
280.291
280.032
279.833
279.684
285.661
284.088
282.749
281.831
281.149
280.672
280.317
280.051
279.845
279.687
286.023
284.264
282.802
281.861
281.167
280.69
280.328
280.056
279.844
279.679
287.053
285.192
283.673
282.724
282.002
281.499
281.107
280.81
280.578
280.406
281.512
281.462
281.39
281.308
281.221
281.135
281.054
280.977
280.905
280.835
281.595
281.469
281.309
281.138
280.971
280.816
280.676
280.553
280.447
280.357
282.045
281.831
281.566
281.298
281.048
280.824
280.63
280.466
280.33
280.219
282.612
282.275
281.884
281.509
281.174
280.887
280.646
280.448
280.287
280.16
283.138
282.656
282.126
281.645
281.231
280.889
280.611
280.387
280.209
280.071
283.705
283.061
282.388
281.806
281.322
280.935
280.627
280.384
280.192
280.044
284.19
283.376
282.561
281.889
281.346
280.924
280.594
280.337
280.135
279.98
284.682
283.699
282.75
282.004
281.413
280.965
280.619
280.35
280.138
279.974
285.089
283.931
282.859
282.063
281.443
280.982
280.623
280.346
280.127
279.956
286.112
284.834
283.693
282.866
282.216
281.732
281.351
281.056
280.823
280.651
281.349
281.328
281.295
281.254
281.208
281.16
281.113
281.066
281.019
280.969
281.296
281.231
281.147
281.052
280.953
280.856
280.764
280.679
280.603
280.536
281.612
281.504
281.36
281.202
281.043
280.892
280.754
280.632
280.526
280.437
282.042
281.872
281.651
281.416
281.189
280.982
280.798
280.64
280.507
280.397
282.457
282.207
281.893
281.575
281.278
281.016
280.792
280.603
280.447
280.322
282.937
282.588
282.17
281.765
281.401
281.09
280.829
280.614
280.438
280.299
283.363
282.901
282.372
281.884
281.458
281.103
280.813
280.577
280.386
280.236
283.816
283.231
282.591
282.026
281.547
281.158
280.844
280.591
280.387
280.226
284.199
283.478
282.732
282.108
281.591
281.179
280.848
280.584
280.371
280.204
285.17
284.347
283.534
282.868
282.319
281.885
281.535
281.256
281.032
280.867
281.277
281.268
281.253
281.232
281.208
281.182
281.155
281.127
281.097
281.062
281.137
281.098
281.051
280.997
280.938
280.878
280.819
280.764
280.712
280.666
281.357
281.296
281.215
281.122
281.023
280.925
280.831
280.744
280.667
280.599
281.678
281.586
281.46
281.316
281.167
281.024
280.891
280.771
280.668
280.58
281.995
281.861
281.676
281.472
281.268
281.078
280.906
280.756
280.627
280.522
282.383
282.194
281.939
281.669
281.408
281.17
280.961
280.782
280.631
280.508
282.733
282.475
282.142
281.802
281.484
281.203
280.961
280.757
280.588
280.452
283.12
282.781
282.365
281.958
281.589
281.271
281.001
280.777
280.591
280.443
283.443
283.013
282.516
282.053
281.644
281.298
281.009
280.771
280.575
280.419
284.341
283.838
283.282
282.778
282.337
281.968
281.662
281.41
281.205
281.053
281.255
281.252
281.244
281.234
281.221
281.206
281.191
281.175
281.156
281.13
281.061
281.034
281.005
280.972
280.936
280.899
280.862
280.826
280.792
280.761
281.213
281.174
281.126
281.07
281.008
280.945
280.882
280.823
280.769
280.72
281.451
281.396
281.322
281.233
281.137
281.041
280.948
280.861
280.784
280.718
281.689
281.613
281.503
281.373
281.237
281.103
280.977
280.862
280.762
280.678
281.998
281.891
281.736
281.559
281.378
281.204
281.044
280.901
280.778
280.675
282.274
282.128
281.921
281.691
281.462
281.248
281.056
280.888
280.744
280.627
282.591
282.396
282.131
281.848
281.574
281.325
281.105
280.915
280.754
280.624
282.849
282.598
282.275
281.945
281.634
281.357
281.116
280.911
280.739
280.6
283.668
283.369
283
282.634
282.294
281.996
281.739
281.522
281.341
281.206
281.256
281.257
281.253
281.248
281.241
281.233
281.224
281.214
281.201
281.181
281.031
281.01
280.99
280.969
280.946
280.923
280.899
280.876
280.854
280.834
281.136
281.109
281.078
281.042
281.003
280.962
280.922
280.882
280.846
280.812
281.31
281.275
281.23
281.174
281.112
281.048
280.985
280.925
280.87
280.822
281.487
281.442
281.375
281.293
281.202
281.11
281.02
280.937
280.862
280.798
281.73
281.668
281.574
281.459
281.335
281.211
281.093
280.984
280.888
280.806
281.942
281.858
281.73
281.577
281.416
281.259
281.112
280.979
280.863
280.767
282.197
282.085
281.918
281.725
281.528
281.34
281.168
281.014
280.881
280.771
282.396
282.252
282.045
281.815
281.587
281.374
281.181
281.012
280.867
280.748
283.14