/*--------------------------------*- C++ -*----------------------------------*\
| =========                 |                                                 |
| \\      /  F ield         | foam-extend: Open Source CFD                    |
|  \\    /   O peration     | Version:     4.0                                |
|   \\  /    A nd           | Web:         http://www.foam-extend.org         |
|    \\/     M anipulation  |                                                 |
\*---------------------------------------------------------------------------*/
FoamFile
{
    version     2.0;
    format      ascii;
    class       volVectorField;
    location    "700";
    object      U;
}
// * * * * * * * * * * * * * * * * * * * * * * * * * * * * * * * * * * * * * //

dimensions      [0 1 -1 0 0 0 0];

internalField   nonuniform List<vector> 
34480
(
(206.7 2.1147 3.36032)
(207.056 1.16068 1.65407)
(207.25 0.381533 -0.122685)
(207.297 -0.238127 -2.01019)
(207.194 -0.730335 -4.14943)
(206.905 -1.08999 -6.71794)
(206.352 -1.2891 -10.1165)
(205.254 -1.20271 -14.6872)
(202.646 -0.592299 -22.5845)
(195.762 1.99982 -49.7641)
(207.536 2.91601 3.02699)
(207.873 2.10796 1.24372)
(208.059 1.39714 -0.564147)
(208.083 0.778507 -2.45035)
(207.895 0.221373 -4.53492)
(207.44 -0.284804 -7.02601)
(206.68 -0.749891 -10.3819)
(205.43 -1.107 -15.3433)
(202.317 -1.17744 -24.1035)
(194.205 0.659922 -54.7005)
(208.172 2.49339 3.51263)
(208.497 1.63088 1.66947)
(208.658 0.877668 -0.222473)
(208.645 0.247703 -2.1591)
(208.405 -0.308227 -4.2699)
(207.938 -0.814314 -6.81413)
(207.252 -1.28814 -10.3181)
(206.18 -1.64667 -15.8135)
(202.948 -1.7029 -25.4619)
(193.862 0.334175 -59.0706)
(208.132 3.01772 3.54096)
(208.467 2.21435 1.64219)
(208.654 1.49832 -0.288767)
(208.691 0.901628 -2.26036)
(208.533 0.376678 -4.41156)
(208.203 -0.102135 -7.03253)
(207.678 -0.555547 -10.6511)
(206.805 -0.888254 -16.5229)
(203.597 -0.905158 -26.82)
(193.775 1.27201 -62.4238)
(208.207 2.51239 4.10332)
(208.586 1.6435 2.16572)
(208.83 0.878042 0.152494)
(208.95 0.253979 -1.89895)
(208.905 -0.291279 -4.15363)
(208.73 -0.780396 -6.91553)
(208.374 -1.22421 -10.7075)
(207.711 -1.51471 -16.9756)
(204.641 -1.45045 -27.9601)
(194.233 0.884111 -65.1664)
(208 3.26159 3.91682)
(208.412 2.40949 1.98014)
(208.7 1.65453 0.00317335)
(208.877 1.04305 -2.02203)
(208.919 0.525537 -4.25329)
(208.875 0.0766909 -7.01919)
(208.683 -0.31306 -10.8243)
(208.25 -0.535288 -17.2906)
(205.458 -0.365289 -28.7741)
(194.701 2.06955 -67.1972)
(207.998 2.52488 4.43353)
(208.473 1.57321 2.49522)
(208.81 0.734556 0.47729)
(209.044 0.0496261 -1.58025)
(209.157 -0.534304 -3.86313)
(209.218 -1.03224 -6.7018)
(209.17 -1.4244 -10.6028)
(208.961 -1.58308 -17.3125)
(206.522 -1.21194 -29.3712)
(195.52 1.52029 -68.8462)
(207.8 3.41168 3.93691)
(208.296 2.43191 2.03282)
(208.628 1.59511 0.0970803)
(208.829 0.919167 -1.89406)
(208.905 0.377097 -4.08767)
(208.944 -0.062118 -6.81853)
(208.934 -0.368201 -10.5753)
(208.88 -0.407871 -17.1943)
(206.861 0.269803 -29.43)
(195.933 3.37177 -69.4602)
(207.797 2.1853 4.43571)
(208.335 1.07872 2.5884)
(208.696 0.109148 0.679728)
(208.928 -0.728618 -1.28953)
(209.038 -1.45868 -3.4992)
(209.104 -2.08228 -6.25978)
(209.15 -2.51156 -10.0973)
(209.227 -2.5688 -16.8175)
(207.548 -1.50521 -29.4046)
(196.55 2.53688 -69.4179)
(206.865 2.94654 3.82834)
(207.32 1.73369 1.94302)
(207.428 0.761266 0.0403151)
(207.211 -0.0516244 -1.94102)
(206.708 -0.684482 -4.11956)
(206.02 -1.14922 -6.77568)
(205.25 -1.35018 -10.3753)
(204.604 -1.07113 -16.5364)
(202.902 0.450971 -28.2585)
(193.177 5.32431 -66.3737)
(203.686 1.84365 3.0801)
(204.186 1.05296 1.64822)
(204.399 0.376619 0.109757)
(204.346 -0.163007 -1.48093)
(204.004 -0.58965 -3.18738)
(203.282 -0.902898 -5.02337)
(201.98 -1.10559 -7.04398)
(199.661 -1.20776 -9.22694)
(196.239 -1.28411 -11.1928)
(191.685 -1.15969 -14.4062)
(204.874 2.69513 2.93462)
(205.372 2.00097 1.33092)
(205.593 1.36883 -0.311452)
(205.548 0.807073 -2.0026)
(205.178 0.292006 -3.80897)
(204.365 -0.182287 -5.78874)
(202.908 -0.630483 -8.03518)
(200.347 -1.08361 -10.8039)
(196.176 -1.65041 -13.8767)
(190.471 -1.82905 -20.5386)
(205.748 2.35103 3.50865)
(206.236 1.55901 1.78285)
(206.452 0.85189 -0.00890024)
(206.405 0.2507 -1.84104)
(206.02 -0.286384 -3.78361)
(205.201 -0.772893 -5.92213)
(203.771 -1.23779 -8.44441)
(201.246 -1.69527 -11.8893)
(196.743 -2.24314 -16.1704)
(190.175 -2.09327 -26.667)
(205.928 2.93237 3.57597)
(206.427 2.18295 1.76635)
(206.675 1.49887 -0.0885997)
(206.684 0.916805 -1.98725)
(206.381 0.395709 -4.01094)
(205.685 -0.0774446 -6.28885)
(204.395 -0.535786 -9.04354)
(201.999 -0.96832 -13.0432)
(197.321 -1.45919 -18.3146)
(190.014 -0.969273 -32.4411)
(206.18 2.44848 4.16079)
(206.718 1.62273 2.29676)
(207.021 0.882943 0.343848)
(207.115 0.272031 -1.65313)
(206.923 -0.265482 -3.80614)
(206.384 -0.741404 -6.27329)
(205.265 -1.18869 -9.29083)
(203.061 -1.57556 -13.8327)
(198.349 -1.97477 -20.0685)
(190.401 -1.09013 -37.7159)
(206.109 3.22685 3.99037)
(206.68 2.41071 2.11457)
(207.029 1.67606 0.189921)
(207.187 1.07221 -1.79103)
(207.086 0.55464 -3.93351)
(206.69 0.109367 -6.44155)
(205.75 -0.292761 -9.54788)
(203.786 -0.610043 -14.4246)
(199.196 -0.878241 -21.3883)
(190.774 0.372156 -42.2711)
(206.217 2.49388 4.51531)
(206.844 1.57619 2.63181)
(207.244 0.762032 0.657821)
(207.463 0.095413 -1.36258)
(207.443 -0.469124 -3.56839)
(207.168 -0.941362 -6.18009)
(206.397 -1.333 -9.44129)
(204.691 -1.58715 -14.6693)
(200.336 -1.66089 -22.3952)
(191.544 0.0531636 -46.3186)
(206.092 3.40481 4.02643)
(206.742 2.46066 2.17611)
(207.145 1.64996 0.292314)
(207.347 0.992764 -1.65401)
(207.314 0.469352 -3.76816)
(207.059 0.0513845 -6.29981)
(206.379 -0.259144 -9.48456)
(204.894 -0.414644 -14.7548)
(200.885 -0.191339 -22.8673)
(192.01 1.90811 -49.2972)
(206.136 2.17269 4.52791)
(206.818 1.10689 2.73127)
(207.248 0.188557 0.868124)
(207.482 -0.585466 -1.04553)
(207.495 -1.23662 -3.16399)
(207.302 -1.77425 -5.7368)
(206.732 -2.14358 -9.05847)
(205.469 -2.28135 -14.5504)
(201.809 -1.69131 -23.2906)
(192.733 1.09919 -51.5778)
(205.233 2.99803 3.89585)
(205.864 1.83603 2.09897)
(206.126 0.926045 0.289398)
(206.044 0.17412 -1.59229)
(205.627 -0.391591 -3.63401)
(204.918 -0.795018 -6.07891)
(203.821 -0.969018 -9.20693)
(202.159 -0.799559 -14.3237)
(198.65 0.255266 -22.8273)
(190.43 4.09857 -51.4032)
(201.367 1.35017 2.40478)
(201.884 0.765093 1.30303)
(202.083 0.239452 0.0814411)
(202.001 -0.190965 -1.16528)
(201.626 -0.539353 -2.45914)
(200.907 -0.802287 -3.74629)
(199.75 -0.988855 -4.97957)
(197.998 -1.12354 -6.01101)
(195.454 -1.29027 -6.48881)
(192.214 -1.46287 -6.55373)
(202.652 2.24019 2.44381)
(203.203 1.70479 1.10038)
(203.424 1.18857 -0.290236)
(203.337 0.709184 -1.70857)
(202.907 0.253754 -3.18114)
(202.05 -0.183325 -4.71106)
(200.599 -0.614726 -6.26195)
(198.271 -1.06868 -7.77441)
(194.604 -1.65054 -8.74868)
(189.655 -2.18372 -9.82951)
(203.599 1.99387 3.13657)
(204.166 1.32117 1.61239)
(204.397 0.698604 0.0117278)
(204.318 0.151963 -1.62293)
(203.875 -0.35379 -3.33442)
(202.968 -0.829397 -5.14104)
(201.392 -1.2989 -7.05264)
(198.773 -1.79049 -9.16819)
(194.264 -2.43967 -10.9287)
(187.763 -2.96153 -13.6126)
(203.924 2.66217 3.24473)
(204.515 2.00578 1.59894)
(204.78 1.38545 -0.100159)
(204.749 0.840007 -1.84205)
(204.362 0.333726 -3.68702)
(203.513 -0.144148 -5.69584)
(201.948 -0.625217 -7.91345)
(199.197 -1.12293 -10.6002)
(194.001 -1.79212 -13.1299)
(186.079 -2.22174 -17.6278)
(204.316 2.21475 3.86185)
(204.948 1.46629 2.13059)
(205.263 0.779947 0.305537)
(205.307 0.198778 -1.56494)
(205.008 -0.327852 -3.57729)
(204.268 -0.808592 -5.8261)
(202.784 -1.27685 -8.38319)
(200.019 -1.73642 -11.6754)
(194.322 -2.37005 -15.0593)
(185.146 -2.60931 -21.6778)
(204.368 3.0357 3.71084)
(205.034 2.28355 1.94834)
(205.395 1.59409 0.132251)
(205.5 1.01516 -1.74419)
(205.279 0.504132 -3.77536)
(204.652 0.0493503 -6.10683)
(203.283 -0.382617 -8.82625)
(200.598 -0.786867 -12.5474)
(194.59 -1.33327 -16.6454)
(184.379 -1.34319 -25.4791)
(204.582 2.31095 4.25654)
(205.298 1.45259 2.46955)
(205.706 0.684427 0.588029)
(205.871 0.0484633 -1.34559)
(205.725 -0.499441 -3.46269)
(205.205 -0.965698 -5.93268)
(203.964 -1.36817 -8.87341)
(201.415 -1.69389 -13.0509)
(195.264 -2.07809 -17.9452)
(184.179 -1.75373 -29.1177)
(204.539 3.24953 3.7729)
(205.276 2.36525 2.01641)
(205.691 1.60111 0.223282)
(205.848 0.977009 -1.63951)
(205.698 0.472379 -3.67303)
(205.206 0.0641566 -6.08662)
(204.05 -0.256274 -9.01349)
(201.66 -0.485436 -13.3673)
(195.547 -0.604636 -18.7771)
(183.846 0.000383484 -32.0441)
(204.646 1.99828 4.28136)
(205.403 0.994507 2.56724)
(205.839 0.137872 0.778847)
(206.022 -0.572475 -1.06357)
(205.906 -1.16022 -3.10519)
(205.469 -1.63286 -5.55774)
(204.418 -1.9492 -8.64445)
(202.223 -2.08642 -13.3336)
(196.255 -1.80832 -19.537)
(183.819 -0.700131 -34.4415)
(203.796 2.88279 3.61756)
(204.507 1.79911 1.93631)
(204.82 0.963038 0.236105)
(204.767 0.28011 -1.54348)
(204.335 -0.221409 -3.48312)
(203.521 -0.562388 -5.79522)
(202.109 -0.687742 -8.69966)
(199.676 -0.517553 -13.1222)
(193.852 0.251032 -19.425)
(181.386 2.36488 -34.8386)
(199.646 0.866796 1.76646)
(200.091 0.472228 0.985444)
(200.254 0.0939937 0.0839473)
(200.17 -0.226514 -0.821528)
(199.838 -0.495567 -1.73148)
(199.241 -0.707154 -2.56436)
(198.346 -0.873278 -3.25521)
(197.124 -1.01662 -3.66929)
(195.564 -1.19215 -3.58851)
(193.804 -1.41741 -2.79194)
(200.863 1.73798 1.91665)
(201.379 1.36629 0.858964)
(201.575 0.976343 -0.249069)
(201.473 0.591844 -1.36565)
(201.051 0.211163 -2.48296)
(200.263 -0.169045 -3.57087)
(199.024 -0.558741 -4.55272)
(197.216 -0.977842 -5.30224)
(194.691 -1.48894 -5.39141)
(191.749 -2.01712 -4.65698)
(201.761 1.55671 2.67956)
(202.328 1.02334 1.40206)
(202.547 0.505003 0.042556)
(202.443 0.0321434 -1.3358)
(201.982 -0.421503 -2.74722)
(201.089 -0.865072 -4.17304)
(199.625 -1.31744 -5.54615)
(197.382 -1.80296 -6.77924)
(193.992 -2.41938 -7.28104)
(189.797 -3.06682 -6.97955)
(202.146 2.30927 2.81606)
(202.759 1.7697 1.38297)
(203.013 1.23396 -0.108436)
(202.942 0.744516 -1.63018)
(202.495 0.274003 -3.21539)
(201.584 -0.187794 -4.88028)
(200.009 -0.669445 -6.57813)
(197.461 -1.18998 -8.30111)
(193.251 -1.88309 -9.28232)
(187.735 -2.60165 -9.63697)
(202.619 1.90421 3.46665)
(203.282 1.25685 1.91408)
(203.583 0.6434 0.265041)
(203.57 0.108485 -1.41851)
(203.175 -0.390792 -3.20765)
(202.307 -0.862395 -5.14944)
(200.704 -1.33738 -7.22238)
(197.969 -1.83372 -9.51949)
(193.049 -2.53608 -11.1315)
(186.254 -3.23056 -12.5009)
(202.759 2.77255 3.33928)
(203.463 2.10731 1.73222)
(203.808 1.48102 0.0677884)
(203.846 0.942273 -1.64886)
(203.506 0.453682 -3.49028)
(202.702 0.00340516 -5.55182)
(201.123 -0.444653 -7.83313)
(198.303 -0.904599 -10.5651)
(192.809 -1.5723 -12.7336)
(184.857 -2.18669 -15.3032)
(203.057 2.06497 3.91183)
(203.808 1.28666 2.25881)
(204.196 0.579729 0.508032)
(204.288 -0.0139007 -1.28932)
(204.007 -0.534776 -3.24497)
(203.277 -0.988827 -5.47913)
(201.755 -1.39855 -8.03009)
(198.923 -1.7741 -11.2494)
(193.001 -2.31617 -14.1052)
(184.009 -2.74345 -18.1354)
(203.086 3.0425 3.4405)
(203.858 2.23674 1.81127)
(204.256 1.53173 0.141114)
(204.344 0.950159 -1.59674)
(204.063 0.472162 -3.48642)
(203.351 0.0783482 -5.69032)
(201.873 -0.24993 -8.27265)
(199.089 -0.535694 -11.7298)
(192.93 -0.867733 -15.0803)
(183.095 -1.13523 -20.5175)
(203.246 1.78332 3.98094)
(204.03 0.857567 2.37982)
(204.446 0.0683133 0.69386)
(204.557 -0.579348 -1.04498)
(204.306 -1.1097 -2.96304)
(203.634 -1.52727 -5.21837)
(202.209 -1.80657 -7.95669)
(199.521 -1.95662 -11.7646)
(193.305 -1.89564 -15.9489)
(182.537 -1.80504 -22.5932)
(202.452 2.74214 3.29681)
(203.196 1.74854 1.7522)
(203.526 0.988907 0.178046)
(203.47 0.373193 -1.4782)
(202.998 -0.0697924 -3.28268)
(202.068 -0.357942 -5.40289)
(200.401 -0.448809 -7.98423)
(197.525 -0.290615 -11.5934)
(191.338 0.260215 -16.0025)
(180.104 1.2636 -23.0449)
(198.42 0.467518 1.25465)
(198.766 0.21616 0.730902)
(198.888 -0.0422206 0.0983513)
(198.822 -0.269494 -0.524727)
(198.574 -0.469847 -1.13719)
(198.147 -0.635168 -1.65903)
(197.544 -0.775115 -2.04298)
(196.786 -0.904109 -2.19935)
(195.916 -1.04873 -2.0336)
(195.039 -1.20912 -1.4624)
(199.482 1.27355 1.43168)
(199.917 1.04007 0.639165)
(200.081 0.765313 -0.199675)
(199.99 0.47257 -1.03557)
(199.635 0.168347 -1.84218)
(199 -0.146794 -2.57631)
(198.056 -0.476489 -3.16275)
(196.788 -0.829012 -3.49413)
(195.197 -1.22746 -3.33744)
(193.546 -1.61188 -2.55936)
(200.242 1.10873 2.21393)
(200.76 0.709184 1.19132)
(200.957 0.296826 0.0845502)
(200.855 -0.0961558 -1.02821)
(200.432 -0.487098 -2.13702)
(199.649 -0.881474 -3.20127)
(198.433 -1.29248 -4.13516)
(196.708 -1.73562 -4.81102)
(194.374 -2.25861 -4.82973)
(191.845 -2.78553 -3.99381)
(200.607 1.92146 2.35595)
(201.194 1.50465 1.15772)
(201.43 1.06207 -0.10268)
(201.343 0.638886 -1.3802)
(200.897 0.217707 -2.6796)
(200.031 -0.208953 -3.98273)
(198.619 -0.664594 -5.20642)
(196.508 -1.1659 -6.23984)
(193.403 -1.79565 -6.49558)
(189.848 -2.4586 -5.71511)
(201.095 1.55089 3.02959)
(201.748 1.01643 1.68412)
(202.03 0.486981 0.239352)
(201.983 0.0090226 -1.22685)
(201.553 -0.450378 -2.75463)
(200.665 -0.897234 -4.34785)
(199.132 -1.35874 -5.93661)
(196.723 -1.85631 -7.45234)
(192.878 -2.52667 -8.12104)
(188.228 -3.25615 -7.67723)
(201.278 2.46184 2.92287)
(201.983 1.89824 1.50122)
(202.31 1.34709 0.0175953)
(202.302 0.858867 -1.50672)
(201.898 0.404269 -3.11461)
(201.019 -0.0273938 -4.85016)
(199.422 -0.472279 -6.65839)
(196.805 -0.952899 -8.55576)
(192.292 -1.63151 -9.59677)
(186.562 -2.38759 -9.63356)
(201.623 1.77438 3.52152)
(202.381 1.09176 2.03207)
(202.749 0.457382 0.440462)
(202.786 -0.085296 -1.18843)
(202.421 -0.570548 -2.93734)
(201.574 -1.00362 -4.87191)
(199.958 -1.41004 -6.97218)
(197.208 -1.81266 -9.33346)
(192.123 -2.40121 -10.9071)
(185.351 -3.08346 -11.6932)
(201.704 2.79654 3.06481)
(202.486 2.08459 1.58939)
(202.866 1.44924 0.067481)
(202.903 0.918009 -1.51644)
(202.535 0.47418 -3.22078)
(201.69 0.101655 -5.15182)
(200.064 -0.225596 -7.31202)
(197.253 -0.546049 -9.91736)
(191.761 -0.982433 -11.8853)
(184.067 -1.61036 -13.4488)
(201.903 1.53257 3.64426)
(202.696 0.699107 2.18092)
(203.092 -0.0162003 0.621228)
(203.149 -0.599872 -0.986801)
(202.803 -1.0749 -2.74555)
(201.983 -1.4434 -4.75444)
(200.371 -1.69331 -7.08054)
(197.545 -1.85496 -9.99781)
(191.823 -1.93298 -12.6954)
(183.116 -2.30932 -15.0353)
(201.16 2.57858 2.94084)
(201.918 1.6852 1.54948)
(202.256 1.00545 0.11667)
(202.196 0.456753 -1.39699)
(201.698 0.0693037 -3.03844)
(200.701 -0.171926 -4.92522)
(198.923 -0.237036 -7.12787)
(195.932 -0.0971432 -9.91198)
(190.118 0.288912 -12.8035)
(180.719 0.695594 -15.3186)
(197.547 0.169252 0.882262)
(197.802 0.0140378 0.546141)
(197.888 -0.157195 0.116468)
(197.842 -0.312916 -0.295916)
(197.674 -0.458118 -0.697465)
(197.392 -0.583577 -1.01981)
(197.012 -0.695685 -1.23708)
(196.562 -0.80138 -1.29494)
(196.08 -0.911719 -1.15851)
(195.607 -1.01988 -0.806236)
(198.444 0.890739 1.02593)
(198.782 0.760182 0.45473)
(198.91 0.579539 -0.1532)
(198.839 0.367176 -0.752644)
(198.568 0.134059 -1.31219)
(198.097 -0.116218 -1.7907)
(197.428 -0.381435 -2.12941)
(196.581 -0.661406 -2.25608)
(195.604 -0.956185 -2.05841)
(194.647 -1.21651 -1.47362)
(199.032 0.699015 1.78654)
(199.47 0.411531 0.998405)
(199.636 0.0951437 0.129144)
(199.547 -0.220343 -0.738023)
(199.193 -0.545396 -1.57905)
(198.558 -0.881313 -2.34575)
(197.62 -1.23527 -2.96018)
(196.375 -1.61379 -3.3153)
(194.843 -2.03199 -3.18176)
(193.313 -2.42471 -2.42042)
(199.328 1.53949 1.90684)
(199.851 1.23583 0.940746)
(200.059 0.88494 -0.0875867)
(199.971 0.531547 -1.12273)
(199.565 0.167295 -2.14829)
(198.807 -0.2112 -3.12563)
(197.636 -0.619773 -3.96688)
(196.004 -1.06947 -4.54743)
(193.843 -1.60144 -4.49205)
(191.605 -2.1367 -3.55231)
(199.78 1.18634 2.58519)
(200.383 0.763616 1.45589)
(200.637 0.321624 0.226974)
(200.573 -0.0931919 -1.01196)
(200.15 -0.503747 -2.27411)
(199.319 -0.912762 -3.53167)
(197.968 -1.34138 -4.69628)
(195.995 -1.80833 -5.64429)
(193.177 -2.39963 -5.83798)
(190.118 -3.0314 -4.91217)
(199.965 2.12684 2.48948)
(200.634 1.66938 1.26874)
(200.933 1.19959 -0.0171174)
(200.895 0.768913 -1.33213)
(200.471 0.356953 -2.69107)
(199.6 -0.0442221 -4.09538)
(198.118 -0.466406 -5.46055)
(195.866 -0.933296 -6.70177)
(192.407 -1.55938 -7.11384)
(188.474 -2.27057 -6.26982)
(200.325 1.45644 3.10763)
(201.056 0.877411 1.80066)
(201.395 0.322743 0.387995)
(201.391 -0.162543 -1.05175)
(200.983 -0.605142 -2.57159)
(200.103 -1.00858 -4.1882)
(198.536 -1.3981 -5.84148)
(196.068 -1.80174 -7.48328)
(192.015 -2.36942 -8.28712)
(187.182 -3.06992 -7.74884)
(200.432 2.52394 2.66332)
(201.193 1.91515 1.36019)
(201.549 1.3569 0.00556759)
(201.546 0.882125 -1.40337)
(201.129 0.47862 -2.89774)
(200.228 0.13404 -4.53129)
(198.602 -0.180088 -6.25646)
(195.987 -0.508121 -8.10877)
(191.462 -0.96966 -9.18837)
(185.778 -1.68216 -8.99331)
(200.656 1.25416 3.28338)
(201.433 0.522639 1.97623)
(201.803 -0.113814 0.562041)
(201.815 -0.632436 -0.893362)
(201.411 -1.05355 -2.46698)
(200.518 -1.37691 -4.20471)
(198.869 -1.60053 -6.11164)
(196.158 -1.76437 -8.2391)
(191.309 -1.91467 -9.87649)
(184.676 -2.43955 -10.1212)
(199.956 2.39838 2.55948)
(200.701 1.61228 1.33341)
(201.035 1.015 0.0545666)
(200.969 0.533134 -1.30055)
(200.461 0.198623 -2.75778)
(199.444 -0.00100575 -4.38718)
(197.672 -0.0469661 -6.19654)
(194.805 0.0730131 -8.24394)
(189.786 0.338401 -10.0084)
(182.439 0.459196 -10.2594)
(196.912 -0.0371796 0.630428)
(197.097 -0.133634 0.42167)
(197.155 -0.246753 0.133204)
(197.127 -0.351606 -0.133888)
(197.02 -0.455233 -0.395971)
(196.846 -0.548195 -0.597257)
(196.618 -0.634309 -0.72842)
(196.359 -0.715603 -0.75666)
(196.093 -0.795468 -0.672864)
(195.822 -0.865265 -0.476929)
(197.671 0.604179 0.708157)
(197.917 0.543007 0.307947)
(198.011 0.43306 -0.116934)
(197.961 0.285897 -0.531675)
(197.769 0.114213 -0.907652)
(197.442 -0.0765944 -1.21241)
(196.992 -0.2807 -1.40563)
(196.445 -0.493105 -1.44447)
(195.845 -0.704042 -1.2788)
(195.267 -0.871461 -0.893569)
(198.09 0.355237 1.42121)
(198.435 0.152314 0.831921)
(198.567 -0.0842317 0.169013)
(198.498 -0.33019 -0.488096)
(198.222 -0.591791 -1.11056)
(197.739 -0.867233 -1.65289)
(197.053 -1.15832 -2.05391)
(196.191 -1.4644 -2.24017)
(195.205 -1.78277 -2.09156)
(194.264 -2.05914 -1.54842)
(198.294 1.19317 1.49635)
(198.731 0.983979 0.742409)
(198.905 0.716083 -0.0694536)
(198.827 0.430567 -0.881485)
(198.484 0.125788 -1.66564)
(197.863 -0.197619 -2.37618)
(196.946 -0.547322 -2.93619)
(195.743 -0.92771 -3.24332)
(194.286 -1.35212 -3.08157)
(192.878 -1.75521 -2.305)
(198.675 0.837586 2.1594)
(199.203 0.515777 1.23927)
(199.422 0.158068 0.223107)
(199.355 -0.191806 -0.794704)
(198.971 -0.548166 -1.80835)
(198.246 -0.910037 -2.77287)
(197.125 -1.29165 -3.60115)
(195.589 -1.70542 -4.17008)
(193.601 -2.19769 -4.14458)
(191.612 -2.69965 -3.26093)
(198.832 1.78983 2.06191)
(199.436 1.43399 1.04396)
(199.701 1.04611 -0.0392516)
(199.648 0.676593 -1.1417)
(199.24 0.313267 -2.25627)
(198.438 -0.0482945 -3.35614)
(197.148 -0.432304 -4.34831)
(195.311 -0.858423 -5.11593)
(192.77 -1.39741 -5.18923)
(190.122 -1.99564 -4.19886)
(199.18 1.12917 2.68917)
(199.856 0.653824 1.57242)
(200.16 0.181488 0.348953)
(200.131 -0.242517 -0.89205)
(199.717 -0.637203 -2.17797)
(198.871 -1.00362 -3.48959)
(197.451 -1.36376 -4.74671)
(195.355 -1.74437 -5.83472)
(192.269 -2.25154 -6.18068)
(188.905 -2.86831 -5.25592)
(199.291 2.23847 2.25186)
(200.004 1.73558 1.13061)
(200.328 1.25818 -0.0451435)
(200.298 0.843751 -1.26674)
(199.867 0.48508 -2.54067)
(198.979 0.173605 -3.87938)
(197.461 -0.117384 -5.20494)
(195.168 -0.428849 -6.45077)
(191.62 -0.85974 -6.95763)
(187.544 -1.51465 -6.11301)
(199.526 0.958445 2.91141)
(200.261 0.332978 1.77115)
(200.6 -0.222171 0.515645)
(200.582 -0.67561 -0.772578)
(200.154 -1.04422 -2.14676)
(199.255 -1.32555 -3.6097)
(197.686 -1.52437 -5.12539)
(195.249 -1.68127 -6.61621)
(191.35 -1.85298 -7.52611)
(186.478 -2.35616 -6.88701)
(198.857 2.20958 2.16404)
(199.567 1.534 1.10948)
(199.885 1.02027 -0.00683369)
(199.814 0.604562 -1.19247)
(199.315 0.320454 -2.45297)
(198.327 0.157615 -3.81853)
(196.658 0.125754 -5.25117)
(194.069 0.226022 -6.68877)
(189.963 0.404755 -7.65991)
(184.471 0.409915 -6.93951)
(196.432 -0.173163 0.468202)
(196.567 -0.235822 0.342257)
(196.606 -0.312546 0.146742)
(196.59 -0.383161 -0.0254923)
(196.525 -0.456954 -0.199347)
(196.422 -0.524763 -0.329128)
(196.29 -0.589031 -0.415944)
(196.143 -0.649294 -0.438468)
(195.993 -0.705756 -0.397291)
(195.823 -0.750442 -0.296037)
(197.091 0.408696 0.469485)
(197.261 0.39081 0.194458)
(197.327 0.330698 -0.0935835)
(197.294 0.233345 -0.371891)
(197.166 0.111642 -0.617756)
(196.949 -0.0283976 -0.808352)
(196.657 -0.179625 -0.918132)
(196.311 -0.334986 -0.923251)
(195.937 -0.482096 -0.802265)
(195.565 -0.586047 -0.556728)
(197.363 0.086684 1.12517)
(197.62 -0.0574958 0.694541)
(197.72 -0.231846 0.2004)
(197.668 -0.419163 -0.287238)
(197.465 -0.623651 -0.740809)
(197.117 -0.842132 -1.12261)
(196.637 -1.07253 -1.38859)
(196.056 -1.30993 -1.49311)
(195.424 -1.54365 -1.37509)
(194.83 -1.72988 -1.01925)
(197.476 0.900434 1.14016)
(197.821 0.763849 0.568737)
(197.96 0.566226 -0.0527775)
(197.896 0.34267 -0.670929)
(197.623 0.0956788 -1.25407)
(197.141 -0.170995 -1.75874)
(196.455 -0.458683 -2.12442)
(195.598 -0.766112 -2.2777)
(194.632 -1.09048 -2.10173)
(193.743 -1.37939 -1.52852)
(197.771 0.525188 1.77119)
(198.209 0.28781 1.04155)
(198.391 0.00634164 0.223455)
(198.328 -0.280719 -0.591051)
(198.002 -0.581205 -1.38533)
(197.404 -0.891057 -2.10963)
(196.518 -1.21822 -2.68859)
(195.368 -1.56793 -3.0221)
(193.998 -1.95981 -2.91446)
(192.714 -2.33724 -2.21575)
(197.88 1.47028 1.65962)
(198.401 1.20481 0.834754)
(198.627 0.894476 -0.0519839)
(198.57 0.586302 -0.950221)
(198.204 0.274752 -1.83872)
(197.508 -0.0412587 -2.67643)
(196.441 -0.377254 -3.37645)
(195.003 -0.746733 -3.82746)
(193.189 -1.18614 -3.73595)
(191.428 -1.65573 -2.86566)
(198.199 0.810209 2.28406)
(198.797 0.431942 1.35458)
(199.063 0.040147 0.320904)
(199.02 -0.321508 -0.722316)
(198.631 -0.665163 -1.78311)
(197.866 -0.989184 -2.82085)
(196.645 -1.31088 -3.75204)
(194.943 -1.65133 -4.44637)
(192.668 -2.07873 -4.53556)
(190.364 -2.57757 -3.62345)
(198.292 1.95465 1.84667)
(198.935 1.55411 0.907664)
(199.222 1.15736 -0.0858265)
(199.177 0.804713 -1.11684)
(198.762 0.49355 -2.17238)
(197.938 0.218802 -3.23712)
(196.598 -0.0418793 -4.22137)
(194.68 -0.321379 -5.01798)
(191.995 -0.691057 -5.17205)
(189.134 -1.22657 -4.20096)
(198.529 0.656964 2.54268)
(199.201 0.136042 1.5718)
(199.504 -0.33822 0.481109)
(199.466 -0.727664 -0.633496)
(199.045 -1.04555 -1.80524)
(198.195 -1.28745 -3.0065)
(196.782 -1.462 -4.17913)
(194.699 -1.6055 -5.18987)
(191.683 -1.76931 -5.63483)
(188.205 -2.18169 -4.73441)
(197.88 2.02153 1.76706)
(198.532 1.45555 0.883857)
(198.826 1.02445 -0.0664959)
(198.753 0.673299 -1.07783)
(198.282 0.436787 -2.13826)
(197.363 0.306304 -3.24835)
(195.863 0.284786 -4.34192)
(193.636 0.366853 -5.30437)
(190.41 0.483919 -5.74921)
(186.447 0.453131 -4.72802)
(196.051 -0.260508 0.36756)
(196.154 -0.304623 0.293922)
(196.18 -0.359624 0.157111)
(196.172 -0.408157 0.0443607)
(196.134 -0.4614 -0.0753771)
(196.074 -0.510666 -0.163719)
(195.999 -0.557953 -0.227564)
(195.917 -0.601828 -0.251543)
(195.83 -0.641447 -0.239524)
(195.714 -0.670321 -0.194064)
(196.647 0.289596 0.293742)
(196.759 0.297243 0.106844)
(196.803 0.270557 -0.0831538)
(196.783 0.209551 -0.2647)
(196.701 0.126669 -0.421269)
(196.562 0.0274331 -0.538075)
(196.377 -0.0810096 -0.599873)
(196.16 -0.191411 -0.593596)
(195.922 -0.291983 -0.510539)
(195.669 -0.353865 -0.355613)
(196.801 -0.110202 0.894559)
(196.982 -0.216212 0.584741)
(197.053 -0.344536 0.222073)
(197.018 -0.484838 -0.135066)
(196.876 -0.640847 -0.46326)
(196.635 -0.809132 -0.733849)
(196.31 -0.985649 -0.916928)
(195.926 -1.16374 -0.985934)
(195.522 -1.3306 -0.909186)
(195.135 -1.45124 -0.691625)
(196.837 0.668109 0.843395)
(197.095 0.58343 0.421776)
(197.201 0.442121 -0.0403857)
(197.152 0.272218 -0.497826)
(196.946 0.0782259 -0.920709)
(196.589 -0.134247 -1.27245)
(196.095 -0.362645 -1.5089)
(195.502 -0.602087 -1.58141)
(194.867 -0.842189 -1.42925)
(194.303 -1.04115 -1.02747)
(197.044 0.261724 1.43169)
(197.39 0.0906071 0.867048)
(197.535 -0.125467 0.224523)
(197.482 -0.354889 -0.411806)
(197.22 -0.601119 -1.02098)
(196.749 -0.858284 -1.5565)
(196.077 -1.12922 -1.95872)
(195.243 -1.41351 -2.15493)
(194.315 -1.71509 -2.03519)
(193.491 -1.98654 -1.52787)
(197.1 1.18264 1.29697)
(197.529 0.992459 0.647007)
(197.715 0.751677 -0.0582944)
(197.661 0.501944 -0.769613)
(197.35 0.242439 -1.45866)
(196.776 -0.0251934 -2.08096)
(195.93 -0.308711 -2.56311)
(194.843 -0.615749 -2.81541)
(193.573 -0.959401 -2.66096)
(192.417 -1.30886 -1.97591)
(197.379 0.514742 1.90719)
(197.889 0.22218 1.15312)
(198.112 -0.0945704 0.301084)
(198.065 -0.395561 -0.554471)
(197.721 -0.6874 -1.40879)
(197.064 -0.966055 -2.21214)
(196.061 -1.24422 -2.88856)
(194.728 -1.53561 -3.3201)
(193.09 -1.88033 -3.28259)
(191.537 -2.25957 -2.52125)
(197.438 1.68597 1.46255)
(197.996 1.37903 0.697781)
(198.244 1.05916 -0.118054)
(198.191 0.767187 -0.96389)
(197.814 0.504249 -1.81336)
(197.088 0.268187 -2.63575)
(195.959 0.0422934 -3.34316)
(194.417 -0.197746 -3.82725)
(192.44 -0.498012 -3.78421)
(190.47 -0.903627 -2.90494)
(197.672 0.361064 2.19108)
(198.266 -0.061853 1.38421)
(198.529 -0.458553 0.457209)
(198.482 -0.786752 -0.485475)
(198.091 -1.05631 -1.46187)
(197.327 -1.26128 -2.42623)
(196.112 -1.41188 -3.31304)
(194.407 -1.53781 -3.98008)
(192.142 -1.6802 -4.15178)
(189.717 -1.99139 -3.28338)
(197.033 1.84399 1.38096)
(197.611 1.38266 0.662634)
(197.873 1.03105 -0.12393)
(197.802 0.741668 -0.962613)
(197.374 0.549478 -1.82832)
(196.555 0.447227 -2.70257)
(195.262 0.43327 -3.50618)
(193.425 0.499358 -4.11662)
(190.97 0.573062 -4.2359)
(188.192 0.540055 -3.23032)
(195.735 -0.31759 0.307424)
(195.819 -0.351777 0.266225)
(195.837 -0.394395 0.16538)
(195.833 -0.429146 0.0888018)
(195.811 -0.468681 0.00157549)
(195.777 -0.504875 -0.0630863)
(195.735 -0.53971 -0.114875)
(195.688 -0.571572 -0.141625)
(195.637 -0.59946 -0.148161)
(195.552 -0.618485 -0.13517)
(196.298 0.229623 0.163785)
(196.368 0.252001 0.037411)
(196.397 0.247074 -0.084266)
(196.385 0.211748 -0.198834)
(196.333 0.157769 -0.295116)
(196.247 0.0898467 -0.364118)
(196.132 0.0143125 -0.397245)
(195.995 -0.0623671 -0.387007)
(195.84 -0.130181 -0.330313)
(195.658 -0.1652 -0.230207)
(196.361 -0.246034 0.720015)
(196.482 -0.328657 0.498857)
(196.53 -0.424179 0.234636)
(196.506 -0.528377 -0.0257415)
(196.41 -0.645145 -0.263666)
(196.249 -0.771508 -0.458713)
(196.035 -0.902969 -0.591258)
(195.787 -1.03282 -0.646558)
(195.527 -1.14903 -0.606771)
(195.27 -1.22398 -0.483991)
(196.342 0.49444 0.603797)
(196.526 0.444636 0.300598)
(196.603 0.346372 -0.0335769)
(196.568 0.220917 -0.362987)
(196.419 0.0732308 -0.662421)
(196.163 -0.0904951 -0.903354)
(195.819 -0.265862 -1.0554)
(195.418 -0.446379 -1.08782)
(195.006 -0.619442 -0.970235)
(194.647 -0.752009 -0.69633)
(196.468 0.0522687 1.14491)
(196.73 -0.0694841 0.717181)
(196.84 -0.23192 0.223794)
(196.799 -0.410824 -0.262734)
(196.596 -0.607043 -0.72143)
(196.241 -0.814195 -1.11307)
(195.749 -1.03149 -1.39341)
(195.161 -1.255 -1.51364)
(194.541 -1.48102 -1.41352)
(194.018 -1.66944 -1.06543)
(196.472 0.935414 0.982617)
(196.811 0.804314 0.484364)
(196.959 0.62297 -0.0606194)
(196.912 0.426366 -0.608094)
(196.66 0.216555 -1.12822)
(196.207 -0.00279169 -1.57983)
(195.56 -0.233814 -1.90519)
(194.763 -0.479507 -2.03931)
(193.89 -0.739431 -1.87766)
(193.142 -0.989111 -1.36942)
(196.712 0.254096 1.5691)
(197.129 0.0333827 0.972219)
(197.311 -0.21645 0.286726)
(197.267 -0.460838 -0.398255)
(196.976 -0.702351 -1.07089)
(196.437 -0.935319 -1.68118)
(195.644 -1.16841 -2.16584)
(194.635 -1.40851 -2.4306)
(193.477 -1.67769 -2.34603)
(192.448 -1.95298 -1.76126)
(196.725 1.4434 1.11143)
(197.191 1.21781 0.506241)
(197.398 0.968119 -0.143533)
(197.346 0.733414 -0.816909)
(197.019 0.517478 -1.48011)
(196.409 0.320334 -2.09674)
(195.493 0.131201 -2.58865)
(194.298 -0.0671701 -2.86584)
(192.873 -0.302078 -2.72891)
(191.544 -0.59526 -2.01294)
(196.955 0.0805499 1.86863)
(197.462 -0.254745 1.21377)
(197.684 -0.579797 0.442602)
(197.635 -0.851071 -0.337181)
(197.29 -1.07554 -1.13335)
(196.634 -1.24625 -1.8924)
(195.632 -1.37358 -2.55141)
(194.285 -1.47984 -2.98377)
(192.626 -1.59605 -3.01293)
(190.973 -1.81943 -2.28981)
(196.317 1.68617 1.01663)
(196.811 1.32123 0.451257)
(197.037 1.04381 -0.179143)
(196.972 0.812145 -0.852971)
(196.599 0.660471 -1.53661)
(195.896 0.582611 -2.20191)
(194.824 0.574174 -2.76817)
(193.364 0.626704 -3.12943)
(191.546 0.670138 -3.06494)
(189.646 0.64697 -2.20093)
(195.467 -0.358441 0.273914)
(195.538 -0.387335 0.252506)
(195.551 -0.423278 0.173073)
(195.549 -0.449728 0.117805)
(195.537 -0.480401 0.0497652)
(195.518 -0.507734 -0.00172805)
(195.494 -0.533814 -0.0472864)
(195.467 -0.557178 -0.0766573)
(195.436 -0.576996 -0.0949004)
(195.369 -0.589849 -0.10101)
(196.017 0.213079 0.064838)
(196.058 0.244201 -0.0203216)
(196.075 0.25327 -0.0949633)
(196.068 0.235742 -0.163488)
(196.037 0.202666 -0.219022)
(195.984 0.157941 -0.256352)
(195.913 0.106756 -0.271017)
(195.825 0.0544517 -0.258246)
(195.721 0.00904149 -0.217673)
(195.587 -0.00949867 -0.149034)
(196.01 -0.334181 0.59065)
(196.085 -0.40312 0.43258)
(196.115 -0.475948 0.239787)
(196.1 -0.553332 0.0489925)
(196.038 -0.639536 -0.125498)
(195.933 -0.732445 -0.269806)
(195.795 -0.827949 -0.371286)
(195.637 -0.920184 -0.422041)
(195.47 -0.998988 -0.410456)
(195.297 -1.04268 -0.35045)
(195.961 0.372169 0.414821)
(196.085 0.344625 0.202432)
(196.138 0.278077 -0.0324697)
(196.114 0.188057 -0.263214)
(196.01 0.0791303 -0.470065)
(195.833 -0.0429507 -0.631968)
(195.6 -0.173294 -0.728951)
(195.334 -0.30526 -0.741974)
(195.069 -0.42678 -0.656756)
(194.843 -0.511968 -0.472457)