/*--------------------------------*- C++ -*----------------------------------*\
| =========                 |                                                 |
| \\      /  F ield         | foam-extend: Open Source CFD                    |
|  \\    /   O peration     | Version:     4.0                                |
|   \\  /    A nd           | Web:         http://www.foam-extend.org         |
|    \\/     M anipulation  |                                                 |
\*---------------------------------------------------------------------------*/
FoamFile
{
    version     2.0;
    format      ascii;
    class       volScalarField;
    location    "1250";
    object      alphat;
}
// * * * * * * * * * * * * * * * * * * * * * * * * * * * * * * * * * * * * * //

dimensions      [1 -1 -1 0 0 0 0];

internalField   nonuniform List<scalar> 
34480
(
0.00188911
0.00188785
0.00188768
0.0018885
0.0018906
0.0018945
0.001902
0.00192019
0.00195932
0.00203036
0.0159022
0.0150972
0.014799
0.0145278
0.0129021
0.00822089
0.00339723
0.00134682
0.000985636
0.00145595
0.0442109
0.0425527
0.0408693
0.0374261
0.0286127
0.0146367
0.0051033
0.0018268
0.00124253
0.00181433
0.0483609
0.0462058
0.0442711
0.0402355
0.0296618
0.014128
0.00478239
0.00177393
0.0012887
0.00198019
0.0476936
0.0452808
0.0435236
0.039687
0.0288227
0.0131722
0.00440263
0.00168337
0.00129974
0.00209866
0.0459555
0.0434809
0.0418283
0.0380471
0.0268268
0.0116117
0.00385623
0.00155262
0.00130569
0.00222551
0.0438351
0.0415228
0.040071
0.0364639
0.025276
0.0105579
0.00349537
0.00146086
0.00131271
0.00233417
0.0363874
0.0347052
0.0336827
0.0309416
0.0214351
0.00864704
0.0028142
0.0012395
0.0012354
0.00234008
0.0124231
0.0121062
0.012005
0.0117296
0.00993381
0.00512885
0.00167826
0.000736655
0.00083366
0.001785
0.00180092
0.00180087
0.00180256
0.00180583
0.00181059
0.00181668
0.00182466
0.00183584
0.00185233
0.00181349
0.0018891
0.00188724
0.00188663
0.00188714
0.00188899
0.00189243
0.00189792
0.00190734
0.001925
0.0019657
0.0149371
0.0143036
0.0141125
0.0142951
0.0147048
0.014755
0.0129338
0.00763581
0.00249476
0.00204674
0.0406996
0.0394701
0.0388063
0.0382716
0.0366603
0.0319509
0.0229748
0.01128
0.0032821
0.00280707
0.044778
0.0431097
0.0423101
0.0417407
0.0398995
0.0344013
0.0241789
0.0114237
0.00330047
0.00317497
0.0446197
0.0426673
0.0419267
0.0415713
0.0400886
0.0348169
0.0244344
0.0112717
0.00323706
0.00345565
0.0434134
0.0413531
0.0406313
0.04041
0.0391957
0.034199
0.0239473
0.010841
0.00316404
0.0037855
0.0418152
0.039839
0.039208
0.0390712
0.0380953
0.0334635
0.0235358
0.0105497
0.003127
0.00409984
0.035126
0.0336617
0.0331986
0.0331842
0.0326763
0.0293608
0.0210965
0.00938329
0.00285154
0.00416959
0.0123618
0.0120572
0.0119978
0.0120564
0.0121876
0.0120332
0.0106133
0.00545614
0.00170523
0.002798
0.00179629
0.00179386
0.00179339
0.00179458
0.00179737
0.00180146
0.00180759
0.00181737
0.00184157
0.00188875
0.00188455
0.00188294
0.0018824
0.00188286
0.00188444
0.00188722
0.00189121
0.00189718
0.00190609
0.00191959
0.0140441
0.0136281
0.0134944
0.0136443
0.0140822
0.0147245
0.015135
0.0142099
0.0101093
0.00583656
0.0371805
0.0362114
0.0358742
0.0360221
0.0363406
0.0359238
0.0329946
0.0253467
0.0133397
0.00710416
0.0410538
0.0397499
0.039322
0.0395496
0.0400471
0.0396953
0.0361756
0.0265957
0.0125317
0.00721145
0.0412881
0.0397754
0.0393628
0.0397041
0.0405077
0.0406362
0.037343
0.0266707
0.011409
0.00718428
0.0405527
0.0389497
0.0385178
0.0389232
0.039951
0.0405665
0.037684
0.0261575
0.0102937
0.00725458
0.0394506
0.0378899
0.0375015
0.0379117
0.0390425
0.0400172
0.0376431
0.0255176
0.00937027
0.0073352
0.0336093
0.0324523
0.0321473
0.0324667
0.0334074
0.0345655
0.0334097
0.0226324
0.00795891
0.00704135
0.0122558
0.0120024
0.0119597
0.0120207
0.0122163
0.0124527
0.0126056
0.010646
0.00448505
0.00445174
0.00178893
0.00178606
0.00178521
0.0017861
0.00178878
0.00179313
0.00180012
0.0018119
0.00183858
0.00189199
0.00187631
0.00187517
0.00187479
0.00187514
0.0018763
0.00187818
0.00188051
0.00188358
0.00188753
0.00189219
0.0134567
0.0132082
0.0131175
0.013213
0.013504
0.0139631
0.014445
0.0148637
0.0145968
0.0128629
0.034019
0.0333342
0.0331394
0.0333428
0.0339098
0.0345907
0.0346214
0.0324036
0.0256857
0.0173875
0.0376282
0.0366867
0.0364197
0.036712
0.0375203
0.0385262
0.0385848
0.0352784
0.0257828
0.0167303
0.0381786
0.0370879
0.0368217
0.0371792
0.0381911
0.039569
0.0399604
0.0361252
0.024616
0.0158904
0.0378615
0.0366884
0.0363894
0.0367864
0.0379448
0.0396843
0.0405275
0.0363301
0.0231192
0.0153425
0.0372034
0.0360322
0.0357544
0.0361444
0.0373464
0.0392816
0.040508
0.0360414
0.0214994
0.0148499
0.0321981
0.0313211
0.0310944
0.031383
0.03229
0.0339174
0.0354002
0.0319834
0.0185053
0.01372
0.0121905
0.0119818
0.0119505
0.0119972
0.0121459
0.0123403
0.0125447
0.0126696
0.0095813
0.00831188
0.00178
0.00177698
0.00177599
0.0017768
0.0017795
0.00178416
0.00179172
0.00180439
0.00183049
0.00187777
0.00186518
0.00186448
0.00186424
0.00186448
0.00186524
0.00186637
0.00186756
0.00186899
0.00187056
0.00187203
0.0131771
0.0130387
0.0129785
0.013038
0.0132182
0.0134834
0.0137199
0.0140114
0.0142964
0.0144192
0.0314947
0.0310924
0.0309863
0.0311122
0.0314964
0.0321123
0.0328038
0.0330914
0.0316469
0.0274693
0.0347654
0.0341626
0.0339942
0.0341905
0.0347858
0.0357698
0.0368704
0.037103
0.0340944
0.0274788
0.0355103
0.0347875
0.0346125
0.0348539
0.0355966
0.03686
0.038317
0.0385699
0.0342209
0.0263143
0.0355111
0.0347022
0.034489
0.0347657
0.035625
0.0371617
0.0390394
0.03944
0.0338057
0.0254026
0.0352024
0.0343612
0.0341556
0.0344331
0.0353353
0.0370027
0.0391464
0.0396203
0.0327926
0.0244458
0.0309573
0.0303131
0.0301402
0.0303491
0.0310181
0.0323201
0.0341869
0.0350104
0.028899
0.022287
0.0121729
0.0120007
0.0119781
0.0120098
0.0121111
0.0122328
0.0123014
0.0126928
0.0125653
0.0122024
0.00176964
0.0017666
0.00176554
0.00176629
0.00176896
0.0017737
0.00178132
0.00179367
0.00181634
0.00185292
0.00185169
0.00185133
0.00185121
0.00185136
0.0018518
0.00185239
0.00185291
0.0018535
0.00185407
0.00185446
0.0131377
0.0130695
0.0130315
0.0130707
0.0131837
0.0133286
0.0134227
0.0135393
0.0136618
0.0137547
0.0297424
0.0295478
0.0295003
0.0295608
0.0297549
0.030085
0.030543
0.0310993
0.031431
0.0310709
0.0326045
0.0322629
0.0321645
0.032272
0.0326175
0.0332395
0.0341491
0.0351916
0.0354862
0.0339579
0.0333882
0.0329506
0.0328437
0.0329831
0.0334368
0.034267
0.0355056
0.036898
0.0369169
0.0340751
0.0335758
0.0330531
0.0329083
0.0330804
0.0336343
0.0346847
0.0363021
0.0381383
0.0378438
0.0338546
0.0335003
0.0329263
0.0327811
0.0329604
0.0335653
0.0347325
0.0365708
0.0386733
0.0379256
0.0331006
0.029907
0.029454
0.0293283
0.0294694
0.029922
0.0308146
0.0322682
0.0341988
0.0337387
0.0299447
0.0122063
0.012065
0.0120507
0.0120708
0.0121342
0.0121906
0.0121411
0.0123326
0.0127389
0.0136293
0.00175771
0.00175477
0.0017537
0.00175439
0.00175695
0.00176155
0.00176878
0.00178002
0.00179846
0.0018249
0.00183623
0.0018361
0.00183606
0.00183615
0.00183638
0.00183662
0.00183681
0.00183701
0.00183718
0.00183723
0.0132623
0.0132411
0.0132198
0.0132468
0.0133179
0.0133869
0.0134272
0.0134705
0.0135029
0.013494
0.0286851
0.028607
0.0285918
0.0286173
0.0287001
0.0288357
0.0290286
0.0292964
0.0295843
0.0298049
0.0311303
0.0309522
0.030898
0.0309509
0.0311287
0.0314526
0.0319521
0.0326498
0.0333569
0.0337594
0.0318292
0.0315829
0.0315225
0.0315954
0.0318451
0.0323065
0.033039
0.0340948
0.0350946
0.0354009
0.0320851
0.0317653
0.0316716
0.0317712
0.0321008
0.0327299
0.0337602
0.0352943
0.0366531
0.0367286
0.0321353
0.0317609
0.0316633
0.0317715
0.0321508
0.0328833
0.0341013
0.0359586
0.0374631
0.0371033
0.0290746
0.0287691
0.0286822
0.0287721
0.0290597
0.0296176
0.0305371
0.0320999
0.0335346
0.0335369
0.0122995
0.0121828
0.0121756
0.012187
0.0122214
0.0122233
0.0121005
0.0121011
0.0122838
0.0129777
0.00174406
0.00174132
0.00174029
0.00174093
0.0017433
0.00174754
0.00175407
0.00176378
0.00177816
0.00179671
0.00181904
0.00181906
0.00181907
0.00181911
0.00181922
0.00181927
0.00181931
0.00181934
0.00181935
0.00181928
0.0134933
0.0135062
0.0134981
0.0135173
0.0135601
0.0135886
0.0136081
0.013625
0.0136267
0.0135855
0.0281295
0.0281066
0.0281066
0.0281171
0.0281484
0.0281939
0.0282587
0.0283484
0.0284496
0.0285362
0.0302067
0.0301169
0.0300878
0.0301128
0.0302002
0.0303569
0.0305935
0.0309236
0.0313029
0.0316419
0.030762
0.0306302
0.0305984
0.0306341
0.0307637
0.0309991
0.0313675
0.0319124
0.0325576
0.0331389
0.0310065
0.030819
0.030761
0.0308159
0.0310027
0.0313535
0.0319217
0.032806
0.0338767
0.0348271
0.0311026
0.0308671
0.0308045
0.0308664
0.0310939
0.0315253
0.0322333
0.0333781
0.0347613
0.0359107
0.0284646
0.0282669
0.0282098
0.0282641
0.0284363
0.0287593
0.0292702
0.0301952
0.0314469
0.0326912
0.0124584
0.0123606
0.0123595
0.0123645
0.0123774
0.0123372
0.0121788
0.0120696
0.0120464
0.0123081
0.00172857
0.00172611
0.00172517
0.00172573
0.00172786
0.00173161
0.00173723
0.00174525
0.0017561
0.00176888
0.00180023
0.00180032
0.00180036
0.00180038
0.00180042
0.0018004
0.00180037
0.00180034
0.0018003
0.00180018
0.0137969
0.0138366
0.0138396
0.0138533
0.0138754
0.0138864
0.0138972
0.0139039
0.0138946
0.0138425
0.0278908
0.0278919
0.0278982
0.027903
0.0279128
0.0279246
0.0279425
0.0279665
0.0279916
0.0280078
0.029669
0.029623
0.0296071
0.029619
0.0296626
0.0297388
0.0298494
0.029995
0.0301576
0.030297
0.0300769
0.0300078
0.0299918
0.0300088
0.0300746
0.0301912
0.0303669
0.0306143
0.0309089
0.0311829
0.0302721
0.0301652
0.0301303
0.0301599
0.030263
0.0304523
0.0307486
0.0311914
0.0317505
0.0323122
0.0303663
0.030222
0.0301832
0.0302173
0.0303501
0.0305958
0.0309845
0.0315932
0.0323816
0.0331878
0.0280636
0.0279402
0.0279049
0.0279359
0.0280325
0.0282041
0.0284596
0.0289248
0.0296231
0.0304867
0.0126883
0.0126041
0.0126081
0.0126086
0.012606
0.0125359
0.0123684
0.0122126
0.012084
0.0121421
0.00171116
0.00170903
0.0017082
0.00170869
0.00171052
0.00171369
0.00171835
0.0017247
0.00173266
0.00174131
0.00177983
0.00177996
0.00178001
0.00178002
0.00178001
0.00177998
0.00177994
0.00177989
0.00177984
0.00177972
0.0141683
0.0142211
0.0142336
0.0142434
0.0142511
0.0142581
0.0142648
0.0142667
0.0142523
0.0141947
0.0278389
0.0278481
0.0278567
0.0278594
0.027861
0.027863
0.0278663
0.0278702
0.0278726
0.0278691
0.0293775
0.0293524
0.0293432
0.0293493
0.0293721
0.0294115
0.0294663
0.0295338
0.0296051
0.0296607
0.0296625
0.0296258
0.0296176
0.0296258
0.0296597
0.0297185
0.0298034
0.029915
0.0300416
0.0301508
0.0298009
0.0297407
0.02972
0.0297359
0.0297925
0.029894
0.030047
0.0302616
0.0305249
0.0307782
0.0298729
0.0297853
0.0297617
0.0297803
0.0298571
0.0299954
0.0302059
0.0305162
0.030908
0.0312899
0.0278444
0.0277698
0.0277494
0.0277661
0.0278157
0.0278956
0.0280086
0.0282164
0.0285414
0.028962
0.0129933
0.0129187
0.0129268
0.0129243
0.0129104
0.0128229
0.0126628
0.0124993
0.0123322
0.0123304
0.00169174
0.00168998
0.00168929
0.00168969
0.0016912
0.00169378
0.00169749
0.00170233
0.00170802
0.00171377
0.00175784
0.00175796
0.00175802
0.00175802
0.00175801
0.00175798
0.00175794
0.00175789
0.00175784
0.00175772
0.0146065
0.0146634
0.0146816
0.0146885
0.0146932
0.0146981
0.0147023
0.0147015
0.014684
0.0146222
0.0278915
0.0279022
0.0279104
0.0279126
0.0279128
0.0279125
0.027912
0.0279107
0.0279071
0.0278987
0.0292316
0.0292168
0.0292111
0.0292145
0.0292274
0.0292492
0.0292787
0.0293132
0.0293478
0.0293728
0.0294261
0.0294055
0.029401
0.0294052
0.0294236
0.0294549
0.0294985
0.0295521
0.0296093
0.0296558
0.0295161
0.029482
0.0294697
0.0294784
0.0295099
0.0295649
0.029645
0.0297507
0.0298747
0.0299898
0.0295634
0.0295096
0.0294953
0.0295056
0.0295506
0.0296291
0.0297447
0.0299045
0.0300959
0.0302694
0.0277728
0.0277287
0.0277181
0.0277264
0.0277482
0.0277762
0.0278167
0.0278964
0.0280289
0.0282249
0.0133783
0.0133101
0.0133219
0.0133173
0.0132946
0.0132019
0.0130591
0.0129091
0.0127404
0.0127392
0.0016703
0.00166889
0.00166834
0.00166866
0.00166986
0.00167188
0.00167472
0.00167829
0.00168225
0.00168601
0.00173418
0.0017343
0.00173435
0.00173435
0.00173434
0.00173432
0.00173429
0.00173425
0.00173421
0.00173409
0.0151164
0.0151769
0.0151964
0.0152032
0.0152072
0.0152107
0.0152131
0.0152104
0.0151907
0.015125
0.0280008
0.0280115
0.0280188
0.028021
0.0280211
0.0280205
0.0280194
0.0280173
0.0280125
0.0280029
0.0291665
0.0291572
0.0291535
0.0291555
0.0291631
0.0291759
0.0291928
0.029212
0.0292307
0.0292434
0.0292991
0.0292865
0.0292836
0.029286
0.0292968
0.029315
0.0293395
0.029368
0.0293967
0.0294196
0.0293541
0.0293344
0.029327
0.029332
0.0293499
0.0293805
0.0294236
0.0294774
0.0295379
0.0295946
0.029383
0.029349
0.0293401
0.0293463
0.0293734
0.0294195
0.0294851
0.0295708
0.0296675
0.0297521
0.0278129
0.0277874
0.027783
0.0277864
0.0277928
0.0277955
0.0278021
0.0278235
0.0278672
0.0279663
0.0138501
0.0137861
0.0138015
0.0137952
0.0137651
0.0136791
0.0135588
0.0134321
0.0132797
0.0133016
0.0016468
0.00164573
0.0016453
0.00164555
0.00164646
0.00164798
0.00165008
0.00165263
0.00165531
0.00165774
0.0017088
0.00170891
0.00170895
0.00170895
0.00170895
0.00170893
0.0017089
0.00170887
0.00170884
0.00170873
0.0157095
0.0157738
0.0157944
0.015801
0.0158045
0.015807
0.0158082
0.0158042
0.0157827
0.0157131
0.0281409
0.0281511
0.0281575
0.0281596
0.0281599
0.0281595
0.0281587
0.0281568
0.0281521
0.0281422
0.0291431
0.0291373
0.029135
0.0291361
0.0291407
0.0291482
0.0291581
0.0291692
0.0291801
0.0291872
0.0292353
0.0292269
0.0292247
0.0292262
0.0292332
0.0292447
0.0292599
0.0292768
0.0292931
0.0293061
0.0292677
0.0292559
0.0292514
0.0292543
0.0292648
0.0292824
0.0293063
0.0293348
0.0293659
0.0293963
0.0292867
0.0292644
0.0292587
0.0292628
0.0292798
0.0293082
0.0293472
0.0293959
0.029448
0.0294944
0.0279327
0.0279179
0.0279172
0.027918
0.0279161
0.0279098
0.0279032
0.0279011
0.0279077
0.0279664
0.0144188
0.014358
0.0143774
0.0143694
0.0143332
0.0142654
0.0141692
0.0140687
0.0139394
0.0139902
0.00162124
0.00162045
0.00162014
0.00162032
0.00162098
0.00162209
0.00162359
0.00162534
0.00162712
0.00162866
0.0016816
0.0016817
0.00168173
0.00168173
0.00168173
0.00168172
0.0016817
0.00168168
0.00168165
0.00168155
0.0164038
0.0164721
0.0164935
0.0165001
0.0165033
0.016505
0.0165054
0.0165005
0.0164778
0.0164039
0.0282976
0.0283072
0.0283127
0.0283147
0.0283152
0.0283151
0.0283146
0.0283131
0.028309
0.0282992
0.0291399
0.0291364
0.029135
0.0291357
0.0291383
0.0291425
0.0291481
0.0291546
0.029161
0.0291653
0.0292058
0.0291999
0.029198
0.029199
0.0292037
0.0292115
0.0292216
0.0292326
0.0292428
0.0292512
0.0292245
0.0292173
0.0292144
0.0292162
0.0292225
0.0292329
0.0292466
0.0292623
0.0292791
0.0292968
0.0292409
0.0292257
0.0292219
0.0292249
0.0292361
0.0292544
0.0292789
0.0293084
0.0293386
0.0293678
0.0281073
0.0280959
0.0280974
0.0280969
0.0280924
0.0280849
0.0280752
0.0280661
0.0280594
0.0281012
0.015114
0.0150444
0.015067
0.0150573
0.0150282
0.0149777
0.014905
0.0148297
0.0147243
0.0148027
0.00159361
0.00159305
0.00159283
0.00159296
0.00159343
0.0015942
0.00159524
0.0015964
0.00159755
0.00159851
0.0016525
0.00165259
0.00165262
0.00165262
0.00165262
0.00165261
0.0016526
0.00165258
0.00165256
0.00165246
0.0172252
0.017298
0.0173199
0.0173263
0.0173295
0.0173307
0.0173305
0.0173251
0.0173015
0.017223
0.0284627
0.0284717
0.0284763
0.0284781
0.0284787
0.0284789
0.0284788
0.0284777
0.0284743
0.0284651
0.0291455
0.0291435
0.0291428
0.0291431
0.0291444
0.0291466
0.0291495
0.029153
0.0291568
0.0291596
0.0291934
0.0291892
0.0291876
0.0291883
0.0291915
0.029197
0.0292039
0.0292113
0.0292182
0.0292239
0.0292042
0.0291996
0.0291977
0.0291988
0.0292026
0.0292089
0.029217
0.029226
0.0292355
0.0292463
0.0292225
0.0292118
0.0292092
0.0292115
0.0292191
0.0292315
0.0292474
0.0292662
0.029285
0.0293057
0.0283139
0.0283032
0.0283044
0.028304
0.0283006
0.0282948
0.0282864
0.0282773
0.0282675
0.0283015
0.0159625
0.0158853
0.0159021
0.0158959
0.0158764
0.0158419
0.015791
0.0157379
0.0156546
0.015756
0.00156391
0.00156353
0.00156338
0.00156347
0.00156379
0.00156431
0.00156499
0.00156574
0.00156646
0.00156705
0.00162148
0.00162155
0.00162158
0.00162158
0.00162158
0.00162158
0.00162156
0.00162155
0.00162153
0.00162144
0.0182107
0.0182887
0.0183103
0.0183164
0.01832
0.0183209
0.0183203
0.0183148
0.0182908
0.0182072
0.0286305
0.0286386
0.0286423
0.0286438
0.0286444
0.0286448
0.028645
0.0286445
0.028642
0.0286336
0.0291538
0.0291528
0.0291526
0.0291527
0.0291533
0.0291541
0.0291554
0.0291571
0.0291592
0.0291614
0.0291887
0.0291857
0.0291843
0.0291847
0.0291869
0.0291906
0.0291954
0.0292005
0.0292053
0.0292093
0.0291946
0.0291916
0.0291903
0.0291909
0.0291932
0.0291971
0.0292019
0.0292073
0.0292128
0.0292197
0.0292163
0.0292086
0.0292069
0.0292086
0.0292139
0.0292224
0.0292329
0.0292452
0.0292573
0.0292729
0.0285337
0.0285234
0.0285241
0.0285241
0.0285221
0.0285186
0.028513
0.0285063
0.0284975
0.0285268
0.0170025
0.0169197
0.0169306
0.0169276
0.0169167
0.0168966
0.0168655
0.0168312
0.0167677
0.0168855
0.00153216
0.00153191
0.00153181
0.00153187
0.00153208
0.00153241
0.00153285
0.00153331
0.00153375
0.00153411
0.00158857
0.00158864
0.00158866
0.00158866
0.00158866
0.00158866
0.00158865
0.00158864
0.00158862
0.00158853
0.0194146
0.0194983
0.0195207
0.0195263
0.0195289
0.0195294
0.0195287
0.0195234
0.0194996
0.0194105
0.0287946
0.0288016
0.0288043
0.0288053
0.0288059
0.0288064
0.0288069
0.0288069
0.0288055
0.0287987
0.0291619
0.0291616
0.0291616
0.0291616
0.0291617
0.0291619
0.0291622
0.0291628
0.0291639
0.0291657
0.0291863
0.0291841
0.029183
0.0291831
0.0291846
0.029187
0.0291902
0.0291936
0.0291969
0.0291999
0.029189
0.0291869
0.029186
0.0291863
0.0291877
0.02919
0.0291929
0.0291961
0.0291993
0.0292038
0.0292124
0.0292071
0.0292059
0.0292071
0.0292108
0.0292164
0.0292233
0.0292311
0.0292388
0.0292506
0.0287487
0.0287393
0.0287396
0.0287398
0.0287391
0.0287376
0.0287347
0.0287309
0.0287243
0.0287496
0.0182908
0.0182051
0.0182097
0.0182095
0.0182063
0.0181993
0.0181866
0.0181679
0.0181229
0.0182487
0.00149845
0.00149829
0.00149822
0.00149826
0.00149839
0.0014986
0.00149887
0.00149915
0.00149941
0.00149961
0.00155401
0.00155407
0.00155408
0.00155409
0.00155409
0.00155408
0.00155407
0.00155406
0.00155404
0.00155396
0.0209196
0.0210088
0.0210313
0.0210363
0.0210374
0.0210375
0.0210368
0.0210321
0.0210097
0.020915
0.0289466
0.0289518
0.0289534
0.0289539
0.0289542
0.0289548
0.0289556
0.0289561
0.0289558
0.0289515
0.029168
0.0291679
0.029168
0.0291681
0.029168
0.0291679
0.0291678
0.0291678
0.0291683
0.0291698
0.0291835
0.0291819
0.0291811
0.0291811
0.0291819
0.0291834
0.0291854
0.0291876
0.0291899
0.0291921
0.0291841
0.0291827
0.029182
0.0291821
0.0291829
0.0291842
0.0291859
0.0291877
0.0291896
0.0291923
0.0292046
0.0292012
0.0292004
0.0292012
0.0292034
0.0292069
0.0292111
0.0292158
0.0292205
0.0292289
0.0289398
0.0289317
0.0289318
0.0289321
0.0289322
0.0289319
0.0289309
0.0289293
0.028925
0.028946
0.0199107
0.0198255
0.019823
0.019825
0.019829
0.0198344
0.0198398
0.0198352
0.0198099
0.0199324
0.00146296
0.00146287
0.00146282
0.00146284
0.00146292
0.00146305
0.00146321
0.00146338
0.00146354
0.00146365
0.00151799
0.00151802
0.00151803
0.00151803
0.00151803
0.00151803
0.00151802
0.00151802
0.00151801
0.00151796
0.0228588
0.0229507
0.0229704
0.0229745
0.0229753
0.0229752
0.0229743
0.0229704
0.0229506
0.0228529
0.0290742
0.0290768
0.0290771
0.029077
0.0290772
0.0290778
0.0290787
0.0290797
0.0290806
0.0290795
0.0291712
0.0291711
0.0291712
0.0291713
0.0291712
0.0291711
0.0291709
0.0291709
0.029171
0.029172
0.0291801
0.029179
0.0291784
0.0291784
0.0291788
0.0291797
0.0291809
0.0291822
0.0291837
0.0291853
0.0291795
0.0291786
0.0291782
0.0291782
0.0291786
0.0291793
0.0291802
0.0291812
0.0291822
0.0291837
0.0291914
0.0291894
0.0291889
0.0291893
0.0291906
0.0291925
0.0291948
0.0291972
0.0291998
0.029205
0.0290857
0.0290796
0.0290795
0.0290797
0.0290799
0.02908
0.0290797
0.0290793
0.0290773
0.0290932
0.022012
0.0219337
0.0219317
0.0219335
0.0219366
0.0219407
0.0219449
0.0219478
0.0219486
0.0220515
0.00142583
0.00142577
0.00142574
0.00142575
0.0014258
0.00142588
0.00142598
0.00142608
0.0014262
0.00142626
0.00147963
0.00147963
0.00147961
0.00147961
0.0014796
0.00147961
0.00147962
0.00147963
0.00147966
0.00147968
0.0254701
0.0255506
0.0255644
0.0255673
0.0255679
0.0255676
0.0255665
0.0255633
0.0255485
0.0254604
0.0291638
0.0291635
0.0291627
0.0291622
0.0291622
0.0291627
0.0291636
0.0291649
0.0291667
0.0291688
0.0291723
0.0291723
0.0291723
0.0291723
0.0291723
0.0291723
0.0291723
0.0291723
0.0291723
0.0291727
0.0291778
0.0291771
0.0291767
0.0291767
0.029177
0.0291775
0.0291782
0.029179
0.0291799
0.0291809
0.0291772
0.0291766
0.0291764
0.0291764
0.0291766
0.0291771
0.0291776
0.0291782
0.0291789
0.0291796
0.029179
0.029178
0.0291777
0.0291779
0.0291786
0.0291797
0.029181
0.0291823
0.0291836
0.0291859
0.0291747
0.0291708
0.0291704
0.0291703
0.0291702
0.0291702
0.0291701
0.0291702
0.0291705
0.0291807
0.0249099
0.0248512
0.0248501
0.0248513
0.0248533
0.024856
0.0248588
0.0248606
0.0248608
0.0249375
0.0013863
0.00138625
0.00138622
0.00138624
0.00138627
0.00138634
0.00138641
0.00138649
0.00138657
0.00138662
0.00234403
0.00236488
0.00235466
0.00232074
0.00141096
0.00143393
0.00143125
0.00142635
0.00188741
0.0019294
0.00192024
0.0018955
0.00227384
0.00233189
0.00231235
0.0022661
0.0026207
0.00269171
0.00265971
0.00259527
0.00296159
0.00304371
0.00300358
0.00293024
0.00324324
0.00333352
0.00329128
0.00321812
0.00341073
0.00350734
0.00346732
0.00339882
0.00304248
0.00313179
0.00309289
0.00303729
0.002374
0.0023906
0.00235574
0.00227462
0.00202788
0.00203359
0.0020347
0.00203167
0.00235637
0.00243679
0.00233688
0.00214477
0.00331233
0.00342657
0.00329594
0.00305776
0.00407504
0.00424291
0.00408398
0.00378582
0.00485518
0.00509029
0.00489534
0.0045196
0.00582827
0.00615318
0.00591114
0.00542656
0.00679205
0.00720446
0.00690223
0.00630467
0.00748756
0.00798427
0.00762543
0.00693119
0.0059106
0.00634621
0.00599269
0.00539682
0.00218102
0.0022133
0.00220644
0.00217073
0.00193364
0.00193569
0.00193585
0.00193459
0.00406892
0.00404508
0.00405577
0.00414736
0.00499668
0.00497809
0.00499817
0.00510316
0.00550117
0.00552038
0.00553998
0.00559066
0.00601482
0.00606798
0.0060708
0.00603008
0.00675597
0.00685146
0.00681087
0.00663354
0.00751116
0.00763313
0.00751846
0.00718115
0.00804585
0.00820493
0.00801655
0.00751839
0.00611731
0.00625625
0.00607959
0.00559936
0.00204755
0.00206463
0.00206272
0.00204499
0.00189491
0.00189514
0.00189526
0.0018953
0.0102428
0.0099647
0.0101012
0.0106167
0.0119548
0.0116205
0.0119239
0.012819
0.0114481
0.0112662
0.0116386
0.0125355
0.0110966
0.0110341
0.0114307
0.0122628
0.0112122
0.011253
0.0116422
0.0123702
0.0114048
0.0115045
0.0118418
0.0124208
0.0113494
0.0115249
0.0117936
0.0121646
0.00800964
0.0081933
0.00831569
0.00835715
0.00195641
0.00196685
0.00196782
0.00195983
0.00187295
0.00187299
0.00187303
0.00187304
0.014494
0.014434
0.0144622
0.0145718
0.0238503
0.0235261
0.023714
0.0243421
0.0222561
0.0219629
0.0223156
0.023244
0.0203909
0.0202097
0.020689
0.0217979
0.0193378
0.0193053
0.019875
0.021074
0.01852
0.0185926
0.0191837
0.0203749
0.0173248
0.0175348
0.0180879
0.0190991
0.0108701
0.0111041
0.0113445
0.0116577
0.00189323
0.00189971
0.00190117
0.00189777
0.00185487
0.00185484
0.00185483
0.00185483
0.0140891
0.0140152
0.0140057
0.0140606
0.0304129
0.0303048
0.0303302
0.0304776
0.0318077
0.0315674
0.0316572
0.0320345
0.0304421
0.030153
0.0303724
0.031031
0.0290327
0.0288127
0.0292002
0.0301289
0.0274512
0.0273212
0.0278337
0.0289601
0.024767
0.0248299
0.0253846
0.0264593
0.0131627
0.0133934
0.0135678
0.0137278
0.00184534
0.00184926
0.00185053
0.00184918
0.00183752
0.00183748
0.00183745
0.00183745
0.0137862
0.0136953
0.0136776
0.0137319
0.0299238
0.0299254
0.0299391
0.029965
0.0336836
0.0336852
0.0337167
0.0337757
0.034831
0.0347827
0.0348423
0.0349981
0.0353496
0.0352628
0.0353974
0.0357234
0.0347062
0.0345908
0.0348206
0.0353525
0.0310875
0.031117
0.0314262
0.0319886
0.0133052
0.0135806
0.0136404
0.0135322
0.00180704
0.00180943
0.00181037
0.00180986
0.00181954
0.00181949
0.00181946
0.00181945
0.0138648
0.0137675
0.0137473
0.0138028
0.0286303
0.0286225
0.0286249
0.0286378
0.0317654
0.03179
0.0318065
0.0318154
0.0333208
0.0333642
0.0333957
0.0334168
0.0350531
0.035124
0.0351835
0.0352336
0.0359134
0.0359756
0.0360591
0.0361653
0.0326071
0.0327628
0.0328866
0.0329829
0.0123836
0.0126383
0.0126775
0.0125385
0.00177424
0.00177575
0.00177639
0.00177615
0.00180045
0.00180039
0.00180036
0.00180035
0.0141233
0.0140228
0.0140017
0.0140584
0.0280708
0.0280574
0.0280556
0.0280658
0.0303454
0.0303525
0.030357
0.0303591
0.031283
0.0313031
0.0313149
0.0313191
0.0325578
0.0326132
0.0326431
0.0326493
0.033488
0.0335647
0.0336062
0.0336177
0.0307606
0.030926
0.030992
0.030967
0.0119508
0.0121741
0.0122148
0.0120929
0.00174419
0.00174522
0.00174562
0.00174544
0.00177998
0.00177992
0.00177989
0.00177988
0.0144809
0.0143776
0.0143558
0.0144138
0.0279226
0.0279087
0.0279062
0.0279154
0.0296769
0.0296775
0.0296781
0.0296788
0.0301806
0.0301852
0.0301878
0.0301888
0.0308813
0.0309033
0.0309146
0.0309156
0.0314099
0.0314419
0.0314584
0.0314613
0.0290311
0.0291397
0.0291778
0.0291475
0.0120274
0.0122457
0.0122867
0.0121642
0.00171537
0.00171611
0.00171637
0.00171618
0.001758
0.00175793
0.00175789
0.0017579
0.0149158
0.0148092
0.0147866
0.0148462
0.0279481
0.0279349
0.0279324
0.027941
0.0293799
0.0293791
0.029379
0.0293794
0.0296644
0.0296649
0.0296651
0.0296652
0.0300323
0.0300408
0.0300449
0.0300446
0.030297
0.0303071
0.0303124
0.0303135
0.0281768
0.0282506
0.0282739
0.0282465
0.0123938
0.0126237
0.012666
0.0125342
0.0016869
0.00168748
0.00168764
0.00168745
0.00173438
0.0017343
0.00173427
0.00173427
0.0154275
0.0153173
0.0152937
0.0153552
0.0280488
0.0280363
0.0280339
0.0280419
0.0292477
0.0292468
0.0292466
0.0292471
0.0294228
0.0294226
0.0294224
0.0294223
0.0296159
0.0296201
0.0296218
0.0296212
0.0297525
0.0297559
0.0297576
0.0297577
0.0278825
0.0279408
0.0279576
0.0279323
0.0129362
0.0131853
0.0132304
0.0130865
0.00165823
0.0016587
0.00165881
0.00165861
0.00170903
0.00170894
0.00170891
0.00170892
0.0160262
0.0159116
0.0158869
0.0159505
0.0281843
0.0281725
0.0281702
0.0281776
0.0291902
0.0291894
0.0291893
0.0291897
0.029308
0.0293079
0.0293077
0.0293076
0.0294094
0.029412
0.029413
0.0294124
0.0294898
0.0294917
0.0294924
0.0294921
0.0278779
0.0279283
0.0279421
0.027919
0.0136107
0.0138828
0.0139318
0.0137744
0.00162892
0.00162932
0.00162939
0.00162919
0.00168185
0.00168176
0.00168172
0.00168174
0.0167297
0.0166097
0.0165837
0.0166498
0.0283371
0.0283262
0.028324
0.0283307
0.0291676
0.029167
0.0291669
0.0291673
0.0292526
0.0292526
0.0292525
0.0292524
0.0293059
0.0293077
0.0293083
0.0293078
0.0293645
0.0293662
0.0293667
0.0293662
0.0280186
0.0280637
0.0280757
0.0280547
0.0144092
0.0147073
0.0147608
0.0145884
0.00159862
0.00159898
0.00159903
0.00159883
0.00165278
0.00165268
0.00165264
0.00165266
0.0175638
0.0174373
0.0174095
0.0174786
0.0284984
0.0284884
0.0284863
0.0284923
0.0291614
0.029161
0.029161
0.0291614
0.0292252
0.0292253
0.0292252
0.0292251
0.0292531
0.0292544
0.0292548
0.0292544
0.029305
0.0293068
0.0293074
0.0293067
0.0282293
0.0282698
0.0282804
0.0282613
0.0153464
0.0156735
0.0157317
0.0155426
0.00156708
0.0015674
0.00156743
0.00156724
0.00162177
0.00162166
0.00162162
0.00162165
0.018566
0.0184311
0.0184009
0.0184738
0.0286619
0.028653
0.028651
0.0286563
0.0291629
0.0291626
0.0291626
0.0291629
0.0292105
0.0292106
0.0292106
0.0292105
0.0292248
0.0292257
0.029226
0.0292256
0.0292748
0.0292767
0.0292772
0.0292764
0.0284678
0.0285039
0.0285132
0.0284957
0.0164558
0.0168149
0.016878
0.0166701
0.00153409
0.00153437
0.00153439
0.00153421
0.00158888
0.00158876
0.00158872
0.00158876
0.0197906
0.0196447
0.0196114
0.0196889
0.0288214
0.0288136
0.0288119
0.0288164
0.029167
0.0291669
0.029167
0.0291671
0.0292011
0.0292012
0.0292013
0.0292012
0.0292075
0.0292082
0.0292084
0.029208
0.0292544
0.0292562
0.0292567
0.0292557
0.0287062
0.028738
0.0287457
0.0287296
0.0177914
0.0181848
0.0182522
0.0180241
0.00149957
0.00149981
0.00149983
0.00149967
0.00155433
0.00155421
0.00155417
0.00155421
0.0213183
0.0211568
0.0211191
0.0212032
0.02897
0.028964
0.0289626
0.028966
0.0291709
0.029171
0.029171
0.029171
0.0291933
0.0291935
0.0291936
0.0291935
0.0291949
0.0291953
0.0291954
0.0291951
0.0292332
0.0292348
0.0292352
0.0292344
0.0289199
0.0289471
0.0289531
0.0289384
0.0194325
0.0198557
0.0199258
0.0196796
0.00146362
0.00146382
0.00146383
0.00146371
0.00151836
0.00151824
0.00151821
0.00151826
0.0232746
0.0230905
0.0230471
0.0231409
0.0290948
0.029091
0.0290901
0.0290923
0.0291727
0.0291728
0.0291728
0.0291727
0.0291864
0.0291866
0.0291867
0.0291866
0.0291851
0.0291854
0.0291854
0.0291853
0.0292086
0.0292098
0.0292101
0.0292094
0.0290841
0.0291056
0.0291096
0.0290971
0.0215221
0.0219748
0.0220419
0.021774
0.00142635
0.00142651
0.00142652
0.00142643
0.00148013
0.00148003
0.00148002
0.00148007
0.0258536
0.0256449
0.0255993
0.0257064
0.029179
0.0291774
0.029177
0.0291779
0.0291725
0.0291725
0.0291725
0.0291724
0.0291816
0.0291818
0.0291819
0.0291819
0.02918
0.0291801
0.0291802
0.0291801
0.0291875
0.0291879
0.0291881
0.0291879
0.0291825
0.0291947
0.0291965
0.0291889
0.0244745
0.0248997
0.0249493
0.0246896
0.00138699
0.00138712
0.00138712
0.00138703
0.0021556
0.00203923
0.00197494
0.00194247
0.00192338
0.00191103
0.00190288
0.00189773
0.00189439
0.00189211
0.00174916
0.00158838
0.00477593
0.00943212
0.0139365
0.0171171
0.0186212
0.0187668
0.0181318
0.0171898
0.00236644
0.00258511
0.00734127
0.0155668
0.0249642
0.0330777
0.0390546
0.0428473
0.0447117
0.045086
0.00277105
0.00361462
0.00830413
0.0178518
0.0291687
0.0385127
0.0449794
0.0487002
0.0501272
0.0499078
0.00307862
0.00394688
0.00872476
0.0193505
0.0320799
0.0419524
0.0481285
0.0509732
0.0512818
0.0500644
0.00338923
0.00407158
0.00893791
0.0204139
0.0342572
0.0442956
0.049866
0.0516489
0.0508696
0.0488292
0.00362995
0.00408141
0.00896149
0.0211596
0.0358859
0.0457415
0.0504133
0.0510362
0.0493087