/*--------------------------------*- C++ -*----------------------------------*\
| =========                 |                                                 |
| \\      /  F ield         | foam-extend: Open Source CFD                    |
|  \\    /   O peration     | Version:     4.0                                |
|   \\  /    A nd           | Web:         http://www.foam-extend.org         |
|    \\/     M anipulation  |                                                 |
\*---------------------------------------------------------------------------*/
FoamFile
{
    version     2.0;
    format      ascii;
    class       volScalarField;
    location    "1250";
    object      epsilon;
}
// * * * * * * * * * * * * * * * * * * * * * * * * * * * * * * * * * * * * * //

dimensions      [0 2 -3 0 0 0 0];

internalField   nonuniform List<scalar> 
34480
(
4930.48
4928.49
4928.39
4929.85
4932.99
4938.11
4950.67
5004.03
5193.41
5723.62
652.69
599.916
599.183
651.139
836.553
1574.18
5101.23
22868.6
103773
382442
615.019
520.073
506.748
566.418
807.042
1826.34
7042.21
35136.9
172599
699247
521.988
437.246
425.517
483.257
731.788
1881.05
8216.74
44406.1
232155
1.01042e+06
454.73
383.424
376.246
432.063
683.614
1925.69
9172.34
52557.6
288956
1.33228e+06
391.273
332.041
326.019
377.965
627.81
1954.99
10114
60990
350254
1.69656e+06
352.516
302.377
298.161
346.285
591.38
1961.99
10717.6
67130.2
399861
2.01997e+06
320.987
281.975
277.717
317.619
534.4
1820.29
10344
66919.9
412169
2.16479e+06
460.048
436.086
433.551
459.018
597.324
1410.1
6837.55
43657.9
275671
1.49652e+06
5707.43
5707.73
5713.19
5725.11
5741.89
5761.9
5786
5821.81
5887.98
5956.17
4855.77
4853.28
4852.81
4854.27
4858.22
4865.2
4876.31
4902.3
4964.79
5184.73
510.576
477.979
472.452
486.591
530.898
647.097
1001.05
2353.69
11811.8
103698
444.822
382.116
368.6
388.033
456.681
643.615
1226.99
3565.32
21377
197778
397.88
337.318
324.047
343.778
415.099
618.421
1291.65
4285.09
30240.4
294817
364.614
310.237
299.866
319.107
389.955
597.724
1319.4
4805.68
38699.4
396375
325.535
278.447
268.782
286.112
351.856
553.526
1292.41
5172.94
47305.3
508183
302.046
260.595
252.542
267.869
328.884
521.317
1255.24
5353.57
54149.4
607177
282.881
249.912
242.339
254.026
301.734
456.823
1074.38
4821.71
54916.1
651246
432.911
411.117
406.069
413.575
443.68
531.767
847.975
2977.15
36344.7
466891
5589.92
5585.67
5586.2
5592.81
5604.43
5618.99
5638.26
5671.14
5738.57
5910.92
4770.54
4768.16
4767.42
4768.22
4770.81
4774.95
4779.82
4790.55
4814.57
4869.47
399.255
385.913
383.296
388.082
403.204
438.496
526.413
758.352
1518.33
5764.74
307.016
275.918
269.163
278.363
308.723
378.232
549.245
1029.45
2862.72
15012.6
289.332
255.671
248.089
258.678
293.761
377.487
595.886
1278.09
4410.94
28954.1
280.181
247.396
241.037
252.01
289.057
379.65
627.836
1478.96
6138.94
47838.7
260.905
230.806
224.397
234.82
270.487
361.315
624.379
1623.03
8145.17
73155.6
250.3
222.418
216.904
226.432
260.527
349.12
616.734
1722.06
10154.5
101547
242.999
220.138
214.793
222.461
249.824
322.333
549.837
1592.43
11028.2
122783
402.857
386.58
382.867
388.542
408.984
461.693
607.042
1234.37
7668.58
91961
5480.23
5473.19
5470.92
5474.48
5483.22
5495.21
5511.64
5542.29
5614.55
5799.51
4674.44
4672.94
4672.52
4673.15
4674.93
4677.26
4678.33
4681.11
4688.5
4704.55
328.281
324.198
323.398
324.515
328.603
338.911
364.86
421.678
541.911
941.624
218.797
205.573
202.755
206.816
220.201
248.475
308.641
445.13
773.26
2090.13
213.987
197.318
193.426
198.958
216.884
256.296
344.952
564.914
1170.06
4148.88
217.244
199.276
195.735
201.945
222.516
268.964
378.962
674.966
1610.63
7164.17
210.52
192.643
188.651
195.056
216.264
266.258
391.665
760.486
2115.84
11607.4
208.424
190.712
187.114
193.288
214.682
266.158
400.839
826.241
2630.24
17123.6
210.01
194.794
191.116
196.435
214.514
259.035
379.749
794.247
2856.36
21835.8
375.868
363.927
361.12
365.327
380.287
417.064
508.684
782.086
2177.5
16519.8
5358.24
5351.21
5348.68
5351.72
5359.94
5372.33
5389.39
5420.14
5486.76
5629.66
4568.98
4568.29
4568.14
4568.54
4569.5
4570.28
4569.03
4567.88
4567.82
4569.55
285.547
284.828
284.74
284.52
284.514
286.18
293.38
307.503
330.13
376.499
167.689
162.668
161.64
163.072
168.111
178.338
198.158
237.478
308.661
485.401
166.273
158.554
156.611
159.117
167.363
184.569
219.326
294.008
443.437
891.653
173.783
164.494
162.585
165.683
176.116
198.407
245.783
356.053
601.241
1500.44
173.558
163.392
160.925
164.479
176.201
202.377
261.255
410.361
783.109
2437.46
176.098
165.228
162.886
166.524
179.151
207.912
275.242
456.979
965.12
3641.8
183.435
173.589
171.049
174.444
185.769
212.301
276.663
463.068
1056.77
4744.09
351.555
342.984
340.82
343.716
354.245
379.309
438.114
581.131
1007.89
3808.4
5228.6
5221.71
5219.01
5221.57
5229.15
5241.24
5257.84
5286.13
5341.66
5443.81
4455.11
4455.04
4455.11
4455.33
4455.71
4455.47
4453.47
4451.37
4449.59
4448.5
259.921
260.026
260.12
259.602
258.592
258.084
259.979
263.408
268.288
275.622
139.37
137.713
137.449
137.842
139.462
142.708
148.631
159.232
175.449
203.483
137.467
134.076
133.159
134.21
137.758
144.813
157.734
182.29
222.667
303.643
145.014
140.479
139.541
140.973
145.933
155.96
175.215
214.999
286.29
458.843
147.373
141.857
140.419
142.287
148.435
161.429
187.773
247.019
363.713
702.629
151.83
145.441
144.012
146.044
153.162
168.489
200.751
277.996
443.507
1014.5
162.376
156.292
154.635
156.722
163.542
178.765
212.132
297.164
499.519
1319.91
329.673
323.799
322.207
324.161
331.479
348.585
386.986
467.301
639.072
1288.64
5090.68
5084.18
5081.5
5083.69
5090.57
5101.86
5117.3
5142.14
5185.09
5252.22
4333.57
4333.9
4334.12
4334.22
4334.22
4333.34
4331.47
4329.46
4327.64
4326.29
243.934
243.919
243.959
243.477
242.516
241.969
242.341
243.108
244.29
246.136
123.974
123.551
123.561
123.603
123.991
124.835
126.385
129.005
132.629
137.397
120.653
119.205
118.784
119.201
120.67
123.482
128.22
136.222
147.625
164.008
126.679
124.567
124.15
124.764
127.011
131.331
138.913
152.851
174.354
210.865
129.549
126.666
125.863
126.798
129.895
136.126
147.616
170.564
209.117
286.106
134.336
130.709
129.883
130.957
134.819
142.724
157.806
189.867
247.503
381.687
146.279
142.686
141.656
142.886
146.836
155.308
172.354
210.756
286.477
489.634
310.323
306.49
305.345
306.636
311.688
323.522
349.069
396.083
479.399
666.65
4944.27
4938.36
4935.82
4937.68
4943.78
4953.83
4967.54
4988.47
5020.85
5064.61
4204.85
4205.43
4205.73
4205.77
4205.55
4204.52
4203.02
4201.42
4199.99
4198.92
233.021
232.634
232.551
232.186
231.547
231.305
231.326
231.491
231.921
232.945
115.617
115.588
115.668
115.619
115.624
115.732
116.004
116.521
117.262
118.092
111.063
110.447
110.254
110.414
111.017
112.14
113.917
116.627
120.1
123.921
115.322
114.383
114.223
114.468
115.447
117.258
120.224
125.131
131.904
140.5
117.804
116.35
115.92
116.37
117.885
120.814
125.829
134.769
148.144
167.675
122.147
120.151
119.699
120.239
122.278
126.28
133.333
146.664
167.746
202.453
134.331
132.317
131.71
132.409
134.62
139.229
147.95
165.39
195.6
252.038
293.314
290.967
290.149
291.001
294.521
302.96
320.279
348.796
393.706
462.114
4789.19
4784.03
4781.76
4783.32
4788.55
4797.08
4808.73
4825.67
4849.48
4878.34
4069.3
4070.01
4070.36
4070.36
4070.03
4069.14
4068.04
4066.88
4065.85
4065.07
224.571
223.813
223.607
223.353
223.041
222.987
222.968
223.038
223.347
224.265
111.031
111.089
111.166
111.109
111.031
110.953
110.898
110.903
110.992
111.122
105.721
105.449
105.357
105.418
105.67
106.132
106.83
107.811
108.98
110.041
108.478
108.08
108.034
108.122
108.536
109.279
110.44
112.204
114.459
116.77
110.309
109.601
109.379
109.59
110.312
111.669
113.877
117.455
122.397
128.143
113.932
112.859
112.627
112.886
113.942
115.95
119.292
124.988
133.178
143.38
125.69
124.632
124.295
124.682
125.88
128.342
132.829
140.904
153.656
171.76
278.306
276.997
276.402
276.98
279.498
285.753
297.679
315.532
341.219
370.984
4625.44
4621.12
4619.18
4620.46
4624.78
4631.69
4641.18
4654.36
4671.41
4690.35
3927.28
3927.93
3928.3
3928.28
3927.93
3927.31
3926.54
3925.74
3925.04
3924.48
216.989
216.089
215.781
215.611
215.535
215.513
215.514
215.593
215.904
216.817
108.42
108.477
108.53
108.487
108.414
108.316
108.213
108.128
108.097
108.116
102.827
102.694
102.646
102.671
102.782
102.985
103.28
103.669
104.111
104.467
104.477
104.314
104.31
104.338
104.51
104.812
105.271
105.921
106.707
107.42
105.688
105.355
105.246
105.342
105.678
106.297
107.272
108.741
110.667
112.653
108.577
108.009
107.896
108.017
108.56
109.568
111.18
113.703
117.077
120.554
119.566
119.061
118.888
119.098
119.729
121.027
123.331
127.133
132.725
139.465
264.857
264.244
263.791
264.208
266.091
270.879
279.178
290.634
305.908
320.071
4453.14
4449.7
4448.12
4449.13
4452.56
4457.91
4465.34
4475.2
4487.07
4499.29
3778.94
3779.45
3779.79
3779.76
3779.52
3779.1
3778.59
3778.06
3777.6
3777.19
209.538
208.649
208.304
208.196
208.163
208.16
208.181
208.276
208.597
209.503
106.819
106.858
106.891
106.862
106.807
106.732
106.649
106.577
106.546
106.56
101.308
101.234
101.206
101.217
101.271
101.368
101.506
101.679
101.872
102.016
102.219
102.149
102.155
102.162
102.236
102.365
102.555
102.808
103.098
103.352
102.946
102.796
102.743
102.787
102.94
103.218
103.647
104.259
105.034
105.819
105.206
104.903
104.851
104.909
105.192
105.708
106.504
107.668
109.129
110.478
115.272
115.069
114.99
115.105
115.43
116.111
117.274
119.07
121.54
124.355
252.487
252.324
251.95
252.279
253.772
257.473
263.271
270.735
280.086
286.922
4272.58
4269.97
4268.76
4269.53
4272.12
4276.1
4281.68
4288.79
4296.81
4304.55
3624.43
3624.84
3625.1
3625.09
3624.94
3624.67
3624.33
3623.99
3623.69
3623.38
201.871
201.009
200.694
200.599
200.575
200.581
200.611
200.712
201.033
201.921
105.721
105.741
105.759
105.74
105.704
105.655
105.602
105.557
105.546
105.569
100.538
100.491
100.475
100.48
100.509
100.559
100.629
100.715
100.812
100.882
100.993
100.957
100.961
100.962
100.999
101.062
101.153
101.267
101.388
101.498
101.389
101.323
101.299
101.319
101.388
101.511
101.698
101.954
102.272
102.62
103.157
102.989
102.966
102.996
103.151
103.426
103.837
104.405
105.073
105.663
112.247
112.196
112.169
112.234
112.399
112.75
113.318
114.152
115.208
116.483
240.732
240.846
240.51
240.793
242.053
244.842
248.872
253.759
259.608
262.685
4084.19
4082.32
4081.44
4082
4083.85
4086.72
4090.75
4095.68
4100.94
4105.74
3463.95
3464.29
3464.49
3464.49
3464.4
3464.23
3464.01
3463.79
3463.6
3463.35
193.81
192.983
192.697
192.613
192.593
192.6
192.632
192.73
193.043
193.902
104.867
104.873
104.88
104.869
104.847
104.818
104.789
104.766
104.771
104.801
100.162
100.133
100.123
100.126
100.141
100.166
100.202
100.247
100.301
100.34
100.358
100.333
100.331
100.332
100.355
100.395
100.45
100.514
100.578
100.641
100.548
100.52
100.508
100.517
100.549
100.603
100.684
100.792
100.924
101.096
101.95
101.849
101.838
101.857
101.949
102.108
102.334
102.634
102.964
103.264
110.051
110.07
110.069
110.108
110.195
110.366
110.625
110.992
111.396
112.017
229.181
229.449
229.121
229.384
230.49
232.444
235.206
238.388
242.092
243.155
3888.51
3887.26
3886.68
3887.06
3888.3
3890.33
3893.12
3896.41
3899.73
3902.66
3297.79
3298.08
3298.23
3298.23
3298.19
3298.08
3297.95
3297.81
3297.68
3297.46
185.246
184.459
184.202
184.129
184.109
184.115
184.143
184.233
184.531
185.357
104.13
104.128
104.128
104.121
104.109
104.094
104.081
104.073
104.089
104.122
99.989
99.9714
99.9671
99.9684
99.9748
99.986
100.002
100.024
100.055
100.079
100.048
100.026
100.021
100.022
100.039
100.069
100.11
100.156
100.199
100.242
100.121
100.108
100.102
100.106
100.121
100.145
100.181
100.227
100.283
100.378
101.252
101.186
101.18
101.195
101.255
101.355
101.491
101.665
101.847
102.029
108.354
108.409
108.42
108.446
108.49
108.564
108.666
108.808
108.912
109.243
217.285
217.802
217.48
217.737
218.543
219.878
221.724
223.765
226.112
226.092
3686.32
3685.47
3685.13
3685.37
3686.2
3687.57
3689.42
3691.52
3693.53
3695.27
3126.36
3126.6
3126.71
3126.72
3126.7
3126.63
3126.55
3126.46
3126.38
3126.18
176.097
175.355
175.128
175.066
175.044
175.047
175.069
175.147
175.427
176.215
103.45
103.444
103.44
103.436
103.43
103.425
103.421
103.423
103.445
103.481
99.9183
99.9095
99.9088
99.9091
99.9103
99.9125
99.9167
99.9247
99.9418
99.9587
99.9107
99.8911
99.8831
99.8843
99.898
99.9225
99.9548
99.9906
100.024
100.058
99.9221
99.9145
99.9108
99.9128
99.9201
99.9322
99.9487
99.9696
99.994
100.052
100.847
100.8
100.795
100.808
100.851
100.919
101.007
101.117
101.228
101.358
106.94
107.009
107.029
107.045
107.063
107.089
107.114
107.152
107.123
107.321
204.799
205.454
205.259
205.44
205.979
206.856
208.043
209.318
210.783
210.208
3478.36
3477.82
3477.6
3477.76
3478.3
3479.19
3480.35
3481.61
3482.76
3483.79
2950.18
2950.38
2950.46
2950.47
2950.46
2950.42
2950.37
2950.31
2950.26
2950.07
166.284
165.589
165.395
165.346
165.319
165.319
165.335
165.399
165.657
166.405
102.805
102.797
102.79
102.787
102.786
102.786
102.789
102.796
102.821
102.86
99.9001
99.8971
99.8985
99.8982
99.8964
99.8935
99.8909
99.8911
99.8993
99.9129
99.8617
99.8445
99.8361
99.8369
99.8475
99.8668
99.892
99.9198
99.9462
99.9741
99.8445
99.8385
99.8356
99.8363
99.8404
99.8473
99.856
99.8665
99.878
99.9157
100.598
100.562
100.558
100.569
100.599
100.647
100.708
100.781
100.854
100.955
105.671
105.736
105.76
105.77
105.776
105.78
105.773
105.767
105.686
105.822
191.552
192.258
192.165
192.287
192.627
193.169
193.884
194.648
195.522
194.713
3265.52
3265.2
3265.07
3265.17
3265.5
3266.03
3266.72
3267.44
3268.04
3268.63
2769.96
2770.13
2770.19
2770.2
2770.2
2770.18
2770.15
2770.11
2770.06
2769.89
155.709
155.066
154.896
154.86
154.843
154.841
154.85
154.899
155.129
155.835
102.19
102.179
102.171
102.169
102.17
102.173
102.18
102.19
102.215
102.257
99.9088
99.9085
99.9106
99.9099
99.9069
99.902
99.8967
99.8933
99.8963
99.9087
99.8566
99.8425
99.8351
99.8353
99.8429
99.8568
99.875
99.8954
99.9155
99.938
99.8299
99.8247
99.8221
99.8221
99.8245
99.8287
99.8337
99.8393
99.8452
99.8698
100.42
100.393
100.389
100.396
100.418
100.451
100.492
100.54
100.589
100.669
104.468
104.521
104.543
104.55
104.552
104.547
104.529
104.509
104.418
104.522
177.401
178.086
178.072
178.151
178.345
178.644
179.02
179.441
179.908
179.072
3048.88
3048.69
3048.62
3048.68
3048.87
3049.16
3049.54
3049.9
3050.19
3050.51
2586.72
2586.85
2586.9
2586.91
2586.91
2586.9
2586.87
2586.84
2586.8
2586.65
144.24
143.659
143.519
143.494
143.49
143.487
143.49
143.522
143.714
144.372
101.611
101.598
101.59
101.587
101.589
101.594
101.602
101.613
101.635
101.679
99.9282
99.928
99.9295
99.9286
99.9257
99.9212
99.9161
99.9123
99.9128
99.9246
99.8738
99.8631
99.8574
99.8572
99.862
99.8709
99.8828
99.8964
99.9106
99.9278
99.849
99.8448
99.8427
99.8424
99.8435
99.8456
99.8481
99.8507
99.8535
99.8685
100.264
100.244
100.24
100.245
100.258
100.278
100.304
100.333
100.364
100.424
103.299
103.335
103.352
103.357
103.356
103.348
103.329
103.307
103.227
103.311
162.188
162.798
162.846
162.893
162.98
163.1
163.227
163.41
163.579
162.856
2829.72
2829.63
2829.59
2829.62
2829.71
2829.85
2830.04
2830.2
2830.31
2830.47
2401.55
2401.67
2401.7
2401.71
2401.71
2401.7
2401.68
2401.66
2401.63
2401.51
131.65
131.156
131.064
131.054
131.053
131.049
131.045
131.059
131.191
131.779
101.087
101.071
101.063
101.061
101.062
101.067
101.074
101.084
101.102
101.144
99.9463
99.9445
99.9447
99.9438
99.9418
99.9389
99.9358
99.9335
99.9336
99.9439
99.9047
99.8976
99.8939
99.8935
99.8961
99.9011
99.9078
99.9157
99.9247
99.9365
99.8874
99.8848
99.8834
99.8829
99.8831
99.8837
99.8842
99.8847
99.8855
99.8929
100.112
100.1
100.097
100.099
100.106
100.116
100.128
100.143
100.16
100.199
102.175
102.193
102.203
102.205
102.201
102.191
102.174
102.154
102.1
102.165
145.431
145.908
145.944
145.979
146.039
146.119
146.199
146.257
146.187
145.665
2609.47
2609.42
2609.41
2609.43
2609.46
2609.5
2609.55
2609.6
2609.63
2609.7
2214.94
2215.01
2215.01
2215.02
2215.01
2215.01
2215.01
2215.01
2215
2214.95
117.389
117.052
117.022
117.026
117.029
117.024
117.014
117.006
117.05
117.48
100.624
100.607
100.6
100.596
100.597
100.6
100.606
100.616
100.63
100.664
99.9643
99.9621
99.9615
99.9608
99.9599
99.9587
99.9576
99.957
99.9575
99.9637
99.9486
99.9447
99.9428
99.9426
99.9438
99.9462
99.9494
99.9533
99.9579
99.9643
99.9393
99.9381
99.9374
99.9371
99.9369
99.9367
99.9363
99.9358
99.9356
99.9378
100.006
100.001
99.9989
99.9996
100.002
100.006
100.011
100.016
100.022
100.04
101.129
101.13
101.132
101.131
101.125
101.116
101.103
101.09
101.072
101.118
125.747
126.03
126.048
126.069
126.101
126.144
126.186
126.209
126.158
125.812
2388.87
2388.85
2388.85
2388.85
2388.85
2388.86
2388.85
2388.85
2388.83
2388.87
7179.66
7289.5
7245.56
7039.05
658951
683770
689244
696956
1.49683e+06
1.58316e+06
1.59051e+06
1.57039e+06
2.52274e+06
2.70029e+06
2.69758e+06
2.61592e+06
3.75561e+06
4.04954e+06
4.02308e+06
3.86163e+06
5.29948e+06
5.74109e+06
5.68963e+06
5.47785e+06
6.85722e+06
7.4541e+06
7.39037e+06
7.19485e+06
7.87098e+06
8.59665e+06
8.54191e+06
8.41496e+06
5.61106e+06
6.16868e+06
6.10423e+06
6.07087e+06
7898.82
8145.98
7983.71
7565.46
5747.48
5800.12
5802.53
5763.26
308467
324455
345014
376758
688984
780099
823923
860446
1.17686e+06
1.4009e+06
1.46377e+06
1.48931e+06
1.76129e+06
2.17393e+06
2.24748e+06
2.26068e+06
2.45504e+06
3.10654e+06
3.20592e+06
3.24228e+06
3.12671e+06
4.03278e+06
4.19379e+06
4.31316e+06
3.5678e+06
4.69598e+06
4.93749e+06
5.17296e+06
2.80233e+06
3.81204e+06
4.00058e+06
4.31397e+06
7121.93
7352.81
7281.75
7061.89
4937.08
4947.99
4947.13
4937.44
21668.3
25963.7
24595.3
19956.7
61582.1
73395.7
68648.9
55689.4
128708
152722
140745
113891
228182
270198
245913
199127
371953
441245
400758
325908
544564
647398
590567
484592
701734
837870
768170
635754
583422
695471
628053
523614
6341
6428.02
6405.65
6310.55
4715.33
4717.41
4717.96
4717.19
1595.93
1713.03
1681.39
1546.04
4702.5
5175.64
5014.49
4435.51
11233.9
12502.7
11920.9
10208
22548.4
25232
23672.6
19723.4
41661.1
46861.6
43462.3
35486.8
68216.2
76854.2
70663.8
57029.9
97016.3
109698
100232
80272
83193.9
93547.7
83990.9
67108.1
5901.25
5942.81
5939.88
5902.04
4567.36
4568.22
4568.43
4567.93
423.742
436.663
438.908
431.992
710.99
757.76
762.145
731.942
1595.99
1737.04
1729.1
1610.19
3203.61
3527.12
3455.34
3116.08
6137.08
6815.42
6573.5
5750.62
10487.5
11674
11087.3
9455.41
15668.6
17518.5
16424.9
13694.3
13830.6
15357.1
14073.9
11555.1
5576.34
5598.29
5599.75
5584.16
4444.3
4445.01
4445.09
4444.49
275.812
278.662
279.367
278.12
226.608
231.642
233.437
232.413
385.866
403.181
407.326
400.601
674.21
717.582
721.601
695.714
1214.82
1315.18
1310.87
1232.01
2021.85
2207.82
2171.35
1987.62
3042.3
3352.93
3253.46
2897.32
2922.46
3174.44
3014.17
2656.36
5316.07
5326.81
5328.93
5323.37
4321.95
4322.64
4322.69
4322.09
241.929
243.818
244.211
243.159
140.238
140.959
141.295
141.288
175.975
178.608
179.701
179.459
243.29
250.189
252.349
250.664
368.957
386.336
389.914
382.794
548.853
581.875
584.256
564.784
794.358
853.12
849.915
805.046
982.745
1027.15
1007.45
959.949
5093.88
5098.75
5100.59
5099.33
4194.83
4195.51
4195.56
4194.98
228.213
229.919
230.253
229.246
118.245
118.364
118.408
118.387
125.905
126.323
126.529
126.559
146.075
147.252
147.761
147.74
183.421
186.847
188.053
187.483
233.683
240.1
241.754
239.949
314.23
326.592
328.389
322.824
542.218
547.659
545.034
541.392
4891.94
4893.94
4895.22
4895.4
4061.28
4061.93
4061.98
4061.43
219.588
221.235
221.56
220.586
110.922
110.968
110.97
110.932
110.375
110.431
110.458
110.465
117.787
117.972
118.063
118.092
131.719
132.491
132.814
132.771
149.827
151.128
151.621
151.563
187.188
190.047
190.828
190.151
399.757
396.689
395.885
398.549
4696.87
4697.57
4698.34
4698.81
3920.99
3921.61
3921.66
3921.15
212.279
213.873
214.191
213.253
107.89
107.932
107.932
107.892
104.5
104.498
104.494
104.492
107.584
107.592
107.595
107.604
113.657
113.858
113.941
113.925
121.926
122.149
122.262
122.328
144.486
145.15
145.38
145.306
335.084
329.962
329.15
332.558
4502.37
4502.48
4502.9
4503.34
3774
3774.56
3774.61
3774.14
205.129
206.666
206.976
206.075
106.352
106.396
106.399
106.361
101.997
101.99
101.984
101.981
103.362
103.346
103.336
103.336
106.196
106.264
106.286
106.268
110.739
110.736
110.748
110.793
126.674
126.783
126.817
126.804
297.447
291.923
290.998
294.301
4305.8
4305.68
4305.9
4306.23
3620.49
3621
3621.04
3620.6
197.723
199.2
199.499
198.637
105.38
105.424
105.429
105.394
100.858
100.853
100.849
100.846
101.49
101.477
101.469
101.466
102.814
102.847
102.854
102.837
105.696
105.657
105.646
105.671
117.966
117.931
117.902
117.885
271.346
265.891
264.926
268.025
4105.95
4105.78
4105.89
4106.11
3460.75
3461.2
3461.23
3460.84
189.893
191.305
191.594
190.772
104.631
104.673
104.678
104.646
100.32
100.318
100.315
100.313
100.636
100.629
100.623
100.621
101.22
101.242
101.245
101.231
103.274
103.241
103.229
103.241
113.174
113.107
113.06
113.035
250.774
245.533
244.579
247.485
3902.23
3902.12
3902.17
3902.26
3295.15
3295.54
3295.56
3295.22
181.548
182.894
183.172
182.392
103.971
104.011
104.016
103.987
100.065
100.064
100.063
100.061
100.244
100.24
100.237
100.234
100.466
100.482
100.484
100.472
102.061
102.041
102.032
102.035
110.231
110.166
110.116
110.083
232.959
227.98
227.065
229.793
3694.45
3694.43
3694.45
3694.45
3124.17
3124.49
3124.49
3124.2
172.621
173.9
174.166
173.43
103.353
103.39
103.396
103.369
99.9506
99.9513
99.9507
99.9489
100.063
100.062
100.06
100.058
100.116
100.128
100.129
100.12
101.417
101.41
101.404
101.401
108.197
108.144
108.097
108.056
216.443
211.754
210.894
213.449
3482.71
3482.8
3482.8
3482.71
2948.38
2948.63
2948.62
2948.37
163.042
164.253
164.509
163.819
102.76
102.795
102.801
102.776
99.912
99.914
99.9138
99.9116
99.9812
99.9813
99.9802
99.9783
99.9612
99.9697
99.9701
99.9628
101.033
101.036
101.033
101.025
106.604
106.57
106.529
106.478
200.379
196.008
195.217
197.593
3267.38
3267.58
3267.58
3267.42
2768.55
2768.72
2768.69
2768.5
152.726
153.873
154.121
153.479
102.194
102.227
102.233
102.209
99.9149
99.9183
99.9184
99.9155
99.9463
99.9472
99.9466
99.945
99.9004
99.906
99.9058
99.9003
100.755
100.765
100.764
100.753
105.21
105.199
105.164
105.104
184.211
180.212
179.508
181.682
3049.16
3049.44
3049.45
3049.24
2585.7
2585.78
2585.74
2585.6
141.57
142.663
142.907
142.308
101.651
101.683
101.688
101.665
99.9366
99.9411
99.9415
99.9381
99.9365
99.9377
99.9375
99.9364
99.8865
99.8895
99.889
99.8855
100.505
100.519
100.519
100.508
103.88
103.893
103.868
103.801
167.515
164.007
163.413
165.325
2829.1
2829.43
2829.45
2829.22
2401
2400.99
2400.93
2400.86
129.393
130.446
130.686
130.122
101.143
101.172
101.175
101.153
99.9577
99.9626
99.9631
99.9598
99.9441
99.9454
99.9455
99.9448
99.9009
99.9019
99.9015
99.8999
100.262
100.275
100.277
100.267
102.561
102.585
102.569
102.51
149.598
146.655
146.213
147.847
2608.5
2608.87
2608.89
2608.64
2214.93
2214.78
2214.72
2214.77
115.761
116.744
116.95
116.417
100.669
100.685
100.686
100.671
99.972
99.9751
99.9756
99.9736
99.9692
99.9701
99.9703
99.9701
99.9394
99.9393
99.939
99.9388
100.073
100.08
100.082
100.077
101.294
101.301
101.293
101.269
128.31
126.289
126.053
127.21
2388.09
2388.47
2388.48
2388.22
6102.91
5441.37
5172.26
5076.32
5021.59
4983.16
4957.67
4943.44
4935.49
4930.76
797080
192586
33308.6
11691.7
5278.24
2822.93
1740.69
1206.59
923.911
761.629
1.42169e+06
246046
44131.8
15077.8
6747.83
3619.94
2189.21
1452.69
1042.54
798.416
1.99165e+06
238365
46627
14963
6454.25
3373.99
1989.86
1290.52
908.075
684.92
2.45279e+06
251881
48786.6
14505.7
6070.92
3086.68
1782.72
1138.59
791.658
593.997
2.92416e+06
275660
50988.4
13922
5614.09
2755.43
1553.99
976.666
674.559
506.41
3.30592e+06
294227
51848.6
13114.5
5137.56
2457.04
1369.8
858.089
593.573
449.13
3.39035e+06
286730
47569.8
10965.1
4148.62
1939.31
1089.11
698.141
501.691
394.068
2.33722e+06
181752
27303.1
5695.72
2269.7
1235.59
856.817
670.94
567.785
506.429
6013.36
5990.23
5844.66
5820.37
5777.1
5752.93
5733.77
5723.62
5716.79
5710.9
5441.56
5174.22
5044.59
4972.11
4926.61
4896.65
4877.26
4865.79
4859.59
4855.65
179853
44808.3
13594.5
5314
2629.49
1562.7
1061.68
799.842
654.143
570.483
374933
86242.5
23430.6
8275.21
3878.92
2180.57
1378.69
952.375
707.806
563.197
593767
125959
30636.5
9627.01
4214.16
2252.72
1366.78
911.899
658.788
513.302
828634
164611
36333.3
10385.7
4301.56
2210.61
1304.62
853.96
607.986
470.278
1.10771e+06
206755
41644
10828.5
4230.77
2082.64
1193.67
765.84
540.199
417.233
1.38643e+06
243934
45235.7
10814.3
4040.24
1931.42
1091.41
697.134
491.798
382.073
1.56174e+06
258178
43887.3
9521.96
3383.44
1579.58
897.766
586.186
429.049
345.316
1.18021e+06
178378
26789.4
5235.6
1962.14
1089.47
770.692
614.687
526.311
476.231
6249.5
5950.04
5790.18
5731.52
5680.8
5650.16
5627.97
5614.47
5604.97
5596.71
4903.29
4868.63
4841.21
4818.42
4800.61
4787.71
4779.14
4774.01
4771.14
4769.07
9194.41
4176.61
2299.7
1432.6
984.631
734.892
590.241
504.046
451.458
419.706
23984.3
9564.78
4650.18
2545.26
1539.94
1008.2
710.934
536.885
429.86
363.584
45393.6
15951.7
6931.69
3405.49
1893.8
1155.66
769.093
553.915
427.208
351.654
73495
22871.5
8995.2
4045.73
2113.04
1228.06
789.009
554.803
420.297
342.379
111891
30987.4
11014.1
4534.19
2227.31
1232.44
764.462
524.619
392.491
318.323
155793
38787
12541.7
4778.39
2243.34
1201.54
732.294
499.167
372.663
303.071
191167
42771.1
12483
4369.84
1967.71
1033.23
634.457
442.094
341.268
285.94
141358
27682.7
7283.14
2540.33
1305.02
841.674
642.077
536.251
472.853
436.348
6015.32
5833.07
5708.68
5635.01
5582.06
5549.05
5526.13
5510.54
5499.02
5489.08
4712.41
4704.13
4694.98
4686.74
4680.49
4676.25
4673.61
4672.27
4671.93
4671.51
1208.79
907.692
709.852
570.991
479.407
420.695
382.992
358.219
341.55
331.299
3030.09
1921.63
1271.73
861.16
612.225
460.54
366.697
307.13
267.703
241.822
6220.36
3482.17
2057.24
1251.09
811.645
563.6
419.353
332.431
277.782
243.506
10740.1
5347.55
2874.36
1607.16
976.323
642.521
459.05
353.764
289.351
250.047
17328.9
7655.76
3752.89
1933.35
1101.66
687.007
471.33
352.958
283.947
243.321
25185.7
9926.75
4483.39
2158.22
1174.66
707.377
475.1
352.123
281.535
240.746
32045.3
11212.9
4643.35
2087.24
1096.75
650.804
440.587
332.473
272.556
238.032
23487.1
7345.3
2952.76
1439.66
904.44
662.767
542.214
472.483
427.859
401.573
5786.33
5657.94
5559.39
5495.66
5451.69
5422.9
5402.26
5387.47
5376.32
5366.85
4567.03
4565.86
4564.62
4563.65
4563.07
4562.83
4562.86
4563.25
4564.17
4564.95
413.22
383.592
357.217
335.252
318.657
306.495
297.57
290.892
285.79
282.597
638.528
513.514
412.451
334.883
279.863
241.911
215.956
198.025
185.078
176.003
1288
926.969
666.59
486.168
369.531
294.619
246.319
214.672
193.254
179.082
2275.78
1481.4
972.427
651.785
461.934
348.142
279.133
236.349
208.118
189.823
3811.43
2238.14
1343.94
828.358
547.324
389.289
298.828
245.32
211.912
191.139
5695.72
3037.59
1690.98
974.9
612.781
419.679
314.305
254.414
217.507
194.891
7445.75
3589.22
1854.27
1008.49
614.736
416.017
312.845
255.655
221.696
201.045
5647.29
2628.79
1431.99
902.113
664.861
538.852
466.598
421.106
389.973
371.255
5533.25
5457.29
5392.15
5345.87
5312.04
5287.85
5269.65
5256
5245.47
5236.66
4444.21
4444.37
4444.67
4445.14
4445.74
4446.38
4447.04
4447.85
4449.06
4450.47
278.146
275.212
271.712
268.213
265.124
262.509
260.317
258.445
256.811
255.547
226.19
211.239
195.263
180.831
169.22
160.385
153.826
148.923
144.993
142.025
373.423
322.186
273.405
233.333
203.539
182.159
166.981
156.144
148.208
142.698
613.244
488.023
381.774
302.507
248.453
212.332
188.275
172.104
160.456
152.421
1012.47
736.857
528.187
385.662
295.982
239.786
204.405
181.686
166.354
156.3
1519.89
1020.31
679.158
464.433
338.985
264.645
220.04
192.599
174.224
162.26
2040.91
1262.93
787.214
512.478
363.914
280.369
232.352
203.398
184.867
173.029
1809.5
1178.95
822.87
627.587
519.165
452.34
408.952
379.462
357.966
344.813
5301.17
5259.57
5219.82
5188
5162.63
5142.95
5127.43
5115.32
5105.75
5097.87
4321.91
4322.2
4322.65
4323.26
4323.95
4324.63
4325.29
4326.06
4327.2
4328.66
244.34
244.207
243.845
243.341
242.794
242.234
241.668
241.072
240.426
239.674
140.773
138.749
136.166
133.543
131.239
129.359
127.881
126.695
125.585
124.655
176.652
168.394
158.763
149.7
142.129
136.104
131.392
127.715
124.808
122.725
241.592
220.097
197.458
178.069
163.155
152.101
144.01
138.103
133.419
129.988
355.4
303.317
254.113
215.378
187.688
168.362
154.919
145.502
138.622
133.916
503.078
403.416
317.206
254.661
212.998
185.493
167.245
155.038
146.105
139.949
679.49
511.769
381.219
293.969
239.62
205.35
183.437
169.035
159.133
152.557
824.73
673.618
558.049
480.509
428.309
391.707
365.327
346.161
331.366
322.166
5089.82
5067.97
5044.22
5022.68
5004.03
4988.53
4975.76
4965.45
4957.09
4950.32
4194.79
4195.01
4195.34
4195.8
4196.31
4196.82
4197.29
4197.85
4198.78
4200.05
230.56
230.8
230.894
230.888
230.814
230.678
230.477
230.187
229.785
229.153
118.386
118.137
117.762
117.34
116.954
116.642
116.409
116.215
115.942
115.659
126.189
124.651
122.567
120.367
118.331
116.548
115.023
113.735
112.654
111.874
146.592
142.516
137.451
132.568
128.384
124.967
122.239
120.1
118.226
116.773
183.451
172.601
160.512
149.698
140.988
134.225
129.046
125.113
122.034
119.878
231.242
210.084
187.895
169.533
155.659
145.439
137.958
132.549
128.236
125.113
302.185
263.263
226.626
198.416
178.251
163.992
153.913
146.756
141.528
137.974
514.557
471.76
429.578
395.697
369.038
348.279
331.981
319.446
309.265
302.855
4890.75
4879
4864.65
4850.23
4836.84
4825.07
4814.97
4806.54
4799.53
4793.94
4061.22
4061.37
4061.58
4061.88
4062.22
4062.53
4062.81
4063.16
4063.86
4064.92
221.885
222.154
222.296
222.356
222.354
222.292
222.159
221.929
221.565
220.935
110.976
110.973
110.955
110.93
110.92
110.936
110.978
111.018
110.973
110.884
110.396
110.053
109.532
108.928
108.322
107.749
107.223
106.749
106.335
106.042
117.916
117.044
115.81
114.497
113.266
112.178
111.25
110.483
109.733
109.114
131.952
129.317
126.051
122.78
119.855
117.363
115.296
113.62
112.237
111.268
150.246
145.307
139.198
133.489
128.645
124.706
121.571
119.157
117.071
115.492
185.778
175.52