/*--------------------------------*- C++ -*----------------------------------*\
| =========                 |                                                 |
| \\      /  F ield         | foam-extend: Open Source CFD                    |
|  \\    /   O peration     | Version:     4.0                                |
|   \\  /    A nd           | Web:         http://www.foam-extend.org         |
|    \\/     M anipulation  |                                                 |
\*---------------------------------------------------------------------------*/
FoamFile
{
    version     2.0;
    format      ascii;
    class       volScalarField;
    location    "1250";
    object      p;
}
// * * * * * * * * * * * * * * * * * * * * * * * * * * * * * * * * * * * * * //

dimensions      [1 -1 -2 0 0 0 0];

internalField   nonuniform List<scalar> 
34480
(
108028
107928
107888
107902
107986
108166
108508
109188
110150
110491
107889
107789
107748
107758
107837
108011
108347
109014
110044
110011
107744
107641
107600
107601
107665
107810
108105
108703
109729
109145
107663
107559
107512
107501
107542
107643
107881
108380
109338
108177
107572
107457
107403
107375
107391
107448
107627
108022
108877
107175
107579
107465
107406
107370
107367
107387
107510
107797
108512
106286
107477
107351
107285
107238
107219
107209
107284
107472
108028
105345
107559
107439
107378
107345
107342
107343
107403
107519
107893
104745
107457
107331
107264
107228
107225
107236
107287
107345
107514
103996
107550
107437
107425
107491
107629
107818
108059
108292
108460
104459
108784
108660
108614
108638
108743
108945
109279
109806
110618
111683
108578
108446
108398
108424
108536
108760
109145
109796
110934
112534
108374
108237
108189
108209
108316
108532
108925
109628
111005
112987
108239
108098
108043
108052
108143
108334
108704
109398
110914
113147
108105
107952
107890
107882
107951
108108
108440
109089
110674
113052
108075
107921
107852
107833
107885
108009
108296
108877
110465
112875
107943
107779
107702
107670
107704
107797
108040
108546
110091
112474
108003
107842
107767
107744
107784
107878
108102
108541
109990
112254
107887
107723
107641
107609
107640
107726
107932
108323
109626
111811
107968
107815
107775
107820
107953
108163
108493
108987
110238
112218
109348
109234
109195
109223
109325
109510
109794
110194
110724
111334
109134
109002
108957
108992
109115
109345
109708
110250
111063
112069
108911
108767
108722
108757
108887
109134
109542
110189
111283
112709
108745
108593
108541
108568
108694
108941
109367
110074
111391
113197
108583
108418
108359
108373
108486
108716
109139
109864
111348
113481
108523
108355
108289
108294
108394
108604
109010
109723
111319
113702
108367
108188
108116
108108
108194
108380
108762
109447
111106
113685
108405
108230
108157
108155
108244
108428
108798
109450
111110
113799
108277
108098
108019
108009
108084
108253
108604
109231
110830
113635
108344
108173
108123
108167
108312
108563
108989
109682
111245
114049
109742
109654
109623
109646
109726
109864
110062
110314
110607
110887
109562
109445
109406
109438
109547
109741
110029
110419
110924
111443
109360
109222
109179
109214
109340
109569
109924
110437
111190
112027
109191
109037
108985
109018
109150
109398
109804
110417
111412
112596
109022
108851
108792
108815
108943
109193
109625
110304
111512
113037
108947
108769
108702
108718
108839
109084
109526
110243
111627
113462
108777
108587
108514
108520
108631
108863
109302
110034
111555
113675
108799
108611
108537
108546
108660
108892
109332
110068
111669
114014
108660
108469
108390
108392
108496
108718
109146
109884
111496
114069
108713
108529
108469
108510
108663
108940
109418
110203
111807
114522
110012
109951
109929
109946
110002
110095
110222
110374
110534
110672
109877
109785
109753
109780
109866
110014
110223
110486
110789
111065
109717
109596
109557
109589
109699
109891
110174
110551
111032
111505
109562
109420
109371
109404
109528
109754
110103
110591
111276
111997
109403
109238
109181
109209
109338
109581
109977
110554
111440
112433
109324
109149
109083
109107
109236
109488
109915
110560
111634
112899
109151
108961
108889
108905
109030
109280
109724
110417
111655
113193
109164
108973
108899
108918
109047
109303
109762
110488
111850
113632
109018
108822
108745
108758
108882
109134
109594
110346
111773
113813
109059
108870
108805
108845
109001
109291
109786
110580
112030
114267
110198
110158
110144
110155
110191
110250
110327
110413
110499
110566
110104
110037
110013
110032
110095
110200
110342
110510
110688
110837
109991
109893
109861
109887
109975
110125
110336
110601
110903
111171
109861
109738
109695
109725
109832
110022
110303
110671
111128
111561
109722
109573
109522
109550
109669
109888
110225
110687
111310
111938
109651
109487
109426
109452
109579
109817
110200
110743
111533
112373
109482
109300
109233
109254
109383
109630
110045
110654
111602
112669
109494
109308
109237
109261
109396
109656
110096
110758
111842
113125
109345
109153
109079
109100
109232
109493
109946
110650
111828
113356
109379
109191
109125
109164
109319
109607
110086
110830
112052
113768
110328
110304
110295
110302
110324
110359
110404
110453
110498
110533
110266
110220
110203
110216
110259
110329
110421
110525
110629
110711
110198
110123
110098
110118
110184
110294
110444
110623
110812
110968
110095
109994
109959
109983
110071
110222
110435
110701
111003
111268
109983
109855
109811
109836
109940
110124
110396
110750
111179
111579
109925
109779
109725
109752
109867
110078
110402
110837
111404
111957
109768
109602
109541
109564
109686
109915
110280
110788
111491
112218
109784
109611
109545
109572
109703
109949
110347
110917
111745
112649
109635
109454
109385
109410
109542
109795
110213
110832
111759
112866
109667
109488
109424
109460
109608
109881
110322
110979
111958
113216
110424
110409
110405
110408
110422
110442
110467
110494
110519
110536
110382
110352
110340
110349
110377
110422
110479
110542
110602
110647
110352
110298
110280
110294
110341
110418
110520
110637
110754
110845
110273
110195
110167
110186
110254
110368
110523
110709
110906
111070
110190
110086
110049
110071
110156
110303
110513
110773
111065
111321
110150
110026
109979
110003
110103
110280
110541
110876
111276
111641
110007
109861
109808
109831
109941
110141
110446
110852
111362
111856
110032
109878
109819
109846
109966
110187
110530
110997
111614
112241
109886
109722
109660
109686
109810
110042
110408
110926
111630
112411
109919
109756
109695
109730
109865
110113
110500
111053
111808
112701
110498
110489
110487
110489
110497
110508
110522
110537
110550
110559
110466
110448
110440
110446
110463
110491
110526
110564
110598
110623
110467
110430
110417
110427
110459
110511
110578
110652
110724
110777
110407
110349
110328
110342
110392
110474
110584
110710
110837
110938
110352
110270
110241
110258
110325
110438
110593
110779
110974
111137
110328
110228
110190
110210
110292
110434
110636
110885
111162
111402
110202
110079
110034
110055
110149
110316
110560
110872
111235
111569
110240
110108
110057
110082
110187
110376
110658
111026
111475
111905
110098
109954
109900
109925
110036
110238
110545
110961
111481
112019
110135
109991
109937
109968
110087
110303
110629
111076
111641
112259
110558
110553
110552
110553
110557
110563
110571
110579
110586
110591
110530
110519
110514
110517
110528
110545
110566
110588
110608
110622
110555
110530
110521
110527
110549
110583
110626
110672
110715
110746
110507
110466
110450
110460
110495
110553
110627
110711
110792
110855
110476
110414
110392
110405
110455
110538
110650
110778
110908
111011
110468
110389
110359
110376
110440
110550
110701
110880
111069
111225
110356
110257
110220
110238
110315
110448
110637
110869
111123
111345
110410
110301
110259
110281
110369
110524
110747
111027
111346
111636
110271
110149
110104
110126
110221
110390
110638
110959
111334
111698
110316
110194
110148
110174
110275
110456
110721
111068
111480
111899
110608
110605
110605
110605
110608
110611
110616
110620
110624
110626
110579
110572
110570
110572
110578
110588
110600
110613
110625
110633
110623
110607
110601
110605
110619
110640
110667
110695
110721
110739
110580
110552
110541
110547
110571
110610
110660
110715
110766
110805
110570
110525
110509
110519
110555
110614
110691
110778
110863
110928
110575
110516
110493
110505
110554
110636
110745
110871
110997
111098
110476
110398
110370
110384
110444
110547
110688
110855
111029
111176
110546
110460
110426
110444
110515
110637
110807
111014
111236
111428
110408
110309
110273
110291
110369
110504
110697
110937
111202
111445
110464
110364
110326
110347
110431
110576
110783
111045
111338
111616
110653
110651
110651
110651
110652
110654
110657
110659
110661
110662
110617
110614
110612
110613
110617
110623
110630
110638
110645
110650
110678
110667
110664
110666
110675
110688
110705
110721
110737
110747
110634
110615
110608
110612
110628
110654
110686
110721
110753
110777
110641
110610
110599
110606
110631
110671
110724
110781
110836
110876
110655
110612
110596
110605
110640
110699
110776
110862
110946
111010
110567
110508
110487
110498
110543
110619
110721
110839
110956
111052
110653
110588
110562
110576
110630
110723
110849
110997
111149
111274
110514
110436
110407
110422
110483
110588
110732
110907
111090
111250
110583
110504
110473
110491
110556
110669
110826
111017
111221
111403
110692
110691
110691
110691
110692
110693
110694
110696
110697
110697
110648
110646
110645
110645
110648
110651
110656
110660
110664
110668
110723
110717
110715
110717
110722
110730
110740
110749
110758
110763
110674
110662
110657
110659
110669
110686
110707
110729
110749
110764
110696
110675
110667
110671
110688
110716
110750
110788
110822
110847
110715
110685
110673
110680
110705
110745
110798
110856
110910
110951
110634
110592
110576
110584
110617
110671
110742
110823
110901
110963
110737
110689
110670
110681
110721
110789
110879
110982
111084
111164
110592
110533
110512
110523
110569
110647
110752
110875
110999
111103
110677
110617
110594
110607
110657
110741
110856
110991
111129
111247
110729
110728
110729
110728
110729
110729
110730
110731
110731
110731
110671
110670
110669
110670
110671
110673
110676
110679
110681
110684
110763
110759
110758
110760
110763
110767
110773
110778
110783
110785
110704
110695
110692
110693
110700
110710
110723
110737
110750
110760
110737
110723
110718
110721
110732
110750
110773
110796
110817
110832
110759
110739
110730
110735
110752
110779
110814
110852
110887
110913
110684
110654
110643
110648
110671
110709
110758
110811
110862
110902
110803
110770
110756
110764
110793
110841
110903
110973
111040
111090
110648
110604
110589
110597
110631
110686
110760
110845
110927
110994
110752
110709
110691
110701
110737
110798
110879
110972
111064
111139
110765
110764
110764
110764
110765
110765
110765
110765
110765
110765
110687
110687
110686
110686
110687
110688
110690
110692
110694
110697
110799
110797
110797
110798
110800
110802
110805
110808
110811
110811
110725
110719
110717
110718
110722
110729
110737
110745
110753
110759
110768
110760
110756
110758
110766
110777
110791
110805
110818
110827
110790
110776
110771
110774
110785
110803
110826
110850
110873
110888
110720
110699
110692
110696
110711
110737
110769
110804
110835
110861
110856
110833
110824
110829
110849
110882
110924
110970
111014
111043
110685
110654
110643
110648
110672
110710
110761
110817
110870
110914
110814
110784
110771
110778
110804
110846
110902
110963
111023
111070
110804
110803
110804
110804
110804
110804
110804
110804
110804
110803
110695
110695
110694
110694
110695
110696
110697
110699
110700
110703
110832
110832
110832
110832
110833
110835
110837
110838
110839
110838
110740
110736
110735
110736
110738
110742
110747
110752
110756
110761
110791
110785
110783
110785
110789
110796
110804
110813
110821
110826
110810
110801
110797
110799
110806
110818
110832
110847
110862
110871
110745
110732
110728
110730
110741
110757
110777
110799
110818
110834
110897
110883
110876
110880
110893
110915
110943
110972
111001
111017
110705
110683
110676
110680
110695
110721
110754
110791
110824
110853
110871
110851
110842
110847
110864
110893
110930
110970
111008
111036
110859
110859
110859
110859
110859
110859
110859
110859
110858
110858
110692
110691
110691
110691
110691
110692
110693
110695
110696
110699
110861
110861
110861
110862
110862
110863
110864
110865
110865
110863
110750
110748
110747
110748
110749
110751
110754
110757
110759
110762
110804
110801
110799
110800
110803
110807
110812
110817
110822
110825
110818
110813
110810
110811
110816
110823
110832
110842
110851
110857
110763
110755
110752
110754
110761
110771
110784
110797
110808
110817
110925
110915
110911
110913
110922
110936
110954
110973
110992
111001
110708
110693
110688
110690
110701
110717
110738
110762
110782
110801
110940
110926
110920
110923
110935
110953
110978
111003
111028
111044
110956
110956
110956
110956
110956
110956
110956
110955
110954
110953
110669
110668
110668
110668
110668
110669
110670
110671
110672
110676
110878
110878
110877
110877
110877
110878
110879
110879
110880
110879
110756
110756
110756
110756
110757
110758
110760
110761
110762
110763
110808
110806
110805
110805
110807
110809
110813
110816
110819
110821
110817
110813
110811
110812
110815
110819
110825
110831
110837
110841
110772
110768
110767
110768
110772
110778
110786
110794
110800
110805
110927
110920
110916
110918
110923
110932
110944
110957
110971
110976
110684
110675
110672
110673
110680
110691
110704
110718
110730
110743
111043
111034
111030
111032
111039
111051
111067
111083
111100
111108
111121
111121
111121
111120
111120
111120
111120
111120
111120
111120
110612
110612
110613
110614
110614
110614
110614
110614
110614
110616
110869
110867
110866
110865
110864
110865
110866
110868
110871
110872
110763
110763
110763
110764
110765
110765
110766
110767
110766
110766
110806
110805
110804
110804
110805
110807
110809
110811
110814
110816
110810
110808
110806
110807
110809
110812
110815
110820
110824
110827
110777
110774
110774
110775
110777
110782
110787
110792
110795
110797
110888
110882
110879
110880
110883
110890
110898
110907
110918
110925
110621
110617
110615
110617
110622
110629
110638
110646
110652
110658
111203
111197
111193
111195
111200
111208
111219
111230
111243
111248
111307
111304
111303
111302
111302
111302
111303
111304
111307
111311
110532
110537
110541
110543
110544
110544
110543
110540
110535
110528
110838
110834
110832
110831
110831
110831
110833
110835
110839
110844
110772
110772
110773
110774
110774
110775
110775
110775
110775
110773
110805
110803
110803
110803
110803
110805
110807
110809
110811
110813
110807
110805
110804
110804
110805
110808
110811
110815
110818
110821
110783
110781
110780
110781
110784
110787
110792
110796
110799
110800
110829
110823
110820
110821
110824
110829
110836
110844
110853
110862
110541
110539
110539
110540
110544
110550
110558
110564
110567
110564
111373
111368
111366
111367
111371
111378
111387
111397
111406
111411
122742
123956
123780
122509
125966
127373
126973
125354
128901
130487
129900
127913
131058
132761
131988
129722
132714
134495
133549
131079
134057
135898
134945
132354
134979
136852
136030
133372
135800
137678
137019
134323
135717
137568
137052
134364
135309
137147
136889
134354
113056
113245
113284
113165
115336
115708
115766
115477
117584
118137
118196
117688
119715
120435
120481
119728
121658
122514
122529
121519
123503
124468
124448
123222
125032
126081
126031
124646
126532
127640
127572
126078
127312
128451
128381
126835
127961
129135
129113
127615
111855
111944
111972
111945
113175
113343
113382
113316
114621
114887
114940
114811
116090
116461
116522
116309
117505
117980
118038
117721
118973
119549
119600
119166
120258
120926
120967
120414
121635
122379
122409
121743
122454
123245
123269
122508
123273
124101
124142
123326
111003
111026
111037
111037
111753
111806
111826
111819
112666
112770
112804
112779
113690
113858
113907
113853
114709
114950
115012
114914
115831
116150
116222
116066
116829
117225
117304
117080
117982
118450
118532
118234
118694
119212
119299
118936
119470
120030
120134
119731
110718
110728
110733
110733
111187
111211
111222
111222
111765
111815
111834
111830
112465
112549
112580
112570
113183
113309
113354
113330
114014
114191
114248
114204
114745
114975
115045
114971
115661
115944
116023
115912
116237
116561
116653
116509
116914
117275
117385
117218
110584
110588
110590
110591
110885
110894
110899
110901
111275
111295
111305
111307
111762
111800
111819
111821
112277
112340
112369
112369
112901
112996
113037
113031
113433
113563
113616
113600
114158
114326
114389
114358
114616
114813
114890
114846
115168
115392
115484
115427
110541
110543
110544
110545
110735
110739
110742
110742
111018
111027
111033
111034
111364
111383
111394
111397
111742
111775
111792
111797
112218
112270
112297
112301
112604
112678
112714
112717
113182
113280
113326
113324
113530
113649
113706
113699
113963
114100
114166
114154
110541
110542
110542
110542
110660
110662
110663
110664
110871
110875
110878
110879
111120
111130
111136
111138
111406
111423
111434
111437
111779
111807
111823
111828
112059
112101
112124
112131
112525
112582
112613
112619
112771
112843
112881
112885
113108
113191
113235
113237
110562
110562
110562
110562
110630
110631
110632
110633
110791
110794
110795
110796
110967
110972
110976
110977
111185
111195
111201
111203
111480
111496
111506
111510
111682
111707
111721
111727
112064
112097
112117
112123
112221
112264
112289
112295
112487
112538
112566
112571
110592
110593
110593
110593
110626
110627
110627
110627
110754
110756
110756
110757
110871
110875
110877
110878
111039
111044
111048
111050
111271
111281
111287
111290
111412
111426
111435
111439
111728
111749
111761
111765
111816
111843
111858
111863
112031
112062
112080
112084
110627
110627
110627
110627
110636
110636
110636
110636
110744
110744
110745
110745
110815
110817
110818
110819
110944
110948
110950
110951
111127
111133
111136
111138
111216
111225
111231
111233
111484
111496
111504
111507
111516
111533
111542
111546
111696
111715
111726
111729
110662
110663
110663
110663
110651
110651
110652
110652
110749
110749
110750
110750
110784
110785
110786
110786
110886
110888
110889
110890
111028
111032
111034
111035
111076
111082
111085
111087
111308
111316
111321
111323
111295
111305
111311
111313
111451
111463
111470
111472
110697
110697
110697
110697
110669
110669
110669
110669
110765
110765
110765
110765
110768
110769
110770
110770
110853
110854
110855
110855
110963
110965
110967
110967
110978
110981
110984
110985
111185
111190
111193
111194
111132
111138
111142
111144
111277
111284
111288
111290
110731
110731
110731
110731
110685
110685
110685
110685
110786
110786
110786
110786
110762
110762
110763
110763
110836
110836
110837
110837
110920
110922
110923
110923
110911
110913
110914
110915
111103
111106
111108
111109
111013
111017
111020
111021
111157
111161
111164
111165
110765
110765
110765
110765
110697
110697
110697
110698
110811
110811
110811
110811
110761
110761
110761
110762
110829
110829
110830
110830
110893
110895
110895
110895
110865
110866
110867
110868
111052
111054
111055
111056
110926
110929
110931
110931
111080
111083
111084
111085
110803
110803
110803
110803
110703
110704
110704
110704
110838
110838
110838
110837
110761
110761
110761
110762
110827
110827
110828
110828
110875
110876
110876
110877
110836
110836
110837
110837
111024
111025
111026
111026
110861
110863
110864
110864
111042
111043
111044
111045
110857
110857
110857
110857
110700
110700
110700
110701
110864
110864
110864
110863
110761
110761
110762
110762
110826
110826
110826
110827
110860
110861
110861
110861
110816
110816
110816
110817
111007
111008
111008
111008
110806
110807
110808
110808
111045
111046
111046
111047
110953
110953
110953
110952
110676
110676
110676
110677
110882
110882
110882
110881
110761
110761
110761
110761
110823
110823
110823
110823
110844
110845
110845
110845
110802
110801
110801
110802
110985
110986
110986
110986
110745
110746
110746
110746
111109
111108
111109
111110
111119
111120
111119
111119
110613
110613
110613
110613
110878
110879
110880
110880
110763
110762
110762
110762
110817
110818
110818
110818
110830
110830
110830
110830
110793
110792
110792
110792
110938
110941
110942
110941
110654
110653
110653
110654
111253
111253
111254
111255
111312
111312
111313
111313
110512
110509
110508
110508
110854
110856
110857
110857
110770
110769
110768
110768
110815
110815
110815
110815
110823
110823
110823
110823
110795
110794
110794
110795
110880
110884
110885
110883
110540
110534
110534
110537
111433
111436
111436
111433
116135
113624
111702
110416
109612
109093
108738
108489
108309
108173
117191
114013
111648
110249
109425
108901
108552
108311
108143
108018
117549
114048
111375
110056
109233
108715
108366
108124
107961
107854
117527
113939
111041
109888
109083
108598
108265
108037
107879
107772
117235
113711
110725
109700
108903
108453
108135
107920
107770
107675
116857
113576
110547
109656
108859
108448
108140
107937
107791
107688
116209
113312
110248
109496
108690
108320
108017
107824
107680
107585
115783
113331
110234
109624
108804
108468
108158
107961
107804
107684
115057
112996
109920
109489
108693
108404
108085
107884
107720
107591
115496
113693
110590
110185
109266
108873
108442
108152
107918
107719
112610
111867
111208
110656
110202
109832
109533
109293
109100
108950
114229
112867
111735
110882
110240
109758
109395
109118
108906
108747
115522
113573
112035
110961
110176
109612
109203
108902
108680
108530
116502
114055
112177
110974
110106
109510
109085
108778
108553
108399
117119
114313
112164
110884
109965
109360
108933
108630
108407
108260
117587
114554
112189
110878
109928
109330
108907
108610
108389
108236
117729
114579
112036
110730
109760
109179
108759
108470
108250
108102
117936
114777
112097
110832
109851
109289
108867
108574
108346
108177
117715
114578
111852
110695
109743
109213
108784
108485
108249
108071
118121
115091
112328
111192
110165
109561
109055
108691
108407
108178
111789
111475
111122
110783
110477
110210
109980
109787
109626
109496
112958
112318
111650
111072
110599
110217
109909
109660
109460
109305
114150
113102
112079
111258
110621
110133
109757
109466
109242
109083
115255
113772
112416
111403
110643
110082
109662
109344
109102
108929
116174
114261
112598
111430
110576
109968
109521
109190
108939
108766
117040
114727
112791
111509
110585
109950
109488
109152
108896
108714
117632
114962
112786
111425
110450
109801
109332
108994
108735
108557
118278
115321
112953
111555
110546
109895
109417
109072
108806
108609
118447
115273
112817
111457
110458
109817
109327
108973
108697
108492
118951
115691
113189
111824
110769
110074
109531
109131
108822
108581
111015
110919
110784
110632
110475
110324
110184
110057
109946
109852
111745
111518
111230
110937
110660
110409
110189
109999
109839
109709
112608
112174
111666
111189
110769
110412
110115
109871
109673
109525
113536
112848
112098
111438
110883
110433
110071
109782
109552
109380
114392
113415
112411
111580
110908
110383
109973
109653
109401
109219
115278
113995
112740
111759
110988
110407
109962
109621
109354
109157
115966
114370
112874
111765
110914
110292
109821
109467
109189
108990
116754
114867
113157
111955
111043
110392
109901
109531
109243
109027
117128
114993
113152
111914
110976
110310
109801
109419
109121
108897
117733
115422
113483
112197
111207
110499
109951
109537
109216
108967
110725
110685
110623
110548
110465
110380
110297
110219
110148
110087
111195
111100
110962
110805
110643
110485
110338
110205
110089
109991
111772
111579
111323
111050
110786
110543
110327
110140
109981
109858
112463
112137
111729
111320
110944
110613
110329
110090
109891
109737
113148
112655
112071
111520
111033
110621
110278
109997
109766
109594
113914
113225
112452
111761
111171
110689
110298
109984
109730
109536
114538
113631
112660
111837
111155
110615
110185
109845
109572
109370
115305
114175
113017
112081
111322
110735
110272
109909
109621
109400
115741
114406
113107
112094
111281
110660
110171
109792
109492
109263
116339
114826
113413
112331
111466
110807
110287
109883
109566
109319
110588
110570
110542
110505
110462
110416
110369
110324
110281
110244
110892
110849
110782
110698
110606
110511
110419
110332
110253
110186
111289
111202
111071
110918
110757
110599
110450
110315
110197
110103
111786
111632
111412
111169
110924
110693
110483
110298
110138
110010
112307
112061
111731
111382
111047
110742
110473
110242
110046
109895
112927
112567
112108
111648
111221
110846
110524
110253
110027
109850
113437
112940
112338
111763
111248
110809
110440
110136
109885
109694
114116
113469
112722
112040
111444
110949
110540
110207
109937
109725
114528
113731
112857
112085
111424
110885
110444
110092
109806
109586
115049
114114
113138
112295
111584
111008
110541
110167
109868
109633
110543
110534
110520
110501
110478
110454
110428
110402
110378
110356
110738
110716
110681
110635
110583
110527
110470
110416
110365
110321
111025
110981
110910
110822
110724
110623
110524
110431
110347
110280
111382
111303
111181
111034
110877
110721
110572
110435
110314
110214
111772
111644
111455
111236
111010
110792
110590
110410
110253
110129
112261
112069
111797
111497
111197
110917
110664
110444
110254
110101
112655
112381
112013
111623
111248
110907
110606
110349
110131
109961
113228
112861
112388
111909
111460
111063
110721
110432
110191
109999
113568
113098
112524
111962
111450
111008
110633
110322
110064
109861
113991
113430
112777
112154
111596
111120
110720
110390
110120
109904
110541
110537
110530
110520
110508
110494
110480
110466
110452
110440
110662
110650
110631
110606
110576
110544
110510
110477
110446
110417
110875
110851
110811
110759
110700
110636
110573
110511
110455
110409
111131
111088
111017
110928
110828
110725
110623
110526
110438
110364
111426
111356
111243
111105
110955
110804
110659
110524
110404
110307
111811
111705
111540
111345
111139
110936
110746
110574
110423
110297
112105
111951
111724
111463
111196
110941
110706
110499
110318
110174
112579
112368
112069
111740
111412
111107
110833
110594
110390
110223
112828
112551
112180
111786
111404
111057
110751
110490
110267
110089
113166
112833
112405
111962
111541
111164
110836
110557
110323
110133
110562
110560
110556
110550
110544
110537
110529
110521
110513
110507
110631
110625
110615
110601
110584
110565
110545
110526
110507
110489
110793
110780
110757
110726
110690
110651
110611
110571
110535
110505
110973
110948
110907
110852
110789
110722
110654
110588
110526
110473
111197
111156
111088
111001
110903
110800
110698
110601
110513
110441
111501
111439
111337
111211
111071
110929
110790
110661
110545
110447
111715
111624
111482
111308
111122
110937
110761
110600
110456
110340
112104
111980
111790
111567
111334
111107
110896
110707
110541
110402
112268
112104
111866
111596
111320
111058
110818
110607
110422
110272
112538
112340
112064
111757
111450
111163
110903
110676
110482
110321
110592
110591
110589
110586
110583
110579
110575
110570
110566
110562
110627
110624
110618
110610
110600
110589
110578
110566
110555
110544
110755
110747
110733
110715
110694
110670
110645
110620
110597
110579
110876
110861
110836
110803
110763
110720
110676
110632
110590
110553
111046
111022
110980
110925
110861
110792
110723
110655
110592
110540
111284
111247
111184
111102
111009
110911
110813
110719
110633
110559
111433
111378
111288
111174
111046
110915
110786
110666
110556
110466
111755
111680
111560
111411
111249
111085
110928
110783
110653
110541
111849
111751
111599
111416
111222
111029
110848
110683
110536
110414
112068
111949
111773
111564
111346
111134
110936
110758
110602
110471
110627
110626
110625
110624
110622
110620
110617
110615
110612
110611
110636
110634
110631
110627
110621
110615
110608
110602
110595
110588
110744
110739
110731
110720
110707
110693
110677
110662
110648
110637
110818
110809
110794
110774
110749
110722
110693
110664
110637
110612
110949
110934
110908
110873
110832
110787
110740
110694
110651
110615
111135
111112
111072
111020
110958
110892
110824
110758
110697
110642
111230
111196
111139
111064
110978
110887
110796
110708
110627
110559
111501
111455
111378
111280
111169
111054
110940
110833
110735
110649
111538
111478
111381
111259
111125
110988
110854
110730
110616
110522
111720
111649
111536
111397
111246
111093
110947
110812
110691
110588
110662
110662
110661
110661
110660
110658
110657
110656
110654
110654
110652
110651
110649
110647
110644
110640
110636
110632
110628
110623
110749
110746
110741
110735
110727
110718
110709
110699
110691
110686
110786
110781
110771
110759
110744
110727
110709
110690
110672
110656
110889
110880
110863
110841
110815
110786
110755
110725
110696
110672
111033
111019
110994
110960
110920
110876
110831
110785
110742
110704
111085
111064
111027
110979
110922
110860
110797
110735
110676
110628
111319
111291
111241
111177
111103
111024
110944
110867
110796
110731
111309
111271
111209
111129
111038
110942
110847
110756
110671
110600
111467
111423
111352
111260
111158
111051
110946
110848
110757
110679
110697
110697
110697
110696
110696
110695
110694
110694
110693
110693
110669
110669
110668
110667
110665
110663
110660
110658
110656
110652
110764
110762
110759
110755
110750
110745
110740
110734
110729
110727
110770
110767
110761
110754
110744
110734
110722
110711
110699
110688
110854
110848
110838
110825
110808
110789
110770
110750
110731
110716
110966
110957
110941
110920
110894
110865
110835
110805
110776
110749
110984
110971
110947
110916
110878
110837
110794
110752
110711
110677
111192
111175
111143
111102
111053
110999
110945
110891
110841
110794
111141
111117
111078
111025
110965
110899
110833
110769
110707
110656
111287
111260
111215
111156
111087
111015
110941
110871
110806
110748
110731
110731
110731
110730
110730
110730
110729
110729
110729
110729
110686
110685
110685
110684
110683
110682
110681
110679
110677
110674
110785
110784
110782
110780
110777
110774
110770
110767
110764
110764
110763
110762
110758
110754
110748
110742
110735
110728
110720
110713
110837
110833
110827
110818
110808
110796
110784
110771
110759
110750
110922
110917
110907
110894
110877
110859
110839
110819
110800
110782
110915
110906
110891