/*--------------------------------*- C++ -*----------------------------------*\
| =========                 |                                                 |
| \\      /  F ield         | foam-extend: Open Source CFD                    |
|  \\    /   O peration     | Version:     4.0                                |
|   \\  /    A nd           | Web:         http://www.foam-extend.org         |
|    \\/     M anipulation  |                                                 |
\*---------------------------------------------------------------------------*/
FoamFile
{
    version     2.0;
    format      ascii;
    class       surfaceScalarField;
    location    "1250";
    object      phi;
}
// * * * * * * * * * * * * * * * * * * * * * * * * * * * * * * * * * * * * * //

dimensions      [1 0 -1 0 0 0 0];

internalField   nonuniform List<scalar> 
97302
(
-0.000109787
9.68462e-07
-0.000868756
0.000877998
-0.000119587
1.15911e-06
-0.000869765
0.000878407
-0.000129499
1.21915e-06
-0.0008703
0.000878992
-0.000140092
1.15818e-06
-0.00087035
0.000879785
-0.000152194
9.67196e-07
-0.000869909
0.000881044
-0.000167285
6.36154e-07
-0.000868755
0.00088321
-0.000188458
1.38669e-07
-0.000866281
0.000887315
-0.000222714
-5.69573e-07
-0.000860671
0.000895496
-0.000271288
-1.61147e-06
-0.000850906
0.000901092
-4.36852e-06
-0.000823446
-0.000352949
0.000909476
-0.000150908
1.64221e-06
-0.00116502
0.00117508
-0.000161166
2.007e-06
-0.00116599
0.0011754
-0.000171499
2.12654e-06
-0.00116659
0.00117602
-0.000182445
2.03576e-06
-0.00116663
0.0011767
-0.000194799
1.71992e-06
-0.00116585
0.00117745
-0.000210276
1.16794e-06
-0.00116386
0.00117881
-0.000232727
3.22431e-07
-0.00116029
0.00118255
-0.000271529
-9.11698e-07
-0.00115351
0.00119265
-0.000328298
-2.83846e-06
-0.00114123
0.00119922
-7.40173e-06
-0.00110337
-0.000432701
0.00121081
-0.000191235
1.95522e-06
-0.00146025
0.00147106
-0.00020179
2.45425e-06
-0.00146127
0.00147138
-0.000212296
2.63634e-06
-0.00146191
0.00147191
-0.000223261
2.56097e-06
-0.00146172
0.00147216
-0.000235611
2.21034e-06
-0.0014604
0.00147226
-0.000251479
1.57413e-06
-0.00145776
0.00147322
-0.000275346
5.73436e-07
-0.0014539
0.00147752
-0.000318307
-8.89808e-07
-0.00144734
0.00149028
-0.000381616
-3.26879e-06
-0.0014342
0.00149794
-9.04967e-06
-0.00138554
-0.000500594
0.00150616
-0.00023148
2.15983e-06
-0.00175149
0.00176272
-0.000242325
2.79758e-06
-0.00175274
0.00176325
-0.000253123
3.0579e-06
-0.00175364
0.00176402
-0.0002644
3.02338e-06
-0.00175366
0.00176448
-0.000277144
2.66532e-06
-0.00175251
0.0017648
-0.000293679
1.97519e-06
-0.00175011
0.00176625
-0.000318815
8.51053e-07
-0.00174658
0.00177144
-0.000364906
-7.98164e-07
-0.00174039
0.00178639
-0.000432895
-3.57736e-06
-0.00172681
0.00179511
-1.05248e-05
-0.00166704
-0.000560631
0.00179625
-0.000271622
2.39979e-06
-0.00204392
0.00205535
-0.000282635
3.10564e-06
-0.00204555
0.00205626
-0.000293599
3.40348e-06
-0.00204695
0.00205757
-0.000305067
3.38536e-06
-0.00204745
0.00205856
-0.000318097
3.02003e-06
-0.00204683
0.00205951
-0.00033513
2.29848e-06
-0.00204507
0.00206178
-0.000361268
1.10452e-06
-0.00204219
0.00206808
-0.00040989
-6.44963e-07
-0.00203671
0.00208518
-0.000481816
-3.70491e-06
-0.0020235
0.00209555
-1.17512e-05
-0.00195194
-0.000615018
0.00208637
-0.000312328
2.48342e-06
-0.00233497
0.0023467
-0.000323441
3.21401e-06
-0.00233705
0.00234806
-0.00033447
3.49999e-06
-0.00233885
0.00234978
-0.000345995
3.45468e-06
-0.00233977
0.00235122
-0.000359124
3.05542e-06
-0.00233968
0.00235277
-0.000376382
2.30185e-06
-0.00233867
0.00235593
-0.000403144
1.07641e-06
-0.00233674
0.00236353
-0.000453657
-6.86355e-07
-0.00233237
0.00238293
-0.000528885
-3.80669e-06
-0.00232069
0.00239602
-1.27248e-05
-0.00223705
-0.000665607
0.00237475
-0.000352853
2.45168e-06
-0.00262586
0.00263771
-0.000363906
3.08953e-06
-0.00262854
0.00263971
-0.000374858
3.30531e-06
-0.0026309
0.00264204
-0.000386291
3.17465e-06
-0.00263229
0.002644
-0.000399367
2.70165e-06
-0.00263279
0.00264622
-0.000416644
1.87838e-06
-0.0026326
0.0026503
-0.000443743
6.41176e-07
-0.0026318
0.00265934
-0.000495595
-1.02511e-06
-0.00262905
0.00268124
-0.000573605
-3.77214e-06
-0.00262004
0.00269801
-1.29007e-05
-0.0025241
-0.000712318
0.00266299
-0.000394649
2.07331e-06
-0.00291733
0.00292962
-0.000405752
2.52186e-06
-0.0029206
0.00293227
-0.000416701
2.55195e-06
-0.00292308
0.00293478
-0.000428083
2.21596e-06
-0.00292442
0.00293677
-0.000441025
1.54917e-06
-0.00292482
0.00293892
-0.000458026
5.48656e-07
-0.00292481
0.00294314
-0.000484853
-7.57622e-07
-0.00292472
0.00295294
-0.000536896
-2.2985e-06
-0.00292342
0.00297673
-0.000616373
-4.08781e-06
-0.00291776
0.00299756
-1.20845e-05
-0.00281136
-0.000755475
0.00294964
-0.000435861
1.09062e-06
-0.00320524
0.00321767
-0.000446535
1.15808e-06
-0.00320934
0.00322138
-0.000457085
8.68903e-07
-0.00321243
0.00322466
-0.00046816
1.37894e-07
-0.00321439
0.00322754
-0.000480927
-9.18633e-07
-0.00321559
0.00323082
-0.000497772
-2.27645e-06
-0.00321659
0.00323626
-0.000524454
-3.75057e-06
-0.00321791
0.00324759
-0.000576226
-5.06561e-06
-0.00321891
0.00327344
-0.000655643
-5.47483e-06
-0.00321565
0.00329645
-1.0169e-05
-0.00309853
-0.000792245
0.00323321
-0.000477282
-0.00347379
0.00348679
-0.000488595
-0.00347738
0.00348985
-0.000499753
-0.00347812
0.00349015
-0.000511438
-0.00347562
0.00348744
-0.000524689
-0.00347054
0.00348287
-0.000541636
-0.00346392
0.00347859
-0.000567508
-0.00345693
0.00347906
-0.000616493
-0.00345108
0.003495
-0.000689556
-0.00344757
0.00351516
-0.00333885
-0.000818528
0.00345766
1.44269e-05
9.07354e-07
-0.000860334
5.35558e-06
1.13336e-06
-0.000861828
-3.73969e-06
1.21497e-06
-0.00086242
-1.30429e-05
1.15825e-06
-0.000862205
-2.27536e-05
9.53318e-07
-0.000861152
-3.30907e-05
5.81849e-07
-0.000859
-4.42026e-05
9.70728e-09
-0.000855179
-5.55104e-05
-8.4187e-07
-0.000848521
-6.62358e-05
-2.16908e-06
-0.000838011
-3.9405e-06
-0.000821774
-6.39679e-05
1.54531e-05
1.55548e-06
-0.00115521
5.44695e-06
1.97451e-06
-0.00115682
-4.55223e-06
2.12916e-06
-0.00115751
-1.48619e-05
2.05102e-06
-0.00115721
-2.57474e-05
1.71838e-06
-0.00115573
-3.75723e-05
1.10913e-06
-0.00115257
-5.11743e-05
1.6164e-07
-0.00114684
-6.75985e-05
-1.24007e-06
-0.00113669
-8.82503e-05
-3.48354e-06
-0.00111926
-6.55007e-06
-0.00109032
-9.8698e-05
1.67768e-05
1.88643e-06
-0.00144923
6.05962e-06
2.45362e-06
-0.00145103
-4.56771e-06
2.67761e-06
-0.00145183
-1.54373e-05
2.61615e-06
-0.00145142
-2.6887e-05
2.2364e-06
-0.00144947
-3.96514e-05
1.51501e-06
-0.0014454
-5.5477e-05
3.60361e-07
-0.00143827
-7.70943e-05
-1.34892e-06
-0.00142562
-0.000108598
-4.19818e-06
-0.00140198
-8.30887e-06
-0.00135846
-0.000133919
1.79824e-05
2.1101e-06
-0.00173978
6.78529e-06
2.83349e-06
-0.00174193
-4.32343e-06
3.14433e-06
-0.001743
-1.57398e-05
3.1289e-06
-0.00174276
-2.79193e-05
2.7398e-06
-0.00174083
-4.18547e-05
1.95577e-06
-0.00173662
-5.98567e-05
6.44594e-07
-0.00172887
-8.60499e-05
-1.30651e-06
-0.00171424
-0.000127992
-4.69086e-06
-0.00168437
-9.79803e-06
-0.00162452
-0.000169016
1.90835e-05
2.36377e-06
-0.00203181
7.60426e-06
3.16445e-06
-0.0020344
-3.78065e-06
3.51878e-06
-0.00203594
-1.55284e-05
3.5257e-06
-0.0020361
-2.82326e-05
3.1334e-06
-0.00203452
-4.30712e-05
2.31997e-06
-0.00203059
-6.28203e-05
9.14164e-07
-0.00202271
-9.29006e-05
-1.18672e-06
-0.00200675
-0.000144807
-4.96464e-06
-0.00197132
-1.09467e-05
-0.00189422
-0.000201384
1.97751e-05
2.48009e-06
-0.00232243
8.12344e-06
3.31433e-06
-0.00232555
-3.38803e-06
3.66437e-06
-0.00232748
-1.52751e-05
3.65436e-06
-0.00232801
-2.82515e-05
3.23922e-06
-0.00232681
-4.36579e-05
2.40674e-06
-0.00232335
-6.46987e-05
9.65708e-07
-0.00231575
-9.79624e-05
-1.17651e-06
-0.00229912
-0.000159255
-5.10074e-06
-0.00225926
-1.17686e-05
-0.00216472
-0.00023077
2.01762e-05
2.43975e-06
-0.00261305
8.55189e-06
3.17948e-06
-0.00261678
-2.90578e-06
3.46452e-06
-0.00261924
-1.47295e-05
3.3819e-06
-0.00262019
-2.77624e-05
2.92587e-06
-0.00261944
-4.34552e-05
2.0666e-06
-0.00261657
-6.53902e-05
6.28932e-07
-0.00260953
-0.000101194
-1.47996e-06
-0.00259295
-0.000171161
-5.1538e-06
-0.00255002
-1.21517e-05
-0.00243813
-0.000256753
1.99103e-05
2.08473e-06
-0.0029041
8.28794e-06
2.63878e-06
-0.00290844
-3.06074e-06
2.76843e-06
-0.00291103
-1.47164e-05
2.53319e-06
-0.00291192
-2.7577e-05
1.96321e-06
-0.002911
-4.31667e-05
1.02456e-06
-0.00290818
-6.53668e-05
-3.75283e-07
-0.00290151
-0.000102637
-2.34456e-06
-0.00288528
-0.000180001
-5.15516e-06
-0.0028404
-1.18315e-05
-0.00271232
-0.000279359
1.93669e-05
1.09728e-06
-0.00319172
8.21723e-06
1.24175e-06
-0.00319679
-2.62368e-06
1.08305e-06
-0.0031999
-1.37685e-05
5.0061e-07
-0.00320121
-2.62704e-05
-3.75008e-07
-0.00320075
-4.1764e-05
-1.55381e-06
-0.00319851
-6.43345e-05
-2.97822e-06
-0.00319274
-0.00010293
-4.64212e-06
-0.00317801
-0.000186254
-6.11602e-06
-0.00313136
-1.00399e-05
-0.00298477
-0.000301803
1.82102e-05
-0.00346
6.80857e-06
-0.00346474
-4.08152e-06
-0.00346615
-1.51513e-05
-0.00346405
-2.7341e-05
-0.00345873
-4.22536e-05
-0.00345056
-6.38074e-05
-0.00343836
-0.000101183
-0.00341835
-0.000185907
-0.00336896
-0.00321486
-0.000319944
1.20492e-05
7.97545e-07
-0.000853694
4.45529e-06
1.03885e-06
-0.000855272
-3.25658e-06
1.12764e-06
-0.000855835
-1.09969e-05
1.06405e-06
-0.000855529
-1.86427e-05
8.41532e-07
-0.000854347
-2.59496e-05
4.4427e-07
-0.000852137
-3.23661e-05
-1.49773e-07
-0.000848613
-3.65892e-05
-9.78617e-07
-0.000843319
-3.674e-05
-2.1264e-06
-0.000835734
-3.40626e-06
-0.000826095
-2.90125e-05
1.39133e-05
1.40568e-06
-0.00114674
4.8975e-06
1.84851e-06
-0.00114861
-4.18266e-06
2.01244e-06
-0.00114931
-1.34184e-05
1.9228e-06
-0.00114884
-2.28161e-05
1.55826e-06
-0.00114705
-3.22258e-05
8.94334e-07
-0.00114361
-4.12477e-05
-1.22497e-07
-0.00113784
-4.87308e-05
-1.5646e-06
-0.00112862
-5.22138e-05
-3.64789e-06
-0.00111425
-6.0728e-06
-0.00109505
-4.4812e-05
1.60127e-05
1.7717e-06
-0.0014391
5.82296e-06
2.36985e-06
-0.00144136
-4.36412e-06
2.60388e-06
-0.00144223
-1.47444e-05
2.52447e-06
-0.00144164
-2.54138e-05
2.09389e-06
-0.00143933
-3.64362e-05
1.27708e-06
-0.00143476
-4.79268e-05
-2.08084e-08
-0.00142688
-5.94188e-05
-1.89706e-06
-0.00141379
-6.85066e-05
-4.7625e-06
-0.00139178
-8.28346e-06
-0.00135976
-6.49971e-05
1.76528e-05
2.0456e-06
-0.00172862
6.67805e-06
2.81107e-06
-0.00173139
-4.29066e-06
3.13409e-06
-0.00173256
-1.5565e-05
3.09617e-06
-0.00173206
-2.73913e-05
2.64321e-06
-0.00172956
-4.01006e-05
1.73773e-06
-0.00172437
-5.42549e-05
2.31762e-07
-0.00171496
-7.00481e-05
-1.9946e-06
-0.00169835
-8.57766e-05
-5.60417e-06
-0.0016678
-1.0231e-05
-0.00162008
-8.82755e-05
1.90461e-05
2.34418e-06
-0.00201996
7.56668e-06
3.19377e-06
-0.00202331
-3.88588e-06
3.56431e-06
-0.00202492
-1.57314e-05
3.54996e-06
-0.00202471
-2.83957e-05
3.09147e-06
-0.00202231
-4.24621e-05
2.14703e-06
-0.00201694
-5.89449e-05
5.1362e-07
-0.00200651
-7.88361e-05
-1.95662e-06
-0.00198689
-0.000101891
-6.19136e-06
-0.00194768
-1.18555e-05
-0.00188234
-0.000112142
1.9973e-05
2.50942e-06
-0.00230997
8.16141e-06
3.39694e-06
-0.00231394
-3.57002e-06
3.76771e-06
-0.00231596
-1.57352e-05
3.74379e-06
-0.00231604
-2.89178e-05
3.26817e-06
-0.0023138
-4.39506e-05
2.30739e-06
-0.00230848
-6.23343e-05
6.28252e-07
-0.00229748
-8.59655e-05
-1.94039e-06
-0.0022755
-0.000116808
-6.53033e-06
-0.00222807
-1.30665e-05
-0.00214408
-0.000136237
2.0515e-05
2.49247e-06
-0.00260016
8.6271e-06
3.28536e-06
-0.00260478
-3.14321e-06
3.59691e-06
-0.0026073
-1.53558e-05
3.51361e-06
-0.00260775
-2.87603e-05
3.02155e-06
-0.00260579
-4.4399e-05
2.0741e-06
-0.00260069
-6.42562e-05
4.3569e-07
-0.00258948
-9.11647e-05
-2.1155e-06
-0.00256586
-0.000129898
-6.67273e-06
-0.00251114
-1.38504e-05
-0.00240798
-0.000159264
2.03318e-05
2.14875e-06
-0.00289071
8.41699e-06
2.75214e-06
-0.00289599
-3.2674e-06
2.92489e-06
-0.00289868
-1.53443e-05
2.7297e-06
-0.00289906
-2.86576e-05
2.18187e-06
-0.00289685
-4.44383e-05
1.23391e-06
-0.00289156
-6.51386e-05
-2.66327e-07
-0.00288011
-9.44857e-05
-2.58357e-06
-0.00285547
-0.000140597
-6.33442e-06
-0.00279463
-1.36662e-05
-0.00267255
-0.000180555
1.97073e-05
1.17475e-06
-0.00317802
8.24745e-06
1.35157e-06
-0.00318393
-2.93423e-06
1.27244e-06
-0.00318707
-1.44663e-05
7.9897e-07
-0.00318775
-2.73506e-05
5.44092e-08
-0.00318574
-4.30604e-05
-9.82769e-07
-0.00318059
-6.45529e-05
-2.30469e-06
-0.00316921
-9.63411e-05
-4.0571e-06
-0.00314475
-0.000148804
-6.33676e-06
-0.0030789
-1.14741e-05
-0.00293522
-0.000200547
1.85444e-05
-0.00344615
7.00178e-06
-0.00345184
-4.072e-06
-0.0034538
-1.53897e-05
-0.00345194
-2.78435e-05
-0.00344622
-4.29169e-05
-0.00343647
-6.36072e-05
-0.00341997
-9.53148e-05
-0.0033907
-0.000150589
-0.00332003
-0.00316161
-0.000215312
9.35052e-06
6.29852e-07
-0.000848892
3.48642e-06
8.74525e-07
-0.000850283
-2.56108e-06
9.67284e-07
-0.000850755
-8.51909e-06
9.01944e-07
-0.000850472
-1.40811e-05
6.77098e-07
-0.000849463
-1.88247e-05
2.83834e-07
-0.000847677
-2.21076e-05
-2.84816e-07
-0.000845045
-2.28915e-05
-1.0312e-06
-0.000841504
-1.95935e-05
-1.95218e-06
-0.00083708
-2.83834e-06
-0.000832237
-1.0613e-05
1.17522e-05
1.16075e-06
-0.00113994
4.14147e-06
1.61365e-06
-0.00114174
-3.60079e-06
1.78265e-06
-0.00114238
-1.13374e-05
1.68544e-06
-0.00114188
-1.88526e-05
1.30501e-06
-0.00114016
-2.57578e-05
6.23328e-07
-0.00113704
-3.12939e-05
-3.91211e-07
-0.0011322
-3.39436e-05
-1.76083e-06
-0.00112524
-3.08687e-05
-3.54666e-06
-0.00111573
-5.36683e-06
-0.00110519
-1.81993e-05
1.44563e-05
1.55109e-06
-0.00143037
5.29049e-06
2.16549e-06
-0.00143275
-3.9448e-06
2.40234e-06
-0.00143362
-1.32507e-05
2.30241e-06
-0.00143295
-2.25213e-05
1.8296e-06
-0.00143059
-3.14627e-05
9.49314e-07
-0.00142614
-3.93979e-05
-4.16033e-07
-0.00141892
-4.47181e-05
-2.31911e-06
-0.00140791
-4.34987e-05
-4.95533e-06
-0.00139159
-7.81693e-06
-0.00137205
-2.87545e-05
1.6535e-05
1.87694e-06
-0.00171854
6.25485e-06
2.67135e-06
-0.00172162
-4.09098e-06
2.99823e-06
-0.00172281
-1.46409e-05
2.92994e-06
-0.00172214
-2.54407e-05
2.41282e-06
-0.00171934
-3.6403e-05
1.40501e-06
-0.00171386
-4.70613e-05
-2.29773e-07
-0.00170449
-5.5833e-05
-2.58344e-06
-0.00168932
-5.78682e-05
-6.07931e-06
-0.00166464
-1.0076e-05
-0.00163276
-4.29275e-05
1.82758e-05
2.22617e-06
-0.0020089
7.21423e-06
3.11412e-06
-0.00201269
-3.88181e-06
3.49241e-06
-0.00201432
-1.52898e-05
3.44487e-06
-0.00201381
-2.72477e-05
2.91072e-06
-0.00201085
-3.99182e-05
1.83875e-06
-0.0020047
-5.31404e-05
2.80236e-08
-0.00199355
-6.55497e-05
-2.66658e-06
-0.0019744
-7.19023e-05
-6.94682e-06
-0.00194046
-1.2083e-05
-0.00189358
-5.8661e-05
1.94991e-05
2.45161e-06
-0.00229808
7.8917e-06
3.38362e-06
-0.0023026
-3.69285e-06
3.76689e-06
-0.00230465
-1.56582e-05
3.71574e-06
-0.00230434
-2.8419e-05
3.16679e-06
-0.0023013
-4.24133e-05
2.07227e-06
-0.00229472
-5.78828e-05
1.87629e-07
-0.00228217
-7.38926e-05
-2.68427e-06
-0.00225947
-8.54859e-05
-7.50067e-06
-0.00221593
-1.36565e-05
-0.00215217
-7.58211e-05
2.02469e-05
2.47899e-06
-0.00258761
8.40795e-06
3.31791e-06
-0.00259287
-3.36277e-06
3.6472e-06
-0.00259541
-1.55474e-05
3.54767e-06
-0.0025954
-2.87477e-05
2.99633e-06
-0.00259242
-4.36615e-05
1.93502e-06
-0.00258564
-6.09908e-05
1.03803e-07
-0.00257207
-8.03715e-05
-2.78009e-06
-0.00254639
-9.78143e-05
-7.76182e-06
-0.00249344
-1.47986e-05
-0.00241151
-9.3136e-05
2.02208e-05
2.16399e-06
-0.00287758
8.28224e-06
2.81012e-06
-0.00288354
-3.47737e-06
3.01281e-06
-0.00288628
-1.56252e-05
2.83654e-06
-0.0028862
-2.88758e-05
2.27884e-06
-0.00288288
-4.41748e-05
1.2844e-06
-0.00287561
-6.27508e-05
-3.40319e-07
-0.00286109
-8.49543e-05
-2.95601e-06
-0.00283309
-0.000108441
-7.2614e-06
-0.00277164
-1.47568e-05
-0.00267095
-0.000110083
1.96632e-05
1.22405e-06
-0.00316445
8.12116e-06
1.42867e-06
-0.00317101
-3.19746e-06
1.41424e-06
-0.00317415
-1.48612e-05
1.02549e-06
-0.00317428
-2.77233e-05
3.74064e-07
-0.00317097
-4.29626e-05
-5.77385e-07
-0.00316349
-6.24283e-05
-1.86334e-06
-0.00314822
-8.75814e-05
-3.71837e-06
-0.00311884
-0.000116976
-6.46034e-06
-0.00305031
-1.21755e-05
-0.00292815
-0.000126626
1.85754e-05
-0.00343249
7.07196e-06
-0.00343891
-4.02802e-06
-0.00344128
-1.53974e-05
-0.00343954
-2.78059e-05
-0.00343344
-4.24724e-05
-0.00342238
-6.13465e-05
-0.00340296
-8.69805e-05
-0.00336878
-0.000119606
-0.00329386
-0.00315401
-0.000139378
6.86097e-06
4.45613e-07
-0.000845574
2.59048e-06
6.77211e-07
-0.00084669
-1.8808e-06
7.68394e-07
-0.000847052
-6.22285e-06
7.0663e-07
-0.000846837
-1.00912e-05
4.95438e-07
-0.00084609
-1.30808e-05
1.33884e-07
-0.000844822
-1.46981e-05
-3.69646e-07
-0.000843058
-1.43386e-05
-9.94018e-07
-0.00084087
-1.13313e-05
-1.69387e-06
-0.000838393
-2.30509e-06
-0.00083588
-5.38379e-06
9.40743e-06
8.66623e-07
-0.00113476
3.32247e-06
1.30861e-06
-0.00113629
-2.94088e-06
1.47588e-06
-0.00113683
-9.10311e-06
1.37751e-06
-0.00113639
-1.4822e-05
1.00224e-06
-0.00113495
-1.96281e-05
3.43347e-07
-0.00113244
-2.28059e-05
-6.0437e-07
-0.00112879
-2.32514e-05
-1.8192e-06
-0.00112397
-1.93006e-05
-3.25918e-06
-0.00111812
-4.58468e-06
-0.00111242
-9.79821e-06
1.24711e-05
1.25071e-06
-0.00142322
4.61534e-06
1.86147e-06
-0.00142544
-3.37587e-06
2.09482e-06
-0.00142625
-1.13203e-05
1.9793e-06
-0.00142561
-1.89435e-05
1.48412e-06
-0.00142345
-2.57736e-05
5.84728e-07
-0.00141955
-3.09347e-05
-7.65377e-07
-0.0014136
-3.28479e-05
-2.56859e-06
-0.00140525
-2.86252e-05
-4.84659e-06
-0.00139422
-7.07024e-06
-0.00138277
-1.54205e-05
1.48983e-05
1.61016e-06
-0.00170989
5.66027e-06
2.4174e-06
-0.00171294
-3.71913e-06
2.74266e-06
-0.00171408
-1.31748e-05
2.6461e-06
-0.00171335
-2.25433e-05
2.07901e-06
-0.00171057
-3.14602e-05
1.00593e-06
-0.00170537
-3.90337e-05
-6.76083e-07
-0.00169701
-4.33322e-05
-3.00901e-06
-0.00168458
-4.00337e-05
-6.17442e-06
-0.00166662
-9.44671e-06
-0.00164654
-2.38766e-05
1.69725e-05
2.00202e-06
-0.001999
6.68395e-06
2.91628e-06
-0.0020029
-3.71175e-06
3.2975e-06
-0.00200448
-1.42933e-05
3.21547e-06
-0.0020038
-2.50678e-05
2.61213e-06
-0.00200061
-3.58593e-05
1.43677e-06
-0.00199434
-4.58913e-05
-4.81714e-07
-0.00198371
-5.30334e-05
-3.24595e-06
-0.00196702
-5.16476e-05
-7.27145e-06
-0.00194075
-1.16674e-05
-0.00190934
-3.36667e-05
1.85081e-05
2.28809e-06
-0.00228712
7.44401e-06
3.25666e-06
-0.00229188
-3.66965e-06
3.64837e-06
-0.00229388
-1.50558e-05
3.56612e-06
-0.00229331
-2.68925e-05
2.94423e-06
-0.00228979
-3.92475e-05
1.72858e-06
-0.00228266
-5.15961e-05
-3.06657e-07
-0.00226999
-6.18218e-05
-3.33367e-06
-0.00224916
-6.33413e-05
-8.01769e-06
-0.00221366
-1.34827e-05
-0.00216867
-4.50266e-05
1.94942e-05
2.37313e-06
-0.00257581
8.01683e-06
3.25441e-06
-0.00258139
-3.45972e-06
3.59871e-06
-0.00258388
-1.52635e-05
3.47858e-06
-0.00258351
-2.77659e-05
2.86338e-06
-0.00257983
-4.1292e-05
1.6863e-06
-0.00257208
-5.56704e-05
-3.07857e-07
-0.00255769
-6.89744e-05
-3.3931e-06
-0.00253302
-7.41759e-05
-8.39407e-06
-0.00248786
-1.48558e-05
-0.00242745
-5.68634e-05
1.96717e-05
2.09822e-06
-0.00286503
7.98921e-06
2.78797e-06
-0.00287139
-3.58555e-06
3.01643e-06
-0.00287413
-1.54929e-05
2.85078e-06
-0.00287367
-2.82298e-05
2.27195e-06
-0.00286955
-4.23748e-05
1.21625e-06
-0.00286099
-5.82294e-05
-5.28279e-07
-0.00284502
-7.43205e-05
-3.34362e-06
-0.00281705
-8.38196e-05
-7.84091e-06
-0.00276269
-1.49335e-05
-0.00268564
-6.90431e-05
1.92405e-05
1.22417e-06
-0.00315136
7.86744e-06
1.45741e-06
-0.0031583
-3.3588e-06
1.49969e-06
-0.00316141
-1.48877e-05
1.17979e-06
-0.00316108
-2.7364e-05
5.98416e-07
-0.00315682
-4.15725e-05
-2.97562e-07
-0.00314776
-5.83113e-05
-1.57523e-06
-0.00313043
-7.72111e-05
-3.50472e-06
-0.00309977
-9.14975e-05
-6.43951e-06
-0.00303742
-1.20377e-05
-0.00294108
-8.14664e-05
1.82622e-05
-0.00341932
7.00146e-06
-0.00342619
-3.9399e-06
-0.00342884
-1.51414e-05
-0.00342716
-2.71975e-05
-0.00342078
-4.09782e-05
-0.0034089
-5.74285e-05
-0.00338809
-7.70157e-05
-0.0033527
-9.40891e-05
-0.00328323
-0.0031693
-9.08332e-05
4.82442e-06
2.7293e-07
-0.00084334
1.85298e-06
4.78488e-07
-0.000844197
-1.30298e-06
5.63184e-07
-0.00084446
-4.33475e-06
5.09055e-07
-0.000844314
-6.93576e-06
3.23505e-07
-0.000843812
-8.78332e-06
1.14956e-08
-0.000842986
-9.54806e-06
-4.08707e-07
-0.000841885
-8.9151e-06
-9.05287e-07
-0.000840597
-6.65447e-06
-1.42211e-06
-0.000839232
-1.84349e-06
-0.000837832
-2.85832e-06
7.1834e-06
5.64694e-07
-0.00113096
2.53658e-06
9.75059e-07
-0.00113214
-2.30378e-06
1.13349e-06
-0.00113256
-7.00667e-06
1.04082e-06
-0.00113222
-1.11996e-05
6.91353e-07
-0.00113113
-1.44412e-05
8.95194e-08
-0.00112928
-1.61719e-05
-7.48222e-07
-0.00112672
-1.57104e-05
-1.77375e-06
-0.00112356
-1.22739e-05
-2.89968e-06
-0.00112008
-3.86301e-06
-0.001117
-5.67483e-06
1.03434e-05
9.09541e-07
-0.00141761
3.88516e-06
1.49311e-06
-0.0014195
-2.75323e-06
1.7156e-06
-0.00142019
-9.26735e-06
1.59282e-06
-0.00141965
-1.52838e-05
1.10081e-06
-0.00141784
-2.02827e-05
2.29454e-07
-0.00141469
-2.34667e-05
-1.03356e-06
-0.00141013
-2.366e-05
-2.64892e-06
-0.00140418
-1.91558e-05
-4.53893e-06
-0.00139709
-6.2481e-06
-0.00139043
-9.11345e-06
1.29558e-05
1.27381e-06
-0.00170274
4.96266e-06
2.07166e-06
-0.00170552
-3.23695e-06
2.38863e-06
-0.00170655
-1.14044e-05
2.27123e-06
-0.00170586
-1.92134e-05
1.67895e-06
-0.00170334
-2.61498e-05
5.90205e-07
-0.00169879
-3.12547e-05
-1.05385e-06
-0.00169188
-3.28748e-05
-3.24225e-06
-0.00168237
-2.80263e-05
-5.98302e-06
-0.00167002
-8.60157e-06
-0.00165764
-1.45689e-05
1.5279e-05
1.68967e-06
-0.00199047
6.02744e-06
2.61101e-06
-0.00199419
-3.40338e-06
2.98902e-06
-0.00199565
-1.28953e-05
2.87737e-06
-0.00199492
-2.2245e-05
2.22484e-06
-0.0019918
-3.10357e-05
9.90285e-07
-0.00198595
-3.82547e-05
-9.49807e-07
-0.0019766
-4.1851e-05
-3.63847e-06
-0.00196303
-3.73904e-05
-7.24484e-06
-0.00194394
-1.0889e-05
-0.00192355
-2.08943e-05
1.70902e-05
2.02645e-06
-0.00227738
6.85754e-06
3.01682e-06
-0.00228205
-3.50295e-06
3.4117e-06
-0.00228394
-1.40135e-05
3.30009e-06
-0.00228322
-2.4613e-05
2.61875e-06
-0.00227959
-3.50566e-05
1.31675e-06
-0.00227254
-4.44148e-05
-7.89436e-07
-0.0022608
-5.04028e-05
-3.81684e-06
-0.00224299
-4.71946e-05
-8.13754e-06
-0.00221598
-1.28086e-05
-0.00218541
-2.85331e-05
1.83087e-05
2.17452e-06
-0.00256505
7.48325e-06
3.08893e-06
-0.00257064
-3.41975e-06
3.4446e-06
-0.00257301
-1.4539e-05
3.30415e-06
-0.00257239
-2.5994e-05
2.63329e-06
-0.00256839
-3.77533e-05
1.36419e-06
-0.00256036
-4.90866e-05
-7.28787e-07
-0.00254642
-5.76357e-05
-3.86672e-06
-0.00252442
-5.64143e-05
-8.59885e-06
-0.00248862
-1.42588e-05
-0.00244592
-3.6493e-05
1.87092e-05
1.94597e-06
-0.0028534
7.55716e-06
2.67625e-06
-0.00285983
-3.57121e-06
2.92596e-06
-0.00286248
-1.49481e-05
2.76578e-06
-0.00286175
-2.68228e-05
2.16363e-06
-0.00285721
-3.93896e-05
1.05428e-06
-0.00284812
-5.22584e-05
-7.67172e-07
-0.00283211
-6.32797e-05
-3.64618e-06
-0.00280624
-6.48208e-05
-8.02906e-06
-0.00276172
-1.43626e-05
-0.00270539
-4.49748e-05
1.8437e-05
1.16832e-06
-0.00313907
7.48879e-06
1.42866e-06
-0.00314611
-3.40267e-06
1.51919e-06
-0.00314911
-1.45262e-05
1.2536e-06
-0.00314844
-2.62926e-05
7.23501e-07
-0.00314361
-3.90878e-05
-1.35356e-07
-0.00313378
-5.28644e-05
-1.4074e-06
-0.00311602
-6.62344e-05
-3.34568e-06
-0.0030867
-7.12075e-05
-6.25345e-06
-0.00303422
-1.12486e-05
-0.0029618
-5.35967e-05
1.75965e-05
-0.00340693
6.78997e-06
-0.00341396
-3.79225e-06
-0.00341674
-1.45961e-05
-0.0034151
-2.60112e-05
-0.00340864
-3.85395e-05
-0.00339651
-5.23209e-05
-0.00337571
-6.64995e-05
-0.00334187
-7.36439e-05
-0.00328234
-0.00319464
-5.95612e-05
3.2962e-06
1.28814e-07
-0.00084184
1.29461e-06
3.01316e-07
-0.000842496
-8.59254e-07
3.76367e-07
-0.000842682
-2.91321e-06
3.31941e-07
-0.000842592
-4.62684e-06
1.78077e-07
-0.000842277
-5.76693e-06
-7.72197e-08
-0.000841768
-6.1291e-06
-4.11425e-07
-0.000841111
-5.56179e-06
-7.91336e-07
-0.000840373
-4.01713e-06
-1.16518e-06
-0.000839611
-1.45434e-06
-0.000838742
-1.65304e-06
5.25799e-06
2.86911e-07
-0.00112822
1.84215e-06
6.50068e-07
-0.00112907
-1.75545e-06
7.93846e-07
-0.00112938
-5.21839e-06
7.12218e-07
-0.00112914
-8.20603e-06
4.03968e-07
-0.00112837
-1.03551e-05
-1.1817e-07
-0.00112709
-1.12717e-05
-8.24169e-07
-0.00112539
-1.05728e-05
-1.65459e-06
-0.0011234
-7.95767e-06
-2.51362e-06
-0.00112135
-3.21128e-06
-0.00111964
-3.55188e-06
8.28891e-06
5.65288e-07
-0.00141333
3.16552e-06
1.09912e-06
-0.00141483
-2.15432e-06
1.30336e-06
-0.00141538
-7.31627e-06
1.18203e-06
-0.00141496
-1.192e-05
7.1786e-07
-0.00141355
-1.54792e-05
-8.53469e-08
-0.00141117
-1.73655e-05
-1.21174e-06
-0.00140786
-1.68196e-05
-2.59364e-06
-0.00140379
-1.29878e-05
-4.10926e-06
-0.00139932
-5.40971e-06
-0.00139543
-5.79001e-06
1.08982e-05
9.03229e-07
-0.00169705
4.21764e-06
1.66635e-06
-0.00169941
-2.71197e-06
1.96718e-06
-0.00170028
-9.53915e-06
1.8387e-06
-0.00169969
-1.58448e-05
1.25011e-06
-0.00169756
-2.10714e-05
1.96543e-07
-0.00169385
-2.437e-05
-1.33745e-06
-0.00168846
-2.45366e-05
-3.29602e-06
-0.0016815
-1.98148e-05
-5.58284e-06
-0.00167327
-7.64574e-06
-0.00166567
-9.55403e-06
1.33417e-05
1.31799e-06
-0.00198337
5.28698e-06
2.22117e-06
-0.00198669
-3.00482e-06
2.58799e-06
-0.00198797
-1.12597e-05
2.45533e-06
-0.00198728
-1.91225e-05
1.7817e-06
-0.00198447
-2.60457e-05
5.41831e-07
-0.00197937
-3.10167e-05
-1.33431e-06
-0.00197163
-3.23858e-05
-3.82951e-06
-0.00196113
-2.7207e-05
-6.93528e-06
-0.00194777
-9.89246e-06
-0.00193467
-1.38331e-05
1.53483e-05
1.6871e-06
-0.002269
6.16267e-06
2.67723e-06
-0.00227332
-3.22187e-06
3.06785e-06
-0.00227504
-1.26465e-05
2.93262e-06
-0.00227427
-2.18537e-05
2.21505e-06
-0.00227081
-3.03844e-05
8.7599e-07
-0.00226434
-3.71719e-05
-1.21232e-06
-0.00225413
-4.02128e-05
-4.09977e-06
-0.00223968
-3.52358e-05
-7.91705e-06
-0.00221997
-1.18012e-05
-0.00219957
-1.91654e-05
1.67561e-05
1.89504e-06
-0.00255555
6.82734e-06
2.82598e-06
-0.00256086
-3.25692e-06
3.18707e-06
-0.00256305
-1.34464e-05
3.02973e-06
-0.0025623
-2.36346e-05
2.32051e-06
-0.00255831
-3.35096e-05
9.99416e-07
-0.00255061
-4.20534e-05
-1.11167e-06
-0.00253797
-4.70273e-05
-4.15566e-06
-0.00251939
-4.28459e-05
-8.42179e-06
-0.0024923
-1.31925e-05
-0.00246281
-2.45712e-05
1.73728e-05
1.71255e-06
-0.0028429
6.99811e-06
2.47387e-06
-0.0028491
-3.4396e-06
2.73864e-06
-0.00285159
-1.40319e-05
2.58127e-06
-0.00285071
-2.47928e-05
1.96103e-06
-0.00284609
-3.55897e-05
8.18903e-07
-0.00283714
-4.55953e-05
-1.02202e-06
-0.00282219
-5.2565e-05
-3.82752e-06
-0.0027996
-4.99553e-05
-7.85053e-06
-0.0027649
-1.32145e-05
-0.00272483
-3.04896e-05
1.72716e-05
1.05655e-06
-0.00312784
6.98912e-06
1.33871e-06
-0.00313469
-3.3311e-06
1.46834e-06
-0.00313752
-1.37981e-05
1.24467e-06
-0.00313664
-2.45936e-05
7.52907e-07
-0.00313161
-3.57553e-05
-7.57456e-08
-0.00312172
-4.66745e-05
-1.3288e-06
-0.00310479
-5.54909e-05
-3.20692e-06
-0.00307851
-5.50701e-05
-5.92073e-06
-0.00303657
-1.007e-05
-0.0029839
-3.6121e-05
1.65897e-05
-0.00339559
6.44142e-06
-0.00340247
-3.5805e-06
-0.00340525
-1.37663e-05
-0.00340367
-2.42968e-05
-0.00339736
-3.53363e-05
-0.00338554
-4.64662e-05
-0.00336591
-5.61225e-05
-0.00333542
-5.73314e-05
-0.00328705
-0.00322237
-3.9672e-05
2.21516e-06
1.96033e-08
-0.00084082
8.97504e-07
1.58063e-07
-0.000841337
-5.38731e-07
2.22376e-07
-0.000841468
-1.90222e-06
1.87907e-07
-0.000841417
-3.01774e-06
6.62994e-08
-0.000841227
-3.72517e-06
-1.33784e-07
-0.000840927
-3.90056e-06
-3.89742e-07
-0.000840546
-3.47304e-06
-6.72104e-07
-0.000840129
-2.45314e-06
-9.38645e-07
-0.000839692
-1.13667e-06
-0.000839085
-9.73542e-07
3.69886e-06
5.26788e-08
-0.00112626
1.26682e-06
3.60596e-07
-0.00112684
-1.31961e-06
4.8623e-07
-0.00112706
-3.79331e-06
4.18661e-07
-0.0011269
-5.87329e-06
1.59765e-07
-0.00112638
-7.2832e-06
-2.73288e-07
-0.00112554
-7.76105e-06
-8.44851e-07
-0.00112446
-7.1028e-06
-1.49495e-06
-0.00112323
-5.22112e-06
-2.13683e-06
-0.00112203
-2.6368e-06
-0.00112107
-2.29969e-06
6.44932e-06
2.47733e-07
-0.00141012
2.5066e-06
7.14595e-07
-0.00141124
-1.62333e-06
8.94559e-07
-0.00141166
-5.59414e-06
7.81838e-07
-0.00141135
-9.03149e-06
3.64449e-07
-0.00141032
-1.15232e-05
-3.43499e-07
-0.00140861
-1.26098e-05
-1.30772e-06
-0.00140631
-1.18342e-05
-2.44748e-06
-0.00140361
-8.82759e-06
-3.63146e-06
-0.00140084
-4.60535e-06
-0.00139853
-3.75289e-06
8.88736e-06
5.32734e-07
-0.00169263
3.47801e-06
1.23713e-06
-0.00169452
-2.19573e-06
1.51402e-06
-0.00169523
-7.73398e-06
1.38422e-06
-0.00169475
-1.26922e-05
8.26374e-07
-0.00169307
-1.65436e-05
-1.48809e-07
-0.00169019
-1.86074e-05
-1.5227e-06
-0.00168618
-1.80797e-05
-3.20917e-06
-0.00168126
-1.40446e-05
-5.06153e-06
-0.00167587
-6.65486e-06
-0.00167121
-6.45723e-06
1.13101e-05
9.19704e-07
-0.00197762
4.50996e-06
1.7773e-06
-0.00198043
-2.56184e-06
2.12399e-06
-0.00198151
-9.53316e-06
1.98056e-06
-0.0019809
-1.5967e-05
1.31632e-06
-0.00197853
-2.12809e-05
1.24131e-07
-0.00197433
-2.45855e-05
-1.6173e-06
-0.00196823
-2.46754e-05
-3.84144e-06
-0.00196041
-1.98116e-05
-6.42962e-06
-0.00195127
-8.77592e-06
-0.0019429
-9.46131e-06
1.34063e-05
1.29782e-06
-0.002262
5.39846e-06
2.26077e-06
-0.0022658
-2.86125e-06
2.63804e-06
-0.00226729
-1.10766e-05
2.48757e-06
-0.00226656
-1.88584e-05
1.76247e-06
-0.00226348
-2.56383e-05
4.40659e-07
-0.00225788
-3.03903e-05
-1.54788e-06
-0.00224945
-3.15327e-05
-4.18913e-06
-0.00223819
-2.62969e-05
-7.44037e-06
-0.0022242
-1.05845e-05
-0.00221072
-1.3342e-05
1.49312e-05
1.55473e-06
-0.00254741
6.07886e-06
2.47945e-06
-0.00255223
-2.99497e-06
2.83785e-06
-0.00255417
-1.20787e-05
2.66955e-06
-0.0025534
-2.08928e-05
1.9456e-06
-0.00254968
-2.89471e-05
6.20956e-07
-0.00254274
-3.51511e-05
-1.42729e-06
-0.00253189
-3.7615e-05
-4.25822e-06
-0.00251686
-3.24205e-05
-7.95141e-06
-0.00249698
-1.18298e-05
-0.00247691
-1.70775e-05
1.57331e-05
1.41094e-06
-0.00283368
6.33446e-06
2.18766e-06
-0.00283941
-3.20577e-06
2.4597e-06
-0.00284167
-1.28116e-05
2.30509e-06
-0.00284074
-2.23018e-05
1.67875e-06
-0.00283633
-3.13107e-05
5.34621e-07
-0.00282804
-3.88161e-05
-1.26378e-06
-0.00281485
-4.27682e-05
-3.88739e-06
-0.00279602
-3.83104e-05
-7.40725e-06
-0.00276991
-1.1734e-05
-0.00274193
-2.13052e-05
1.57937e-05
8.94508e-07
-0.00311788