/*--------------------------------*- C++ -*----------------------------------*\
| =========                 |                                                 |
| \\      /  F ield         | foam-extend: Open Source CFD                    |
|  \\    /   O peration     | Version:     4.0                                |
|   \\  /    A nd           | Web:         http://www.foam-extend.org         |
|    \\/     M anipulation  |                                                 |
\*---------------------------------------------------------------------------*/
FoamFile
{
    version     2.0;
    format      ascii;
    class       volScalarField;
    location    "1250";
    object      rho;
}
// * * * * * * * * * * * * * * * * * * * * * * * * * * * * * * * * * * * * * //

dimensions      [1 -3 0 0 0 0 0];

internalField   nonuniform List<scalar> 
34480
(
1.34651
1.3458
1.34569
1.34614
1.34734
1.34964
1.35384
1.36192
1.3726
1.37704
1.34744
1.34677
1.34671
1.34717
1.34831
1.35049
1.35457
1.3627
1.37452
1.37633
1.34619
1.34554
1.34554
1.34592
1.3469
1.34878
1.35258
1.36034
1.37254
1.36909
1.345
1.34444
1.34448
1.34484
1.34571
1.34729
1.35068
1.35771
1.36969
1.36067
1.34382
1.34324
1.34333
1.34364
1.34439
1.34569
1.34868
1.35495
1.36642
1.3523
1.34361
1.34315
1.34328
1.34361
1.3443
1.34537
1.34799
1.35347
1.36412
1.34521
1.34222
1.34173
1.34189
1.3422
1.34284
1.34376
1.34608
1.35087
1.36055
1.33768
1.34292
1.34261
1.34289
1.34342
1.34429
1.34542
1.34772
1.35202
1.36045
1.33369
1.34139
1.3411
1.3414
1.34196
1.34296
1.34435
1.34674
1.35072
1.3576
1.32778
1.33863
1.33857
1.33939
1.34089
1.34312
1.34606
1.3501
1.35559
1.36263
1.32897
1.35336
1.35226
1.35187
1.3521
1.35305
1.35486
1.35776
1.36208
1.36891
1.37783
1.35395
1.35271
1.35228
1.35252
1.35354
1.35552
1.35891
1.36459
1.37484
1.38963
1.35242
1.35109
1.35065
1.3508
1.35171
1.35358
1.35708
1.36345
1.37641
1.39544
1.35101
1.34963
1.34912
1.34918
1.34996
1.35163
1.35496
1.36134
1.37589
1.39781
1.34972
1.34822
1.34765
1.34756
1.34817
1.34954
1.35256
1.35859
1.374
1.39767
1.34941
1.34792
1.34728
1.3471
1.34756
1.34865
1.35129
1.3567
1.37231
1.3965
1.348
1.34639
1.34569
1.34539
1.34569
1.34652
1.34877
1.35352
1.36888
1.39297
1.34867
1.34713
1.34643
1.34621
1.34659
1.34744
1.34954
1.35369
1.3682
1.39129
1.34716
1.3456
1.34485
1.34457
1.34487
1.34572
1.34772
1.35149
1.36459
1.38713
1.34448
1.34301
1.34261
1.34297
1.34413
1.34601
1.34906
1.35373
1.36637
1.38763
1.35809
1.35716
1.35684
1.35709
1.35799
1.35958
1.36199
1.36527
1.3694
1.37391
1.35863
1.35745
1.35707
1.35739
1.35849
1.3605
1.36361
1.36812
1.37475
1.38263
1.35694
1.35562
1.35523
1.35555
1.35672
1.35888
1.36242
1.36796
1.37725
1.38891
1.3553
1.35389
1.35344
1.3537
1.35485
1.35705
1.36082
1.36696
1.37836
1.39346
1.3538
1.35226
1.35176
1.3519
1.35296
1.35506
1.35885
1.36522
1.37822
1.39633
1.35324
1.35169
1.35112
1.3512
1.35216
1.3541
1.35779
1.36409
1.3782
1.39863
1.35163
1.34997
1.34936
1.34932
1.35016
1.35191
1.35542
1.36151
1.37631
1.39861
1.35212
1.35052
1.34989
1.34991
1.35078
1.35253
1.35598
1.36182
1.3767
1.40005
1.35055
1.34891
1.34823
1.34817
1.34891
1.35055
1.35386
1.35961
1.37391
1.39833
1.34785
1.34627
1.34581
1.34619
1.34749
1.34978
1.3537
1.36004
1.37412
1.39884
1.36135
1.36067
1.36044
1.36063
1.36129
1.36242
1.36401
1.36596
1.3681
1.36993
1.36218
1.36118
1.36085
1.36112
1.36205
1.36368
1.36606
1.36919
1.37308
1.37682
1.3607
1.35948
1.35911
1.35941
1.3605
1.36246
1.36545
1.36966
1.37578
1.38226
1.35908
1.3577
1.35725
1.35754
1.35871
1.36087
1.36437
1.36952
1.37784
1.3873
1.35758
1.35602
1.35551
1.35572
1.35688
1.3591
1.36288
1.36868
1.37894
1.39142
1.35692
1.35531
1.35472
1.35489
1.356
1.3582
1.36213
1.3683
1.3802
1.39544
1.35522
1.35349
1.35286
1.35292
1.35396
1.35607
1.36002
1.36638
1.37958
1.39744
1.35559
1.35389
1.35324
1.35335
1.35441
1.35654
1.36054
1.367
1.38098
1.40092
1.35395
1.35221
1.35152
1.35156
1.35254
1.35458
1.35849
1.36507
1.37918
1.4012
1.35123
1.34953
1.34899
1.34935
1.35071
1.35319
1.3575
1.36451
1.37862
1.40216
1.3636
1.36316
1.36301
1.36314
1.36359
1.36433
1.36533
1.36648
1.36764
1.36854
1.36476
1.36399
1.36373
1.36395
1.36467
1.36588
1.36757
1.36964
1.37192
1.3739
1.36365
1.36261
1.36229
1.36256
1.36348
1.3651
1.36743
1.37046
1.37423
1.37778
1.36219
1.36094
1.36053
1.36081
1.36189
1.36382
1.36677
1.37078
1.37631
1.38191
1.36082
1.35935
1.35886
1.35911
1.36025
1.36237
1.36577
1.3706
1.37789
1.38578
1.36015
1.35859
1.35803
1.35825
1.35941
1.36163
1.36535
1.3708
1.37978
1.38999
1.35845
1.35674
1.35613
1.35628
1.35741
1.35965
1.36356
1.36948
1.37996
1.39256
1.35877
1.35706
1.35642
1.3566
1.35778
1.36008
1.36416
1.37044
1.38206
1.39681
1.35709
1.35533
1.35466
1.35479
1.35592
1.3582
1.36231
1.36891
1.38113
1.39817
1.35438
1.35265
1.35207
1.35242
1.35381
1.35639
1.36078
1.36776
1.38024
1.39917
1.36517
1.36492
1.36483
1.36491
1.36519
1.36565
1.36624
1.36688
1.36749
1.36789
1.3666
1.36606
1.36587
1.36603
1.36653
1.36737
1.36849
1.36979
1.37112
1.37218
1.36591
1.36508
1.36482
1.36503
1.36576
1.36699
1.36871
1.37081
1.37314
1.37511
1.36468
1.36362
1.36326
1.36351
1.36442
1.36602
1.36836
1.37135
1.37496
1.37827
1.36352
1.36221
1.36177
1.36202
1.36305
1.36492
1.36778
1.3716
1.37661
1.38152
1.36293
1.36149
1.36098
1.36121
1.36232
1.36439
1.36767
1.37221
1.37868
1.38533
1.3613
1.35969
1.35912
1.35931
1.36045
1.36262
1.36621
1.37137
1.37922
1.38781
1.36162
1.35998
1.35937
1.35959
1.36079
1.36309
1.36695
1.37261
1.38168
1.39213
1.35994
1.35824
1.3576
1.35779
1.35898
1.3613
1.36528
1.37138
1.38132
1.39391
1.3573
1.3556
1.35501
1.35535
1.35671
1.35925
1.36346
1.36992
1.38027
1.39457
1.36632
1.36619
1.36614
1.36619
1.36636
1.36663
1.36696
1.36732
1.36764
1.36782
1.36791
1.36755
1.36742
1.36752
1.36786
1.36841
1.36913
1.36992
1.37069
1.37128
1.3676
1.36698
1.36678
1.36694
1.36748
1.36837
1.36957
1.37098
1.37243
1.37358
1.36661
1.36576
1.36546
1.36566
1.3664
1.36765
1.3694
1.37155
1.37392
1.37593
1.3657
1.3646
1.36423
1.36444
1.36533
1.36688
1.36916
1.37205
1.37548
1.37857
1.36525
1.36399
1.36353
1.36376
1.36476
1.36657
1.36931
1.37292
1.3775
1.38184
1.36374
1.36228
1.36177
1.36197
1.36304
1.36503
1.36814
1.3724
1.37815
1.38394
1.36412
1.36261
1.36204
1.36228
1.36343
1.36558
1.36902
1.37384
1.38069
1.38796
1.36247
1.36087
1.36028
1.3605
1.36167
1.36389
1.36752
1.37282
1.38055
1.38959
1.35992
1.35832
1.35775
1.35808
1.35937
1.36175
1.36558
1.37122
1.37942
1.38977
1.3672
1.36715
1.36713
1.36715
1.36725
1.3674
1.36759
1.36779
1.36795
1.36801
1.36885
1.36862
1.36854
1.36861
1.36882
1.36917
1.36961
1.37008
1.37052
1.37084
1.36886
1.36842
1.36827
1.36839
1.36876
1.36938
1.37019
1.3711
1.37199
1.37267
1.36807
1.36742
1.36719
1.36735
1.3679
1.36884
1.3701
1.37159
1.37313
1.37437
1.36743
1.36654
1.36624
1.36642
1.36713
1.36836
1.37009
1.37221
1.37453
1.37651
1.36714
1.36608
1.36569
1.3659
1.36675
1.36825
1.37043
1.37319
1.3764
1.37925
1.36577
1.36451
1.36406
1.36426
1.3652
1.36692
1.36949
1.37287
1.37701
1.38093
1.36624
1.36491
1.36441
1.36464
1.36569
1.36759
1.37051
1.37444
1.37949
1.38451
1.36463
1.36319
1.36267
1.36289
1.36398
1.36599
1.36914
1.37353
1.37935
1.38568
1.36224
1.36078
1.36026
1.36056
1.36173
1.36387
1.3672
1.3719
1.37817
1.38545
1.36792
1.36791
1.3679
1.36792
1.36798
1.36806
1.36817
1.36827
1.36835
1.36836
1.36954
1.36941
1.36935
1.36939
1.36953
1.36974
1.37
1.37028
1.37053
1.37071
1.36981
1.3695
1.3694
1.36948
1.36973
1.37014
1.37067
1.37124
1.37179
1.37218
1.36917
1.36869
1.36852
1.36863
1.36904
1.3697
1.37059
1.37159
1.37258
1.37335
1.36877
1.36808
1.36785
1.36799
1.36854
1.36947
1.37074
1.37224
1.37379
1.37505
1.36863
1.36778
1.36747
1.36764
1.36833
1.36952
1.37119
1.37322
1.37544
1.37731
1.36741
1.36636
1.36598
1.36616
1.36696
1.36837
1.37042
1.37299
1.37592
1.37856
1.368
1.36688
1.36645
1.36666
1.36756
1.36917
1.37155
1.37462
1.37828
1.3817
1.36645
1.3652
1.36474
1.36495
1.36592
1.36765
1.37026
1.37375
1.37802
1.38236
1.36424
1.36297
1.3625
1.36277
1.36379
1.36564
1.36842
1.37218
1.37683
1.38184
1.36853
1.36855
1.36856
1.36856
1.3686
1.36864
1.3687
1.36875
1.36879
1.36877
1.37007
1.36999
1.36996
1.36998
1.37006
1.37019
1.37035
1.37051
1.37065
1.37075
1.37053
1.37033
1.37026
1.37031
1.37048
1.37074
1.37107
1.37143
1.37175
1.37198
1.36998
1.36964
1.36952
1.3696
1.36988
1.37034
1.37094
1.3716
1.37223
1.3727
1.3698
1.36929
1.36911
1.36922
1.36962
1.3703
1.3712
1.37223
1.37325
1.37405
1.36979
1.36913
1.36889
1.36902
1.36956
1.37047
1.3717
1.37316
1.37466
1.37588
1.36871
1.36786
1.36756
1.36771
1.36836
1.36947
1.37103
1.37294
1.37497
1.37673
1.36944
1.36852
1.36816
1.36835
1.3691
1.3704
1.37227
1.37458
1.37717
1.37946
1.36792
1.36688
1.3665
1.36668
1.3675
1.36893
1.37102
1.37369
1.37675
1.37967
1.36594
1.36487
1.36447
1.36469
1.36556
1.36709
1.36933
1.37222
1.37559
1.37897
1.36908
1.36912
1.36912
1.36913
1.36915
1.36917
1.3692
1.36923
1.36925
1.3692
1.37048
1.37044
1.37042
1.37043
1.37048
1.37055
1.37065
1.37074
1.37082
1.37088
1.37109
1.37096
1.37092
1.37095
1.37106
1.37122
1.37143
1.37165
1.37184
1.37196
1.37058
1.37035
1.37026
1.37031
1.37051
1.37082
1.37121
1.37164
1.37203
1.37233
1.37058
1.37021
1.37008
1.37016
1.37045
1.37093
1.37155
1.37224
1.3729
1.3734
1.37067
1.37018
1.37
1.3701
1.3705
1.37117
1.37206
1.37307
1.37407
1.37485
1.36971
1.36905
1.36882
1.36894
1.36944
1.37029
1.37144
1.3728
1.37419
1.37535
1.37058
1.36986
1.36958
1.36973
1.37033
1.37134
1.37276
1.37444
1.37624
1.37775
1.36909
1.36824
1.36794
1.36809
1.36875
1.36989
1.37149
1.37348
1.37563
1.37756
1.36736
1.36649
1.36616
1.36635
1.36705
1.36827
1.37001
1.37217
1.37455
1.37679
1.36959
1.36963
1.36964
1.36964
1.36965
1.36967
1.36968
1.3697
1.3697
1.36965
1.3708
1.37078
1.37077
1.37078
1.37081
1.37085
1.37091
1.37096
1.37101
1.37104
1.37155
1.37147
1.37145
1.37147
1.37153
1.37163
1.37176
1.37188
1.372
1.37206
1.37102
1.37087
1.37081
1.37084
1.37097
1.37117
1.37142
1.3717
1.37195
1.37213
1.37117
1.37092
1.37083
1.37088
1.37108
1.37141
1.37183
1.37228
1.3727
1.37301
1.37133
1.37098
1.37085
1.37092
1.37121
1.37169
1.37231
1.37299
1.37366
1.37415
1.37046
1.36997
1.3698
1.36989
1.37026
1.37088
1.37171
1.37266
1.37359
1.37434
1.37148
1.37094
1.37072
1.37084
1.3713
1.37206
1.37309
1.37429
1.37552
1.37649
1.36998
1.36932
1.36909
1.36921
1.36972
1.37059
1.37178
1.37321
1.37469
1.37596
1.36855
1.36786
1.3676
1.36775
1.3683
1.36924
1.37053
1.3721
1.37374
1.37522
1.37007
1.37011
1.37012
1.37012
1.37013
1.37014
1.37015
1.37015
1.37015
1.3701
1.37106
1.37106
1.37105
1.37105
1.37107
1.3711
1.37113
1.37116
1.37119
1.37121
1.37194
1.37189
1.37188
1.37189
1.37193
1.37199
1.37207
1.37214
1.3722
1.37223
1.37135
1.37125
1.37121
1.37123
1.37131
1.37144
1.3716
1.37177
1.37193
1.37204
1.37162
1.37145
1.37139
1.37143
1.37156
1.37178
1.37205
1.37234
1.37261
1.3728
1.37182
1.37158
1.37149
1.37154
1.37174
1.37207
1.37249
1.37294
1.37338
1.37368
1.37102
1.37067
1.37054
1.37061
1.37088
1.37132
1.37189
1.37254
1.37315
1.37364
1.37218
1.37179
1.37163
1.37172
1.37206
1.37261
1.37334
1.37417
1.37499
1.3756
1.37064
1.37014
1.36997
1.37006
1.37044
1.37108
1.37194
1.37294
1.37393
1.37476
1.36953
1.36901
1.36882
1.36893
1.36934
1.37004
1.37098
1.37207
1.37318
1.37414
1.37054
1.37058
1.37059
1.37059
1.37059
1.3706
1.3706
1.3706
1.3706
1.37054
1.37126
1.37126
1.37126
1.37126
1.37127
1.37129
1.37131
1.37133
1.37135
1.37136
1.37228
1.37226
1.37225
1.37226
1.37228
1.37232
1.37236
1.3724
1.37243
1.37243
1.37159
1.37153
1.3715
1.37151
1.37156
1.37164
1.37174
1.37185
1.37195
1.37202
1.37197
1.37186
1.37182
1.37184
1.37193
1.37207
1.37225
1.37243
1.37259
1.3727
1.37218
1.37202
1.37195
1.37199
1.37212
1.37234
1.37262
1.37292
1.3732
1.37338
1.37143
1.37119
1.3711
1.37115
1.37133
1.37164
1.37202
1.37245
1.37284
1.37315
1.37273
1.37246
1.37235
1.37242
1.37265
1.37304
1.37355
1.3741
1.37464
1.37501
1.37111
1.37074
1.37062
1.37069
1.37096
1.37141
1.37201
1.37269
1.37335
1.37388
1.37037
1.36999
1.36984
1.36993
1.37022
1.37072
1.37138
1.37212
1.37286
1.37347
1.37101
1.37105
1.37106
1.37106
1.37106
1.37106
1.37106
1.37106
1.37106
1.371
1.3714
1.37141
1.3714
1.3714
1.37141
1.37142
1.37144
1.37145
1.37146
1.37148
1.3726
1.37259
1.37258
1.37259
1.3726
1.37262
1.37265
1.37267
1.37268
1.37267
1.37177
1.37173
1.37171
1.37172
1.37175
1.3718
1.37186
1.37193
1.37198
1.37203
1.37223
1.37216
1.37214
1.37215
1.37221
1.3723
1.37241
1.37252
1.37262
1.37268
1.37243
1.37233
1.37228
1.37231
1.37239
1.37254
1.37272
1.3729
1.37308
1.37319
1.37174
1.37158
1.37152
1.37155
1.37167
1.37187
1.37213
1.3724
1.37264
1.37284
1.37317
1.37299
1.37292
1.37296
1.37312
1.37339
1.37372
1.37408
1.37443
1.37465
1.37142
1.37116
1.37107
1.37112
1.37131
1.37162
1.37202
1.37247
1.37289
1.37324
1.37111
1.37085
1.37074
1.3708
1.37101
1.37135
1.3718
1.37229
1.37276
1.37315
1.37153
1.37157
1.37158
1.37158
1.37158
1.37158
1.37158
1.37157
1.37157
1.37152
1.37147
1.37147
1.37147
1.37147
1.37148
1.37149
1.3715
1.37151
1.37152
1.37154
1.37289
1.37288
1.37289
1.37289
1.3729
1.37291
1.37292
1.37293
1.37293
1.37291
1.3719
1.37187
1.37186
1.37187
1.37189
1.37192
1.37195
1.37199
1.37203
1.37206
1.37242
1.37238
1.37236
1.37237
1.3724
1.37246
1.37252
1.37259
1.37265
1.37268
1.37259
1.37252
1.37249
1.3725
1.37256
1.37265
1.37276
1.37288
1.37299
1.37306
1.37196
1.37186
1.37182
1.37185
1.37193
1.37205
1.37221
1.37238
1.37253
1.37265
1.37351
1.3734
1.37335
1.37338
1.37348
1.37366
1.37388
1.37411
1.37434
1.37445
1.37159
1.37141
1.37135
1.37138
1.3715
1.37171
1.37197
1.37226
1.37252
1.37275
1.37185
1.37167
1.37159
1.37163
1.37177
1.372
1.3723
1.37261
1.37291
1.37315
1.37223
1.37226
1.37227
1.37227
1.37227
1.37227
1.37227
1.37226
1.37225
1.37221
1.37144
1.37144
1.37144
1.37144
1.37144
1.37145
1.37146
1.37147
1.37148
1.3715
1.37313
1.37314
1.37313
1.37314
1.37314
1.37315
1.37315
1.37316
1.37316
1.37313
1.37199
1.37198
1.37197
1.37198
1.37199
1.37201
1.37203
1.37205
1.37206
1.37208
1.37252
1.3725
1.37248
1.37249
1.37251
1.37254
1.37258
1.37263
1.37266
1.37268
1.37264
1.3726
1.37258
1.37259
1.37262
1.37268
1.37275
1.37283
1.3729
1.37294
1.37212
1.37206
1.37204
1.37205
1.3721
1.37218
1.37228
1.37238
1.37246
1.37253
1.37373
1.37365
1.37362
1.37363
1.3737
1.37381
1.37396
1.37411
1.37426
1.37432
1.3716
1.37148
1.37144
1.37146
1.37154
1.37167
1.37184
1.37202
1.37218
1.37234
1.37271
1.37259
1.37254
1.37257
1.37266
1.37281
1.373
1.3732
1.3734
1.37353
1.37335
1.37338
1.37339
1.37339
1.37339
1.37338
1.37338
1.37337
1.37336
1.37332
1.37122
1.37122
1.37122
1.37122
1.37122
1.37123
1.37123
1.37124
1.37125
1.37128
1.37325
1.37325
1.37324
1.37324
1.37324
1.37325
1.37325
1.37326
1.37327
1.37325
1.37206
1.37205
1.37206
1.37206
1.37207
1.37208
1.37209
1.3721
1.3721
1.37211
1.37255
1.37253
1.37252
1.37252
1.37253
1.37256
1.37258
1.37261
1.37263
1.37265
1.37262
1.37259
1.37257
1.37258
1.3726
1.37264
1.37268
1.37273
1.37278
1.37281
1.3722
1.37217
1.37216
1.37217
1.37221
1.37226
1.37232
1.37238
1.37242
1.37245
1.37369
1.37363
1.3736
1.37361
1.37365
1.37373
1.37382
1.37392
1.37404
1.37407
1.37137
1.37129
1.37127
1.37128
1.37134
1.37142
1.37153
1.37164
1.37172
1.37183
1.37395
1.37387
1.37383
1.37385
1.37391
1.374
1.37413
1.37426
1.37439
1.37447
1.37514
1.37515
1.37515
1.37515
1.37515
1.37515
1.37515
1.37515
1.37515
1.37512
1.37068
1.37068
1.3707
1.37071
1.37071
1.37071
1.37071
1.37071
1.3707
1.37071
1.37311
1.3731
1.37308
1.37307
1.37307
1.37307
1.37308
1.3731
1.37313
1.37314
1.37213
1.37213
1.37214
1.37214
1.37215
1.37216
1.37216
1.37216
1.37216
1.37215
1.37253
1.37251
1.3725
1.3725
1.37251
1.37252
1.37254
1.37256
1.37258
1.3726
1.37255
1.37253
1.37252
1.37252
1.37254
1.37256
1.37259
1.37263
1.37266
1.37268
1.37225
1.37224
1.37223
1.37224
1.37226
1.3723
1.37234
1.37238
1.3724
1.37241
1.37325
1.37319
1.37317
1.37317
1.3732
1.37326
1.37332
1.3734
1.37349
1.37355
1.37077
1.37074
1.37072
1.37074
1.37078
1.37084
1.37091
1.37097
1.37102
1.37106
1.37574
1.37568
1.37565
1.37567
1.37571
1.37578
1.37586
1.37595
1.37606
1.37611
1.37703
1.37701
1.377
1.37699
1.37699
1.37699
1.377
1.37701
1.37704
1.37707
1.36997
1.37003
1.37006
1.37008
1.37009
1.37009
1.37007
1.37005
1.37
1.36992
1.37278
1.37275
1.37272
1.37271
1.37271
1.37272
1.37273
1.37275
1.37279
1.37283
1.37223
1.37224
1.37224
1.37225
1.37225
1.37226
1.37226
1.37226
1.37226
1.37224
1.37252
1.3725
1.3725
1.3725
1.3725
1.37252
1.37253
1.37255
1.37257
1.37258
1.37253
1.37251
1.3725
1.37251
1.37252
1.37254
1.37257
1.3726
1.37263
1.37265
1.37233
1.37231
1.37231
1.37232
1.37234
1.37237
1.3724
1.37244
1.37247
1.37247
1.37266
1.37261
1.37259
1.37259
1.37262
1.37266
1.37272
1.37279
1.37287
1.37295
1.37006
1.37005
1.37004
1.37006
1.37009
1.37015
1.37021
1.37026
1.37029
1.37025
1.37755
1.37751
1.37748
1.37749
1.37753
1.37759
1.37767
1.37775
1.37783
1.37787
1.47373
1.47933
1.4759
1.46872
1.5064
1.51214
1.50529
1.49455
1.53274
1.5378
1.52811
1.51483
1.5516
1.55552
1.54299
1.52769
1.56617
1.56868
1.55342
1.53661
1.57802
1.57907
1.56293
1.54417
1.58593
1.58535
1.56974
1.54864
1.59304
1.59071
1.57592
1.55253
1.59092
1.58671
1.57251
1.54707
1.58315
1.57793
1.56538
1.5388
1.37309
1.37278
1.37333
1.37439
1.39449
1.39586
1.39686
1.39653
1.4138
1.41651
1.41777
1.41586
1.43231
1.43623
1.43761
1.43379
1.4497
1.45447
1.45582
1.44992
1.46656
1.47185
1.47291
1.46534
1.48065
1.4862
1.48686
1.47818
1.49488
1.5005
1.50085
1.49154
1.50186
1.50749
1.50767
1.49813
1.50551
1.51164
1.51183
1.50264
1.37729
1.37774
1.37792
1.37793
1.38997
1.39096
1.39125
1.39109
1.40197
1.40356
1.40398
1.40363
1.41365
1.4159
1.41643
1.41573
1.42509
1.42799
1.42856
1.42732
1.43723
1.44075
1.44129
1.43936
1.44778
1.45182
1.45231
1.4496
1.45962
1.46406
1.46447
1.46097
1.46562
1.47039
1.47073
1.46638
1.46914
1.47468
1.47502
1.46965
1.37052
1.37049
1.37052
1.37063
1.37853
1.37877
1.37887
1.37889
1.38632
1.38688
1.38708
1.38703
1.39461
1.39559
1.39593
1.39576
1.40297
1.40444
1.40491
1.40452
1.41228
1.41428
1.41488
1.41416
1.42039
1.42291
1.42359
1.42246
1.43024
1.43324
1.43398
1.43237
1.4351
1.43853
1.43934
1.43724
1.43777
1.44206
1.44301
1.44022
1.36911
1.36905
1.36906
1.36912
1.37473
1.37488
1.37495
1.37495
1.37968
1.38001
1.38013
1.3801
1.38533
1.38588
1.38607
1.38602
1.39125
1.39207
1.39237
1.39226
1.39819
1.39934
1.39974
1.39953
1.40407
1.40557
1.40608
1.40572
1.41193
1.41379
1.4144
1.41383
1.41582
1.41803
1.4188
1.41803
1.41785
1.42084
1.42181
1.42059
1.36829
1.3682
1.36818
1.36824
1.37249
1.37254
1.37257
1.37258
1.37583
1.37596
1.37602
1.37604
1.3797
1.37995
1.38007
1.3801
1.38397
1.38439
1.38458
1.3846
1.38922
1.38986
1.39013
1.39012
1.39348
1.39436
1.39472
1.39466
1.39982
1.40095
1.4014
1.40127
1.40296
1.40434
1.40496
1.40476
1.40419
1.40622
1.407
1.40646
1.36817
1.36806
1.36804
1.3681
1.37145
1.37147
1.37149
1.3715
1.37393
1.37399
1.37403
1.37404
1.37662
1.37674
1.37681
1.37684
1.37974
1.37996
1.38008
1.38012
1.38375
1.3841
1.38428
1.38433
1.38678
1.38729
1.38754
1.38758
1.39191
1.39259
1.39291
1.39294
1.39433
1.39519
1.39564
1.39565
1.39475
1.39615
1.39671
1.39643
1.36833
1.36822
1.36819
1.36825
1.37093
1.37094
1.37095
1.37096
1.37284
1.37287
1.37289
1.3729
1.37473
1.3748
1.37484
1.37486
1.37711
1.37723
1.3773
1.37733
1.38024
1.38044
1.38055
1.3806
1.3824
1.38268
1.38285
1.38291
1.38659
1.38699
1.38721
1.38727
1.38826
1.38878
1.38908
1.38914
1.38803
1.38902
1.3894
1.3892
1.36865
1.36854
1.36851
1.36856
1.37076
1.37077
1.37077
1.37077
1.37228
1.37229
1.3723
1.3723
1.37355
1.37359
1.37361
1.37363
1.37539
1.37545
1.3755
1.37552
1.37788
1.37799
1.37806
1.37809
1.37938
1.37955
1.37966
1.3797
1.38286
1.3831
1.38324
1.3833
1.38381
1.38414
1.38433
1.38438
1.38316
1.3839
1.38415
1.38396
1.36905
1.36893
1.3689
1.36896
1.37077
1.37078
1.37078
1.37078
1.37203
1.37203
1.37204
1.37204
1.37282
1.37284
1.37286
1.37287
1.37424
1.37428
1.37431
1.37432
1.37621
1.37628
1.37633
1.37635
1.37721
1.37731
1.37737
1.37741
1.38014
1.38029
1.38038
1.38042
1.38052
1.38072
1.38084
1.38088
1.37962
1.3802
1.38036
1.38017
1.36948
1.36936
1.36932
1.36938
1.37089
1.37089
1.37089
1.37089
1.37198
1.37199
1.37199
1.37199
1.37239
1.3724
1.37241
1.37242
1.37351
1.37353
1.37355
1.37356
1.37506
1.3751
1.37513
1.37514
1.37563
1.37569
1.37573
1.37576
1.37816
1.37825
1.37831
1.37833
1.37807
1.3782
1.37828
1.3783
1.37706
1.37755
1.37766
1.37746
1.36992
1.36979
1.36976
1.36982
1.37104
1.37104
1.37104
1.37104
1.37207
1.37207
1.37207
1.37207
1.37216
1.37217
1.37218
1.37218
1.37307
1.37308
1.37309
1.3731
1.37428
1.3743
1.37432
1.37433
1.37451
1.37455
1.37457
1.37459
1.37674
1.37679
1.37683
1.37685
1.37627
1.37635
1.3764
1.37642
1.37527
1.37569
1.37576
1.37557
1.37035
1.37022
1.37019
1.37025
1.37121
1.3712
1.3712
1.37121
1.37223
1.37222
1.37222
1.37222
1.37206
1.37206
1.37206
1.37207
1.37283
1.37283
1.37283
1.37284
1.37376
1.37378
1.37379
1.3738
1.37373
1.37375
1.37376
1.37378
1.37575
1.37578
1.37581
1.37582
1.37495
1.375
1.37503
1.37505
1.37407
1.37443
1.37448
1.3743
1.37079
1.37066
1.37063
1.37069
1.37135
1.37135
1.37135
1.37135
1.37243
1.37243
1.37243
1.37243
1.37202
1.37202
1.37203
1.37203
1.37271
1.37271
1.37271
1.37272
1.37344
1.37344
1.37345
1.37346
1.3732
1.37321
1.37322
1.37323
1.3751
1.37512
1.37514
1.37514
1.374
1.37403
1.37405
1.37406
1.37334
1.37365
1.37369
1.37352
1.37124
1.37111
1.37107
1.37113
1.37147
1.37146
1.37146
1.37147
1.37266
1.37266
1.37266
1.37266
1.37203
1.37203
1.37203
1.37203
1.37268
1.37268
1.37268
1.37268
1.37323
1.37323
1.37324
1.37324
1.37285
1.37285
1.37286
1.37287
1.37471
1.37472
1.37473
1.37473
1.3733
1.37332
1.37334
1.37334
1.37299
1.37326
1.37328
1.37313
1.37174
1.37161
1.37157
1.37164
1.37152
1.37152
1.37152
1.37153
1.37291
1.37291
1.3729
1.3729
1.37204
1.37204
1.37204
1.37205
1.37268
1.37268
1.37268
1.37268
1.37308
1.37309
1.37309
1.37309
1.37263
1.37263
1.37263
1.37264
1.3745
1.3745
1.37451
1.37451
1.37278
1.3728
1.37281
1.37281
1.37298
1.37321
1.37323
1.37309
1.37241
1.37228
1.37225
1.37231
1.37149
1.37148
1.37148
1.37149
1.37314
1.37314
1.37313
1.37313
1.37206
1.37205
1.37205
1.37206
1.37268
1.37267
1.37267
1.37268
1.37296
1.37296
1.37296
1.37297
1.37249
1.37248
1.37248
1.37249
1.37436
1.37437
1.37437
1.37437
1.37234
1.37234
1.37235
1.37236
1.37337
1.37355
1.37356
1.37346
1.3735
1.37337
1.37335
1.37341
1.37125
1.37125
1.37125
1.37126
1.37328
1.37328
1.37328
1.37328
1.37207
1.37206
1.37206
1.37207
1.37265
1.37265
1.37265
1.37265
1.37282
1.37283
1.37283
1.37283
1.37239
1.37238
1.37238
1.37239
1.37415
1.37416
1.37416
1.37416
1.37181
1.37181
1.37182
1.37182
1.37434
1.37447
1.37448
1.3744
1.37527
1.37516
1.37514
1.3752
1.37065
1.37064
1.37064
1.37064
1.3732
1.37321
1.37322
1.37322
1.3721
1.37209
1.37209
1.37209
1.3726
1.3726
1.3726
1.37261
1.3727
1.3727
1.3727
1.3727
1.37235
1.37234
1.37233
1.37234
1.37368
1.3737
1.37371
1.3737
1.37098
1.37096
1.37096
1.37097
1.37608
1.37617
1.37618
1.37613
1.37716
1.37711
1.3771
1.37715
1.36971
1.36966
1.36965
1.36965
1.37293
1.37295
1.37296
1.37297
1.37219
1.37219
1.37218
1.37218
1.37259
1.37259
1.3726
1.3726
1.37266
1.37266
1.37266
1.37266
1.37242
1.37241
1.3724
1.37241
1.37311
1.37315
1.37316
1.37314
1.36997
1.36989
1.36988
1.36993
1.37806
1.37812
1.37812
1.37807
1.43032
1.40584
1.38473
1.37048
1.36193
1.35665
1.35317
1.35079
1.34915
1.34795
1.44257
1.40963
1.38448
1.3697
1.36148
1.35645
1.35321
1.35103
1.34955
1.3485
1.44406
1.40753
1.38008
1.36685
1.35905
1.35428
1.35116
1.34907
1.34773
1.34695
1.44077
1.40354
1.37465
1.36379
1.35653
1.3523
1.34948
1.34761
1.3464
1.34567
1.43479
1.3985
1.36974
1.36072
1.35384
1.35014
1.34758
1.34594
1.34488
1.34434
1.42743
1.39445
1.36626
1.35906
1.35248
1.34935
1.34702
1.34561
1.34466
1.3441
1.41714
1.38927
1.36162
1.35625
1.34983
1.34726
1.3451
1.34389
1.34302
1.34261
1.40917
1.38712
1.36
1.35647
1.35017
1.3481
1.346
1.34485
1.34397
1.34339
1.39815
1.38114
1.35512
1.35368
1.34784
1.34638
1.34434
1.34327
1.34243
1.34186
1.39504
1.38125
1.35582
1.35495
1.34824
1.34611
1.34327
1.34161
1.3403
1.33922
1.37815
1.37538
1.37206
1.3687
1.36548
1.36258
1.36008
1.35801
1.35632
1.35504
1.39577
1.38782
1.3804
1.37405
1.36879
1.36464
1.36143
1.35894
1.357
1.35553
1.40863
1.3956
1.38444
1.37573
1.36889
1.36382
1.36008
1.35731
1.35524
1.35387
1.41817
1.4006
1.38625
1.37604
1.36831
1.36286
1.35894
1.35609
1.35396
1.35252
1.42438
1.40352
1.38649
1.37534
1.36708
1.3615
1.35754
1.3547
1.35257
1.35119
1.42909
1.40615
1.38692
1.37534
1.36677
1.36125
1.35731
1.35453
1.35241
1.35095
1.43061
1.40657
1.38549
1.37383
1.36506
1.35967
1.35576
1.35303
1.35091
1.34951
1.43285
1.40873
1.38626
1.37489
1.36604
1.36083
1.35689
1.35412
1.35193
1.35032
1.43039
1.40636
1.38353
1.37309
1.36454
1.35957
1.35558
1.35277
1.35054
1.34887
1.43079
1.40739
1.38418
1.3738
1.36458
1.359
1.35439
1.35105
1.34845
1.34629
1.37715
1.37512
1.37257
1.36998
1.36757
1.36541
1.36352
1.36192
1.36058
1.35954
1.38928
1.38475
1.37953
1.37488
1.37104
1.3679
1.36533
1.36322
1.36149
1.36014
1.40013
1.39226
1.38392
1.37705
1.37168
1.36753
1.36431
1.36179
1.35983
1.35845
1.40987
1.39832
1.38705
1.37843
1.37194
1.3671
1.36344
1.36064
1.35848
1.35695
1.41828
1.4029
1.38886
1.37883
1.37145
1.36614
1.36221
1.35927
1.35699
1.35545
1.42631
1.4073
1.39078
1.37967
1.37164
1.36606
1.36197
1.35896
1.35663
1.35499
1.4318
1.40944
1.3907
1.37883
1.3703
1.36458
1.36039
1.35735
1.35497
1.35336
1.43806
1.41298
1.39248
1.38026
1.37142
1.36564
1.36135
1.35822
1.35579
1.35399
1.43911
1.41197
1.39089
1.37903
1.37026
1.36451
1.3601
1.35688
1.35437
1.3525
1.44026
1.41221
1.39081
1.37882
1.36953
1.36332
1.35847
1.35488
1.35211
1.34988
1.37055
1.37008
1.36928
1.36827
1.36717
1.36605
1.36497
1.36399
1.36313
1.36244
1.37857
1.37717
1.37523
1.37315
1.37109
1.36915
1.3674
1.36585
1.36452
1.36343
1.38613
1.38316
1.37939
1.37572
1.3724
1.36952
1.36708
1.36504
1.36336
1.36212
1.39396
1.38903
1.38325
1.37799
1.37347
1.36974
1.3667
1.36423
1.36223
1.36074
1.40138
1.39413
1.38619
1.37943
1.37384
1.36941
1.36591
1.36313
1.36091
1.35932
1.4092
1.39942
1.38931
1.3812
1.37472
1.36976
1.36591
1.36292
1.36055
1.3588
1.41519
1.40275
1.3905
1.38123
1.37399
1.36863
1.36452
1.36139
1.35889
1.35713
1.42246
1.40751
1.39339
1.38326
1.37545
1.3698
1.36547
1.36219
1.35959
1.35764
1.42519
1.4082
1.39308
1.38262
1.37454
1.3687
1.36418
1.36077
1.35808
1.35608
1.42734
1.40877
1.39281
1.38183
1.37326
1.36705
1.36221
1.35854
1.35568
1.35339
1.36897
1.3687
1.36828
1.36775
1.36716
1.36653
1.3659
1.36531
1.36479
1.36437
1.37475
1.37412
1.37318
1.37206
1.37085
1.36965
1.3685
1.36744
1.3665
1.36571
1.37966
1.3783
1.37642
1.37436
1.37233
1.37042
1.36869
1.36716
1.36585
1.36484
1.38529
1.38294
1.37985
1.37667
1.37369
1.37101
1.36868
1.36669
1.365
1.36369
1.39106
1.38742
1.3829
1.37852
1.37458
1.37119
1.36833
1.36594
1.36395
1.36248
1.39763
1.39246
1.38636
1.38079
1.37595
1.37193
1.36862
1.36592
1.3637
1.36202
1.40286
1.39591
1.38814
1.38141
1.37575
1.37119
1.3675
1.36456
1.36215
1.36039
1.40977
1.40101
1.39165
1.38393
1.37756
1.37255
1.36854
1.36537
1.36282
1.36087
1.41305
1.40269
1.39223
1.38382
1.37693
1.37156
1.36729
1.36396
1.36129
1.35927
1.41521
1.40331
1.39185
1.38277
1.3754
1.36969
1.36516
1.36162
1.35882
1.35657
1.36812
1.36799
1.3678
1.36754
1.36723
1.3669
1.36656
1.36623
1.36593
1.36571
1.37253
1.37225
1.37179
1.37119
1.37052
1.36981
1.3691
1.36842
1.3678
1.36726
1.37591
1.3753
1.37437
1.37324
1.37202
1.3708
1.36963
1.36854
1.36758
1.36682
1.37986
1.37876
1.37714
1.37529
1.37339
1.37156
1.36986
1.36834
1.36701
1.36593
1.38419
1.3824
1.3799
1.3772
1.37454
1.37207
1.36985
1.36792
1.36625
1.36498
1.38943
1.38677
1.38324
1.37961
1.37618
1.3731
1.37041
1.36812
1.36618
1.36466
1.39358
1.38984
1.38513
1.38053
1.37633
1.37268
1.36957
1.36697
1.36478
1.36315
1.39965
1.39473
1.38883
1.38331
1.37839
1.37422
1.37073
1.36786
1.3655
1.36365
1.40277
1.39672
1.38981
1.38348
1.37794
1.37335
1.36956
1.3665
1.36399
1.36206
1.40429
1.39709
1.38929
1.38233
1.37634
1.37143
1.3674
1.36416
1.36155
1.35942
1.36799
1.36791
1.3678
1.36767
1.36751
1.36733
1.36714
1.36696
1.3668
1.36671
1.37146
1.37131
1.37106
1.37073
1.37035
1.36993
1.36951
1.36909
1.3687
1.36835
1.37397
1.37366
1.37314
1.37249
1.37175
1.37097
1.37019
1.36945
1.36879
1.36826
1.37673
1.37617
1.37527
1.37416
1.37295
1.37172
1.37053
1.36942
1.36842
1.3676
1.37995
1.37903
1.37761
1.37593
1.37415
1.3724
1.37076
1.36927
1.36795
1.36692
1.38406
1.38265
1.38059
1.37825
1.37586
1.37359
1.3715
1.36966
1.36805
1.36675
1.38717
1.38514
1.3823
1.37922
1.37619
1.37339
1.37088
1.36871
1.36684
1.3654
1.3923
1.38954
1.38586
1.38203
1.37837
1.37507
1.37218
1.36972
1.36765
1.36598
1.39485
1.39131
1.38681
1.38225
1.37801
1.37429
1.37109
1.36842
1.36619
1.36443
1.3956
1.39132
1.38615
1.38107
1.37642
1.37241
1.36899
1.36616
1.36383
1.36189
1.36815
1.3681
1.36804
1.36797
1.36788
1.36779
1.36769
1.36759
1.36751
1.36749
1.37094
1.37086
1.37073
1.37055
1.37033
1.37009
1.36984
1.36959
1.36935
1.36913
1.37287
1.37269
1.3724
1.37202
1.37157
1.37108
1.37059
1.3701
1.36966
1.36931
1.37481
1.3745
1.37398
1.3733
1.37253
1.37172
1.37091
1.37013
1.36942
1.36881
1.37726
1.37674
1.3759
1.37484
1.37366
1.37246
1.37128
1.37018
1.36918
1.36839
1.38048
1.37971
1.37846
1.37694
1.37531
1.37368
1.37212
1.3707
1.36943
1.36838
1.38275
1.38161
1.37987
1.37782
1.37568
1.37359
1.37166
1.36992
1.36839
1.36719
1.38701
1.38544
1.38313
1.38052
1.37786
1.37534
1.37305
1.37104
1.36931
1.36787
1.3888
1.38671
1.38381
1.38063
1.3775
1.37461
1.37203
1.36981
1.3679
1.36638
1.38892
1.38639
1.38303
1.37944
1.37598
1.37283
1.37006
1.36769
1.36568
1.36399
1.36847
1.36844
1.3684
1.36836
1.36832
1.36827
1.36821
1.36816
1.36813
1.36815
1.37077
1.37072
1.37065
1.37055
1.37043
1.37029
1.37015
1.37
1.36986
1.36972
1.37228
1.37219
1.37202
1.37179
1.37152
1.37122
1.37091
1.3706
1.37031
1.3701
1.3736
1.37342
1.37311
1.37269
1.37221
1.37168
1.37115
1.37062
1.37013
1.3697
1.37548
1.37518
1.37466
1.37399
1.37322
1.3724
1.37158
1.3708
1.37007
1.36949
1.37803
1.37758
1.3768
1.37582
1.37471
1.37357
1.37245
1.37139
1.37043
1.36961
1.37963
1.37896
1.37786
1.3765
1.37501
1.37351
1.37206
1.37073
1.36953
1.36857
1.38318
1.38225
1.38078
1.37901
1.37713
1.37528
1.37353
1.37195
1.37056
1.36937
1.38422
1.38298
1.38112
1.37896
1.37671
1.37455
1.37254
1.37077
1.3692
1.36793
1.38391
1.3824