/*--------------------------------*- C++ -*----------------------------------*\
| =========                 |                                                 |
| \\      /  F ield         | foam-extend: Open Source CFD                    |
|  \\    /   O peration     | Version:     4.0                                |
|   \\  /    A nd           | Web:         http://www.foam-extend.org         |
|    \\/     M anipulation  |                                                 |
\*---------------------------------------------------------------------------*/
FoamFile
{
    version     2.0;
    format      ascii;
    class       volScalarField;
    location    "1250";
    object      T;
}
// * * * * * * * * * * * * * * * * * * * * * * * * * * * * * * * * * * * * * //

dimensions      [0 0 0 1 0 0 0];

internalField   nonuniform List<scalar> 
34480
(
278.861
278.75
278.669
278.614
278.58
278.57
278.584
278.666
278.935
278.897
278.309
278.19
278.096
278.029
277.994
277.996
278.02
278.062
278.277
277.828
278.194
278.062
277.956
277.881
277.842
277.828
277.807
277.752
277.878
277.098
278.231
278.078
277.949
277.846
277.773
277.708
277.622
277.462
277.466
276.338
278.239
278.062
277.904
277.769
277.654
277.534
277.379
277.108
276.956
275.472
278.302
278.102
277.922
277.76
277.612
277.441
277.219
276.834
276.496
274.629
278.324
278.1
277.896
277.71
277.529
277.314
277.03
276.531
275.983
273.729
278.392
278.146
277.929
277.735
277.547
277.316
276.998
276.415
275.657
272.985
278.446
278.18
277.945
277.732
277.519
277.262
276.901
276.234
275.267
272.24
279.261
278.982
278.779
278.637
278.532
278.41
278.199
277.672
276.664
273.207
279.391
279.298
279.261
279.277
279.349
279.495
279.753
280.209
280.875
281.743
278.74
278.656
278.622
278.639
278.718
278.884
279.174
279.67
280.461
281.478
278.531
278.453
278.422
278.442
278.527
278.698
278.986
279.474
280.322
281.435
278.474
278.395
278.361
278.372
278.444
278.593
278.856
279.32
280.197
281.357
278.396
278.311
278.27
278.267
278.321
278.441
278.672
279.097
279.975
281.149
278.382
278.295
278.248
278.237
278.275
278.369
278.565
278.942
279.791
280.942
278.335
278.242
278.189
278.168
278.192
278.262
278.425
278.748
279.544
280.655
278.35
278.255
278.204
278.189
278.216
278.281
278.424
278.701
279.425
280.445
278.363
278.261
278.204
278.181
278.196
278.246
278.364
278.593
279.236
280.176
279.126
279.037
279.016
279.058
279.161
279.313
279.531
279.835
280.429
281.094
279.861
279.763
279.727
279.747
279.824
279.969
280.199
280.545
281.042
281.664
279.204
279.106
279.07
279.094
279.184
279.357
279.646
280.1
280.807
281.734
278.98
278.882
278.846
278.87
278.965
279.151
279.467
279.981
280.851
282.063
278.893
278.79
278.75
278.766
278.854
279.032
279.349
279.891
280.896
282.359
278.785
278.677
278.629
278.634
278.707
278.866
279.17
279.715
280.817
282.486
278.745
278.633
278.58
278.577
278.637
278.776
279.058
279.588
280.748
282.57
278.676
278.558
278.499
278.487
278.534
278.653
278.91
279.411
280.596
282.533
278.672
278.552
278.495
278.486
278.535
278.647
278.887
279.355
280.529
282.525
278.668
278.545
278.483
278.468
278.508
278.608
278.825
279.252
280.389
282.464
279.398
279.287
279.252
279.286
279.39
279.564
279.848
280.314
281.396
283.391
280.197
280.111
280.081
280.1
280.168
280.288
280.466
280.707
281.012
281.35
279.568
279.475
279.443
279.468
279.556
279.715
279.96
280.313
280.797
281.345
279.355
279.255
279.22
279.247
279.345
279.527
279.82
280.26
280.916
281.707
279.257
279.147
279.106
279.13
279.228
279.417
279.735
280.239
281.058
282.106
279.133
279.015
278.968
278.983
279.073
279.257
279.583
280.125
281.085
282.374
279.076
278.952
278.899
278.908
278.99
279.163
279.487
280.047
281.118
282.617
278.99
278.861
278.803
278.803
278.875
279.035
279.348
279.91
281.063
282.743
278.97
278.839
278.781
278.784
278.857
279.013
279.318
279.869
281.067
282.884
278.952
278.819
278.758
278.755
278.822
278.969
279.263
279.794
280.996
282.962
279.649
279.527
279.485
279.517
279.628
279.826
280.162
280.723
281.895
283.893
280.424
280.357
280.334
280.349
280.399
280.485
280.604
280.753
280.922
281.088
279.842
279.764
279.737
279.759
279.832
279.96
280.146
280.391
280.691
280.986
279.659
279.566
279.534
279.56
279.649
279.808
280.05
280.387
280.835
281.303
279.566
279.459
279.42
279.445
279.541
279.72
280.004
280.421
281.025
281.699
279.441
279.322
279.276
279.296
279.392
279.577
279.888
280.367
281.117
282.007
279.376
279.249
279.197
279.212
279.305
279.492
279.818
280.338
281.221
282.319
279.282
279.147
279.091
279.099
279.187
279.368
279.698
280.245
281.239
282.533
279.251
279.114
279.056
279.067
279.156
279.337
279.671
280.23
281.302
282.764
279.222
279.083
279.023
279.03
279.114
279.291
279.621
280.183
281.295
282.938
279.887
279.758
279.711
279.742
279.857
280.067
280.426
281.014
282.126
283.865
280.573
280.524
280.508
280.518
280.552
280.608
280.683
280.771
280.864
280.952
280.042
279.982
279.961
279.978
280.033
280.127
280.258
280.42
280.599
280.759
279.896
279.817
279.79
279.812
279.886
280.014
280.2
280.441
280.731
281.004
279.818
279.721
279.686
279.71
279.797
279.952
280.187
280.509
280.927
281.346
279.703
279.591
279.548
279.57
279.662
279.835
280.108
280.499
281.048
281.633
279.639
279.516
279.467
279.486
279.581
279.764
280.065
280.513
281.19
281.948
279.544
279.411
279.357
279.372
279.465
279.651
279.97
280.462
281.254
282.186
279.508
279.371
279.315
279.331
279.428
279.619
279.951
280.472
281.356
282.45
279.471
279.332
279.275
279.288
279.382
279.572
279.909
280.449
281.394
282.664
280.105
279.975
279.926
279.955
280.07
280.284
280.641
281.206
282.172
283.556
280.67
280.634
280.623
280.629
280.651
280.685
280.73
280.78
280.831
280.882
280.184
280.141
280.126
280.138
280.178
280.243
280.33
280.432
280.537
280.625
280.075
280.013
279.991
280.008
280.066
280.163
280.297
280.463
280.646
280.805
280.017
279.936
279.906
279.926
279.999
280.126
280.309
280.545
280.825
281.083
279.918
279.819
279.782
279.802
279.885
280.035
280.26
280.564
280.951
281.329
279.863
279.75
279.706
279.726
279.816
279.982
280.244
280.609
281.105
281.616
279.772
279.647
279.598
279.615
279.708
279.885
280.173
280.589
281.193
281.844
279.736
279.605
279.553
279.572
279.67
279.856
280.165
280.621
281.315
282.104
279.695
279.561
279.508
279.525
279.622
279.811
280.13
280.616
281.377
282.317
280.299
280.173
280.124
280.152
280.264
280.47
280.806
281.317
282.11
283.154
280.733
280.706
280.699
280.702
280.715
280.736
280.762
280.79
280.818
280.851
280.286
280.257
280.246
280.254
280.281
280.324
280.379
280.442
280.504
280.553
280.208
280.162
280.146
280.159
280.201
280.27
280.364
280.474
280.587
280.681
280.17
280.105
280.081
280.098
280.155
280.253
280.39
280.557
280.741
280.9
280.091
280.008
279.977
279.995
280.064
280.187
280.365
280.592
280.857
281.099
280.048
279.949
279.911
279.93
280.01
280.153
280.369
280.654
281.008
281.347
279.965
279.853
279.809
279.827
279.913
280.072
280.318
280.656
281.1
281.547
279.934
279.814
279.767
279.787
279.879
280.051
280.322
280.703
281.229
281.785
279.891
279.767
279.718
279.737
279.831
280.008
280.295
280.71
281.299
281.973
280.466
280.349
280.303
280.329
280.433
280.623
280.925
281.365
281.989
282.746
280.774
280.753
280.748
280.75
280.757
280.769
280.784
280.799
280.815
280.839
280.36
280.34
280.333
280.338
280.355
280.382
280.417
280.455
280.491
280.519
280.308
280.275
280.263
280.272
280.302
280.35
280.412
280.483
280.553
280.609
280.286
280.237
280.218
280.231
280.274
280.347
280.445
280.56
280.679
280.777
280.227
280.16
280.135
280.149
280.205
280.301
280.436
280.6
280.779
280.933
280.196
280.114
280.083
280.099
280.166
280.284
280.454
280.669
280.917
281.14
280.124
280.028
279.99
280.007
280.082
280.217
280.419
280.683
281.003
281.305
280.1
279.996
279.955
279.974
280.056
280.207
280.435
280.74
281.127
281.512
280.057
279.947
279.904
279.922
280.008
280.167
280.412
280.751
281.194
281.666
280.606
280.501
280.459
280.482
280.576
280.745
281.004
281.366
281.842
282.374
280.799
280.782
280.779
280.78
280.784
280.791
280.799
280.808
280.817
280.836
280.414
280.401
280.396
280.4
280.41
280.427
280.448
280.47
280.491
280.508
280.383
280.36
280.352
280.358
280.378
280.41
280.45
280.495
280.538
280.571
280.373
280.337
280.323
280.332
280.363
280.415
280.483
280.56
280.636
280.697
280.331
280.28
280.261
280.272
280.315
280.387
280.485
280.6
280.719
280.818
280.314
280.248
280.223
280.236
280.29
280.383
280.512
280.669
280.84
280.986
280.251
280.172
280.141
280.155
280.218
280.328
280.487
280.687
280.912
281.115
280.238
280.15
280.115
280.132
280.203
280.329
280.513
280.75
281.028
281.29
280.195
280.1
280.063
280.08
280.155
280.291
280.492
280.759
281.083
281.407
280.717
280.627
280.59
280.61
280.691
280.835
281.05
281.337
281.689
282.053
280.815
280.8
280.798
280.798
280.8
280.804
280.809
280.814
280.82
280.835
280.454
280.446
280.443
280.445
280.451
280.461
280.474
280.487
280.5
280.51
280.439
280.425
280.419
280.423
280.436
280.456
280.482
280.51
280.536
280.556
280.437
280.411
280.401
280.407
280.429
280.465
280.511
280.561
280.61
280.648
280.411
280.373
280.358
280.367
280.398
280.45
280.52
280.599
280.677
280.74
280.404
280.354
280.334
280.345
280.386
280.456
280.552
280.664
280.779
280.874
280.351
280.287
280.263
280.275
280.325
280.411
280.532
280.678
280.835
280.969
280.349
280.278
280.25
280.264
280.322
280.423
280.566
280.744
280.94
281.116
280.305
280.226
280.196
280.211
280.274
280.385
280.544
280.748
280.98
281.197
280.8
280.726
280.695
280.712
280.78
280.898
281.069
281.29
281.544
281.787
280.823
280.81
280.808
280.808
280.809
280.811
280.814
280.817
280.821
280.835
280.485
280.48
280.478
280.479
280.483
280.489
280.496
280.504
280.512
280.519
280.484
280.475
280.471
280.473
280.482
280.494
280.51
280.527
280.543
280.555
280.484
280.466
280.459
280.463
280.478
280.501
280.532
280.565
280.595
280.619
280.471
280.444
280.433
280.439
280.462
280.498
280.546
280.599
280.65
280.689
280.473
280.435
280.421
280.429
280.459
280.511
280.579
280.656
280.733
280.795
280.426
280.378
280.359
280.368
280.406
280.472
280.561
280.665
280.772
280.861
280.438
280.382
280.36
280.372
280.417
280.496
280.603
280.732
280.868
280.984
280.391
280.328
280.304
280.316
280.366
280.453
280.576
280.726
280.888
281.033
280.859
280.801
280.775
280.789
280.844
280.937
281.069
281.233
281.412
281.57
280.825
280.813
280.812
280.812
280.812
280.813
280.815
280.817
280.819
280.832
280.509
280.506
280.504
280.505
280.507
280.51
280.515
280.519
280.524
280.529
280.52
280.514
280.512
280.514
280.519
280.527
280.536
280.546
280.556
280.563
280.518
280.506
280.501
280.504
280.513
280.529
280.548
280.569
280.589
280.604
280.516
280.497
280.49
280.494
280.509
280.534
280.566
280.601
280.634
280.659
280.524
280.497
280.487
280.492
280.514
280.551
280.598
280.651
280.701
280.741
280.483
280.446
280.432
280.439
280.468
280.516
280.579
280.652
280.723
280.781
280.507
280.465
280.449
280.458
280.492
280.551
280.629
280.72
280.812
280.888
280.455
280.406
280.388
280.397
280.436
280.502
280.593
280.7
280.812
280.906
280.897
280.852
280.832
280.843
280.885
280.956
281.055
281.172
281.296
281.397
280.822
280.812
280.81
280.81
280.811
280.811
280.812
280.813
280.815
280.827
280.527
280.524
280.523
280.523
280.525
280.527
280.529
280.532
280.536
280.54
280.551
280.547
280.546
280.547
280.55
280.555
280.561
280.566
280.572
280.577
280.542
280.534
280.531
280.533
280.539
280.549
280.561
280.574
280.586
280.596
280.55
280.537
280.533
280.535
280.546
280.562
280.583
280.605
280.626
280.641
280.562
280.543
280.536
280.54
280.555
280.58
280.612
280.647
280.68
280.705
280.524
280.497
280.487
280.492
280.513
280.546
280.59
280.64
280.687
280.724
280.562
280.531
280.519
280.526
280.551
280.593
280.649
280.711
280.772
280.821
280.5
280.464
280.45
280.457
280.486
280.535
280.599
280.674
280.749
280.81
280.915
280.883
280.868
280.876
280.908
280.96
281.031
281.113
281.196
281.259
280.816
280.806
280.806
280.805
280.806
280.806
280.806
280.807
280.808
280.819
280.539
280.537
280.536
280.536
280.537
280.538
280.54
280.542
280.544
280.548
280.578
280.576
280.576
280.576
280.578
280.581
280.584
280.587
280.59
280.593
280.56
280.554
280.552
280.553
280.557
280.563
280.571
280.579
280.586
280.593
280.576
280.567
280.564
280.566
280.573
280.583
280.597
280.611
280.623
280.633
280.589
280.576
280.571
280.574
280.584
280.601
280.622
280.644
280.665
280.681
280.552
280.534
280.527
280.531
280.545
280.568
280.597
280.63
280.66
280.685
280.605
280.584
280.575
280.58
280.598
280.627
280.665
280.707
280.747
280.778
280.53
280.504
280.494
280.499
280.52
280.554
280.599
280.65
280.699
280.738
280.92
280.897
280.887
280.893
280.915
280.952
281.002
281.057
281.112
281.15
280.809
280.8
280.799
280.799
280.799
280.8
280.8
280.8
280.801
280.81
280.545
280.543
280.543
280.543
280.543
280.544
280.545
280.546
280.548
280.552
280.603
280.602
280.602
280.602
280.604
280.605
280.607
280.609
280.61
280.612
280.571
280.567
280.566
280.566
280.569
280.573
280.577
280.582
280.587
280.592
280.594
280.589
280.587
280.588
280.592
280.599
280.607
280.616
280.623
280.63
280.607
280.599
280.595
280.597
280.604
280.615
280.628
280.642
280.656
280.666
280.572
280.56
280.556
280.558
280.567
280.582
280.602
280.622
280.642
280.657
280.64
280.626
280.62
280.623
280.635
280.655
280.68
280.707
280.733
280.752
280.547
280.528
280.522
280.525
280.539
280.563
280.593
280.626
280.658
280.683
280.916
280.901
280.893
280.897
280.913
280.938
280.972
281.008
281.044
281.066
280.806
280.798
280.798
280.798
280.798
280.798
280.798
280.798
280.799
280.807
280.544
280.542
280.541
280.541
280.541
280.542
280.543
280.544
280.546
280.55
280.626
280.626
280.626
280.626
280.627
280.628
280.629
280.629
280.63
280.631
280.578
280.576
280.575
280.575
280.576
280.579
280.581
280.584
280.587
280.59
280.606
280.603
280.602
280.602
280.605
280.609
280.614
280.619
280.624
280.628
280.617
280.612
280.61
280.611
280.615
280.622
280.63
280.639
280.647
280.654
280.585
280.577
280.574
280.576
280.582
280.592
280.604
280.617
280.628
280.638
280.666
280.657
280.653
280.655
280.663
280.676
280.693
280.71
280.727
280.738
280.551
280.538
280.534
280.536
280.545
280.561
280.58
280.601
280.621
280.638
280.911
280.901
280.896
280.899
280.909
280.926
280.948
280.971
280.994
281.006
280.821
280.815
280.815
280.815
280.815
280.815
280.815
280.815
280.815
280.821
280.53
280.529
280.528
280.528
280.528
280.529
280.529
280.53
280.532
280.536
280.644
280.644
280.644
280.644
280.644
280.645
280.645
280.646
280.646
280.647
280.581
280.58
280.579
280.58
280.58
280.582
280.583
280.585
280.586
280.588
280.612
280.61
280.609
280.609
280.611
280.613
280.616
280.619
280.622
280.625
280.62
280.616
280.615
280.615
280.618
280.622
280.627
280.633
280.638
280.643
280.591
280.587
280.585
280.586
280.59
280.596
280.603
280.611
280.618
280.623
280.68
280.674
280.671
280.672
280.677
280.685
280.696
280.707
280.719
280.725
280.538
280.53
280.527
280.529
280.535
280.545
280.557
280.57
280.582
280.593
280.919
280.913
280.909
280.911
280.918
280.929
280.943
280.958
280.973
280.979
280.874
280.87
280.87
280.869
280.869
280.869
280.869
280.869
280.869
280.874
280.497
280.495
280.495
280.496
280.496
280.496
280.496
280.497
280.497
280.501
280.65
280.649
280.648
280.648
280.648
280.648
280.649
280.65
280.651
280.653
280.582
280.582
280.582
280.582
280.583
280.583
280.584
280.585
280.585
280.586
280.612
280.61
280.61
280.61
280.611
280.612
280.614
280.616
280.618
280.62
280.616
280.614
280.613
280.613
280.615
280.617
280.621
280.624
280.628
280.631
280.592
280.59
280.589
280.59
280.592
280.596
280.601
280.605
280.609
280.612
280.671
280.666
280.664
280.664
280.668
280.673
280.68
280.688
280.696
280.702
280.502
280.497
280.496
280.497
280.501
280.508
280.515
280.523
280.53
280.536
280.957
280.954
280.951
280.952
280.956
280.964
280.973
280.983
280.993
280.996
280.957
280.954
280.954
280.953
280.953
280.953
280.954
280.954
280.955
280.959
280.44
280.441
280.443
280.444
280.445
280.445
280.444
280.443
280.441
280.44
280.64
280.637
280.636
280.635
280.635
280.635
280.636
280.638
280.64
280.643
280.584
280.584
280.584
280.585
280.585
280.586
280.586
280.586
280.586
280.586
280.61
280.608
280.608
280.608
280.609
280.61
280.611
280.613
280.614
280.616
280.612
280.61
280.609
280.609
280.61
280.612
280.615
280.617
280.62
280.622
280.592
280.591
280.59
280.591
280.593
280.595
280.599
280.602
280.604
280.606
280.64
280.636
280.634
280.634
280.636
280.641
280.646
280.652
280.659
280.665
280.443
280.442
280.441
280.442
280.445
280.45
280.455
280.461
280.464
280.464
281.018
281.015
281.013
281.013
281.017
281.022
281.029
281.036
281.044
281.047
289.492
291.248
291.513
289.926
290.654
292.783
293.192
291.535
292.313
294.938
295.472
293.503
293.593
296.658
297.327
295.148
294.537
298.012
298.822
296.503
295.284
299.139
300.109
297.923
295.83
300.046
301.208
299.347
296.302
300.841
302.21
300.726
296.516
301.356
302.939
301.879
297.075
302.106
303.956
303.481
286.19
286.736
286.717
286.194
287.483
288.125
288.064
287.413
289.083
289.886
289.775
288.919
290.519
291.468
291.298
290.249
291.692
292.782
292.547
291.313
292.711
293.939
293.679
292.288
293.516
294.873
294.625
293.099
294.21
295.674
295.447
293.81
294.647
296.174
295.975
294.273
295.432
296.932
296.844
295.195
282.287
282.421
282.452
282.384
283.013
283.231
283.271
283.136
284.176
284.514
284.558
284.31
285.439
285.897
285.938
285.559
286.599
287.172
287.2
286.678
287.73
288.416
288.429
287.77
288.719
289.513
289.514
288.729
289.655
290.542
290.533
289.644
290.412
291.339
291.328
290.388
291.654
292.509
292.538
291.675
281.52
281.586
281.607
281.586
281.776
281.861
281.891
281.869
282.482
282.63
282.672
282.619
283.354
283.576
283.628
283.527
284.192
284.491
284.548
284.385
285.078
285.459
285.517
285.279
285.894
286.355
286.411
286.092
286.728
287.26
287.312
286.911
287.48
288.046
288.093
287.638
288.821
289.313
289.373
288.961
281.087
281.123
281.136
281.124
281.124
281.153
281.168
281.167
281.572
281.629
281.655
281.651
282.18
282.278
282.318
282.302
282.772
282.921
282.972
282.935
283.436
283.641
283.703
283.634
284.058
284.323
284.392
284.282
284.731
285.051
285.123
284.965
285.364
285.714
285.784
285.586
286.614
286.892
286.968
286.806
280.916
280.945
280.954
280.943
280.818
280.831
280.837
280.838
281.121
281.146
281.16
281.161
281.559
281.605
281.628
281.629
281.983
282.058
282.092
282.088
282.48
282.589
282.635
282.623
282.943
283.091
283.148
283.121
283.463
283.651
283.715
283.666
283.962
284.172
284.237
284.166
285.08
285.223
285.291
285.26
280.832
280.859
280.866
280.855
280.65
280.656
280.659
280.66
280.859
280.871
280.878
280.879
281.186
281.209
281.221
281.223
281.5
281.539
281.559
281.561
281.883
281.941
281.97
281.972
282.232
282.314
282.353
282.352
282.636
282.744
282.791
282.782
283.012
283.136
283.186
283.167
284.006
284.063
284.115
284.14
280.797
280.822
280.829
280.818
280.566
280.569
280.571
280.571
280.709
280.716
280.719
280.72
280.954
280.966
280.973
280.974
281.19
281.211
281.222
281.225
281.49
281.523
281.54
281.544
281.758
281.804
281.829
281.832
282.074
282.136
282.167
282.169
282.351
282.423
282.458
282.457
283.24
283.245
283.28
283.326
280.783
280.809
280.816
280.804
280.526
280.528
280.529
280.529
280.625
280.628
280.63
280.631
280.807
280.814
280.818
280.819
280.985
280.996
281.003
281.004
281.221
281.239
281.25
281.252
281.424
281.451
281.466
281.47
281.675
281.711
281.73
281.734
281.876
281.919
281.942
281.945
282.678
282.652
282.674
282.725
280.78
280.806
280.812
280.8
280.513
280.514
280.515
280.515
280.581
280.583
280.584
280.585
280.716
280.72
280.722
280.723
280.849
280.855
280.859
280.86
281.034
281.045
281.051
281.052
281.185
281.202
281.211
281.213
281.385
281.406
281.418
281.421
281.529
281.555
281.569
281.573
282.255
282.212
282.225
282.275
280.781
280.806
280.813
280.801
280.514
280.515
280.515
280.515
280.563
280.564
280.565
280.565
280.66
280.663
280.664
280.665
280.759
280.764
280.766
280.766
280.904
280.91
280.914
280.915
281.013
281.023
281.029
281.03
281.173
281.186
281.194
281.196
281.272
281.288
281.297
281.299
281.931
281.88
281.886
281.934
280.781
280.807
280.814
280.801
280.522
280.523
280.523
280.523
280.56
280.561
280.562
280.561
280.628
280.63
280.631
280.631
280.702
280.705
280.707
280.707
280.814
280.819
280.821
280.821
280.889
280.896
280.899
280.9
281.02
281.028
281.033
281.034
281.081
281.091
281.096
281.098
281.681
281.625
281.628
281.673
280.78
280.806
280.813
280.8
280.532
280.533
280.534
280.534
280.567
280.568
280.568
280.568
280.61
280.612
280.613
280.612
280.668
280.67
280.671
280.67
280.754
280.757
280.758
280.759
280.801
280.805
280.807
280.808
280.911
280.917
280.92
280.92
280.939
280.945
280.949
280.95
281.485
281.43
281.43
281.472
280.777
280.803
280.81
280.797
280.543
280.544
280.544
280.544
280.58
280.58
280.58
280.58
280.602
280.603
280.603
280.603
280.648
280.649
280.65
280.65
280.714
280.716
280.717
280.717
280.738
280.741
280.743
280.743
280.837
280.84
280.842
280.842
280.834
280.838
280.84
280.84
281.331
281.278
281.278
281.315
280.771
280.797
280.804
280.791
280.551
280.552
280.553
280.552
280.596
280.596
280.596
280.596
280.598
280.599
280.599
280.599
280.638
280.639
280.639
280.639
280.688
280.69
280.691
280.69
280.695
280.697
280.698
280.698
280.788
280.79
280.792
280.791
280.756
280.759
280.76
280.76
281.209
281.16
281.16
281.193
280.765
280.792
280.798
280.785
280.555
280.557
280.557
280.557
280.614
280.614
280.614
280.613
280.596
280.596
280.597
280.596
280.634
280.634
280.635
280.634
280.672
280.673
280.673
280.673
280.665
280.666
280.667
280.666
280.759
280.761
280.762
280.761
280.697
280.7
280.7
280.7
281.114
281.07
281.07
281.099
280.765
280.791
280.797
280.784
280.554
280.555
280.555
280.555
280.632
280.632
280.632
280.632
280.594
280.594
280.595
280.594
280.631
280.632
280.632
280.632
280.659
280.66
280.66
280.66
280.643
280.644
280.645
280.644
280.743
280.745
280.745
280.745
280.649
280.651
280.652
280.651
281.043
281.007
281.007
281.031
280.784
280.809
280.814
280.801
280.54
280.542
280.542
280.542
280.648
280.649
280.649
280.648
280.591
280.591
280.591
280.591
280.628
280.629
280.629
280.629
280.647
280.648
280.648
280.648
280.627
280.627
280.628
280.627
280.731
280.732
280.733
280.733
280.603
280.605
280.605
280.604
281.006
280.978
280.978
280.997
280.844
280.866
280.869
280.857
280.506
280.507
280.508
280.508
280.655
280.656
280.656
280.656
280.588
280.588
280.588
280.587
280.623
280.624
280.624
280.624
280.635
280.636
280.636
280.636
280.613
280.614
280.614
280.613
280.71
280.712
280.712
280.712
280.543
280.544
280.544
280.543
281.016
280.998
280.998
281.01
280.942
280.955
280.957
280.949
280.443
280.444
280.444
280.443
280.649
280.65
280.65
280.651
280.586
280.586
280.586
280.585
280.619
280.619
280.619
280.619
280.626
280.626
280.627
280.626
280.605
280.605
280.605
280.605
280.677
280.68
280.68
280.679
280.461
280.461
280.46
280.46
281.064
281.059
281.06
281.062
282.223
280.927
280.386
280.04
279.746
279.505
279.313
279.162
279.041
278.936
282.369
281.133
280.301
279.778
279.362
279.055
278.827
278.657
278.528
278.423
282.941
281.637
280.509
279.87
279.37
279.024
278.77
278.579
278.436
278.322
283.533
282.168
280.771
280.068
279.504
279.133
278.86
278.655
278.5
278.374
284.006
282.618
280.974
280.221
279.597
279.207
278.915
278.698
278.533
278.399
284.551
283.105
281.238
280.449
279.765
279.357
279.044
278.813
278.632
278.482
285.028
283.499
281.433
280.621
279.88
279.459
279.125
278.879
278.685
278.524
285.59
283.984
281.732
280.903
280.103
279.665
279.302
279.032
278.81
278.619
286.036
284.372
281.941
281.136
280.301
279.859
279.46
279.161
278.911
278.694
287.766
286.101
283.514
282.656
281.695
281.127
280.604
280.202
279.868
279.575
284.015
282.709
281.724
281.013
280.52
280.175
279.925
279.737
279.592
279.471
284.461
282.678
281.35
280.492
279.939
279.562
279.293
279.098
278.955
278.849
285.054
282.864
281.279
280.351
279.757
279.36
279.081
278.88
278.737
278.634
285.539
283.047
281.269
280.318
279.697
279.294
279.013
278.815
278.674
278.575
285.802
283.098
281.191
280.232
279.591
279.191
278.913
278.72
278.586
278.492
285.997
283.164
281.163
280.217
279.559
279.166
278.892
278.705
278.574
278.48
286.039
283.141
281.069
280.152
279.482
279.103
278.833
278.653
278.525
278.434
286.092
283.196
281.069
280.194
279.513
279.147
278.877
278.695
278.56
278.458
286.047
283.182
281.007
280.213
279.546
279.211
278.934
278.744
278.598
278.484
286.954
284.241
282.07
281.327
280.612
280.22
279.874
279.629
279.437
279.293
282.15
281.772
281.403
281.074
280.792
280.556
280.359
280.196
280.059
279.941
282.609
281.929
281.312
280.802
280.389
280.062
279.805
279.604
279.449
279.33
283.378
282.364
281.499
280.832
280.316
279.924
279.627
279.402
279.233
279.109
284.144
282.807
281.708
280.913
280.318
279.884
279.564
279.327
279.151
279.024
284.715
283.095
281.794
280.902
280.248
279.789
279.457
279.217
279.041
278.915
285.22
283.362
281.89
280.928
280.232
279.759
279.422
279.181
279.005
278.877
285.564
283.51
281.893
280.888
280.162
279.686
279.348
279.109
278.935
278.809
285.883
283.685
281.948
280.924
280.179
279.706
279.367
279.127
278.947
278.813
286.084
283.768
281.932
280.929
280.192
279.738
279.396
279.15
278.962
278.818
287.071
284.75
282.876
281.896
281.129
280.639
280.251
279.968
279.749
279.59
281.543
281.397
281.22
281.04
280.87
280.715
280.578
280.458
280.352
280.255
281.748
281.46
281.13
280.814
280.534
280.295
280.094
279.928
279.793
279.686
282.374
281.89
281.381
280.926
280.542
280.227
279.972
279.768
279.608
279.486
283.103
282.387
281.681
281.091
280.612
280.235
279.939
279.709
279.531
279.398
283.727
282.767
281.869
281.157
280.6
280.175
279.851
279.605
279.417
279.279
284.339
283.139
282.059
281.245
280.624
280.165
279.822
279.565
279.371
279.227
284.825
283.397
282.152
281.256
280.585
280.104
279.749
279.486
279.289
279.144
285.295
283.664
282.274
281.32
280.612
280.119
279.756
279.488
279.284
279.131
285.661
283.838
282.324
281.347
280.628
280.137
279.766
279.492
279.281
279.121
286.705
284.78
283.206
282.221
281.473
280.954
280.553
280.253
280.022
279.856
281.134
281.088
281.017
280.933
280.845
280.758
280.675
280.598
280.525
280.454
281.141
281.027
280.873
280.705
280.54
280.386
280.248
280.126
280.023
279.938
281.591
281.385
281.122
280.852
280.6
280.375
280.181
280.018
279.884
279.777
282.182
281.844
281.446
281.064
280.722
280.43
280.187
279.987
279.827
279.702
282.723
282.229
281.684
281.189
280.764
280.414
280.131
279.904
279.726
279.589
283.299
282.633
281.935
281.334
280.834
280.436
280.122
279.875
279.682
279.535
283.79
282.943
282.096
281.399
280.836
280.4
280.062
279.802
279.599
279.446
284.288
283.264
282.276
281.5
280.887
280.425
280.07
279.797
279.585
279.424
284.702
283.496
282.383
281.556
280.914
280.438
280.07
279.789
279.57
279.402
285.738
284.41
283.225
282.366
281.693
281.192
280.802
280.502
280.269
280.1
280.959
280.942
280.909
280.868
280.822
280.774
280.725
280.678
280.631
280.58
280.828
280.777
280.7
280.61
280.514
280.42
280.33
280.247
280.175
280.113
281.141
281.044
280.904
280.748
280.589
280.439
280.302
280.181
280.078
279.993
281.589
281.424
281.202
280.964
280.733
280.523
280.338
280.179
280.046
279.939
282.017
281.763
281.44
281.113
280.81
280.542
280.313
280.122
279.965
279.84
282.503
282.142
281.709
281.29
280.915
280.595
280.328
280.109
279.932
279.793
282.934
282.451
281.9
281.393
280.952
280.586
280.288
280.048
279.856
279.707
283.393
282.78
282.112
281.524
281.027
280.625
280.303
280.046
279.841
279.681
283.784
283.028
282.251
281.602
281.065
280.641
280.301
280.032
279.819
279.652
284.765
283.905
283.058
282.366
281.796
281.347
280.988
280.704
280.48
280.316
280.874
280.867
280.853
280.832
280.808
280.782
280.754
280.726
280.696
280.66
280.656
280.632
280.593
280.544
280.49
280.433
280.377
280.324
280.276
280.234
280.871
280.822
280.748
280.658
280.561
280.464
280.372
280.288
280.213
280.149
281.207
281.123
280.998
280.854
280.704
280.56
280.426
280.307
280.203
280.117
281.534
281.4
281.212
281.003
280.795
280.6
280.426
280.273
280.144
280.038
281.927
281.731
281.467
281.188
280.919
280.675
280.461
280.279
280.126
280.002
282.28
282.009
281.66
281.307
280.978
280.689
280.441
280.233
280.061
279.925
282.671
282.314
281.877
281.454
281.071
280.742
280.466
280.237
280.05
279.901
283.002
282.546
282.026
281.544
281.119
280.762
280.465
280.222
280.025
279.869
283.905
283.375
282.795
282.269
281.811
281.43
281.115
280.859
280.653
280.501
280.837
280.835
280.828
280.818
280.805
280.791
280.775
280.759
280.739
280.712
280.569
280.556
280.535
280.508
280.477
280.444
280.41
280.377
280.346
280.319
280.715
280.689
280.648
280.595
280.537
280.476
280.416
280.359
280.307
280.262
280.966
280.92
280.849
280.761
280.666
280.57
280.477
280.391
280.314
280.248
281.212
281.138
281.027
280.895
280.756
280.62
280.492
280.376
280.275
280.19
281.523
281.414
281.254
281.071
280.884
280.705
280.542
280.397
280.271
280.168
281.801
281.646
281.429
281.19
280.953
280.733
280.536
280.365
280.219
280.1
282.122
281.913
281.633
281.338
281.054
280.797
280.571
280.378
280.215
280.083
282.384
282.114
281.774
281.429
281.106
280.82
280.573
280.364
280.19
280.05
283.204
282.886
282.5
282.117
281.764
281.455
281.191
280.97
280.788
280.653
280.823
280.823
280.82
280.814
280.808
280.8
280.791
280.781
280.768
280.747
280.528
280.521
280.509
280.494
280.476
280.457
280.436
280.416
280.397
280.38
280.628
280.613
280.589
280.559
280.523
280.486
280.447
280.41
280.376
280.345
280.814
280.788
280.746
280.693
280.633
280.57
280.507
280.447
280.392
280.344
280.997
280.955
280.888
280.806
280.714
280.621
280.53
280.445
280.369
280.304
281.242
281.178
281.08
280.962
280.835
280.708
280.587
280.476
280.378
280.295
281.454
281.364
281.228
281.069
280.903
280.741
280.59
280.455
280.337
280.239
281.711
281.588
281.411
281.209
281.005
280.811
280.634
280.477
280.342
280.23
281.911
281.751
281.532
281.292
281.055
280.834
280.636
280.464
280.317
280.197
282.651
282.463
282.21
281.94
281.678
281.438
281.225