/*--------------------------------*- C++ -*----------------------------------*\
| =========                 |                                                 |
| \\      /  F ield         | foam-extend: Open Source CFD                    |
|  \\    /   O peration     | Version:     4.0                                |
|   \\  /    A nd           | Web:         http://www.foam-extend.org         |
|    \\/     M anipulation  |                                                 |
\*---------------------------------------------------------------------------*/
FoamFile
{
    version     2.0;
    format      ascii;
    class       volVectorField;
    location    "1250";
    object      Urel;
}
// * * * * * * * * * * * * * * * * * * * * * * * * * * * * * * * * * * * * * //

dimensions      [0 1 -1 0 0 0 0];

internalField   nonuniform List<vector> 
34480
(
(208.752 -9.78393 -19.0902)
(209.074 -9.28147 -21.549)
(209.234 -8.55465 -23.972)
(209.244 -7.62924 -26.4025)
(209.1 -6.54389 -28.9787)
(208.763 -5.30132 -31.8762)
(208.154 -3.8817 -35.4954)
(206.997 -2.16866 -40.1806)
(204.337 0.066213 -48.1018)
(197.414 4.26894 -75.266)
(209.69 -12.7781 -26.8139)
(209.952 -11.6478 -29.5937)
(210.083 -10.3643 -32.2489)
(210.061 -8.94108 -34.8481)
(209.832 -7.41441 -37.5081)
(209.335 -5.80395 -40.4368)
(208.536 -4.12841 -44.0935)
(207.253 -2.3337 -49.22)
(204.127 -0.259253 -58.0374)
(195.985 3.69188 -88.6021)
(210.394 -17.0691 -33.7558)
(210.631 -15.5142 -36.8366)
(210.73 -13.784 -39.7785)
(210.664 -11.8711 -42.5965)
(210.375 -9.83105 -45.4179)
(209.854 -7.69774 -48.4993)
(209.111 -5.49847 -52.369)
(207.977 -3.16345 -58.0554)
(204.687 -0.526772 -67.7478)
(195.497 4.17616 -101.256)
(210.422 -20.4621 -41.1722)
(210.66 -18.3766 -44.5464)
(210.772 -16.117 -47.7271)
(210.74 -13.6639 -50.7465)
(210.511 -11.0738 -53.7392)
(210.104 -8.38347 -56.9908)
(209.496 -5.6253 -61.0324)
(208.527 -2.72015 -67.1124)
(205.214 0.503723 -77.4272)
(195.224 5.89423 -112.843)
(210.606 -24.94 -48.0371)
(210.872 -22.4449 -51.6878)
(211.021 -19.7378 -55.1544)
(211.049 -16.799 -58.423)
(210.912 -13.7044 -61.6532)
(210.639 -10.4909 -65.1423)
(210.18 -7.18546 -69.4184)
(209.396 -3.6982 -75.9171)
(206.182 0.150272 -86.8993)
(195.551 6.24406 -123.834)
(210.515 -28.1994 -55.6341)
(210.791 -25.2044 -59.5209)
(210.959 -21.9826 -63.1556)
(211.021 -18.5123 -66.5675)
(210.949 -14.8611 -69.9087)
(210.793 -11.0715 -73.5011)
(210.487 -7.1719 -77.8564)
(209.918 -3.07506 -84.5826)
(206.952 1.41839 -96.0503)
(195.922 8.14965 -134.133)
(210.618 -32.9877 -62.492)
(210.932 -29.6032 -66.6184)
(211.127 -25.9564 -70.5025)
(211.227 -22.0361 -74.1211)
(211.215 -17.9172 -77.6553)
(211.156 -13.6364 -81.4281)
(210.99 -9.19797 -85.955)
(210.637 -4.49857 -92.9657)
(208.002 0.732989 -105.012)
(196.677 8.29473 -144.088)
(210.461 -36.1658 -70.3369)
(210.778 -32.3093 -74.6702)
(210.953 -28.1445 -78.6823)
(211.011 -23.6861 -82.4103)
(210.959 -18.9879 -85.9982)
(210.882 -14.1071 -89.7739)
(210.761 -9.04075 -94.2363)
(210.565 -3.6813 -101.205)
(208.338 2.39354 -113.44)
(197.046 10.8577 -153.021)
(210.419 -41.4376 -77.1652)
(210.779 -37.2138 -81.6846)
(210.984 -32.6731 -85.8797)
(211.081 -27.8547 -89.7586)
(211.08 -22.8141 -93.5069)
(211.049 -17.581 -97.4288)
(210.997 -12.0993 -102.058)
(210.939 -6.21606 -109.182)
(209.04 0.787256 -121.791)
(197.633 10.7412 -161.314)
(209.459 -44.6469 -85.1231)
(209.73 -40.0408 -89.9244)
(209.676 -34.9986 -94.3223)
(209.321 -29.6413 -98.3859)
(208.709 -23.9824 -102.242)
(207.931 -18.0624 -106.171)
(207.071 -11.8157 -110.642)
(206.295 -5.05156 -117.256)
(204.369 2.9624 -129.016)
(194.207 14.3061 -166.609)
(205.652 1.92167 2.99953)
(206.131 1.121 1.54593)
(206.32 0.439252 -0.00496797)
(206.239 -0.103876 -1.60274)
(205.865 -0.532497 -3.3106)
(205.107 -0.847087 -5.1412)
(203.765 -1.05165 -7.14841)
(201.405 -1.15747 -9.30751)
(197.946 -1.24238 -11.2379)
(193.381 -1.14421 -14.3936)
(206.956 2.8918 2.79217)
(207.389 2.1904 1.15962)
(207.564 1.54728 -0.490396)
(207.479 0.972939 -2.18392)
(207.072 0.446448 -3.98827)
(206.222 -0.0381164 -5.96162)
(204.735 -0.495647 -8.19731)
(202.156 -0.960956 -10.9465)
(197.994 -1.55045 -13.9962)
(192.321 -1.79138 -20.5788)
(207.919 2.60695 3.29672)
(208.33 1.8046 1.53836)
(208.491 1.07978 -0.25826)
(208.396 0.458852 -2.08738)
(207.964 -0.09635 -4.02311)
(207.096 -0.598153 -6.14936)
(205.619 -1.07567 -8.65518)
(203.049 -1.54519 -12.0726)
(198.512 -2.11412 -16.3178)
(191.907 -2.02842 -26.7083)
(208.182 3.20923 3.28957)
(208.599 2.43824 1.44717)
(208.78 1.73108 -0.406642)
(208.726 1.12628 -2.29506)
(208.358 0.585538 -4.30343)
(207.592 0.0974349 -6.55822)
(206.228 -0.370806 -9.28534)
(203.753 -0.811607 -13.242)
(198.989 -1.31726 -18.4576)
(191.573 -0.886837 -32.441)
(208.558 2.69876 3.82172)
(209.001 1.84269 1.92502)
(209.221 1.07785 -0.0247361)
(209.231 0.445905 -2.00719)
(208.954 -0.108344 -4.13941)
(208.324 -0.595963 -6.57525)
(207.11 -1.05161 -9.55685)
(204.799 -1.44592 -14.0441)
(199.959 -1.85722 -20.2092)
(191.836 -1.02732 -37.6757)
(208.615 3.41879 3.61714)
(209.072 2.57017 1.70943)
(209.316 1.81478 -0.210571)
(209.368 1.1967 -2.17322)
(209.165 0.669127 -4.28987)
(208.663 0.217874 -6.76045)
(207.615 -0.187949 -9.8266)
(205.524 -0.510183 -14.6421)
(200.773 -0.790346 -21.5245)
(192.127 0.404926 -42.1899)
(208.84 2.58677 4.14335)
(209.331 1.63939 2.22797)
(209.605 0.812369 0.256418)
(209.703 0.142246 -1.74607)
(209.567 -0.421264 -3.92697)
(209.179 -0.889645 -6.50228)
(208.294 -1.27919 -9.72685)
(206.448 -1.53682 -14.8969)
(201.904 -1.62383 -22.5439)
(192.834 0.0335642 -46.2232)
(208.769 3.38634 3.68108)
(209.268 2.42553 1.79625)
(209.531 1.61685 -0.0886065)
(209.603 0.971541 -2.01881)
(209.45 0.463173 -4.10991)
(209.085 0.059722 -6.60835)
(208.293 -0.241391 -9.76338)
(206.667 -0.395879 -14.9847)
(202.451 -0.185845 -23.0295)
(193.255 1.85572 -49.1958)
(208.794 2.06004 4.23174)
(209.323 0.985586 2.39577)
(209.614 0.0774948 0.526645)
(209.722 -0.675352 -1.37111)
(209.627 -1.30349 -3.4693)
(209.336 -1.81942 -6.01546)
(208.666 -2.17517 -9.31741)
(207.267 -2.30769 -14.7737)
(203.39 -1.72938 -23.4663)
(193.943 1.01449 -51.4781)
(207.878 2.86063 3.62749)
(208.351 1.69363 1.78649)
(208.467 0.799796 -0.031364)
(208.256 0.0730872 -1.89667)
(207.734 -0.468109 -3.91684)
(206.933 -0.849582 -6.33792)
(205.741 -1.00791 -9.45167)
(203.948 -0.827804 -14.5449)
(200.218 0.225078 -23.0166)
(191.592 4.03978 -51.3275)
(203.29 1.43726 2.33211)
(203.794 0.844356 1.21632)
(203.977 0.314388 -0.0110321)
(203.875 -0.1192 -1.25948)
(203.477 -0.469379 -2.54946)
(202.733 -0.73352 -3.82671)
(201.551 -0.921308 -5.04347)
(199.778 -1.05813 -6.0503)
(197.227 -1.22936 -6.49632)
(194.014 -1.41884 -6.51894)
(204.692 2.4364 2.30636)
(205.188 1.89657 0.942105)
(205.37 1.37177 -0.449535)
(205.25 0.882171 -1.86384)
(204.79 0.417906 -3.32727)
(203.906 -0.0262667 -4.84262)
(202.437 -0.463507 -6.37364)
(200.113 -0.925501 -7.85731)
(196.492 -1.52381 -8.79856)
(191.655 -2.10749 -9.81212)
(205.741 2.23964 2.93685)
(206.242 1.55982 1.3877)
(206.425 0.923314 -0.212199)
(206.303 0.361021 -1.83775)
(205.82 -0.15877 -3.53529)
(204.871 -0.645845 -5.32169)
(203.26 -1.12488 -7.20696)
(200.621 -1.6257 -9.28378)
(196.123 -2.293 -10.9952)
(189.685 -2.87317 -13.582)
(206.155 2.92599 2.98)
(206.679 2.25259 1.30836)
(206.887 1.61358 -0.385458)
(206.8 1.04982 -2.11232)
(206.354 0.527975 -3.93624)
(205.443 0.0385032 -5.91566)
(203.817 -0.450257 -8.09677)
(201.011 -0.955493 -10.7296)
(195.778 -1.63871 -13.1898)
(187.848 -2.12408 -17.5535)
(206.678 2.45461 3.5525)
(207.233 1.68121 1.79445)
(207.477 0.973873 -0.0248244)
(207.446 0.375243 -1.87742)
(207.069 -0.165145 -3.86481)
(206.247 -0.655636 -6.07764)
(204.681 -1.13164 -8.59089)
(201.831 -1.59864 -11.8183)
(196.054 -2.24473 -15.1165)
(186.805 -2.53576 -21.5631)
(206.863 3.22405 3.37332)
(207.437 2.4442 1.58338)
(207.707 1.73669 -0.226908)
(207.717 1.14549 -2.08326)
(207.403 0.625937 -4.08619)
(206.679 0.165848 -6.3773)
(205.212 -0.26997 -9.04958)
(202.422 -0.680589 -12.6993)
(196.299 -1.23983 -16.6995)
(185.961 -1.30248 -25.322)
(207.199 2.40914 3.92296)
(207.803 1.52455 2.10716)
(208.102 0.74424 0.228022)
(208.158 0.104545 -1.68709)
(207.906 -0.44305 -3.77807)
(207.28 -0.906804 -6.2097)
(205.933 -1.30906 -9.10706)
(203.262 -1.64011 -13.2155)
(196.966 -2.03842 -18.0106)
(185.7 -1.76837 -28.943)
(207.22 3.24733 3.46506)
(207.831 2.34727 1.6763)
(208.124 1.58307 -0.118676)
(208.163 0.967734 -1.96575)
(207.903 0.47462 -3.97581)
(207.306 0.0774863 -6.35483)
(206.043 -0.236235 -9.24525)
(203.525 -0.466845 -13.5374)
(197.245 -0.59932 -18.855)
(185.318 -0.0485104 -31.8585)
(207.324 1.90819 4.02044)
(207.953 0.895199 2.26898)
(208.267 0.0453848 0.472746)
(208.334 -0.64827 -1.35621)
(208.117 -1.21764 -3.37812)
(207.582 -1.67299 -5.80217)
(206.431 -1.97894 -8.8609)
(204.106 -2.11365 -13.4979)
(197.959 -1.84851 -19.6246)
(185.25 -0.787017 -34.2495)
(206.474 2.7669 3.38374)
(207.051 1.67719 1.66074)
(207.235 0.853707 -0.0500826)
(207.065 0.191995 -1.81716)
(206.532 -0.288324 -3.73731)
(205.627 -0.610052 -6.02436)
(204.118 -0.721727 -8.90662)
(201.556 -0.543236 -13.2892)
(195.545 0.220427 -19.5297)
(182.779 2.3031 -34.6819)
(201.567 0.958303 1.69877)
(202.005 0.557968 0.910027)
(202.156 0.176703 0.00813386)
(202.059 -0.146247 -0.89495)
(201.713 -0.416612 -1.79777)
(201.099 -0.628996 -2.61883)
(200.19 -0.795542 -3.29318)
(198.957 -0.939687 -3.6855)
(197.399 -1.11682 -3.58025)
(195.67 -1.35279 -2.7548)
(202.896 1.92829 1.78388)
(203.364 1.55491 0.712825)
(203.528 1.15895 -0.390401)
(203.399 0.766821 -1.49767)
(202.954 0.379866 -2.60063)
(202.147 -0.00460299 -3.66883)
(200.901 -0.397147 -4.62637)
(199.11 -0.820333 -5.34489)
(196.646 -1.34264 -5.40221)
(193.847 -1.91246 -4.62174)
(203.898 1.78547 2.49206)
(204.409 1.24854 1.19753)
(204.587 0.720219 -0.155727)
(204.447 0.235737 -1.51973)
(203.951 -0.228114 -2.91127)
(203.026 -0.679564 -4.31056)
(201.539 -1.13802 -5.65132)
(199.293 -1.62954 -6.84209)
(195.939 -2.26035 -7.29657)
(191.858 -2.95867 -6.92391)
(204.373 2.55316 2.5732)
(204.931 2.00163 1.12174)
(205.138 1.45185 -0.360156)
(205.018 0.948443 -1.86278)
(204.52 0.466288 -3.42192)
(203.558 -0.00374472 -5.05191)
(201.935 -0.490594 -6.7072)
(199.353 -1.01666 -8.37259)
(195.14 -1.72129 -9.28742)
(189.675 -2.48885 -9.53794)
(204.978 2.1268 3.18722)
(205.579 1.4605 1.61444)
(205.82 0.830501 -0.0258414)
(205.742 0.2817 -1.68869)
(205.28 -0.228427 -3.44892)
(204.341 -0.707707 -5.35022)
(202.67 -1.18914 -7.37351)
(199.872 -1.69151 -9.60195)
(194.91 -2.40448 -11.1315)
(188.107 -3.1439 -12.3632)
(205.252 2.95119 3.03732)
(205.881 2.26375 1.4082)
(206.149 1.62258 -0.248672)
(206.104 1.07359 -1.94376)
(205.681 0.577931 -3.75431)
(204.792 0.123243 -5.77224)
(203.128 -0.32798 -8.00082)
(200.225 -0.794132 -10.6571)
(194.659 -1.47322 -12.7306)
(186.651 -2.13259 -15.1283)
(205.67 2.16328 3.61618)
(206.331 1.36306 1.93841)
(206.626 0.645358 0.190763)
(206.621 0.0479861 -1.58764)
(206.246 -0.473145 -3.5154)
(205.421 -0.925786 -5.70848)
(203.804 -1.33647 -8.20987)
(200.873 -1.71773 -11.3545)
(194.849 -2.27257 -14.1113)
(185.753 -2.74559 -17.9409)
(205.77 3.05278 3.16916)
(206.438 2.23296 1.51095)
(206.731 1.52666 -0.160899)
(206.714 0.951251 -1.88337)
(206.333 0.481782 -3.7486)
(205.525 0.0960709 -5.91569)
(203.948 -0.227596 -8.45479)
(201.055 -0.516397 -11.8427)
(194.774 -0.860724 -15.097)
(184.793 -1.17366 -20.3085)
(205.942 1.71294 3.7533)
(206.62 0.77814 2.11782)
(206.928 -0.0068389 0.423448)
(206.936 -0.641589 -1.3037)
(206.589 -1.15742 -3.20215)
(205.824 -1.56149 -5.42702)
(204.304 -1.83322 -8.13006)
(201.501 -1.98325 -11.8748)
(195.149 -1.93576 -15.9724)
(184.195 -1.887 -22.3698)
(205.16 2.64578 3.09501)
(205.79 1.64571 1.51183)
(206.008 0.895748 -0.0739855)
(205.846 0.297699 -1.72057)
(205.279 -0.127062 -3.50691)
(204.26 -0.398446 -5.60087)
(202.5 -0.477502 -8.1535)
(199.507 -0.31307 -11.7116)
(193.174 0.230974 -16.044)
(181.731 1.20461 -22.8536)
(200.369 0.560024 1.19047)
(200.712 0.304591 0.663817)
(200.827 0.0443205 0.0346607)
(200.752 -0.184581 -0.583259)
(200.495 -0.385663 -1.18695)
(200.058 -0.551235 -1.69672)
(199.446 -0.69079 -2.06584)
(198.684 -0.819446 -2.20438)
(197.82 -0.96368 -2.02061)
(196.969 -1.13071 -1.43024)
(201.532 1.45376 1.30363)
(201.926 1.221 0.504192)
(202.064 0.942685 -0.32522)
(201.952 0.644856 -1.14788)
(201.58 0.336828 -1.93687)
(200.934 0.019935 -2.64906)
(199.991 -0.310303 -3.21037)
(198.747 -0.663779 -3.51232)
(197.224 -1.06905 -3.32785)
(195.724 -1.48908 -2.51887)
(202.394 1.31603 2.03917)
(202.865 0.916454 1.00678)
(203.028 0.497923 -0.0891278)
(202.896 0.0970748 -1.18357)
(202.446 -0.30067 -2.26862)
(201.639 -0.699886 -3.30285)
(200.411 -1.11379 -4.20184)
(198.695 -1.55977 -4.83552)
(196.411 -2.09371 -4.8118)
(194.019 -2.66613 -3.92678)
(202.848 2.14131 2.13512)
(203.392 1.71754 0.925505)
(203.589 1.26543 -0.321677)
(203.461 0.832321 -1.57702)
(202.973 0.403008 -2.84709)
(202.066 -0.0289001 -4.11231)
(200.619 -0.487477 -5.29065)
(198.49 -0.991957 -6.26662)
(195.402 -1.63064 -6.46297)
(191.929 -2.33742 -5.60584)
(203.464 1.75202 2.77975)
(204.07 1.2046 1.4204)
(204.302 0.663016 -0.0127776)
(204.2 0.174573 -1.45615)
(203.712 -0.293037 -2.95245)
(202.766 -0.745692 -4.50271)
(201.178 -1.21198 -6.03902)
(198.727 -1.71386 -7.486)
(194.866 -2.39253 -8.08053)
(190.247 -3.16122 -7.53105)
(203.777 2.62681 2.65545)
(204.424 2.04654 1.21718)
(204.686 1.48383 -0.256933)
(204.608 0.987416 -1.75857)
(204.133 0.527141 -3.33389)
(203.181 0.09197 -5.02406)
(201.514 -0.355338 -6.77644)
(198.835 -0.84105 -8.59744)
(194.281 -1.52885 -9.55231)
(188.54 -2.32301 -9.45483)
(204.24 1.86907 3.26218)
(204.927 1.16909 1.75242)
(205.215 0.525685 0.16518)
(205.169 -0.020481 -1.44439)
(204.721 -0.506359 -3.16415)
(203.792 -0.938869 -5.05589)
(202.096 -1.34686 -7.10255)
(199.267 -1.75485 -9.38678)
(194.117 -2.35419 -10.869)
(187.294 -3.07387 -11.4961)
(204.392 2.81601 2.82776)
(205.092 2.09213 1.32725)
(205.383 1.45491 -0.19547)
(205.328 0.927864 -1.76415)
(204.872 0.490206 -3.4432)
(203.94 0.123423 -5.33587)
(202.228 -0.20083 -7.44796)
(199.328 -0.525058 -9.97964)
(193.753 -0.972591 -11.8562)
(185.973 -1.63764 -13.2384)
(204.617 1.47903 3.44723)
(205.323 0.637246 1.95323)
(205.626 -0.07556 0.385608)
(205.59 -0.649387 -1.2118)
(205.158 -1.11306 -2.9508)
(204.254 -1.47118 -4.9279)
(202.556 -1.71576 -7.21401)
(199.633 -1.87905 -10.0626)
(193.814 -1.97066 -12.6726)
(184.989 -2.38302 -14.8101)
(203.897 2.49964 2.76807)
(204.559 1.59984 1.342)
(204.801 0.927505 -0.10235)
(204.646 0.393419 -1.60819)
(204.061 0.0215478 -3.23228)
(202.981 -0.205205 -5.09191)
(201.118 -0.260247 -7.26118)
(198.027 -0.115763 -9.98867)
(192.106 0.262635 -12.8)
(182.573 0.643125 -15.1236)
(199.548 0.260144 0.821231)
(199.802 0.102137 0.485616)
(199.884 -0.0701151 0.0617161)
(199.833 -0.226721 -0.343859)
(199.659 -0.372072 -0.735993)
(199.372 -0.497178 -1.04674)
(198.987 -0.608218 -1.25096)
(198.536 -0.712692 -1.29425)
(198.059 -0.821322 -1.14415)
(197.604 -0.933433 -0.777953)
(200.532 1.0579 0.903244)
(200.835 0.929973 0.330367)
(200.942 0.747876 -0.264852)
(200.855 0.532732 -0.848447)
(200.573 0.298026 -1.38865)
(200.096 0.0480576 -1.84467)
(199.433 -0.215961 -2.15914)
(198.614 -0.494638 -2.25922)
(197.704 -0.793178 -2.03832)
(196.894 -1.0843 -1.43128)
(201.217 0.882434 1.62533)
(201.615 0.598036 0.833466)
(201.754 0.278884 -0.0215495)
(201.642 -0.0411448 -0.867843)
(201.267 -0.370085 -1.68314)
(200.616 -0.708392 -2.41882)
(199.673 -1.06262 -2.9986)
(198.445 -1.44141 -3.31395)
(196.969 -1.86743 -3.14316)
(195.577 -2.30118 -2.3456)
(201.597 1.73332 1.7081)
(202.087 1.42726 0.736621)
(202.264 1.07089 -0.275693)
(202.143 0.711184 -1.28677)
(201.704 0.34185 -2.2816)
(200.915 -0.0393628 -3.22055)
(199.72 -0.449128 -4.0168)
(198.081 -0.899962 -4.54301)
(195.947 -1.43853 -4.43517)
(193.802 -2.01364 -3.43724)
(202.17 1.3638 2.36424)
(202.738 0.933646 1.2267)
(202.953 0.483619 0.0116926)
(202.843 0.0614399 -1.20315)
(202.373 -0.354965 -2.4328)
(201.496 -0.768164 -3.64734)
(200.104 -1.19996 -4.76012)
(198.103 -1.66958 -5.6428)
(195.286 -2.2671 -5.77072)
(192.275 -2.93379 -4.76285)
(202.478 2.27577 2.25506)
(203.104 1.8068 1.02282)
(203.35 1.32867 -0.251691)
(203.253 0.891817 -1.54343)
(202.77 0.475551 -2.86929)
(201.839 0.071784 -4.22853)
(200.302 -0.352186 -5.53817)
(198.006 -0.822828 -6.70603)
(194.527 -1.45592 -7.04114)
(190.608 -2.20004 -6.09169)
(202.95 1.54481 2.88245)
(203.626 0.952866 1.55966)
(203.9 0.391124 0.152827)
(203.826 -0.0971568 -1.26741)
(203.347 -0.540521 -2.75767)
(202.398 -0.943981 -4.33145)
(200.766 -1.33524 -5.93053)
(198.237 -1.74358 -7.49693)
(194.146 -2.3201 -8.21801)
(189.296 -3.0518 -7.5539)
(203.13 2.54971 2.45796)
(203.826 1.93133 1.13399)
(204.107 1.37117 -0.220082)
(204.026 0.899185 -1.61382)
(203.532 0.500106 -3.08255)
(202.556 0.159526 -4.6775)
(200.858 -0.152829 -6.353)
(198.173 -0.484739 -8.13169)
(193.596 -0.956223 -9.12661)
(187.867 -1.69964 -8.78785)
(203.389 1.21468 3.1142)
(204.095 0.475978 1.78057)
(204.386 -0.159084 0.359735)
(204.318 -0.670261 -1.08558)
(203.837 -1.08256 -2.63938)
(202.869 -1.39804 -4.34489)
(201.146 -1.61807 -6.20981)
(198.357 -1.78448 -8.2692)
(193.444 -1.94774 -9.82324)
(186.741 -2.5032 -9.9076)
(202.72 2.33474 2.41272)
(203.387 1.54271 1.15631)
(203.638 0.951154 -0.133034)
(203.488 0.481323 -1.48136)
(202.903 0.160052 -2.92172)
(201.811 -0.0272017 -4.52367)
(199.964 -0.0647148 -6.29714)
(197.015 0.0585175 -8.2872)
(191.923 0.316153 -9.97486)
(184.502 0.41511 -10.0767)
(198.985 0.0499876 0.572731)
(199.17 -0.0483273 0.366779)
(199.226 -0.161862 0.0853675)
(199.194 -0.266999 -0.174094)
(199.084 -0.370269 -0.426685)
(198.906 -0.462283 -0.617223)
(198.676 -0.546851 -0.73689)
(198.418 -0.626271 -0.753041)
(198.156 -0.703549 -0.658472)
(197.895 -0.775322 -0.451631)
(199.812 0.756211 0.591763)
(200.03 0.699088 0.193929)
(200.108 0.589368 -0.216171)
(200.046 0.441362 -0.613574)
(199.846 0.269938 -0.969581)
(199.516 0.0808367 -1.25226)
(199.075 -0.120687 -1.4227)
(198.557 -0.330254 -1.43776)
(198.023 -0.543014 -1.25278)
(197.58 -0.737666 -0.850556)
(200.319 0.513802 1.27434)
(200.634 0.316514 0.685975)
(200.745 0.0800586 0.0394382)
(200.657 -0.167642 -0.595525)
(200.365 -0.430727 -1.19181)
(199.873 -0.706466 -1.70385)
(199.188 -0.996024 -2.0722)
(198.346 -1.30068 -2.22255)
(197.417 -1.62442 -2.04236)
(196.607 -1.93698 -1.47174)
(200.603 1.3606 1.31948)
(201.016 1.15288 0.564962)
(201.167 0.882956 -0.22911)
(201.063 0.594214 -1.01634)
(200.695 0.286924 -1.76988)
(200.051 -0.0372197 -2.44336)
(199.119 -0.386877 -2.96104)
(197.917 -0.766983 -3.21906)
(196.491 -1.19614 -3.01225)
(195.173 -1.63482 -2.19084)
(201.097 0.99075 1.96627)
(201.6 0.666306 1.04258)
(201.789 0.304172 0.0419505)
(201.685 -0.0503106 -0.951397)
(201.264 -0.410465 -1.93291)
(200.503 -0.775174 -2.85631)
(199.353 -1.15855 -3.63598)
(197.801 -1.57372 -4.14582)
(195.823 -2.07061 -4.0634)
(193.885 -2.60345 -3.11576)
(201.368 1.9216 1.85856)
(201.941 1.55883 0.833702)
(202.164 1.16556 -0.236722)
(202.063 0.791775 -1.3159)
(201.606 0.425469 -2.39804)
(200.758 0.0622486 -3.45496)
(199.426 -0.32305 -4.39468)
(197.559 -0.751768 -5.09542)
(195.012 -1.29596 -5.10139)
(192.386 -1.92282 -4.02785)
(201.82 1.20949 2.49567)
(202.455 0.72535 1.3674)
(202.706 0.247915 0.151186)
(202.619 -0.178423 -1.07044)
(202.147 -0.573807 -2.32723)
(201.244 -0.940587 -3.59768)
(199.773 -1.30237 -4.80299)
(197.634 -1.68686 -5.82139)
(194.529 -2.20118 -6.09408)
(191.162 -2.8444 -5.06956)
(202.001 2.26814 2.07542)
(202.664 1.75805 0.937689)
(202.927 1.27905 -0.23593)
(202.831 0.866525 -1.44242)
(202.335 0.511071 -2.69095)
(201.385 0.202413 -3.9922)
(199.81 -0.0876605 -5.2694)
(197.465 -0.402812 -6.44641)
(193.886 -0.842394 -6.877)
(189.787 -1.52357 -5.91881)
(202.279 0.930433 2.76733)
(202.958 0.299193 1.60503)
(203.23 -0.255149 0.344636)
(203.143 -0.702951 -0.933727)
(202.649 -1.06475 -2.28823)
(201.686 -1.34018 -3.71957)
(200.055 -1.53666 -5.19357)
(197.559 -1.69657 -6.62112)
(193.622 -1.88009 -7.45647)
(188.711 -2.40883 -6.69433)
(201.648 2.15919 2.04034)
(202.293 1.47848 0.960088)
(202.541 0.969276 -0.165055)
(202.398 0.563464 -1.34437)
(201.832 0.290542 -2.58843)
(200.778 0.138163 -3.92697)
(199.047 0.113276 -5.32333)
(196.395 0.215731 -6.70655)
(192.243 0.387073 -7.60846)
(186.716 0.374612 -6.77652)
(198.588 -0.0913698 0.414334)
(198.725 -0.155321 0.292624)
(198.763 -0.232066 0.104679)
(198.744 -0.302514 -0.0596712)
(198.678 -0.375526 -0.224349)
(198.573 -0.441943 -0.344314)
(198.439 -0.504312 -0.420982)
(198.293 -0.562234 -0.433318)
(198.147 -0.615521 -0.383347)
(197.98 -0.660572 -0.273077)
(199.296 0.544177 0.360545)
(199.444 0.531416 0.0907471)
(199.498 0.472792 -0.181445)
(199.457 0.376126 -0.44182)
(199.323 0.256069 -0.66785)
(199.106 0.118633 -0.837282)
(198.824 -0.0290301 -0.925845)
(198.505 -0.180594 -0.909589)
(198.193 -0.328321 -0.772205)
(197.945 -0.456636 -0.512774)
(199.646 0.220585 0.993146)
(199.88 0.0839377 0.566857)
(199.964 -0.0880688 0.090074)
(199.9 -0.274899 -0.375235)
(199.686 -0.479017 -0.803275)
(199.332 -0.696054 -1.15659)
(198.856 -0.92383 -1.39263)
(198.297 -1.15888 -1.46551)
(197.719 -1.39655 -1.32133)
(197.243 -1.61469 -0.94453)
(199.833 1.04229 0.98462)
(200.163 0.9103 0.416243)
(200.285 0.713418 -0.186727)
(200.202 0.489137 -0.78036)
(199.91 0.241709 -1.33416)
(199.412 -0.0243917 -1.80425)
(198.718 -0.311109 -2.13149)
(197.867 -0.617483 -2.24186)
(196.932 -0.945572 -2.02835)
(196.122 -1.26601 -1.42111)
(200.232 0.654708 1.6045)
(200.655 0.418632 0.87495)
(200.813 0.135737 0.0731838)
(200.722 -0.153616 -0.717346)
(200.368 -0.456174 -1.48099)
(199.743 -0.767686 -2.16732)
(198.838 -1.0955 -2.70247)
(197.679 -1.44581 -2.9846)
(196.324 -1.84138 -2.82933)
(195.084 -2.24597 -2.08179)
(200.446 1.58494 1.48517)
(200.946 1.31636 0.65724)
(201.139 1.00316 -0.215797)
(201.043 0.692436 -1.0914)
(200.639 0.379132 -1.94913)
(199.908 0.0623825 -2.74728)
(198.811 -0.274557 -3.39968)
(197.354 -0.645807 -3.79234)
(195.542 -1.08925 -3.64394)
(193.802 -1.5837 -2.70924)
(200.859 0.881663 2.11962)
(201.429 0.498212 1.18247)
(201.652 0.103172 0.157212)
(201.561 -0.260072 -0.867152)
(201.125 -0.604214 -1.90011)
(200.316 -0.928754 -2.89964)
(199.058 -1.2518 -3.78344)
(197.327 -1.59536 -4.4166)
(195.044 -2.02857 -4.4434)
(192.742 -2.55001 -3.45352)
(201.018 1.98643 1.69639)
(201.624 1.5809 0.745085)
(201.862 1.18309 -0.244715)
(201.762 0.831844 -1.26086)
(201.294 0.52312 -2.29191)
(200.419 0.250463 -3.32149)
(199.036 -0.00984584 -4.26075)
(197.082 -0.292694 -4.99636)
(194.381 -0.669919 -5.08482)
(191.507 -1.22794 -4.02551)
(201.302 0.638168 2.42107)
(201.93 0.112971 1.43257)
(202.178 -0.36069 0.338921)
(202.083 -0.74582 -0.765933)
(201.606 -1.05842 -1.91853)
(200.703 -1.29596 -3.08977)
(199.242 -1.46901 -4.22301)
(197.117 -1.61556 -5.17763)
(194.08 -1.78981 -5.55916)
(190.581 -2.22337 -4.56763)
(200.696 1.98253 1.66364)
(201.295 1.41239 0.759409)
(201.531 0.984975 -0.197757)
(201.398 0.641963 -1.2029)
(200.869 0.414839 -2.24744)
(199.896 0.293083 -3.33174)
(198.346 0.27722 -4.39051)
(196.074 0.360658 -5.30397)
(192.821 0.470987 -5.68939)
(188.849 0.426262 -4.58749)
(198.298 -0.185442 0.318141)
(198.404 -0.230478 0.249493)
(198.43 -0.285309 0.120245)
(198.42 -0.333342 0.0152282)
(198.381 -0.385474 -0.0959356)
(198.321 -0.433086 -0.175412)
(198.245 -0.478237 -0.230321)
(198.163 -0.519452 -0.245665)
(198.079 -0.55551 -0.226321)
(197.959 -0.583358 -0.173241)
(198.922 0.407759 0.193406)
(199.019 0.421261 0.0136107)
(199.055 0.397024 -0.160327)
(199.029 0.337817 -0.324034)
(198.943 0.257406 -0.461441)
(198.805 0.161423 -0.558314)
(198.63 0.0571402 -0.600456)
(198.439 -0.0489419 -0.574903)
(198.256 -0.14934 -0.477618)
(198.114 -0.232921 -0.310883)
(199.144 0.000241062 0.77762)
(199.31 -0.0970384 0.474495)
(199.371 -0.221379 0.129237)
(199.326 -0.359546 -0.206272)
(199.176 -0.513727 -0.510382)
(198.932 -0.679404 -0.754853)
(198.613 -0.852711 -0.910933)
(198.251 -1.0281 -0.952346)
(197.895 -1.1982 -0.853901)
(197.613 -1.34729 -0.620003)
(199.249 0.786066 0.708412)
(199.5 0.708462 0.292301)
(199.595 0.569962 -0.15146)
(199.532 0.401224 -0.585519)
(199.312 0.208321 -0.981102)
(198.944 -0.00277289 -1.30149)
(198.446 -0.229615 -1.50384)
(197.861 -0.467738 -1.53959)
(197.255 -0.711274 -1.35662)
(196.756 -0.938667 -0.929172)
(199.55 0.369296 1.28975)
(199.889 0.202501 0.727823)
(200.017 -0.0126688 0.101637)
(199.943 -0.242553 -0.511959)
(199.659 -0.489506 -1.09286)
(199.17 -0.747214 -1.5944)
(198.485 -1.01813 -1.95821)
(197.648 -1.30261 -2.11098)
(196.734 -1.60759 -1.9524)
(195.944 -1.9035 -1.4086)
(199.7 1.28113 1.14907)
(200.117 1.09086 0.499077)
(200.278 0.849244 -0.19224)
(200.194 0.598399 -0.882162)
(199.854 0.338203 -1.5429)
(199.254 0.0705368 -2.12977)
(198.387 -0.213597 -2.57011)
(197.29 -0.521868 -2.77314)
(196.025 -0.86901 -2.57218)
(194.882 -1.24057 -1.83851)
(200.065 0.577322 1.76911)
(200.555 0.282561 1.01061)
(200.746 -0.0358183 0.167743)
(200.661 -0.337669 -0.669903)
(200.279 -0.629714 -1.49841)
(199.589 -0.908924 -2.2674)
(198.559 -1.18802 -2.90204)
(197.209 -1.48185 -3.28187)
(195.569 -1.83146 -3.1933)
(194.014 -2.23034 -2.373)
(200.184 1.71865 1.33574)
(200.716 1.40864 0.562451)
(200.923 1.0883 -0.248381)
(200.827 0.797505 -1.07986)
(200.407 0.536541 -1.90636)
(199.643 0.302185 -2.6968)
(198.481 0.0763464 -3.36392)
(196.916 -0.166587 -3.79607)
(194.932 -0.473386 -3.699)
(192.951 -0.898512 -2.75311)
(200.467 0.349629 2.08947)
(201.027 -0.076131 1.26911)
(201.245 -0.472209 0.341009)
(201.151 -0.797043 -0.592093)
(200.714 -1.0625 -1.55032)
(199.908 -1.26424 -2.4871)
(198.658 -1.41385 -3.33822)
(196.924 -1.54262 -3.95741)
(194.65 -1.69393 -4.07723)
(192.213 -2.02266 -3.14295)
(199.873 1.81471 1.29525)
(200.409 1.35025 0.560349)
(200.624 1.00173 -0.230948)
(200.503 0.719042 -1.06344)
(200.028 0.534665 -1.91409)
(199.164 0.439585 -2.76449)
(197.833 0.430128 -3.53619)
(195.965 0.496984 -4.1044)
(193.498 0.564781 -4.1748)
(190.726 0.520922 -3.11247)
(198.077 -0.250345 0.263099)
(198.164 -0.285168 0.22714)
(198.182 -0.327525 0.133455)
(198.177 -0.361567 0.0641627)
(198.155 -0.399804 -0.0152792)
(198.121 -0.434221 -0.072072)
(198.078 -0.466785 -0.116071)
(198.032 -0.495792 -0.135555)
(197.982 -0.519892 -0.135964)
(197.887 -0.53668 -0.11655)
(198.645 0.330422 0.0729953)
(198.707 0.358961 -0.0450751)
(198.731 0.357128 -0.151138)
(198.715 0.324328 -0.248535)
(198.662 0.273315 -0.326748)
(198.577 0.209072 -0.377275)
(198.471 0.137965 -0.39233)
(198.357 0.0658089 -0.364733)
(198.25 -0.00127445 -0.295512)
(198.165 -0.0553321 -0.185206)
(198.766 -0.157107 0.618237)
(198.88 -0.23029 0.405119)
(198.922 -0.320813 0.157632)
(198.892 -0.421736 -0.0825086)
(198.791 -0.535628 -0.298379)
(198.629 -0.658831 -0.469912)
(198.421 -0.786909 -0.578434)
(198.192 -0.914111 -0.609809)
(197.975 -1.03326 -0.551854)
(197.805 -1.13367 -0.416033)
(198.813 0.590888 0.488419)
(198.996 0.549981 0.192099)
(199.066 0.455996 -0.12456)
(199.021 0.332981 -0.432366)
(198.862 0.187306 -0.707024)
(198.6 0.0254469 -0.920217)
(198.255 -0.148116 -1.04258)
(197.862 -0.327413 -1.0439)
(197.473 -0.504046 -0.901074)
(197.164 -0.66273 -0.607536)
(199.023 0.140485 1.02577)
(199.284 0.0250783 0.6025)
(199.383 -0.134797 0.12474)
(199.325 -0.312835 -0.34092)
(199.108 -0.508802 -0.774294)
(198.74 -0.715614 -1.13637)
(198.24 -0.932515 -1.38381)
(197.652 -1.1561 -1.46802)
(197.044 -1.38564 -1.33666)
(196.541 -1.5968 -0.961244)
(199.11 1.01937 0.858819)
(199.444 0.890408 0.362733)
(199.573 0.709736 -0.168607)
(199.504 0.513133 -0.696451)
(199.23 0.303488 -1.19128)
(198.758 0.0844674 -1.61203)
(198.099 -0.146812 -1.90167)
(197.297 -0.393423 -1.99523)
(196.429 -0.656704 -1.79646)
(195.682 -0.926781 -1.25174)
(199.425 0.308471 1.4547)
(199.831 0.0878629 0.8559)
(199.988 -0.162305 0.179825)
(199.914 -0.406919 -0.488612)
(199.595 -0.648364 -1.13802)
(199.032 -0.881726 -1.71835)
(198.221 -1.11542 -2.16733)
(197.202 -1.35741 -2.38971)
(196.046 -1.63087 -2.26468)
(195.006 -1.9238 -1.6359)
(199.492 1.47634 1.00548)
(199.941 1.2492 0.395005)
(200.116 0.999579 -0.248842)
(200.03 0.765968 -0.908682)
(199.67 0.551744 -1.55097)
(199.03 0.356124 -2.13946)
(198.093 0.166879 -2.59648)
(196.884 -0.0338611 -2.8309)
(195.458 -0.274347 -2.651)
(194.113 -0.584703 -1.88565)
(199.772 0.0750329 1.78472)
(200.253 -0.261868 1.12)
(200.44 -0.58618 0.349328)
(200.353 -0.854774 -0.421224)
(199.971 -1.07604 -1.20065)
(199.284 -1.24436 -1.93519)
(198.255 -1.37098 -2.56309)
(196.891 -1.4797 -2.95606)
(195.231 -1.60326 -2.94422)
(193.568 -1.84114 -2.17416)
(199.181 1.66519 0.946316)
(199.642 1.29806 0.368394)
(199.829 1.0233 -0.264818)
(199.724 0.797121 -0.932496)
(199.312 0.651877 -1.60222)
(198.576 0.579803 -2.24618)
(197.476 0.574882 -2.78438)
(195.996 0.627755 -3.11063)
(194.175 0.666202 -3.00743)
(192.289 0.634673 -2.10456)
(197.902 -0.299803 0.23526)
(197.977 -0.329109 0.218979)
(197.99 -0.364756 0.146018)
(197.988 -0.390392 0.0973431)
(197.975 -0.41972 0.0361652)
(197.956 -0.44524 -0.00852022)
(197.932 -0.469007 -0.0474235)
(197.906 -0.489435 -0.0708054)
(197.875 -0.505373 -0.0839829)
(197.794 -0.514974 -0.084815)
(198.436 0.297088 -0.0156499)
(198.475 0.334348 -0.0918705)
(198.491 0.346838 -0.15181)
(198.482 0.332258 -0.204303)
(198.45 0.302458 -0.243202)
(198.399 0.261564 -0.263697)
(198.335 0.214797 -0.261939)
(198.268 0.16698 -0.233646)
(198.204 0.122717 -0.181972)
(198.152 0.0878573 -0.104532)
(198.478 -0.264306 0.503892)
(198.553 -0.323382 0.354341)
(198.581 -0.390647 0.177012)
(198.561 -0.464121 0.00455288)
(198.496 -0.546992 -0.150229)
(198.391 -0.636606 -0.273786)
(198.259 -0.728876 -0.3542)
(198.118 -0.818782 -0.384373)
(197.985 -0.900461 -0.357451)
(197.882 -0.966916 -0.286901)
(198.49 0.450167 0.317856)
(198.62 0.432547 0.112859)
(198.67 0.371175 -0.105988)
(198.639 0.284331 -0.317342)
(198.528 0.177846 -0.502328)
(198.348 0.0578658 -0.640243)
(198.114 -0.070703 -0.71184)
(197.856 -0.201778 -0.698832)
(197.608 -0.327186 -0.592887)
(197.416 -0.436616 -0.393248)
(198.621 -0.0318612 0.810842)