/*--------------------------------*- C++ -*----------------------------------*\
| =========                 |                                                 |
| \\      /  F ield         | foam-extend: Open Source CFD                    |
|  \\    /   O peration     | Version:     4.0                                |
|   \\  /    A nd           | Web:         http://www.foam-extend.org         |
|    \\/     M anipulation  |                                                 |
\*---------------------------------------------------------------------------*/
FoamFile
{
    version     2.0;
    format      ascii;
    class       volScalarField;
    location    "1900";
    object      alphat;
}
// * * * * * * * * * * * * * * * * * * * * * * * * * * * * * * * * * * * * * //

dimensions      [1 -1 -1 0 0 0 0];

internalField   nonuniform List<scalar> 
34480
(
0.00188848
0.00188722
0.00188706
0.00188789
0.00189
0.00189391
0.00190144
0.00191971
0.00195897
0.00203022
0.0159282
0.0151201
0.0148204
0.0145503
0.0129279
0.00824467
0.0034072
0.00134842
0.000984912
0.00145501
0.0442716
0.0426135
0.0409259
0.0374811
0.0286722
0.014683
0.00511899
0.00182866
0.00124091
0.00181182
0.0484207
0.046263
0.0443217
0.0402826
0.0297101
0.0141621
0.00479377
0.00177564
0.00128738
0.00197761
0.0477428
0.0453229
0.0435579
0.0397168
0.0288506
0.01319
0.00440883
0.00168462
0.00129892
0.00209658
0.045993
0.0435086
0.0418479
0.0380613
0.0268361
0.0116159
0.0038581
0.00155338
0.00130537
0.00222418
0.0438629
0.0415397
0.0400796
0.0364657
0.0252701
0.010552
0.0034941
0.00146118
0.0013129
0.00233379
0.0364098
0.0347175
0.0336878
0.0309401
0.0214249
0.00863845
0.00281205
0.00123979
0.00123616
0.00234082
0.0124291
0.0121093
0.012006
0.0117293
0.00993088
0.00512531
0.00167722
0.00073676
0.000834388
0.00178653
0.00180097
0.00180087
0.00180254
0.00180581
0.00181059
0.0018167
0.00182474
0.00183598
0.00185255
0.00181384
0.00188851
0.00188665
0.00188605
0.00188657
0.00188842
0.00189187
0.00189737
0.00190683
0.00192453
0.00196537
0.0149603
0.0143253
0.0141332
0.0143164
0.0147272
0.0147755
0.0129478
0.00764467
0.00249494
0.00204528
0.0407463
0.0395179
0.0388513
0.0383133
0.0366997
0.0319883
0.0230064
0.0112953
0.00328132
0.0028023
0.0448225
0.0431532
0.0423494
0.0417761
0.0399331
0.0344344
0.024208
0.0114394
0.00330061
0.00316939
0.0446562
0.0426989
0.0419529
0.0415942
0.0401108
0.03484
0.0244551
0.0112842
0.00323801
0.00345051
0.0434411
0.0413735
0.0406456
0.0404211
0.0392065
0.0342116
0.0239589
0.0108494
0.00316561
0.00378153
0.0418362
0.0398513
0.0392138
0.0390735
0.0380969
0.0334666
0.0235386
0.0105535
0.00312919
0.00409801
0.0351445
0.0336717
0.0332025
0.0331848
0.0326759
0.0293607
0.0210949
0.00938449
0.0028546
0.00417076
0.0123674
0.0120602
0.0119989
0.0120568
0.0121869
0.0120296
0.0106115
0.00545473
0.00170692
0.00280123
0.0017964
0.00179393
0.00179343
0.00179462
0.00179742
0.00180152
0.0018077
0.00181753
0.0018418
0.00188912
0.00188401
0.0018824
0.00188187
0.00188233
0.00188392
0.00188669
0.00189067
0.00189667
0.0019056
0.00191914
0.0140636
0.0136473
0.0135131
0.0136635
0.0141021
0.014742
0.0151437
0.0142159
0.0101116
0.00583705
0.0372139
0.036246
0.0359074
0.0360533
0.0363699
0.0359498
0.0330159
0.0253641
0.013344
0.0070995
0.041084
0.0397796
0.0393492
0.0395747
0.0400715
0.039719
0.0361987
0.0266187
0.0125403
0.00720392
0.0413122
0.0397962
0.0393801
0.0397196
0.0405238
0.0406543
0.0373628
0.0266936
0.0114199
0.00717583
0.0405703
0.038962
0.0385259
0.0389296
0.0399585
0.0405775
0.0376986
0.0261776
0.0103054
0.00724743
0.0394638
0.0378966
0.0375035
0.0379115
0.0390432
0.0400221
0.0376519
0.0255313
0.0093815
0.00733125
0.0336224
0.0324588
0.0321492
0.0324664
0.0334077
0.0345692
0.0334152
0.0226409
0.0079697
0.00704279
0.0122604
0.012005
0.0119607
0.0120212
0.0122171
0.0124492
0.0126047
0.0106467
0.00448902
0.00445678
0.00178908
0.00178618
0.0017853
0.00178619
0.00178888
0.00179324
0.00180027
0.00181209
0.00183883
0.00189233
0.00187582
0.00187469
0.00187431
0.00187466
0.00187582
0.00187769
0.00188001
0.00188309
0.00188704
0.00189172
0.0134726
0.0132249
0.0131341
0.0132299
0.0135208
0.0139763
0.0144501
0.0148655
0.0145952
0.0128623
0.0340407
0.0333572
0.0331615
0.0333637
0.0339296
0.0346082
0.034634
0.0324121
0.0256871
0.0173829
0.0376459
0.0367043
0.0364358
0.036727
0.0375355
0.0385419
0.0386007
0.0352948
0.0257932
0.0167224
0.0381921
0.0370993
0.0368308
0.0371873
0.0382005
0.0395812
0.0399762
0.0361458
0.0246346
0.0158806
0.0378704
0.0366939
0.036392
0.0367879
0.0379478
0.0396916
0.040541
0.0363524
0.0231435
0.015334
0.0372098
0.0360342
0.035753
0.0361415
0.0373448
0.0392848
0.0405184
0.0360616
0.0215252
0.0148454
0.0322064
0.0313245
0.0310943
0.0313815
0.0322894
0.0339207
0.0354086
0.0320004
0.0185294
0.0137233
0.0121944
0.0119841
0.0119515
0.0119978
0.0121468
0.0123369
0.0125441
0.0126729
0.00958877
0.00831956
0.00178018
0.00177713
0.00177612
0.00177693
0.00177964
0.0017843
0.0017919
0.0018046
0.00183075
0.0018781
0.00186474
0.00186405
0.00186382
0.00186406
0.00186481
0.00186592
0.00186711
0.00186853
0.00187011
0.00187158
0.0131899
0.013053
0.0129931
0.0130526
0.0132319
0.013492
0.0137227
0.0140116
0.014293
0.0144155
0.0315069
0.031106
0.0309995
0.0311244
0.0315078
0.0321219
0.0328091
0.0330913
0.03164
0.0274617
0.0347734
0.034171
0.0340017
0.0341973
0.034793
0.035778
0.0368791
0.0371106
0.0340965
0.0274699
0.0355156
0.0347919
0.0346155
0.0348562
0.0355999
0.0368662
0.0383273
0.038584
0.0342339
0.0263048
0.0355135
0.0347027
0.0344875
0.0347636
0.0356243
0.0371649
0.0390492
0.0394585
0.0338291
0.0253952
0.0352038
0.0343598
0.0341518
0.0344284
0.0353319
0.0370037
0.0391553
0.0396407
0.0328227
0.0244432
0.0309619
0.0303142
0.0301387
0.0303467
0.0310169
0.0323225
0.0341952
0.0350303
0.0289298
0.0222935
0.0121762
0.0120027
0.0119791
0.0120106
0.0121121
0.0122297
0.0123006
0.0126962
0.0125744
0.0122115
0.00176984
0.00176678
0.0017657
0.00176645
0.00176912
0.00177387
0.00178151
0.00179389
0.0018166
0.00185323
0.0018513
0.00185095
0.00185084
0.00185099
0.00185142
0.00185199
0.00185251
0.0018531
0.00185367
0.00185407
0.0131476
0.0130817
0.0130443
0.0130831
0.0131947
0.0133326
0.0134245
0.0135396
0.0136595
0.0137515
0.0297479
0.0295546
0.0295069
0.0295668
0.0297601
0.0300886
0.030544
0.0310953
0.0314188
0.0310581
0.0326059
0.0322651
0.0321662
0.0322734
0.0326192
0.0332421
0.0341526
0.0351935
0.0354804
0.0339461
0.033388
0.0329503
0.0328426
0.0329816
0.0334363
0.0342688
0.0355112
0.0369066
0.0369216
0.0340656
0.0335739
0.0330504
0.0329043
0.0330761
0.0336312
0.034685
0.0363084
0.038152
0.0378593
0.033849
0.0334985
0.0329228
0.032776
0.0329548
0.0335609
0.034732
0.0365775
0.0386908
0.0379506
0.0331012
0.0299089
0.0294536
0.029326
0.0294665
0.0299204
0.030816
0.0322751
0.0342173
0.0337673
0.0299543
0.0122092
0.0120669
0.0120518
0.0120717
0.0121353
0.0121877
0.0121403
0.0123353
0.012747
0.0136383
0.00175792
0.00175495
0.00175387
0.00175457
0.00175713
0.00176172
0.00176897
0.00178025
0.00179871
0.00182519
0.0018359
0.00183578
0.00183575
0.00183583
0.00183606
0.00183628
0.00183647
0.00183666
0.00183683
0.00183688
0.0132695
0.0132511
0.0132307
0.0132571
0.0133261
0.013389
0.0134287
0.0134712
0.0135021
0.0134923
0.0286863
0.0286095
0.0285942
0.0286193
0.0287014
0.0288357
0.0290279
0.0292927
0.0295741
0.0297924
0.031128
0.0309509
0.0308966
0.0309493
0.0311274
0.0314522
0.0319529
0.0326496
0.0333495
0.0337454
0.031826
0.0315801
0.0315193
0.031592
0.0318425
0.0323059
0.0330416
0.0341001
0.0350954
0.0353902
0.0320808
0.031761
0.0316665
0.031766
0.0320967
0.0327286
0.0337639
0.0353042
0.0366628
0.0367233
0.0321318
0.0317566
0.0316579
0.0317658
0.0321464
0.0328822
0.0341062
0.0359727
0.0374822
0.0371056
0.0290748
0.0287679
0.0286795
0.0287692
0.0290579
0.0296184
0.0305426
0.0321153
0.0335585
0.0335478
0.0123019
0.0121846
0.0121769
0.0121881
0.0122225
0.0122208
0.0120997
0.0121031
0.01229
0.0129851
0.00174427
0.0017415
0.00174047
0.0017411
0.00174348
0.00174772
0.00175426
0.001764
0.0017784
0.00179697
0.00181875
0.00181878
0.00181879
0.00181884
0.00181893
0.00181898
0.00181901
0.00181904
0.00181906
0.00181898
0.0134977
0.0135139
0.0135072
0.0135255
0.0135655
0.0135904
0.0136097
0.0136263
0.0136271
0.0135852
0.0281284
0.0281065
0.0281067
0.0281168
0.0281475
0.0281926
0.0282575
0.028346
0.0284433
0.0285279
0.0302028
0.030114
0.0300849
0.0301098
0.0301977
0.0303553
0.0305932
0.0309234
0.0312979
0.031631
0.0307576
0.0306264
0.0305944
0.0306301
0.0307604
0.0309975
0.0313686
0.031916
0.0325581
0.0331298
0.0310015
0.0308143
0.0307558
0.0308107
0.0309985
0.0313517
0.0319239
0.0328133
0.0338839
0.0348222
0.0310985
0.0308629
0.0307995
0.0308614
0.03109
0.0315243
0.0322372
0.0333893
0.0347764
0.0359132
0.0284639
0.0282652
0.0282072
0.0282614
0.0284347
0.0287597
0.0292746
0.0302074
0.0314659
0.0327018
0.0124605
0.0123623
0.0123609
0.0123658
0.0123785
0.0123351
0.0121781
0.0120711
0.012051
0.0123135
0.00172877
0.00172629
0.00172534
0.0017259
0.00172803
0.00173178
0.00173742
0.00174545
0.00175632
0.00176912
0.00179998
0.00180008
0.00180013
0.00180015
0.00180017
0.00180015
0.00180012
0.00180009
0.00180005
0.00179994
0.0137984
0.0138417
0.0138466
0.0138591
0.0138773
0.0138881
0.013899
0.0139056
0.0138957
0.0138431
0.0278883
0.0278904
0.0278969
0.0279013
0.0279106
0.0279229
0.0279412
0.0279649
0.027988
0.0280028
0.0296649
0.0296197
0.0296038
0.0296158
0.0296598
0.0297369
0.0298488
0.0299949
0.0301548
0.03029
0.0300723
0.0300039
0.0299878
0.0300049
0.0300713
0.0301894
0.0303673
0.0306169
0.0309099
0.0311772
0.0302672
0.0301607
0.0301256
0.0301552
0.0302593
0.0304505
0.03075
0.0311967
0.0317563
0.0323093
0.0303625
0.0302183
0.0301789
0.0302132
0.0303471
0.030595
0.0309877
0.0316021
0.0323935
0.0331908
0.0280624
0.0279385
0.0279025
0.0279335
0.028031
0.0282041
0.028463
0.0289342
0.0296377
0.0304959
0.01269
0.0126057
0.0126096
0.01261
0.0126069
0.0125342
0.0123678
0.0122138
0.0120874
0.0121461
0.00171133
0.00170919
0.00170836
0.00170885
0.00171067
0.00171385
0.00171851
0.00172487
0.00173285
0.00174151
0.00177962
0.00177975
0.00177981
0.00177982
0.00177981
0.00177977
0.00177973
0.00177968
0.00177963
0.00177951
0.0141699
0.014223
0.0142382
0.0142466
0.014253
0.0142601
0.0142669
0.0142688
0.014254
0.0141959
0.0278363
0.0278457
0.0278546
0.027857
0.0278587
0.0278612
0.0278649
0.027869
0.0278704
0.0278661
0.0293737
0.0293493
0.0293401
0.0293463
0.0293696
0.0294097
0.0294656
0.0295338
0.0296036
0.0296562
0.0296584
0.0296223
0.0296142
0.0296224
0.0296569
0.0297168
0.0298035
0.0299169
0.0300428
0.0301475
0.0297967
0.0297368
0.029716
0.029732
0.0297894
0.0298925
0.0300479
0.0302655
0.0305294
0.0307769
0.0298698
0.0297823
0.0297584
0.0297771
0.0298549
0.0299951
0.0302087
0.0305231
0.0309172
0.0312932
0.027843
0.0277682
0.0277473
0.027764
0.0278143
0.0278952
0.0280112
0.0282234
0.0285522
0.0289695
0.0129946
0.0129201
0.0129284
0.0129258
0.0129109
0.0128216
0.0126624
0.0125003
0.0123347
0.0123332
0.00169189
0.00169012
0.00168942
0.00168982
0.00169133
0.00169391
0.00169763
0.00170248
0.00170818
0.00171394
0.00175766
0.00175778
0.00175784
0.00175784
0.00175783
0.0017578
0.00175776
0.00175771
0.00175766
0.00175754
0.0146083
0.0146653
0.0146835
0.0146903
0.0146953
0.0147004
0.0147047
0.0147038
0.0146861
0.0146238
0.0278889
0.0278998
0.027908
0.0279102
0.0279106
0.0279106
0.0279106
0.0279096
0.0279056
0.0278969
0.0292284
0.0292141
0.0292085
0.0292119
0.0292252
0.0292477
0.0292779
0.0293131
0.0293469
0.0293698
0.0294226
0.0294025
0.0293981
0.0294024
0.0294213
0.0294535
0.0294984
0.0295534
0.0296103
0.0296538
0.0295126
0.0294788
0.0294664
0.0294752
0.0295074
0.0295637
0.0296456
0.0297534
0.0298779
0.0299893
0.029561
0.0295074
0.0294929
0.0295034
0.0295491
0.0296292
0.0297471
0.0299099
0.0301029
0.0302724
0.0277711
0.0277271
0.0277162
0.0277245
0.0277469
0.0277757
0.0278186
0.0279014
0.0280364
0.0282304
0.0133791
0.0133111
0.0133234
0.0133187
0.0132946
0.0132009
0.0130589
0.0129099
0.0127423
0.0127412
0.00167041
0.001669
0.00166844
0.00166876
0.00166996
0.00167198
0.00167483
0.0016784
0.00168237
0.00168614
0.00173402
0.00173414
0.00173419
0.00173419
0.00173418
0.00173416
0.00173412
0.00173409
0.00173405
0.00173393
0.0151184
0.0151791
0.0151985
0.0152053
0.0152095
0.0152132
0.0152157
0.015213
0.015193
0.0151269
0.0279983
0.0280091
0.0280164
0.0280186
0.0280189
0.0280186
0.0280179
0.028016
0.0280111
0.0280014
0.0291637
0.0291548
0.0291513
0.0291533
0.0291612
0.0291745
0.0291919
0.0292116
0.0292298
0.0292411
0.0292962
0.029284
0.0292811
0.0292836
0.0292949
0.0293138
0.0293392
0.0293686
0.0293972
0.0294181
0.0293512
0.0293318
0.0293243
0.0293294
0.0293478
0.0293794
0.0294238
0.029479
0.02954
0.0295942
0.0293813
0.0293475
0.0293384
0.0293447
0.0293725
0.0294197
0.029487
0.0295748
0.0296726
0.0297543
0.0278109
0.0277857
0.027781
0.0277846
0.0277912
0.0277948
0.0278032
0.0278268
0.0278721
0.02797
0.0138501
0.0137865
0.0138027
0.0137963
0.0137641
0.0136785
0.0135588
0.0134327
0.0132811
0.0133029
0.00164687
0.00164579
0.00164536
0.00164561
0.00164652
0.00164804
0.00165015
0.0016527
0.00165539
0.00165782
0.00170864
0.00170875
0.00170879
0.00170879
0.00170879
0.00170877
0.00170874
0.00170871
0.00170868
0.00170857
0.0157117
0.0157762
0.0157967
0.0158034
0.015807
0.0158096
0.0158109
0.0158068
0.0157852
0.0157151
0.0281383
0.0281487
0.028155
0.0281572
0.0281576
0.0281574
0.0281568
0.0281551
0.0281505
0.0281407
0.0291406
0.0291351
0.0291329
0.0291341
0.0291388
0.0291467
0.029157
0.0291684
0.0291789
0.029185
0.0292328
0.0292247
0.0292225
0.0292241
0.0292313
0.0292434
0.0292591
0.0292767
0.029293
0.0293046
0.0292652
0.0292536
0.0292491
0.0292521
0.0292629
0.0292812
0.029306
0.0293355
0.0293668
0.0293956
0.0292853
0.0292632
0.0292574
0.0292616
0.0292791
0.0293083
0.0293486
0.0293987
0.0294514
0.0294958
0.0279306
0.0279159
0.027915
0.0279159
0.0279142
0.0279087
0.0279034
0.0279029
0.0279104
0.0279684
0.0144184
0.0143575
0.014378
0.01437
0.0143327
0.0142651
0.0141693
0.0140691
0.0139403
0.013991
0.00162126
0.00162047
0.00162016
0.00162034
0.001621
0.00162211
0.00162362
0.00162537
0.00162715
0.0016287
0.00168143
0.00168153
0.00168157
0.00168157
0.00168156
0.00168155
0.00168153
0.00168151
0.00168148
0.00168138
0.0164061
0.0164746
0.016496
0.0165026
0.0165059
0.0165077
0.0165081
0.0165032
0.0164802
0.0164059
0.0282947
0.0283045
0.02831
0.028312
0.0283126
0.0283126
0.0283123
0.028311
0.0283069
0.0282973
0.0291374
0.0291341
0.0291328
0.0291335
0.0291362
0.0291407
0.0291466
0.0291532
0.0291594
0.0291629
0.0292033
0.0291976
0.0291958
0.0291969
0.0292018
0.0292099
0.0292204
0.0292318
0.029242
0.0292493
0.0292221
0.029215
0.0292121
0.0292139
0.0292205
0.0292313
0.0292456
0.0292621
0.029279
0.0292955
0.0292396
0.0292245
0.0292207
0.0292237
0.0292353
0.0292542
0.0292795
0.0293099
0.0293405
0.0293682
0.028105
0.0280934
0.0280947
0.0280943
0.0280901
0.0280833
0.0280745
0.0280664
0.0280603
0.0281017
0.0151139
0.0150442
0.0150667
0.015057
0.015028
0.0149777
0.0149053
0.0148299
0.0147249
0.0148031
0.00159358
0.00159302
0.0015928
0.00159293
0.0015934
0.00159418
0.00159521
0.00159638
0.00159753
0.0015985
0.00165231
0.0016524
0.00165243
0.00165243
0.00165243
0.00165242
0.00165241
0.00165239
0.00165237
0.00165227
0.0172274
0.0173004
0.0173225
0.017329
0.017332
0.0173333
0.0173331
0.0173276
0.0173038
0.0172248
0.0284594
0.0284685
0.0284732
0.0284749
0.0284756
0.0284758
0.0284758
0.0284749
0.0284716
0.0284625
0.0291427
0.0291408
0.0291402
0.0291406
0.0291419
0.0291442
0.0291473
0.0291509
0.0291546
0.0291567
0.0291907
0.0291866
0.029185
0.0291858
0.0291891
0.0291948
0.029202
0.0292096
0.0292165
0.0292215
0.0292015
0.029197
0.0291951
0.0291962
0.0292002
0.0292068
0.0292153
0.0292247
0.0292343
0.0292443
0.0292209
0.0292103
0.0292077
0.0292099
0.0292179
0.0292307
0.0292472
0.0292665
0.0292855
0.029305
0.0283111
0.0283002
0.0283013
0.028301
0.0282979
0.0282925
0.0282847
0.0282761
0.0282668
0.0283006
0.0159627
0.0158854
0.0159023
0.015896
0.0158766
0.0158423
0.0157916
0.0157381
0.0156549
0.0157561
0.00156383
0.00156345
0.0015633
0.00156339
0.0015637
0.00156423
0.00156492
0.00156567
0.00156638
0.00156698
0.00162125
0.00162133
0.00162135
0.00162136
0.00162136
0.00162135
0.00162134
0.00162132
0.00162131
0.00162121
0.0182126
0.0182908
0.0183131
0.0183192
0.0183223
0.0183231
0.0183225
0.018317
0.0182927
0.0182086
0.0286265
0.0286348
0.0286385
0.02864
0.0286406
0.028641
0.0286413
0.0286408
0.0286384
0.0286302
0.0291504
0.0291496
0.0291493
0.0291495
0.02915
0.029151
0.0291523
0.0291541
0.0291562
0.0291577
0.0291854
0.0291825
0.0291811
0.0291815
0.0291838
0.0291877
0.0291926
0.0291978
0.0292026
0.0292061
0.0291914
0.0291884
0.0291871
0.0291877
0.0291902
0.0291942
0.0291993
0.0292049
0.0292104
0.0292168
0.0292141
0.0292065
0.0292047
0.0292064
0.0292119
0.0292206
0.0292316
0.0292442
0.0292564
0.0292712
0.0285302
0.0285198
0.0285205
0.0285205
0.0285187
0.0285154
0.0285102
0.0285039
0.0284953
0.0285245
0.0170032
0.0169204
0.0169312
0.0169283
0.0169174
0.0168974
0.0168665
0.0168313
0.0167678
0.0168854
0.00153203
0.00153178
0.00153167
0.00153173
0.00153194
0.00153228
0.00153272
0.00153318
0.00153362
0.00153398
0.0015883
0.00158837
0.00158839
0.0015884
0.0015884
0.00158839
0.00158838
0.00158837
0.00158835
0.00158826
0.0194159
0.0194998
0.0195223
0.019528
0.0195305
0.0195309
0.0195302
0.0195249
0.0195009
0.0194112
0.0287899
0.0287969
0.0287997
0.0288007
0.0288013
0.0288018
0.0288023
0.0288023
0.0288009
0.0287941
0.0291577
0.0291573
0.0291574
0.0291574
0.0291575
0.0291577
0.0291581
0.0291588
0.0291598
0.0291612
0.0291821
0.02918
0.0291789
0.0291791
0.0291806
0.0291831
0.0291863
0.0291898
0.0291931
0.0291956
0.0291849
0.0291829
0.029182
0.0291823
0.0291838
0.0291862
0.0291892
0.0291925
0.0291958
0.0291998
0.0292093
0.029204
0.0292027
0.029204
0.0292077
0.0292135
0.0292206
0.0292287
0.0292365
0.0292478
0.0287444
0.0287349
0.0287353
0.0287355
0.0287349
0.0287336
0.0287309
0.0287273
0.0287207
0.0287459
0.0182923
0.0182065
0.0182111
0.018211
0.0182079
0.0182009
0.0181882
0.0181681
0.018123
0.0182487
0.00149826
0.0014981
0.00149803
0.00149807
0.0014982
0.00149841
0.00149868
0.00149896
0.00149922
0.00149942
0.00155369
0.00155375
0.00155377
0.00155377
0.00155377
0.00155377
0.00155376
0.00155374
0.00155372
0.00155364
0.0209198
0.0210093
0.0210317
0.0210368
0.0210379
0.021038
0.0210372
0.0210325
0.0210099
0.0209146
0.0289409
0.0289461
0.0289477
0.0289482
0.0289487
0.0289492
0.02895
0.0289505
0.0289501
0.0289457
0.0291626
0.0291625
0.0291626
0.0291627
0.0291626
0.0291625
0.0291624
0.0291625
0.029163
0.0291642
0.0291783
0.0291767
0.0291759
0.0291759
0.0291768
0.0291783
0.0291803
0.0291826
0.0291848
0.0291867
0.0291789
0.0291775
0.0291769
0.029177
0.0291779
0.0291792
0.0291809
0.0291828
0.0291847
0.0291871
0.0292003
0.0291968
0.029196
0.0291968
0.0291992
0.0292027
0.029207
0.0292118
0.0292165
0.0292247
0.0289345
0.0289264
0.0289265
0.0289269
0.028927
0.0289268
0.0289259
0.0289244
0.0289201
0.0289408
0.0199135
0.0198282
0.0198256
0.0198276
0.0198317
0.0198371
0.0198426
0.0198357
0.0198104
0.0199328
0.00146272
0.00146262
0.00146258
0.0014626
0.00146268
0.00146281
0.00146297
0.00146313
0.0014633
0.00146341
0.00151762
0.00151766
0.00151767
0.00151767
0.00151766
0.00151766
0.00151766
0.00151765
0.00151764
0.00151759
0.0228574
0.0229493
0.022969
0.0229731
0.0229739
0.0229738
0.0229729
0.0229689
0.0229491
0.0228509
0.0290674
0.02907
0.0290704
0.0290703
0.0290705
0.0290711
0.0290719
0.029073
0.0290737
0.0290724
0.0291645
0.0291645
0.0291646
0.0291646
0.0291645
0.0291644
0.0291643
0.0291642
0.0291643
0.0291652
0.0291736
0.0291725
0.0291719
0.0291719
0.0291724
0.0291733
0.0291744
0.0291758
0.0291772
0.0291786
0.0291731
0.0291722
0.0291718
0.0291719
0.0291723
0.029173
0.0291739
0.0291749
0.0291759
0.0291772
0.0291855
0.0291835
0.029183
0.0291835
0.0291848
0.0291867
0.029189
0.0291915
0.0291941
0.0291992
0.0290792
0.0290731
0.029073
0.0290732
0.0290735
0.0290736
0.0290734
0.029073
0.0290709
0.0290865
0.022013
0.0219346
0.0219326
0.0219343
0.0219374
0.0219416
0.0219459
0.0219488
0.0219497
0.0220529
0.00142554
0.00142547
0.00142544
0.00142546
0.0014255
0.00142558
0.00142568
0.00142579
0.0014259
0.00142596
0.00147922
0.00147922
0.00147921
0.0014792
0.0014792
0.0014792
0.00147921
0.00147922
0.00147925
0.00147927
0.0254658
0.0255463
0.02556
0.0255629
0.0255635
0.0255632
0.0255621
0.0255588
0.0255441
0.0254558
0.0291557
0.0291555
0.0291548
0.0291543
0.0291543
0.0291548
0.0291556
0.0291569
0.0291585
0.0291603
0.0291643
0.0291642
0.0291643
0.0291643
0.0291643
0.0291643
0.0291643
0.0291643
0.0291643
0.0291646
0.0291699
0.0291692
0.0291689
0.0291689
0.0291691
0.0291696
0.0291703
0.0291711
0.0291719
0.0291728
0.0291693
0.0291688
0.0291685
0.0291686
0.0291689
0.0291693
0.0291699
0.0291704
0.029171
0.0291716
0.0291715
0.0291705
0.0291702
0.0291704
0.0291711
0.0291722
0.0291735
0.0291748
0.029176
0.0291783
0.0291666
0.0291629
0.0291624
0.0291624
0.0291624
0.0291623
0.0291623
0.0291623
0.0291625
0.0291723
0.0249074
0.0248486
0.0248475
0.0248487
0.0248508
0.0248535
0.0248563
0.0248581
0.0248584
0.0249354
0.00138594
0.00138589
0.00138587
0.00138588
0.00138592
0.00138598
0.00138606
0.00138614
0.00138622
0.00138626
0.0023442
0.00236508
0.00235486
0.00232093
0.00141082
0.00143383
0.00143119
0.00142635
0.00188736
0.00192944
0.0019203
0.00189561
0.00227431
0.00233248
0.00231294
0.00226671
0.00262179
0.00269294
0.00266093
0.00259645
0.00296327
0.00304558
0.00300533
0.00293183
0.00324541
0.00333589
0.00329356
0.00322025
0.0034132
0.00351003
0.00346998
0.00340134
0.00304502
0.00313457
0.00309572
0.00304001
0.00237485
0.0023915
0.00235661
0.00227535
0.00202755
0.00203326
0.00203438
0.00203136
0.00235366
0.00243395
0.00233392
0.00214206
0.00330813
0.00342262
0.00329214
0.00305427
0.00407167
0.0042401
0.00408144
0.0037835
0.00485354
0.00508951
0.00489495
0.00451927
0.00582855
0.00615463
0.00591313
0.00542854
0.00679504
0.00720885
0.00690729
0.00630944
0.00749321
0.00799143
0.00763331
0.00693845
0.00591772
0.00635457
0.00600169
0.005405
0.00218169
0.00221404
0.00220717
0.00217139
0.0019332
0.00193525
0.0019354
0.00193415
0.00406645
0.00404192
0.00405225
0.00414325
0.00499139
0.00497269
0.00499277
0.00509702
0.00549602
0.00551567
0.00553549
0.00558526
0.00601089
0.006065
0.00606829
0.00602671
0.00675398
0.0068508
0.00681118
0.00663336
0.00751224
0.00763581
0.00752225
0.00718445
0.00805092
0.00821159
0.00802432
0.00752556
0.00612499
0.0062649
0.00608888
0.00560784
0.00204804
0.00206514
0.00206323
0.00204547
0.00189445
0.00189468
0.0018948
0.00189484
0.0102408
0.0099621
0.010098
0.0106126
0.0119478
0.0116136
0.0119164
0.0128098
0.0114406
0.0112594
0.0116316
0.0125264
0.01109
0.0110289
0.0114259
0.0122562
0.011208
0.0112506
0.0116411
0.012368
0.0114043
0.0115062
0.011845
0.0124236
0.0113548
0.0115323
0.0118025
0.0121735
0.00801855
0.00820333
0.00832648
0.00836763
0.00195681
0.00196726
0.00196823
0.00196023
0.00187252
0.00187257
0.0018726
0.00187261
0.0144911
0.0144311
0.0144592
0.0145685
0.023842
0.0235184
0.0237061
0.0243331
0.0222459
0.0219539
0.0223065
0.0232333
0.0203811
0.0202017
0.0206816
0.0217891
0.0193309
0.0193008
0.0198718
0.0210702
0.0185182
0.0185934
0.0191865
0.020378
0.0173313
0.0175437
0.018099
0.0191113
0.0108805
0.0111159
0.0113574
0.0116708
0.00189357
0.00190006
0.00190152
0.00189811
0.00185449
0.00185446
0.00185445
0.00185444
0.0140869
0.0140131
0.0140036
0.0140586
0.0304041
0.0302973
0.0303233
0.0304704
0.031798
0.0315593
0.0316499
0.0320268
0.0304325
0.0301454
0.030366
0.0310247
0.0290255
0.0288078
0.0291971
0.0301267
0.0274495
0.0273221
0.0278371
0.0289653
0.0247755
0.0248411
0.0253985
0.0264754
0.013174
0.0134065
0.0135822
0.0137427
0.00184564
0.00184957
0.00185084
0.00184949
0.00183719
0.00183714
0.00183712
0.00183711
0.0137853
0.0136946
0.0136769
0.0137312
0.0299161
0.0299192
0.0299335
0.0299592
0.0336757
0.0336792
0.0337118
0.0337708
0.0348253
0.0347793
0.0348404
0.0349967
0.0353468
0.0352622
0.0353988
0.0357261
0.0347089
0.0345958
0.0348282
0.0353624
0.0310999
0.031132
0.0314441
0.0320089
0.0133164
0.0135939
0.0136551
0.0135473
0.00180731
0.0018097
0.00181064
0.00181013
0.00181926
0.00181921
0.00181918
0.00181917
0.0138649
0.0137677
0.0137476
0.0138032
0.0286252
0.0286185
0.0286214
0.0286343
0.0317593
0.0317856
0.0318031
0.031812
0.0333171
0.0333627
0.0333956
0.0334173
0.0350532
0.0351265
0.035188
0.0352393
0.03592
0.0359848
0.0360708
0.036179
0.0326226
0.0327811
0.0329077
0.0330059
0.0123928
0.0126495
0.0126899
0.0125509
0.00177448
0.001776
0.00177663
0.00177639
0.00180021
0.00180015
0.00180011
0.00180011
0.0141242
0.0140238
0.0140027
0.0140594
0.0280678
0.028055
0.0280536
0.0280639
0.0303412
0.0303493
0.0303544
0.0303568
0.0312805
0.031302
0.0313148
0.0313196
0.0325582
0.0326153
0.0326467
0.032654
0.0334942
0.0335731
0.0336167
0.0336299
0.0307746
0.0309427
0.0310111
0.0309876
0.0119576
0.0121824
0.0122241
0.0121022
0.0017444
0.00174543
0.00174583
0.00174565
0.00177978
0.00177971
0.00177968
0.00177968
0.0144824
0.0143791
0.0143573
0.0144154
0.0279208
0.0279073
0.0279051
0.0279144
0.0296739
0.029675
0.029676
0.0296769
0.0301789
0.0301843
0.0301876
0.0301891
0.0308815
0.0309045
0.0309168
0.0309187
0.0314147
0.0314479
0.031466
0.0314702
0.029042
0.0291524
0.0291923
0.0291632
0.0120326
0.012252
0.0122936
0.0121711
0.00171554
0.00171629
0.00171654
0.00171636
0.00175782
0.00175775
0.00175772
0.00175772
0.0149176
0.0148111
0.0147885
0.0148482
0.027947
0.027934
0.0279317
0.0279404
0.0293775
0.029377
0.0293771
0.0293777
0.029663
0.0296639
0.0296646
0.029665
0.0300323
0.0300413
0.030046
0.0300464
0.0303005
0.0303112
0.0303175
0.0303196
0.0281849
0.0282598
0.0282843
0.0282577
0.0123977
0.0126285
0.0126712
0.0125393
0.00168703
0.00168761
0.00168777
0.00168758
0.00173422
0.00173414
0.0017341
0.00173411
0.0154296
0.0153193
0.0152958
0.0153573
0.0280478
0.0280355
0.0280333
0.0280413
0.0292455
0.0292448
0.0292447
0.0292453
0.0294215
0.0294215
0.0294216
0.0294217
0.0296155
0.0296199
0.029622
0.0296219
0.0297547
0.0297585
0.0297607
0.0297615
0.0278882
0.0279472
0.0279648
0.02794
0.0129391
0.0131889
0.0132343
0.0130903
0.00165832
0.00165879
0.00165889
0.00165869
0.00170887
0.00170878
0.00170874
0.00170876
0.0160284
0.0159138
0.0158891
0.0159527
0.0281832
0.0281716
0.0281694
0.0281767
0.0291879
0.0291872
0.0291871
0.0291877
0.0293064
0.0293063
0.0293063
0.0293063
0.0294084
0.029411
0.0294123
0.029412
0.0294908
0.0294927
0.0294938
0.029494
0.0278816
0.0279325
0.0279468
0.0279239
0.0136128
0.0138855
0.0139347
0.0137771
0.00162895
0.00162936
0.00162943
0.00162923
0.00168168
0.00168159
0.00168155
0.00168157
0.0167318
0.0166118
0.0165857
0.0166518
0.0283355
0.0283247
0.0283225
0.0283292
0.0291649
0.0291643
0.0291643
0.0291648
0.0292504
0.0292504
0.0292504
0.0292504
0.0293041
0.0293059
0.0293067
0.0293064
0.0293643
0.0293659
0.0293667
0.0293665
0.0280205
0.0280659
0.0280783
0.0280574
0.0144106
0.0147092
0.0147628
0.0145902
0.00159861
0.00159897
0.00159901
0.00159882
0.00165259
0.00165249
0.00165245
0.00165247
0.0175657
0.017439
0.0174112
0.0174803
0.028496
0.028486
0.0284839
0.0284899
0.0291582
0.0291577
0.0291577
0.0291581
0.0292223
0.0292223
0.0292222
0.0292222
0.0292505
0.0292518
0.0292523
0.029252
0.0293036
0.0293053
0.0293059
0.0293055
0.0282296
0.0282704
0.0282812
0.0282621
0.0153474
0.0156747
0.015733
0.0155436
0.00156701
0.00156733
0.00156736
0.00156717
0.00162155
0.00162144
0.0016214
0.00162143
0.0185673
0.0184323
0.0184021
0.018475
0.0286585
0.0286495
0.0286475
0.0286528
0.0291588
0.0291585
0.0291585
0.0291588
0.0292067
0.0292067
0.0292067
0.0292067
0.0292213
0.0292222
0.0292226
0.0292223
0.0292722
0.0292739
0.0292745
0.0292739
0.0284666
0.028503
0.0285124
0.0284948
0.0164565
0.0168158
0.0168788
0.0166707
0.00153396
0.00153424
0.00153426
0.00153409
0.00158862
0.0015885
0.00158846
0.0015885
0.0197912
0.0196451
0.0196118
0.0196893
0.0288167
0.0288089
0.0288071
0.0288116
0.029162
0.0291618
0.0291618
0.0291621
0.0291963
0.0291963
0.0291963
0.0291963
0.0292031
0.0292038
0.0292039
0.0292037
0.0292505
0.0292522
0.0292527
0.029252
0.0287035
0.0287356
0.0287433
0.0287272
0.0177924
0.0181858
0.0182532
0.0180249
0.00149939
0.00149963
0.00149964
0.00149949
0.00155403
0.0015539
0.00155386
0.00155391
0.0213177
0.021156
0.0211183
0.0212024
0.028964
0.028958
0.0289565
0.0289599
0.0291648
0.0291648
0.0291648
0.0291649
0.0291874
0.0291875
0.0291876
0.0291876
0.0291894
0.0291898
0.0291899
0.0291897
0.0292282
0.0292297
0.0292301
0.0292294
0.0289156
0.028943
0.028949
0.0289343
0.0194345
0.0198578
0.0199278
0.0196816
0.00146338
0.00146358
0.00146359
0.00146347
0.00151801
0.00151789
0.00151786
0.00151791
0.0232722
0.0230879
0.0230445
0.0231383
0.0290875
0.0290837
0.0290827
0.0290849
0.0291655
0.0291655
0.0291655
0.0291655
0.0291793
0.0291795
0.0291796
0.0291796
0.0291785
0.0291787
0.0291788
0.0291787
0.0292024
0.0292034
0.0292037
0.0292031
0.029078
0.0290996
0.0291037
0.0290911
0.0215232
0.0219758
0.0220428
0.021775
0.00142606
0.00142621
0.00142622
0.00142613
0.00147972
0.00147963
0.00147961
0.00147967
0.0258484
0.0256396
0.025594
0.0257012
0.0291704
0.0291688
0.0291684
0.0291693
0.0291643
0.0291642
0.0291641
0.0291641
0.0291734
0.0291735
0.0291736
0.0291737
0.0291721
0.0291722
0.0291722
0.0291722
0.0291798
0.0291802
0.0291803
0.0291801
0.0291744
0.0291867
0.0291886
0.0291809
0.0244726
0.0248976
0.0249472
0.0246876
0.00138663
0.00138677
0.00138677
0.00138667
0.00215549
0.00203893
0.00197451
0.00194197
0.00192284
0.00191046
0.00190228
0.00189709
0.00189375
0.00189147
0.00174744
0.00158313
0.00476535
0.00942404
0.013935
0.0171232
0.0186341
0.0187856
0.0181545
0.0172146
0.00236368
0.00257401
0.00732473
0.0155533
0.0249589
0.0330811
0.0390667
0.0428704
0.0447472
0.0451341
0.00276845
0.00359677
0.00828855
0.0178412
0.0291691
0.038522
0.0449973
0.048728
0.0501657
0.0499573
0.00307702
0.00394179
0.00871634
0.0193463
0.0320859
0.0419675
0.0481522
0.0510056
0.0513214
0.0501099
0.0033888
0.00407091
0.00893823
0.0204187
0.0342688
0.0443138
0.0498923
0.0516831
0.0509083
0.048869
0.00363095
0.00408418
0.00896848
0.0211707
0.0358999
0.0457601
0.0504398
0.0510703