/*--------------------------------*- C++ -*----------------------------------*\
| =========                 |                                                 |
| \\      /  F ield         | foam-extend: Open Source CFD                    |
|  \\    /   O peration     | Version:     4.0                                |
|   \\  /    A nd           | Web:         http://www.foam-extend.org         |
|    \\/     M anipulation  |                                                 |
\*---------------------------------------------------------------------------*/
FoamFile
{
    version     2.0;
    format      ascii;
    class       volScalarField;
    location    "1900";
    object      k;
}
// * * * * * * * * * * * * * * * * * * * * * * * * * * * * * * * * * * * * * //

dimensions      [0 2 -2 0 0 0 0];

internalField   nonuniform List<scalar> 
34480
(
8.76712
8.76471
8.76458
8.76636
8.77017
8.77628
8.79123
8.85464
9.07722
9.68614
9.28085
8.66895
8.57618
8.85581
9.45495
10.3418
11.9404
15.8527
28.7392
67.0276
15.0414
13.5719
13.1258
13.274
13.8445
14.8773
17.2107
22.9063
41.6365
101.407
14.4926
12.965
12.5149
12.7091
13.4196
14.8342
18.0063
25.4072
49.2506
127.781
13.4289
12.0131
11.6622
11.9292
12.7808
14.4909
18.2605
26.9569
55.271
151.575
12.2197
10.9463
10.6339
10.9158
11.8074
13.7009
17.9427
27.9034
61.0621
176.658
11.3265
10.2064
9.95184
10.2269
11.1219
13.0876
17.5898
28.4207
65.5204
198.018
9.8396
9.00339
8.79856
9.01428
9.72681
11.397
15.4915
26.1255
64.547
205.599
6.88235
6.6138
6.56514
6.67517
7.0046
7.72923
9.72995
16.274
43.4139
149.674
9.23847
9.23871
9.24458
9.25747
9.27558
9.29718
9.32319
9.36176
9.4328
9.50597
8.67849
8.67549
8.67491
8.67668
8.68145
8.6898
8.70305
8.7341
8.80836
9.06732
7.93076
7.51074
7.41733
7.57503
8.02207
8.86449
10.306
12.1085
15.4284
41.1771
12.2366
11.1739
10.8816
11.0848
11.7635
13.0246
15.2224
18.1233
23.7885
66.415
12.1403
10.972
10.6532
10.8965
11.7016
13.2522
16.033
20.0153
28.391
86.1796
11.5992
10.4654
10.1986
10.4747
11.3675
13.1091
16.2979
21.0763
31.8428
104.294
10.8054
9.75509
9.49972
9.7736
10.672
12.4989
15.9688
21.4568
34.8389
123.701
10.2147
9.26264
9.04549
9.2991
10.1726
12.001
15.6083
21.5527
37.1108
140.956
9.05405
8.33221
8.14808
8.33964
9.01741
10.5151
13.6624
19.2855
35.7063
147.37
6.6448
6.39746
6.34326
6.41743
6.68216
7.26721
8.61417
11.562
22.4931
102.425
9.11131
9.10661
9.10716
9.11437
9.12705
9.14286
9.16385
9.19957
9.27258
9.45784
8.57676
8.57389
8.57299
8.57397
8.57711
8.58206
8.58783
8.60076
8.62955
8.69522
6.78322
6.57152
6.51743
6.59332
6.82474
7.27176
8.0663
9.36029
11.1359
16.4385
9.69242
9.07224
8.91886
9.08644
9.60613
10.5611
12.1761
14.5706
17.5478
29.1803
9.88979
9.15179
8.96642
9.18032
9.83976
11.0956
13.2881
16.6428
21.1144
40.7612
9.76002
9.00487
8.84207
9.07884
9.81742
11.2612
13.8645
17.9415
23.7787
52.2517
9.33114
8.60378
8.43629
8.67424
9.42868
10.9746
13.8895
18.6196
26.0247
64.9006
9.01594
8.3316
8.1854
8.40804
9.14961
10.7178
13.8029
18.957
27.7488
76.9256
8.19517
7.66687
7.53761
7.70802
8.28309
9.56565
12.2715
17.1629
26.6534
82.8813
6.37352
6.18129
6.14146
6.20241
6.41336
6.87615
7.92515
10.3687
16.6996
57.1107
8.99179
8.98402
8.9815
8.98541
8.99503
9.00813
9.02615
9.05971
9.1385
9.33852
8.4613
8.45949
8.45897
8.45974
8.4619
8.46466
8.46586
8.46925
8.47818
8.4976
6.00901
5.91815
5.89103
5.92185
6.02207
6.21467
6.55138
7.13281
7.99638
9.88181
7.80943
7.49673
7.42383
7.51924
7.82072
8.38358
9.33463
10.8215
12.6581
17.0744
8.12533
7.70788
7.60412
7.7416
8.16776
8.99012
10.4238
12.7273
15.5986
23.554
8.24774
7.78915
7.6923
7.85014
8.34843
9.33609
11.123
14.0853
17.885
30.1244
8.084
7.61561
7.506
7.67299
8.20263
9.30187
11.3881
14.996
19.8647
37.6349
7.97582
7.51156
7.4121
7.57364
8.11065
9.25638
11.5231
15.5776
21.3684
44.9593
7.4452
7.07494
6.98289
7.11135
7.53529
8.4814
10.4801
14.3824
20.6533
48.7694
6.13156
5.98459
5.95468
6.00066
6.15808
6.49611
7.22486
8.98561
12.9811
33.0396
8.8579
8.85009
8.84726
8.85063
8.85974
8.87337
8.89222
8.92612
8.99929
9.15516
8.33364
8.33281
8.33264
8.33312
8.3343
8.33515
8.33355
8.33218
8.3321
8.33425
5.53786
5.50338
5.49028
5.50015
5.53632
5.60506
5.72033
5.91179
6.17884
6.62148
6.56651
6.4288
6.39798
6.43823
6.57459
6.83289
7.27191
7.98241
8.8793
10.357
6.87243
6.65578
6.59915
6.66989
6.89712
7.33978
8.11453
9.40859
11.0455
14.0196
7.10227
6.84256
6.78621
6.87353
7.15905
7.72724
8.75961
10.5604
12.8861
17.7755
7.09737
6.8108
6.73909
6.8396
7.16343
7.83595
9.11583
11.4649
14.6141
22.2334
7.12078
6.81802
6.74993
6.85189
7.19682
7.92886
9.37358
12.1318
15.9831
26.6474
6.81335
6.56175
6.49566
6.58174
6.86386
7.48521
8.77864
11.475
15.6924
29.0136
5.91837
5.80749
5.78474
5.81656
5.92758
6.15993
6.63033
7.74153
10.1058
19.2402
8.71446
8.70675
8.70373
8.70659
8.71505
8.72847
8.74694
8.77838
8.8399
8.95242
8.19468
8.19462
8.19471
8.19498
8.19544
8.19501
8.19254
8.18997
8.18779
8.18648
5.27048
5.25906
5.25271
5.25496
5.26626
5.28809
5.32356
5.37815
5.4476
5.53748
5.80971
5.75826
5.74854
5.76194
5.81294
5.90978
6.07235
6.33493
6.67436
7.13911
6.04324
5.93957
5.91078
5.94325
6.05147
6.25996
6.6167
7.21195
7.98798
9.10669
6.28244
6.14581
6.11596
6.15961
6.30787
6.59765
7.11228
8.02142
9.23811
11.2028
6.35111
6.18556
6.14137
6.19757
6.38062
6.75316
7.44458
8.74082
10.54
13.8036
6.44209
6.25416
6.21038
6.27053
6.47788
6.90721
7.72918
9.34092
11.6537
16.3938
6.29313
6.13025
6.08544
6.1404
6.3182
6.69919
7.46021
9.07735
11.6579
17.7689
5.73288
5.65173
5.6355
5.65684
5.7331
5.88841
6.18402
6.83632
8.10086
11.8453
8.56054
8.55321
8.55019
8.55265
8.5604
8.57304
8.59037
8.61822
8.66626
8.74101
8.04501
8.04547
8.04575
8.04587
8.04585
8.04465
8.04234
8.03986
8.0376
8.03595
5.12667
5.12326
5.1198
5.11973
5.12261
5.12901
5.13911
5.15349
5.16964
5.18573
5.3761
5.36116
5.36028
5.36313
5.37815
5.40734
5.45635
5.53403
5.63293
5.75062
5.52669
5.47979
5.46584
5.47961
5.52771
5.61847
5.76722
6.00398
6.30887
6.68039
5.72726
5.65986
5.64557
5.66556
5.73726
5.8734
6.10464
6.49927
7.03155
7.7501
5.81506
5.72402
5.69814
5.72774
5.82548
6.01864
6.36073
6.98413
7.86748
9.18691
5.92893
5.81718
5.79059
5.82391
5.94244
6.18004
6.61225
7.43992
8.65464
10.6617
5.8835
5.78305
5.75421
5.78761
5.89427
6.11618
6.53643
7.40202
8.80361
11.4707
5.57809
5.52012
5.50914
5.52289
5.57394
5.67521
5.85872
6.23093
6.89056
8.32541
8.3956
8.38888
8.386
8.38811
8.39504
8.40639
8.42193
8.44564
8.48222
8.53151
7.88497
7.88574
7.88614
7.88617
7.88586
7.88451
7.88264
7.88065
7.87886
7.87752
5.05202
5.05079
5.04854
5.04802
5.04864
5.05068
5.05365
5.05748
5.06104
5.06345
5.13795
5.1363
5.13834
5.13793
5.14018
5.14565
5.1561
5.17364
5.19611
5.22008
5.21969
5.19906
5.19245
5.19804
5.21883
5.25725
5.3173
5.40627
5.51485
5.62682
5.36812
5.33682
5.33084
5.33928
5.37224
5.43294
5.53118
5.68821
5.89283
6.12697
5.44707
5.39924
5.3848
5.39967
5.44978
5.54589
5.70762
5.98391
6.36803
6.85613
5.55769
5.49377
5.47853
5.49599
5.56125
5.68794
5.906
6.29808
6.86505
7.64817
5.57421
5.51551
5.49801
5.51742
5.5785
5.70232
5.9257
6.35745
7.04594
8.13552
5.45379
5.41319
5.40621
5.4148
5.4484
5.51342
5.62685
5.83785
6.18553
6.75868
8.2191
8.21317
8.21056
8.21235
8.21835
8.22809
8.24144
8.26084
8.28805
8.32096
7.71462
7.71558
7.71605
7.71603
7.71556
7.71444
7.71305
7.71159
7.71029
7.70929
5.01366
5.01276
5.01108
5.01065
5.01094
5.01193
5.01318
5.01457
5.01553
5.01567
5.01148
5.01365
5.01613
5.01512
5.01379
5.01247
5.01199
5.01309
5.01558
5.01859
5.0448
5.03559
5.03237
5.03465
5.04374
5.06029
5.08507
5.11915
5.15797
5.19177
5.14541
5.13167
5.12962
5.13291
5.14753
5.17378
5.21457
5.27526
5.35006
5.42255
5.2053
5.18121
5.1735
5.18072
5.20563
5.2522
5.32734
5.44646
5.60516
5.77836
5.30059
5.26517
5.25692
5.26564
5.30063
5.3667
5.47516
5.65565
5.90527
6.19348
5.3505
5.31831
5.30838
5.31921
5.35255
5.41879
5.53424
5.74215
6.06244
6.49197
5.35786
5.32978
5.32563
5.33093
5.35293
5.39451
5.46463
5.58467
5.76948
6.02099
8.03063
8.02562
8.02336
8.02484
8.02986
8.03784
8.04885
8.06412
8.08384
8.10571
7.53414
7.53498
7.53549
7.53544
7.53498
7.53419
7.53321
7.53219
7.5313
7.53057
4.99322
4.9924
4.99109
4.99082
4.99116
4.99192
4.99284
4.99376
4.99435
4.99425
4.94617
4.9488
4.95089
4.95007
4.94829
4.94588
4.94335
4.94116
4.93968
4.93898
4.9493
4.94486
4.94317
4.94415
4.94838
4.95596
4.96691
4.98098
4.99598
5.00716
5.01295
5.00713
5.00667
5.00786
5.01428
5.0256
5.04263
5.0663
5.09372
5.11685
5.05335
5.04169
5.03771
5.04114
5.05326
5.07544
5.11014
5.16153
5.22701
5.29115
5.1302
5.11095
5.10671
5.11093
5.12947
5.16365
5.2177
5.30121
5.41051
5.51834
5.19565
5.17939
5.17423
5.18007
5.19732
5.23111
5.28885
5.38665
5.53167
5.7059
5.28668
5.26728
5.26503
5.26837
5.28292
5.30979
5.35337
5.42237
5.52062
5.64053
7.82989
7.82585
7.82399
7.82518
7.82921
7.83547
7.8442
7.85577
7.86968
7.88399
7.34326
7.34393
7.34436
7.34432
7.34402
7.34348
7.34282
7.34213
7.34154
7.34099
4.98134
4.98063
4.97968
4.97952
4.97987
4.98054
4.98136
4.98217
4.98273
4.98263
4.91315
4.91532
4.91688
4.91637
4.91498
4.91302
4.91083
4.90876
4.90721
4.90635
4.89945
4.89702
4.89605
4.89653
4.89868
4.90249
4.90782
4.91433
4.92093
4.92517
4.93747
4.93493
4.93493
4.93535
4.9383
4.94344
4.95094
4.96072
4.97124
4.97931
4.96216
4.9567
4.95471
4.95634
4.96217
4.97265
4.98865
5.01104
5.03844
5.06429
5.02224
5.01175
5.00965
5.01172
5.02165
5.03954
5.06692
5.10657
5.15544
5.19854
5.09313
5.08588
5.08358
5.08664
5.09499
5.11121
5.13867
5.18319
5.24659
5.32177
5.23575
5.22223
5.22117
5.2234
5.23333
5.2511
5.27855
5.31888
5.371
5.43186
7.61672
7.61361
7.61217
7.61309
7.61617
7.6209
7.62755
7.63601
7.64555
7.65474
7.14173
7.14228
7.14262
7.14261
7.14242
7.14206
7.14163
7.14117
7.14078
7.14035
4.97347
4.97292
4.97227
4.97219
4.9725
4.97307
4.97377
4.97447
4.97502
4.97487
4.89665
4.89827
4.89937
4.8991
4.8982
4.89691
4.89546
4.89408
4.89314
4.89262
4.87472
4.87325
4.87267
4.87293
4.87411
4.87616
4.87899
4.88234
4.88568
4.88755
4.89636
4.89505
4.89505
4.89523
4.89677
4.89945
4.90322
4.90784
4.91239
4.91574
4.91007
4.90756
4.90657
4.90736
4.91017
4.91515
4.92256
4.93246
4.94414
4.95561
4.95688
4.95096
4.94991
4.95104
4.95658
4.96633
4.98072
5.00046
5.02326
5.04219
5.02814
5.02564
5.02494
5.02653
5.03019
5.03731
5.04928
5.06832
5.094
5.12887
5.2004
5.19078
5.19043
5.19209
5.19919
5.21133
5.22902
5.25316
5.28077
5.31361
7.39107
7.38881
7.38776
7.38844
7.39065
7.39413
7.399
7.40496
7.41131
7.4171
6.92934
6.9298
6.93006
6.93006
6.92995
6.92972
6.92944
6.92915
6.92889
6.92853
4.96746
4.96711
4.96671
4.96668
4.96694
4.96738
4.96793
4.9685
4.969
4.96875
4.8884
4.88958
4.89034
4.89024
4.88972
4.88896
4.88813
4.88736
4.88695
4.88673
4.86323
4.86232
4.86199
4.86213
4.86278
4.8639
4.86543
4.86723
4.8691
4.87004
4.87503
4.87414
4.87403
4.87414
4.87511
4.8768
4.8791
4.88175
4.88418
4.886
4.88184
4.88068
4.88018
4.88058
4.88197
4.88437
4.88785
4.89233
4.89743
4.90308
4.91902
4.91541
4.91486
4.91559
4.91892
4.92461
4.93267
4.94323
4.95467
4.96422
4.98841
4.98819
4.98833
4.98915
4.99051
4.99313
4.99749
5.0046
5.01314
5.03091
5.17627
5.16926
5.1693
5.17069
5.17603
5.18463
5.19639
5.21131
5.22588
5.245
7.15298
7.15144
7.15074
7.15121
7.15271
7.15522
7.15865
7.16269
7.16677
7.17036
6.70592
6.70632
6.70652
6.70653
6.70647
6.70632
6.70614
6.70595
6.70578
6.70546
4.96236
4.96223
4.96203
4.96205
4.96223
4.96255
4.96295
4.96337
4.96384
4.96347
4.88421
4.88509
4.88559
4.88559
4.88533
4.88495
4.88456
4.88421
4.88418
4.88416
4.85846
4.85793
4.85778
4.85785
4.85817
4.85871
4.85948
4.86041
4.86149
4.86201
4.8646
4.86385
4.86363
4.86372
4.86443
4.86567
4.8673
4.86913
4.87073
4.87199
4.86743
4.86686
4.86658
4.86679
4.86751
4.86872
4.87041
4.87251
4.87481
4.87792
4.89785
4.89545
4.89511
4.89567
4.89785
4.90145
4.90635
4.91252
4.91887
4.92464
4.96446
4.96518
4.96572
4.96617
4.96648
4.96704
4.96789
4.96968
4.97068
4.98101
5.15958
5.15445
5.15471
5.15598
5.1601
5.16645
5.17458
5.18416
5.19171
5.20398
6.90273
6.90167
6.90124
6.90154
6.90257
6.9043
6.90661
6.90923
6.91175
6.91393
6.47141
6.47175
6.47191
6.47192
6.47189
6.4718
6.47168
6.47156
6.47145
6.47115
4.95776
4.95785
4.95781
4.95786
4.95799
4.95819
4.95845
4.95873
4.9592
4.95872
4.88197
4.88264
4.88296
4.883
4.88291
4.88279
4.88268
4.88261
4.88283
4.88297
4.85697
4.85672
4.85669
4.85671
4.85682
4.857
4.85729
4.8577
4.8583
4.85864
4.85989
4.85923
4.85895
4.85902
4.85957
4.86052
4.86177
4.86314
4.86433
4.86532
4.86061
4.86027
4.8601
4.86021
4.8606
4.86126
4.86213
4.86317
4.86426
4.86614
4.88613
4.8844
4.88415
4.88462
4.88615
4.8886
4.8918
4.89572
4.89961
4.90376
4.94943
4.95037
4.95106
4.95133
4.95125
4.951
4.95045
4.9501
4.94806
4.95505
5.14745
5.14366
5.14407
5.14526
5.14855
5.15343
5.15928
5.1657
5.16936
5.17809
6.64052
6.63982
6.63954
6.63975
6.64044
6.64157
6.64305
6.64467
6.64614
6.64744
6.22587
6.22617
6.22628
6.22629
6.22628
6.22623
6.22615
6.22607
6.22599
6.22571
4.95348
4.9538
4.95387
4.95396
4.95404
4.95414
4.95427
4.95445
4.95494
4.95442
4.88062
4.88112
4.8813
4.88135
4.88136
4.8814
4.88147
4.88159
4.88198
4.88228
4.85704
4.85697
4.857
4.857
4.85698
4.85695
4.85696
4.85706
4.85736
4.85765
4.85805
4.85748
4.8572
4.85724
4.85765
4.85837
4.85931
4.86034
4.86126
4.86206
4.85775
4.8575
4.85737
4.85742
4.85766
4.85804
4.85853
4.85909
4.85964
4.86084
4.87925
4.87795
4.87775
4.87812
4.87923
4.88094
4.88312
4.88573
4.88829
4.89158
4.93853
4.93935
4.94004
4.94025
4.94008
4.93964
4.93871
4.93772
4.93473
4.94012
5.13766
5.13488
5.13536
5.13649
5.13919
5.14305
5.14743
5.15189
5.15332
5.16007
6.36668
6.36625
6.36608
6.36622
6.36665
6.36734
6.36824
6.36917
6.36996
6.37072
5.96959
5.96984
5.96993
5.96994
5.96994
5.96991
5.96986
5.9698
5.96974
5.96948
4.94941
4.94992
4.95007
4.9502
4.95025
4.95027
4.9503
4.95038
4.95094
4.95048
4.87956
4.8799
4.87995
4.87999
4.88005
4.88018
4.88036
4.88059
4.88107
4.88156
4.85777
4.85777
4.85783
4.85781
4.85774
4.85761
4.85749
4.85744
4.85757
4.85787
4.85757
4.85711
4.85686
4.85688
4.85716
4.85766
4.85833
4.85906
4.85974
4.86038
4.85687
4.85667
4.85656
4.85658
4.85672
4.85695
4.85722
4.85753
4.85782
4.85859
4.87437
4.87338
4.8732
4.87347
4.87424
4.87541
4.87687
4.87859
4.88031
4.88296
4.92851
4.92907
4.92968
4.92986
4.92974
4.92935
4.9285
4.92751
4.92455
4.92897
5.12823
5.12626
5.12676
5.12783
5.13005
5.13316
5.13652
5.13967
5.13976
5.14519
6.08175
6.08151
6.08141
6.08149
6.08174
6.08213
6.08263
6.08312
6.0835
6.08392
5.70321
5.70343
5.70349
5.70351
5.70351
5.70349
5.70345
5.7034
5.70334
5.70311
4.94524
4.94588
4.94611
4.94628
4.94632
4.94628
4.94622
4.94621
4.94679
4.94659
4.87839
4.87852
4.87849
4.87849
4.87857
4.87873
4.87896
4.87924
4.87971
4.88042
4.8586
4.85859
4.85863
4.85861
4.85852
4.85839
4.85825
4.85816
4.85821
4.85855
4.8577
4.85735
4.85716
4.85716
4.85733
4.85765
4.85807
4.85854
4.85902
4.85951
4.85698
4.85682
4.85674
4.85674
4.85681
4.85692
4.85706
4.85721
4.85735
4.8578
4.86972
4.86901
4.86885
4.86902
4.86949
4.87021
4.8711
4.87213
4.87323
4.87527
4.91724
4.91752
4.918
4.91814
4.91805
4.91774
4.91707
4.91626
4.91381
4.91738
5.11641
5.11513
5.11559
5.11656
5.11835
5.1208
5.12335
5.12549
5.12477
5.129
5.78657
5.78644
5.78639
5.78643
5.78656
5.78675
5.78701
5.78722
5.78738
5.78759
5.42759
5.42776
5.4278
5.42782
5.42782
5.4278
5.42778
5.42775
5.4277
5.42751
4.93956
4.9402
4.94058
4.94081
4.94086
4.94078
4.9406
4.94044
4.94081
4.9411
4.87679
4.87667
4.87656
4.87652
4.87658
4.87673
4.87695
4.87724
4.87765
4.87849
4.85911
4.85905
4.85905
4.85902
4.85896
4.85887
4.85878
4.85872
4.85875
4.85909
4.85815
4.85792
4.8578
4.85779
4.85788
4.85805
4.85828
4.85856
4.85885
4.85919
4.8576
4.85752
4.85747
4.85745
4.85747
4.85751
4.85755
4.85759
4.85763
4.85784
4.86474
4.86429
4.86418
4.86426
4.8645
4.86486
4.86529
4.86579
4.86639
4.86776
4.90353
4.90357
4.90385
4.90391
4.90378
4.90347
4.90293
4.9023
4.90068
4.9033
5.09512
5.09442
5.0948
5.0956
5.09694
5.09871
5.1005
5.10176
5.10061
5.10341
5.48213
5.48207
5.48205
5.48207
5.48211
5.48217
5.48225
5.48231
5.48236
5.48246
5.14253
5.14263
5.14264
5.14265
5.14265
5.14264
5.14264
5.14263
5.14263
5.14254
4.92472
4.92529
4.92591
4.92624
4.92632
4.9262
4.92591
4.9255
4.9251
4.92572
4.87368
4.87333
4.87313
4.87304
4.87305
4.87316
4.87336
4.87365
4.87404
4.87486
4.85938
4.8593
4.85928
4.85926
4.85923
4.85919
4.85916
4.85914
4.85917
4.8594
4.85896
4.85883
4.85877
4.85877
4.85881
4.85889
4.85899
4.85912
4.85927
4.85946
4.85863
4.8586
4.85857
4.85856
4.85856
4.85856
4.85855
4.85854
4.85853
4.85858
4.86084
4.86065
4.86059
4.86062
4.86071
4.86084
4.86099
4.86116
4.86139
4.86203
4.88685
4.88668
4.88674
4.88669
4.88651
4.8862
4.88578
4.88536
4.88479
4.88648
5.04096
5.04066
5.04091
5.04142
5.04221
5.04324
5.04427
5.04482
5.04382
5.04487
5.16849
5.16846
5.16846
5.16847
5.16847
5.16847
5.16847
5.16846
5.16843
5.1685
11.269
11.384
11.3385
11.1222
82.8097
84.8861
85.3456
85.9956
143.134
148.606
149.075
147.831
202.795
212.23
212.096
207.807
264.476
278.135
276.929
269.476
332.772
351.049
348.948
340.204
395.154
417.803
415.42
408.026
433.161
459.43
457.484
452.905
345.679
368.255
365.707
364.355
11.4768
11.7154
11.5593
11.1514
9.71373
9.77309
9.77592
9.73193
76.0785
79.3204
80.0792
80.2012
133.882
144.799
145.899
143.735
192.9
214.526
215.06
209.164
256.134
290.973
290.025
280.074
329.507
380.265
378.49
365.614
399.599
466.613
465.647
452.615
446.088
527.569
528.613
517.419
350.529
422.882
420.978
416.139
10.7115
10.9424
10.8719
10.6516
8.77677
8.78974
8.78873
8.77721
26.5386
28.9545
28.2169
25.708
49.3559
53.7607
52.0962
47.4228
74.5801
81.338
78.2181
70.703
103.453
112.991
107.812
96.7304
139.439
152.801
145.173
129.28
177.309
194.672
184.513
163.488
207.531
228.706
216.446
190.907
164.735
181.626
170.143
149.304
9.91281
10.0035
9.98039
9.88117
8.51181
8.51437
8.51503
8.51406
11.4732
11.7225
11.6927
11.4957
21.2125
21.9391
21.8755
21.3334
31.9962
33.4824
33.2302
31.9146
44.5091
46.942
46.2775
43.7555
60.6327
64.4007
63.0807
58.7643
78.0549
83.1673
80.9002
74.4558
92.5766
99.1266
95.8394
87.1465
71.9379
77.0776
73.5653
65.963
9.44867
9.4931
9.49003
9.44961
8.33279
8.33389
8.33415
8.33349
7.04198
7.13341
7.15853
7.12867
11.6778
11.9739
12.0567
11.9707
16.8707
17.485
17.5853
17.3186
22.8359
23.8557
23.8914
23.2875
30.7124
32.3374
32.2246
31.0357
39.2229
41.4576
41.0399
39.0604
46.2622
49.1982
48.3812
45.4008
34.4024
36.621
35.4306
32.5501
9.09833
9.12227
9.12388
9.10692
8.18247
8.18339
8.18349
8.18272
5.60677
5.62101
5.6262
5.62446
7.4559
7.52577
7.55842
7.55975
9.9373
10.121
10.1881
10.163
12.8334
13.1792
13.2655
13.1649
16.7959
17.4124
17.5024
17.2346
21.0457
21.9426
21.966
21.4368
24.4788
25.7309
25.6295
24.6931
17.4816
18.3758
18.0213
17.0175
8.8128
8.82471
8.82707
8.82092
8.03164
8.03254
8.0326
8.03182
5.19697
5.20014
5.201
5.20001
5.82316
5.83894
5.84756
5.84975
6.91426
6.96713
6.99228
6.99335
8.2589
8.37116
8.41548
8.40575
10.2336
10.4613
10.5313
10.4824
12.3587
12.7066
12.7769
12.6578
14.0535
14.5733
14.6201
14.3558
10.2223
10.5586
10.4801
10.1888
8.56538
8.57084
8.57292
8.57152
7.87341
7.87428
7.87435
7.8736
5.06324
5.0644
5.0644
5.06346
5.23315
5.23552
5.23695
5.23759
5.68406
5.69642
5.70296
5.70432
6.26559
6.29596
6.31052
6.31203
7.19416
7.2698
7.30048
7.29479
8.21577
8.33681
8.37672
8.35807
9.06906
9.26967
9.31432
9.24892
7.3392
7.452
7.44596
7.37985
8.33737
8.33965
8.34111
8.34133
7.70544
7.70627
7.70634
7.70563
5.0133
5.01423
5.01416
5.01324
5.02033
5.02045
5.0205
5.02054
5.20443
5.20677
5.20805
5.20842
5.45538
5.462
5.4656
5.46671
5.88064
5.90366
5.91423
5.9141
6.35913
6.39501
6.41037
6.41066
6.80665
6.87802
6.90058
6.88592
6.19868
6.23266
6.23702
6.22649
8.11415
8.11494
8.11584
8.1164
7.52698
7.52776
7.52783
7.52717
4.99134
4.9922
4.99214
4.99126
4.93892
4.93883
4.93872
4.93863
5.0096
5.00983
5.00995
5.01001
5.1235
5.1244
5.12498
5.12537
5.32345
5.33047
5.33381
5.33374
5.55986
5.56835
5.573
5.57507
5.81426
5.83917
5.84828
5.84404
5.69875
5.70634
5.70903
5.70979
7.88848
7.88859
7.8891
7.88963
7.33767
7.33839
7.33845
7.33784
4.97959
4.98037
4.98032
4.97948
4.90612
4.90609
4.90601
4.90589
4.92539
4.92528
4.92522
4.92523
4.98031
4.98017
4.98011
4.9802
5.07673
5.0793
5.08043
5.08012
5.20673
5.20784
5.20893
5.21031
5.36644
5.37619
5.37954
5.37684
5.45422
5.45329
5.45389
5.45618
7.65709
7.65693
7.6572
7.65761
7.13731
7.13796
7.13801
7.13746
4.97183
4.97253
4.97246
4.97166
4.89241
4.89242
4.89236
4.89224
4.8873
4.88718
4.88713
4.88715
4.91575
4.91554
4.91542
4.91541
4.9619
4.96317
4.96364
4.96329
5.04271
5.04226
5.04236
5.04311
5.15364
5.15851
5.15968
5.1571
5.32499
5.32169
5.3212
5.32314
7.4182
7.41798
7.41811
7.41838
6.92578
6.92635
6.92639
6.92589
4.9658
4.96639
4.9663
4.96554
4.88652
4.88654
4.88649
4.88637
4.86973
4.86964
4.86961
4.86964
4.88596
4.88583
4.88574
4.8857
4.90702
4.90783
4.90808
4.90777
4.96379
4.96326
4.96315
4.96353
5.04885
5.05208
5.05243
5.04986
5.25298
5.24944
5.24853
5.24984
7.17065
7.1705
7.17056
7.17069
6.70302
6.70351
6.70354
6.7031
4.96066
4.96114
4.96101
4.9603
4.88396
4.88398
4.88393
4.8838
4.86176
4.8617
4.86169
4.86171
4.87203
4.87197
4.87191
4.87186
4.88065
4.88122
4.88138
4.88112
4.92487
4.92458
4.92449
4.92461
4.99622
4.99885
4.9989
4.99633
5.21092
5.20787
5.20689
5.20755
6.91369
6.91366
6.91368
6.91369
6.46904
6.46946
6.46946
6.46908
4.95611
4.95647
4.95631
4.95565
4.88284
4.88288
4.88283
4.88269
4.8585
4.85848
4.85847
4.85849
4.86542
4.86539
4.86536
4.86532
4.86811
4.86852
4.86861
4.8684
4.90485
4.90485
4.9048
4.90473
4.96897
4.9714
4.97133
4.96872
5.18478
5.18252
5.18161
5.18163
6.64682
6.64693
6.64694
6.64683
6.22399
6.22431
6.22429
6.22397
4.95205
4.95231
4.95212
4.95151
4.88232
4.88239
4.88235
4.88219
4.85766
4.85768
4.85768
4.85767
4.86219
4.86219
4.86217
4.86214
4.86224
4.86253
4.86258
4.86239
4.89337
4.89359
4.89359
4.89338
4.95331
4.95573
4.95561
4.95292
5.16683
5.16547
5.1647
5.1641
6.36984
6.37008
6.37009
6.36989
5.96819
5.96841
5.96837
5.96811
4.94847
4.94864
4.94844
4.94788
4.88192
4.88207
4.88204
4.88184
4.85805
4.85811
4.85812
4.85809
4.86054
4.86056
4.86055
4.86053
4.85953
4.85972
4.85974
4.8596
4.88513
4.88551
4.88554
4.88524
4.9415
4.94403
4.94392
4.94112
5.15206
5.15173
5.15117
5.14992
6.08285
6.08322
6.08323
6.08295
5.70235
5.70246
5.70239
5.7022
4.94521
4.94538
4.9452
4.94466
4.88122
4.88147
4.88146
4.88119
4.85888
4.85898
4.85899
4.85892
4.85969
4.85972
4.85972
4.85971
4.85836
4.85847
4.85847
4.85838
4.87746
4.8779
4.87795
4.87763
4.92869
4.93135
4.93128
4.92844
5.13578
5.13666
5.13638
5.13443
5.78641
5.78686
5.78688
5.78657
5.42738
5.42735
5.42726
5.42716
4.941
4.94138
4.94127
4.94066
4.87959
4.87993
4.87993
4.87959
4.85947
4.85959
4.8596
4.85952
4.85936
4.8594
4.85941
4.85941
4.85809
4.85813
4.85813
4.85809
4.86957
4.86996
4.87002
4.86975
4.91187
4.91429
4.91427
4.91179
5.10931
5.11171
5.11178
5.10897
5.48142
5.48194
5.48197
5.48163
5.14313
5.14289
5.1428
5.14287
4.92732
4.9282
4.92818
4.92723
4.87563
4.87587
4.87584
4.87557
4.85963
4.8597
4.85971
4.85965
4.85958
4.85961
4.85963
4.85963
4.85863
4.85864
4.85864
4.85863
4.86302
4.86324
4.86328
4.86314
4.89063
4.8918
4.89177
4.89055
5.0477
5.05123
5.05154
5.04811
5.16798
5.16853
5.16855
5.16817
10.1126
9.36664
9.05453
8.94199
8.87751
8.83205
8.80176
8.78473
8.77528
8.76965
103.675
49.1177
35.7475
29.954
24.5574
19.9501
16.3642
13.6904
11.7825
10.4204
160.948
70.8572
51.0919
43.7426
37.192
31.4263
26.5939
22.7133
19.6699
17.2955
206.419
82.5898
55.9805
46.7277
39.3622
32.767
27.2292
22.8359
19.4445
16.857
242.053
88.9477
58.825
47.9648
40.0769
32.7361
26.6767
21.9545
18.3681
15.7229
278.026
94.6879
60.9737
48.3015
39.8443
31.7861
25.3518
20.4645
16.8819
14.3309
307.083
98.1568
61.6905
47.7798
39.0439
30.5179
23.9421
19.0733
15.5941
13.2102
315.196
93.7513
56.6286
42.2265
33.9153
25.7851
19.9229
15.7962
13.0455
11.2288
224.466
56.1337
30.5434
21.1153
16.2824
12.2234
9.95478
8.61285
7.80397
7.27985
9.56926
9.54457
9.38916
9.36301
9.31642
9.29028
9.26952
9.25848
9.25101
9.24459
9.36706
9.0569
8.90466
8.81906
8.76511
8.72948
8.70635
8.69259
8.68519
8.6805
53.1034
28.6706
22.5564
19.4496
16.6692
14.1985
12.1639
10.6014
9.46174
8.66967
89.9957
46.2725
35.7993
31.0205
27.1815
23.5096
20.2913
17.6326
15.5047
13.886
122.259
58.6088
42.8633
35.6337
30.5505
25.767
21.6967
18.4237
15.8738
13.9874
152.556
68.7645
47.8554
38.52
32.3845
26.6784
21.9776
18.2985
15.486
13.476
186.43
78.8732
52.1448
40.4756
33.2577
26.6693
21.4539
17.4959
14.5915
12.5915
217.198
86.4732
54.7139
41.2499
33.3527
26.1768
20.6975
16.6606
13.7706
11.8533
233.19
86.7496
51.9191
37.4842
29.5773
22.5765
17.5736
14.083
11.7632
10.2829
167.405
54.7558
29.0627
19.3793
14.6943
11.2262
9.27434
8.12938
7.4335
7.00268
9.81853
9.50198
9.33082
9.26753
9.21263
9.17935
9.15519
9.14044
9.13004
9.12103
8.73765
8.69622
8.66348
8.63626
8.61495
8.59949
8.58918
8.58299
8.57956
8.57711
19.9484
16.5763
14.5027
12.6845
11.1151
9.81216
8.79798
8.04917
7.5105
7.13797
35.9193
28.711
24.9245
21.6891
18.9139
16.506
14.5111
12.9069
11.6317
10.6701
51.0349
37.9343
31.5396
26.3499
22.2593
18.8401
16.0971
13.948
12.2887
11.075
66.1249
45.6904
36.6292
29.5935
24.3792
20.1256
16.8137
14.2907
12.3793
11.0262
83.2224
53.3427
41.1441
32.0845
25.7353
20.6615
16.842
14.0202
11.9742
10.5808
99.121
59.1904
44.1509
33.4584
26.3361
20.705
16.5974
13.6541
11.5704
10.1992
108.417
59.759
42.6007
31.0008
23.7642
18.2175
14.4242
11.8566
10.1702
9.0974
75.9439
36.65
23.8687
16.2727
12.2254
9.68222
8.28957
7.47137
6.96259
6.6432
9.57146
9.377
9.24303
9.16317
9.10555
9.0695
9.04442
9.02731
9.01466
9.00377
8.50924
8.49917
8.48812
8.47818
8.47064
8.46551
8.46231
8.46067
8.46028
8.45982
10.9415
10.1334
9.2842
8.43987
7.7328
7.19018
6.79146
6.5035
6.29501
6.15
19.8671
18.0279
16.1761
14.3035
12.688
11.36
10.2988
9.46315
8.80404
8.30962
28.4765
24.632
21.1895
17.9882
15.4005
13.3286
11.7051
10.4523
9.49395
8.79886
37.2415
30.6656
25.4307
20.8634
17.3675
14.6401
12.5634
11.0096
9.84192
9.01769
47.4684
36.9705
29.5246
23.3601
18.8649
15.4399
12.9153
11.0863
9.77441
8.88359
57.0675
42.0769
32.5537
25.0137
19.7597
15.8313
13.0267
11.0611
9.68076
8.76922
62.7982
43.2659
32.0899
23.7129
18.2355
14.3063
11.6796
9.94089
8.80265
8.0696
42.7461
26.2047
17.9728
12.7916
10.0235
8.39127
7.47305
6.91833
6.55954
6.3289
9.3268
9.18824
9.08108
9.0114
8.96316
8.93149
8.90873
8.8924
8.88006
8.86963
8.33331
8.33181
8.3303
8.32912
8.32842
8.32812
8.32815
8.32861
8.32972
8.33075
6.99875
6.75852
6.50555
6.2672
6.06894
5.91258
5.79227
5.70067
5.63136
5.58343
11.6107
10.9247
10.151
9.37355
8.68694
8.11479
7.65569
7.2942
7.00581
6.78796
16.4393
14.9566
13.3751
11.8593
10.572
9.52176
8.69366
8.05553
7.5673
7.21457
21.5355
18.9341
16.3579
14.0118
12.1132
10.6149
9.47271
8.62384
7.98369
7.52924
27.7671
23.4439
19.5088
16.0873
13.444
11.4221
9.93339
8.86349
8.09573
7.57178
33.7353
27.3832
22.0663
17.6425
14.3795
11.9551
10.2305
9.03381
8.18801
7.62133
37.3945
28.7918
22.2634
17.1549
13.6365
11.1587
9.50872
8.42147
7.70009
7.22503
24.5291
17.3353
12.8097
9.9573
8.36369
7.40492
6.82999
6.46699
6.22045
6.05867
9.05263
8.96953
8.8979
8.84681
8.80937
8.78254
8.76232
8.74713
8.73539
8.72561
8.18329
8.18343
8.18379
8.18438
8.18511
8.18589
8.1867
8.18768
8.18917
8.19094
5.608
5.56476
5.5134
5.46124
5.41407
5.37362
5.34015
5.31322
5.29267
5.27973
7.50441
7.31329
7.06492
6.80564
6.5705
6.37239
6.21236
6.08458
5.97801
5.8951
9.97739
9.47157
8.85046
8.22735
7.67866
7.22437
6.86243
6.5801
6.36021
6.20051
12.7358
11.774
10.6615
9.59969
8.70707
7.99571
7.4506
7.04312
6.72816
6.50025
16.3271
14.6098
12.7536
11.0612
9.69855
8.64832
7.87076
7.30845
6.8976
6.6133
19.8648
17.247
14.584
12.2683
10.4876
9.16077
8.21198
7.55013
7.06985
6.73991
22.119
18.4212
14.9986
12.2247
10.2385
8.84222
7.90165
7.27196
6.84158
6.55052
14.3947
11.5388
9.42823
8.05213
7.21598
6.68003
6.33281
6.10281
5.93844
5.82912
8.79752
8.75141
8.70718
8.6717
8.64335
8.62132
8.60391
8.59032
8.57956
8.57074
8.03252
8.03285
8.03341
8.03417
8.03502
8.03587
8.03668
8.03762
8.03903
8.04083
5.1967
5.18853
5.17887
5.16821
5.15759
5.14757
5.13866
5.13128
5.12623
5.12435
5.8387
5.79273
5.73036
5.66327
5.60094
5.54744
5.50346
5.46705
5.43324
5.40508
6.94995
6.79192
6.5842
6.36813
6.17129
6.00324
5.8646
5.75216
5.6611
5.59427
8.2978
7.9632
7.54446
7.13214
6.77533
6.48495
6.25692
6.08154
5.93871
5.83185
10.2207
9.55394
8.76974
8.03188
7.4195
6.93877
6.57429
6.30301
6.09724
5.95212
12.1907
11.1265
9.92561
8.84972
7.99577
7.34982
6.87721
6.53873
6.28119
6.09827
13.5202
11.9514
10.3405
8.99965
8.0049
7.29214
6.79599
6.45177
6.20672
6.03678
9.42665
8.38667
7.50756
6.88492
6.462
6.1684
5.96314
5.82083
5.7138
5.64224
8.56198
8.53744
8.5107
8.48641
8.46535
8.44783
8.43337
8.42168
8.41219
8.40454
7.8743
7.87456
7.87498
7.87555
7.8762
7.87683
7.87741
7.87811
7.87927
7.88086
5.06296
5.06118
5.05922
5.05687
5.05425
5.05149
5.0489
5.04685
5.04611
5.04703
5.23562
5.22715
5.21543
5.20231
5.18992
5.17942
5.17111
5.16398
5.15504
5.1463
5.6944
5.65145
5.59147
5.52547
5.46185
5.40439
5.3542
5.31116
5.27467
5.24779
6.28734
6.18746
6.05383
5.91598
5.79096
5.68448
5.59693
5.5265
5.46471
5.41643
7.22126
6.9887
6.70002
6.41694
6.17149
5.97036
5.81051
5.68577
5.58659
5.51562
8.22934
7.83708
7.36174
6.92006
6.55447
6.26692
6.04679
5.88216
5.74895
5.65081
8.98557
8.36956
7.69671
7.11433
6.66055
6.32058
6.07154
5.89054
5.75606
5.66111
7.18638
6.82381
6.46938
6.18839
5.97545
5.81568
5.69605
5.60963
5.54124
5.49569
8.33714
8.32378
8.30742
8.29096
8.27567
8.26221
8.25065
8.24099
8.23295
8.22657
7.70631
7.70649
7.70676
7.70714
7.70757
7.70797
7.70831
7.70875
7.70964
7.71097
5.01329
5.01253
5.0118
5.01096
5.00997
5.00886
5.00781
5.00712
5.00735
5.00861
5.02002
5.01895
5.01783
5.01666
5.01587
5.0158
5.01648
5.01714
5.01562
5.01308
5.20583
5.19453
5.17772
5.15778
5.13718
5.11734
5.0989
5.08215
5.06739
5.05659
5.46133
5.43464
5.39606
5.35338
5.31208
5.27478
5.24251
5.21529
5.18907
5.1674
5.89265
5.81814
5.72122
5.61978
5.52599
5.44432
5.37558
5.3191
5.27213
5.2384
6.38065
6.25294
6.08433
5.91771
5.77062
5.64781
5.54829
5.4702
5.4026
5.35083
6.80448
6.58158
6.32482
6.08788
5.89054
5.73358
5.61201
5.51947
5.44802
5.39721
6.1783
6.04702
5.90107
5.77178
5.66407
5.57732
5.50824
5.45651
5.41339
5.38502
8.11414