/*--------------------------------*- C++ -*----------------------------------*\
| =========                 |                                                 |
| \\      /  F ield         | foam-extend: Open Source CFD                    |
|  \\    /   O peration     | Version:     4.0                                |
|   \\  /    A nd           | Web:         http://www.foam-extend.org         |
|    \\/     M anipulation  |                                                 |
\*---------------------------------------------------------------------------*/
FoamFile
{
    version     2.0;
    format      ascii;
    class       volScalarField;
    location    "1900";
    object      p;
}
// * * * * * * * * * * * * * * * * * * * * * * * * * * * * * * * * * * * * * //

dimensions      [1 -1 -2 0 0 0 0];

internalField   nonuniform List<scalar> 
34480
(
107969
107869
107829
107845
107929
108111
108455
109137
110103
110449
107828
107729
107689
107700
107780
107956
108295
108965
109999
109974
107686
107583
107543
107546
107611
107758
108056
108658
109688
109114
107612
107508
107462
107452
107495
107598
107839
108341
109304
108152
107531
107415
107362
107335
107352
107410
107592
107990
108849
107157
107548
107433
107373
107337
107335
107355
107481
107771
108492
106275
107455
107326
107259
107211
107193
107184
107261
107453
108012
105338
107543
107420
107357
107323
107320
107323
107385
107504
107882
104742
107442
107314
107245
107208
107206
107219
107272
107333
107506
103994
107535
107420
107407
107472
107611
107802
108047
108283
108454
104457
108729
108604
108559
108584
108689
108893
109228
109756
110570
111637
108521
108389
108343
108369
108483
108708
109096
109749
110889
112493
108321
108184
108137
108158
108266
108484
108879
109585
110966
112953
108193
108052
107998
108008
108100
108293
108665
109362
110883
113122
108069
107915
107853
107845
107916
108074
108408
109060
110650
113035
108048
107893
107823
107804
107856
107981
108271
108855
110448
112865
107924
107758
107680
107647
107681
107775
108021
108530
110079
112469
107989
107826
107750
107726
107767
107861
108087
108530
109982
112253
107875
107709
107625
107593
107624
107712
107920
108314
109620
111812
107956
107801
107760
107805
107938
108150
108482
108979
110233
112219
109296
109182
109143
109172
109274
109460
109745
110146
110677
111288
109082
108950
108906
108941
109066
109296
109661
110204
111019
112026
108863
108719
108675
108710
108842
109090
109500
110149
111245
112674
108704
108552
108500
108528
108656
108903
109332
110041
111360
113170
108551
108385
108326
108340
108454
108686
109110
109838
111325
113463
108499
108330
108263
108268
108369
108580
108988
109704
111303
113691
108350
108170
108097
108089
108175
108362
108746
109433
111095
113680
108393
108216
108142
108140
108229
108414
108786
109441
111104
113798
108268
108087
108007
107995
108071
108242
108594
109224
110826
113636
108335
108162
108111
108154
108300
108553
108981
109676
111242
114050
109693
109605
109575
109598
109679
109817
110015
110268
110561
110842
109514
109398
109359
109392
109501
109696
109985
110376
110881
111401
109317
109179
109136
109172
109299
109528
109885
110399
111153
111992
109155
109001
108949
108982
109115
109364
109771
110386
111383
112568
108994
108822
108762
108786
108914
109166
109599
110281
111491
113018
108925
108747
108679
108696
108818
109063
109507
110225
111612
113450
108762
108572
108498
108503
108614
108847
109288
110022
111546
113669
108789
108600
108524
108533
108647
108880
109322
110060
111664
114012
108652
108459
108379
108381
108486
108708
109138
109878
111493
114069
108705
108519
108459
108500
108653
108931
109411
110198
111805
114523
109967
109906
109885
109901
109958
110051
110179
110331
110491
110629
109834
109742
109710
109737
109824
109972
110182
110446
110749
111025
109678
109557
109519
109551
109661
109854
110138
110516
110998
111470
109530
109387
109338
109372
109496
109723
110073
110562
111248
111970
109377
109212
109155
109183
109313
109557
109953
110532
111420
112413
109305
109129
109063
109087
109217
109469
109897
110544
111620
112886
109138
108946
108874
108890
109015
109267
109712
110406
111646
113186
109155
108963
108888
108906
109036
109293
109753
110481
111845
113629
109011
108814
108736
108749
108873
109126
109587
110341
111770
113812
109053
108862
108796
108836
108993
109284
109780
110576
112028
114267
110156
110117
110103
110114
110150
110209
110286
110373
110458
110526
110065
109997
109974
109993
110057
110161
110303
110472
110651
110799
109956
109858
109826
109853
109941
110091
110303
110568
110871
111138
109832
109708
109666
109695
109803
109994
110275
110644
111102
111536
109699
109550
109498
109526
109646
109865
110203
110667
111290
111919
109633
109469
109408
109434
109561
109800
110184
110728
111519
112360
109470
109287
109220
109241
109369
109618
110033
110643
111593
112661
109485
109299
109227
109251
109386
109646
110088
110751
111836
113122
109338
109145
109070
109091
109224
109486
109939
110645
111824
113354
109373
109184
109117
109156
109311
109600
110080
110826
112049
113767
110290
110266
110258
110264
110287
110322
110367
110415
110461
110495
110230
110184
110167
110181
110224
110294
110386
110490
110594
110676
110166
110092
110067
110087
110153
110263
110414
110593
110782
110938
110068
109967
109932
109957
110044
110196
110410
110677
110979
111244
109962
109834
109789
109815
109919
110103
110376
110730
111160
111561
109909
109763
109708
109735
109851
110062
110386
110823
111390
111945
109756
109589
109528
109551
109674
109903
110268
110777
111482
112210
109775
109602
109535
109562
109693
109940
110339
110909
111739
112644
109628
109446
109377
109401
109534
109788
110206
110827
111754
112863
109660
109481
109415
109452
109600
109874
110316
110974
111954
113213
110389
110375
110370
110374
110387
110407
110433
110460
110484
110502
110349
110319
110308
110317
110345
110390
110447
110510
110570
110615
110323
110269
110251
110265
110312
110390
110492
110609
110726
110817
110249
110171
110143
110162
110229
110343
110500
110686
110883
111047
110171
110066
110029
110051
110136
110283
110494
110754
111047
111303
110134
110010
109963
109987
110087
110265
110526
110862
111262
111628
109995
109849
109795
109818
109928
110129
110434
110841
111352
111847
110023
109869
109809
109836
109956
110178
110521
110989
111607
112235
109879
109713
109651
109677
109801
110034
110401
110919
111625
112407
109912
109748
109687
109721
109857
110105
110493
111047
111803
112697
110466
110457
110455
110457
110464
110476
110490
110505
110518
110527
110436
110418
110410
110416
110433
110461
110496
110534
110568
110594
110441
110403
110390
110400
110432
110484
110552
110626
110698
110751
110384
110326
110305
110319
110369
110451
110561
110688
110815
110916
110333
110251
110222
110239
110305
110419
110574
110760
110956
111120
110313
110212
110174
110194
110276
110419
110621
110871
111148
111389
110189
110066
110021
110042
110136
110304
110548
110861
111225
111559
110230
110098
110047
110071
110177
110366
110648
111017
111467
111898
110089
109944
109890
109915
110026
110229
110537
110953
111474
112013
110127
109982
109928
109958
110078
110294
110621
111069
111635
112253
110528
110523
110522
110523
110527
110533
110541
110549
110556
110561
110502
110491
110486
110489
110500
110517
110538
110560
110580
110594
110530
110504
110496
110502
110523
110557
110600
110647
110690
110721
110485
110443
110428
110438
110473
110531
110606
110690
110771
110833
110457
110395
110373
110386
110436
110519
110631
110760
110890
110993
110452
110373
110343
110360
110424
110534
110685
110865
111054
111211
110343
110243
110207
110224
110301
110435
110624
110857
111111
111333
110399
110289
110247
110269
110357
110512
110736
111016
111336
111626
110260
110138
110093
110115
110210
110379
110627
110949
111325
111690
110306
110184
110137
110163
110265
110446
110711
111059
111472
111891
110580
110577
110576
110577
110579
110583
110587
110591
110595
110598
110552
110546
110543
110545
110551
110561
110573
110586
110598
110607
110598
110582
110576
110580
110594
110616
110643
110671
110697
110715
110558
110530
110519
110525
110549
110589
110639
110693
110745
110783
110551
110506
110490
110499
110535
110595
110672
110760
110844
110909
110558
110499
110476
110488
110537
110619
110728
110854
110982
111082
110461
110383
110355
110369
110429
110532
110673
110841
111015
111163
110533
110446
110412
110430
110501
110623
110794
111001
111224
111416
110396
110296
110260
110278
110356
110492
110685
110926
111191
111434
110452
110352
110313
110335
110418
110564
110772
111034
111327
111606
110625
110623
110623
110623
110625
110626
110629
110631
110633
110634
110591
110587
110586
110587
110591
110597
110604
110612
110618
110624
110653
110643
110639
110642
110650
110664
110680
110697
110712
110722
110612
110593
110585
110590
110605
110631
110664
110699
110731
110756
110621
110590
110579
110585
110610
110651
110704
110762
110816
110857
110637
110594
110577
110587
110622
110681
110758
110844
110928
110993
110550
110491
110470
110481
110526
110602
110704
110823
110940
111036
110638
110572
110546
110560
110615
110708
110834
110982
111135
111260
110499
110421
110392
110407
110468
110573
110718
110893
111077
111237
110568
110490
110459
110476
110542
110655
110812
111003
111207
111390
110665
110663
110664
110663
110664
110665
110667
110668
110669
110669
110621
110619
110618
110619
110621
110624
110629
110634
110638
110641
110698
110692
110690
110691
110697
110705
110714
110724
110733
110738
110651
110638
110633
110636
110646
110663
110683
110706
110726
110741
110674
110653
110645
110650
110667
110694
110729
110766
110800
110826
110695
110665
110653
110659
110684
110725
110778
110836
110891
110931
110615
110573
110557
110565
110598
110652
110724
110805
110883
110945
110719
110671
110652
110663
110703
110771
110862
110964
111067
111147
110575
110516
110494
110505
110551
110629
110735
110858
110983
111087
110660
110600
110576
110590
110640
110724
110839
110974
111113
111231
110700
110699
110700
110700
110700
110701
110701
110702
110702
110702
110643
110642
110642
110642
110643
110645
110648
110651
110654
110656
110737
110733
110732
110733
110736
110741
110746
110752
110757
110759
110678
110670
110667
110668
110675
110685
110698
110712
110725
110735
110713
110699
110694
110697
110709
110726
110749
110772
110794
110809
110736
110716
110708
110712
110729
110757
110792
110830
110865
110891
110662
110632
110621
110627
110650
110687
110736
110790
110840
110881
110783
110749
110735
110743
110772
110820
110883
110952
111020
111070
110628
110584
110569
110577
110610
110666
110740
110825
110907
110975
110732
110688
110671
110681
110717
110778
110859
110952
111045
111119
110734
110734
110734
110734
110734
110734
110735
110735
110735
110735
110658
110657
110656
110657
110657
110659
110661
110663
110665
110667
110771
110769
110768
110769
110771
110774
110777
110780
110782
110782
110697
110692
110690
110691
110694
110701
110709
110718
110725
110732
110742
110733
110730
110732
110739
110750
110764
110779
110792
110801
110765
110751
110745
110748
110759
110778
110800
110825
110847
110863
110695
110675
110667
110671
110687
110712
110744
110779
110811
110837
110832
110809
110800
110805
110825
110858
110901
110946
110991
111020
110662
110630
110619
110625
110648
110687
110737
110794
110847
110891
110791
110760
110747
110754
110780
110823
110878
110940
111000
111047
110771
110771
110771
110771
110771
110771
110771
110771
110771
110771
110663
110663
110662
110662
110663
110664
110665
110667
110668
110671
110801
110801
110800
110801
110802
110804
110805
110807
110808
110806
110709
110706
110705
110705
110707
110711
110716
110721
110726
110731
110761
110756
110754
110755
110759
110766
110775
110784
110792
110797
110781
110772
110768
110770
110777
110789
110803
110819
110833
110843
110717
110704
110700
110702
110713
110729
110749
110771
110791
110807
110870
110855
110849
110852
110866
110888
110916
110945
110974
110990
110678
110656
110649
110653
110668
110694
110727
110764
110798
110827
110845
110824
110815
110820
110838
110866
110903
110943
110982
111010
110824
110823
110824
110824
110824
110824
110824
110823
110823
110822
110657
110656
110656
110656
110656
110657
110658
110659
110661
110664
110827
110827
110827
110827
110828
110829
110829
110830
110831
110829
110716
110714
110713
110714
110715
110718
110720
110723
110726
110728
110771
110768
110766
110767
110769
110774
110779
110784
110789
110792
110786
110780
110778
110779
110783
110791
110800
110809
110818
110824
110731
110723
110721
110722
110729
110739
110752
110765
110776
110786
110894
110884
110880
110882
110891
110905
110923
110942
110961
110970
110677
110662
110657
110660
110670
110687
110708
110731
110751
110771
110909
110896
110890
110893
110904
110923
110947
110972
110997
111013
110918
110917
110918
110918
110918
110918
110917
110917
110916
110915
110631
110629
110629
110629
110629
110630
110631
110632
110634
110637
110840
110840
110839
110839
110839
110840
110840
110841
110842
110841
110719
110718
110718
110719
110720
110721
110722
110724
110724
110726
110771
110769
110768
110768
110770
110773
110776
110779
110783
110785
110781
110777
110775
110776
110779
110783
110789
110795
110801
110805
110737
110732
110731
110732
110737
110743
110751
110759
110764
110769
110892
110885
110882
110883
110888
110898
110909
110922
110936
110942
110649
110640
110637
110639
110646
110656
110670
110684
110695
110708
111008
111000
110996
110998
111005
111017
111033
111049
111066
111074
111079
111079
111079
111079
111078
111078
111078
111078
111078
111078
110569
110569
110571
110571
110572
110572
110572
110572
110571
110573
110827
110825
110824
110823
110823
110823
110824
110826
110829
110830
110721
110722
110722
110723
110723
110724
110725
110725
110725
110724
110766
110764
110763
110763
110764
110766
110768
110771
110773
110775
110770
110767
110766
110767
110769
110772
110775
110779
110783
110786
110737
110735
110734
110735
110738
110742
110747
110752
110756
110758
110849
110843
110840
110841
110844
110851
110859
110868
110879
110886
110583
110578
110577
110578
110583
110590
110599
110608
110614
110620
111165
111159
111155
111157
111162
111170
111181
111192
111205
111210
111262
111259
111258
111257
111257
111257
111258
111259
111262
111266
110486
110492
110495
110497
110498
110498
110497
110494
110489
110482
110793
110789
110787
110785
110785
110786
110787
110789
110793
110798
110726
110727
110728
110729
110729
110730
110730
110730
110730
110728
110760
110759
110758
110758
110759
110760
110762
110764
110766
110768
110763
110761
110760
110760
110762
110764
110767
110770
110773
110776
110739
110737
110737
110738
110740
110744
110748
110752
110755
110756
110786
110780
110777
110778
110781
110786
110793
110801
110809
110818
110498
110497
110496
110497
110502
110508
110515
110521
110524
110521
111331
111326
111324
111325
111329
111336
111345
111354
111364
111368
122713
123927
123751
122477
125945
127351
126951
125329
128888
130475
129887
127897
131055
132758
131984
129714
132719
134500
133552
131079
134069
135909
134952
132358
134995
136868
136043
133381
135818
137697
137035
134336
135733
137584
137067
134375
135321
137159
136899
134362
113011
113200
113239
113119
115297
115668
115727
115436
117554
118107
118165
117656
119695
120415
120460
119705
121648
122504
122518
121506
123501
124467
124445
123217
125036
126086
126035
124648
126541
127649
127581
126084
127321
128461
128390
126842
127969
129143
129120
127620
111809
111898
111926
111899
113133
113300
113340
113273
114586
114853
114905
114776
116064
116436
116496
116283
117489
117964
118022
117704
118966
119541
119592
119158
120258
120925
120966
120412
121639
122383
122413
121746
122459
123251
123274
122512
123278
124106
124147
123329
110958
110980
110992
110992
111710
111764
111783
111776
112631
112734
112768
112743
113663
113831
113880
113825
114691
114932
114994
114895
115820
116139
116211
116055
116825
117221
117300
117076
117983
118451
118532
118234
118696
119215
119301
118938
119473
120033
120137
119733
110675
110684
110690
110690
111147
111171
111181
111181
111731
111780
111799
111795
112438
112522
112553
112543
113164
113290
113335
113311
114002
114179
114237
114192
114740
114970
115039
114965
115659
115943
116022
115911
116238
116562
116654
116510
116916
117276
117387
117219
110544
110548
110550
110550
110847
110856
110861
110863
111242
111263
111273
111275
111736
111775
111794
111796
112258
112322
112351
112351
112889
112984
113025
113019
113426
113557
113609
113594
114156
114323
114386
114356
114615
114813
114890
114845
115167
115392
115484
115427
110504
110506
110507
110507
110700
110704
110707
110707
110988
110997
111003
111004
111340
111359
111370
111373
111724
111757
111775
111779
112206
112258
112284
112289
112596
112670
112706
112710
113178
113276
113322
113321
113528
113647
113704
113697
113961
114098
114165
114152
110506
110507
110508
110508
110627
110630
110631
110632
110843
110848
110851
110852
111097
111107
111114
111116
111389
111406
111417
111420
111766
111795
111811
111816
112051
112092
112116
112122
112520
112577
112608
112614
112767
112839
112877
112881
113104
113187
113232
113234
110530
110530
110530
110530
110601
110602
110603
110603
110766
110768
110770
110770
110945
110951
110954
110956
111168
111178
111184
111186
111467
111483
111493
111497
111673
111697
111712
111717
112057
112090
112110
112116
112215
112259
112284
112289
112482
112532
112561
112566
110562
110563
110563
110563
110598
110599
110599
110600
110730
110731
110732
110732
110850
110854
110856
110857
111021
111027
111031
111032
111257
111267
111273
111276
111401
111415
111424
111428
111719
111740
111752
111757
111808
111835
111851
111855
112024
112054
112072
112077
110598
110599
110599
110599
110609
110609
110610
110610
110720
110720
110721
110721
110794
110796
110797
110798
110926
110930
110932
110933
111111
111117
111121
111123
111203
111212
111218
111220
111473
111485
111493
111496
111506
111522
111532
111536
111686
111705
111716
111719
110635
110635
110635
110635
110625
110625
110626
110626
110725
110726
110726
110726
110762
110763
110764
110765
110867
110869
110870
110871
111011
111015
111017
111018
111061
111067
111070
111072
111294
111302
111307
111309
111282
111292
111298
111300
111438
111450
111457
111459
110669
110669
110669
110669
110642
110642
110643
110643
110740
110740
110740
110740
110745
110746
110747
110747
110832
110833
110834
110834
110943
110946
110947
110948
110960
110964
110966
110967
111169
111174
111177
111178
111116
111122
111126
111128
111261
111268
111272
111274
110702
110702
110702
110702
110657
110657
110657
110658
110760
110760
110760
110760
110737
110738
110738
110739
110813
110813
110814
110814
110899
110900
110901
110902
110890
110892
110893
110894
111084
111087
111089
111089
110994
110998
111001
111002
111137
111142
111145
111146
110735
110735
110735
110735
110668
110668
110668
110668
110783
110783
110783
110782
110733
110734
110734
110734
110803
110803
110804
110804
110869
110870
110870
110871
110842
110843
110843
110844
111029
111031
111032
111033
110904
110906
110908
110909
111057
111060
111062
111062
110771
110771
110770
110770
110671
110672
110672
110672
110807
110807
110807
110806
110731
110731
110731
110732
110798
110798
110798
110799
110847
110848
110848
110848
110808
110809
110809
110810
110997
110998
110999
110999
110835
110837
110838
110838
111015
111017
111018
111018
110822
110822
110822
110822
110664
110665
110665
110665
110830
110830
110829
110829
110728
110728
110728
110728
110793
110793
110794
110794
110828
110829
110829
110829
110785
110785
110785
110785
110976
110977
110978
110978
110776
110777
110778
110778
111015
111015
111016
111017
110914
110914
110914
110914
110637
110637
110638
110638
110843
110844
110844
110843
110724
110723
110723
110723
110786
110786
110786
110786
110808
110809
110809
110809
110766
110766
110766
110766
110950
110951
110951
110951
110711
110711
110712
110712
111075
111074
111075
111076
111078
111078
111078
111077
110570
110570
110570
110571
110836
110837
110837
110837
110721
110720
110720
110720
110776
110776
110776
110777
110789
110789
110790
110790
110753
110752
110752
110752
110899
110901
110902
110901
110615
110614
110614
110615
111215
111215
111216
111217
111266
111267
111268
111268
110466
110463
110462
110461
110808
110810
110811
110811
110724
110723
110722
110722
110769
110769
110769
110770
110778
110778
110778
110778
110751
110749
110749
110750
110836
110839
110840
110839
110497
110491
110490
110493
111391
111393
111394
111391
116089
113574
111649
110361
109555
109035
108680
108430
108250
108114
117145
113964
111595
110193
109367
108841
108492
108250
108082
107956
117507
114002
111326
110004
109178
108658
108308
108066
107902
107795
117492
113900
110998
109842
109035
108549
108215
107986
107828
107721
117207
113680
110690
109664
108865
108415
108095
107880
107730
107634
116838
113553
110522
109629
108832
108420
108112
107908
107761
107658
116196
113296
110230
109478
108673
108302
107999
107806
107661
107564
115775
113320
110222
109613
108794
108457
108147
107949
107792
107669
115050
112987
109911
109481
108686
108397
108077
107875
107710
107579
115488
113684
110582
110177
109259
108867
108434
108144
107908
107707
112562
111817
111156
110603
110149
109778
109479
109238
109045
108895
114185
112819
111685
110830
110186
109703
109339
109062
108849
108690
115484
113531
111989
110914
110127
109561
109151
108849
108627
108477
116472
114020
112139
110933
110064
109466
109041
108733
108507
108353
117099
114287
112135
110853
109932
109326
108898
108595
108371
108224
117574
114536
112168
110856
109905
109306
108882
108585
108364
108209
117723
114568
112023
110716
109746
109164
108744
108454
108233
108085
117934
114771
112090
110824
109843
109281
108858
108564
108335
108165
117714
114574
111847
110690
109738
109207
108778
108478
108241
108062
118120
115087
112324
111188
110161
109556
109049
108685
108399
108169
111742
111427
111073
110734
110427
110159
109929
109736
109574
109444
112913
112273
111603
111023
110549
110166
109857
109608
109408
109253
114112
113062
112037
111215
110576
110086
109709
109418
109194
109034
115226
113740
112382
111367
110605
110043
109622
109303
109061
108888
116154
114237
112572
111403
110547
109938
109491
109159
108907
108734
117028
114712
112774
111490
110565
109929
109467
109129
108873
108691
117627
114954
112776
111414
110438
109789
109319
108980
108721
108541
118277
115318
112948
111549
110540
109888
109410
109064
108797
108599
118448
115272
112815
111454
110455
109813
109323
108967
108691
108484
118952
115690
113187
111822
110766
110071
109527
109126
108816
108574
110969
110873
110737
110585
110428
110277
110136
110009
109897
109804
111702
111474
111185
110891
110614
110363
110142
109952
109791
109662
112571
112136
111627
111149
110727
110370
110073
109828
109630
109482
113507
112818
112066
111405
110849
110398
110036
109746
109516
109343
114372
113393
112388
111555
110882
110357
109946
109626
109373
109191
115266
113981
112724
111742
110971
110389
109943
109601
109334
109137
115961
114363
112865
111755
110904
110281
109810
109454
109176
108976
116753
114864
113154
111950
111038
110387
109895
109524
109235
109018
117129
114993
113150
111912
110973
110307
109797
109414
109115
108890
117735
115422
113482
112196
111205
110497
109948
109533
109211
108961
110682
110641
110579
110504
110421
110336
110252
110174
110103
110042
111154
111058
110921
110763
110600
110442
110295
110162
110045
109948
111736
111544
111286
111013
110748
110505
110289
110101
109942
109819
112435
112109
111699
111290
110913
110582
110297
110058
109859
109704
113128
112634
112049
111497
111010
110597
110254
109972
109741
109569
113902
113212
112438
111746
111156
110673
110281
109966
109712
109518
114531
113624
112652
111828
111146
110605
110174
109834
109560
109358
115303
114172
113013
112077
111317
110729
110266
109902
109613
109392
115741
114405
113106
112093
111279
110657
110167
109788
109487
109257
116340
114825
113412
112330
111464
110804
110284
109879
109562
109314
110547
110530
110501
110464
110421
110375
110328
110283
110240
110203
110854
110811
110743
110659
110567
110472
110379
110292
110214
110146
111256
111169
111038
110884
110723
110565
110416
110280
110162
110068
111760
111605
111386
111141
110896
110665
110455
110269
110109
109981
112289
112042
111711
111362
111026
110721
110451
110220
110023
109872
112915
112554
112095
111634
111207
110831
110508
110237
110011
109833
113431
112932
112330
111755
111239
110800
110430
110126
109874
109683
114114
113466
112718
112036
111440
110944
110534
110201
109930
109717
114527
113730
112856
112083
111421
110881
110441
110088
109801
109580
115048
114113
113137
112294
111582
111006
110538
110163
109864
109627
110506
110497
110483
110463
110441
110416
110390
110364
110340
110318
110703
110681
110646
110600
110547
110491
110435
110380
110330
110285
110995
110951
110879
110791
110693
110591
110492
110399
110316
110248
111358
111279
111156
111009
110852
110695
110546
110409
110288
110187
111754
111626
111436
111217
110991
110772
110570
110390
110232
110108
112249
112057
111784
111483
111184
110903
110650
110429
110239
110085
112647
112374
112005
111615
111239
110897
110597
110339
110120
109950
113224
112857
112383
111904
111455
111057
110714
110425
110184
109991
113566
113095
112521
111959
111447
111004
110628
110317
110058
109855
113990
113428
112775
112152
111593
111117
110716
110385
110115
109899
110507
110502
110495
110485
110473
110460
110445
110431
110417
110405
110629
110618
110599
110574
110544
110511
110478
110444
110413
110385
110847
110823
110783
110731
110671
110608
110544
110482
110426
110381
111108
111065
110994
110905
110805
110701
110599
110502
110414
110339
111409
111338
111226
111087
110937
110785
110640
110505
110384
110287
111799
111692
111527
111332
111125
110922
110732
110560
110408
110282
112097
111943
111715
111454
111187
110931
110696
110489
110307
110163
112574
112363
112064
111734
111406
111100
110826
110587
110382
110214
112824
112548
112176
111781
111400
111052
110746
110484
110261
110082
113162
112829
112402
111958
111537
111160
110831
110551
110317
110127
110530
110528
110524
110518
110512
110505
110497
110489
110481
110474
110602
110596
110585
110571
110554
110535
110515
110495
110476
110459
110767
110754
110730
110700
110664
110625
110585
110545
110508
110479
110952
110927
110885
110830
110767
110700
110631
110565
110504
110450
111180
111139
111071
110984
110885
110782
110680
110583
110494
110422
111488
111426
111324
111197
111058
110915
110776
110647
110530
110432
111705
111615
111472
111299
111112
110926
110750
110589
110444
110328
112097
111973
111783
111560
111327
111099
110888
110698
110532
110392
112263
112099
111861
111590
111314
111051
110811
110599
110414
110264
112533
112335
112059
111752
111444
111157
110896
110669
110474
110313
110562
110561
110559
110556
110553
110549
110545
110540
110536
110532
110599
110596
110590
110582
110572
110561
110550
110538
110527
110516
110730
110722
110709
110691
110669
110645
110620
110595
110572
110554
110855
110840
110815
110781
110742
110699
110654
110610
110568
110531
111029
111004
110962
110907
110843
110774
110705
110637
110574
110522
111270
111233
111170
111088
110994
110896
110798
110704
110618
110543
111422
111367
111277
111162
111035
110903
110774
110654
110543
110453
111746
111672
111551
111402
111239
111075
110918
110772
110643
110531
111842
111743
111591
111408
111213
111021
110839
110674
110526
110404
112060
111942
111765
111557
111338
111126
110927
110749
110593
110461
110598
110598
110597
110595
110593
110591
110589
110586
110584
110582
110610
110608
110604
110600
110595
110588
110582
110575
110568
110561
110720
110715
110707
110696
110683
110668
110653
110637
110623
110613
110797
110788
110773
110753
110728
110701
110672
110643
110615
110590
110931
110916
110890
110855
110814
110769
110722
110676
110632
110596
111119
111097
111057
111004
110943
110876
110808
110742
110680
110626
111217
111183
111126
111051
110965
110873
110782
110694
110612
110545
111490
111444
111367
111269
111158
111042
110928
110821
110723
110636
111528
111468
111371
111249
111114
110977
110843
110719
110605
110510
111710
111639
111526
111387
111235
111083
110936
110801
110680
110576
110635
110634
110634
110633
110632
110631
110629
110628
110627
110626
110626
110625
110623
110620
110617
110614
110610
110606
110602
110597
110725
110722
110717
110711
110703
110694
110685
110675
110667
110661
110764
110759
110750
110737
110722
110705
110687
110668
110650
110633
110870
110860
110844
110822
110796
110767
110736
110705
110676
110652
111016
111002
110977
110943
110903
110859
110813
110768
110725
110686
111070
111049
111012
110963
110906
110844
110781
110719
110660
110611
111305
111277
111228
111163
111089
111010
110929
110852
110781
110716
111296
111259
111196
111116
111025
110929
110833
110743
110657
110586
111455
111411
111339
111248
111145
111038
110933
110834
110743
110665
110669
110669
110669
110668
110668
110667
110666
110666
110665
110665
110643
110642
110641
110640
110638
110636
110634
110632
110629
110625
110739
110737
110734
110731
110726
110721
110715
110709
110704
110702
110747
110744
110738
110731
110722
110711
110699
110688
110676
110665
110833
110828
110817
110804
110787
110768
110748
110728
110709
110694
110946
110938
110922
110901
110875
110846
110816
110785
110756
110729
110967
110953
110930
110898
110860
110819
110776
110733
110693
110659
111175
111158
111127
111085
111036
110983
110928
110874
110824
110777
111125
111101
111062
111009
110948
110883
110816
110752
110690
110639
111272
111244
111199
111140
111071
110999
110925
110855
110789
110732
110702
110702
110702
110702
110701
110701
110701
110700
110700
110700
110658
110658
110657
110657
110656
110654
110653
110652
110650
110647
110759
110758
110756
110753
110751
110747
110744
110741
110738
110738
110739
110737
110734
110729
110723
110717
110710
110703
110695
110688
110813
110810
110804
110795
110785
110773
110760
110747
110735
110726
110900
110895
110885
110872
110855
110837
110817
110797
110778
110759
110894
110885
110871