/*--------------------------------*- C++ -*----------------------------------*\
| =========                 |                                                 |
| \\      /  F ield         | foam-extend: Open Source CFD                    |
|  \\    /   O peration     | Version:     4.0                                |
|   \\  /    A nd           | Web:         http://www.foam-extend.org         |
|    \\/     M anipulation  |                                                 |
\*---------------------------------------------------------------------------*/
FoamFile
{
    version     2.0;
    format      ascii;
    class       surfaceScalarField;
    location    "1900";
    object      phi;
}
// * * * * * * * * * * * * * * * * * * * * * * * * * * * * * * * * * * * * * //

dimensions      [1 0 -1 0 0 0 0];

internalField   nonuniform List<scalar> 
97302
(
-0.000109786
9.50509e-07
-0.000869497
0.000878775
-0.000119601
1.13981e-06
-0.0008705
0.000879175
-0.000129523
1.19894e-06
-0.000871026
0.00087975
-0.000140125
1.137e-06
-0.000871065
0.000880529
-0.000152233
9.44931e-07
-0.000870612
0.000881775
-0.000167326
6.12604e-07
-0.000869446
0.000883926
-0.000188496
1.13534e-07
-0.000866958
0.000888015
-0.000222747
-5.96579e-07
-0.000861332
0.000896179
-0.000271325
-1.64007e-06
-0.000851542
0.00090176
-4.39671e-06
-0.000824041
-0.000352995
0.000910108
-0.000150902
1.60046e-06
-0.00116596
0.00117605
-0.000161174
1.96266e-06
-0.00116691
0.00117636
-0.000171518
2.08128e-06
-0.0011675
0.00117696
-0.000182473
1.98942e-06
-0.00116752
0.00117763
-0.000194834
1.67207e-06
-0.00116673
0.00117836
-0.000210314
1.11795e-06
-0.00116472
0.00117969
-0.000232765
2.6945e-07
-0.00116112
0.00118342
-0.000271567
-9.68586e-07
-0.00115433
0.0011935
-0.000328347
-2.89904e-06
-0.00114203
0.00120007
-7.46151e-06
-0.00110413
-0.000432765
0.00121161
-0.000191208
1.89253e-06
-0.00146132
0.00147217
-0.000201777
2.3887e-06
-0.00146233
0.00147247
-0.000212296
2.57041e-06
-0.00146295
0.00147298
-0.000223273
2.49419e-06
-0.00146275
0.00147322
-0.000235633
2.14189e-06
-0.0014614
0.00147329
-0.000251509
1.5029e-06
-0.00145873
0.00147422
-0.000275387
4.97956e-07
-0.00145485
0.0014785
-0.000318357
-9.71379e-07
-0.00144828
0.00149125
-0.000381691
-3.35678e-06
-0.00143512
0.00149891
-9.13805e-06
-0.0013864
-0.000500689
0.00150707
-0.000231435
2.08096e-06
-0.00175269
0.00176396
-0.000242299
2.71699e-06
-0.00175392
0.00176446
-0.000253113
2.97756e-06
-0.0017548
0.00176521
-0.000264403
2.94228e-06
-0.0017548
0.00176564
-0.000277162
2.58238e-06
-0.00175362
0.00176594
-0.00029371
1.88905e-06
-0.00175119
0.00176735
-0.000318862
7.59948e-07
-0.00174763
0.00177252
-0.000364968
-8.96511e-07
-0.00174141
0.00178744
-0.00043299
-3.68391e-06
-0.00172779
0.00179614
-1.06329e-05
-0.00166794
-0.000560753
0.0017972
-0.000271566
2.31314e-06
-0.0020452
0.00205666
-0.000282599
3.01861e-06
-0.00204681
0.00205755
-0.000293582
3.31703e-06
-0.0020482
0.00205884
-0.000305068
3.29805e-06
-0.00204867
0.0020598
-0.000318115
2.93068e-06
-0.00204802
0.00206072
-0.000335166
2.20579e-06
-0.00204622
0.00206295
-0.000361324
1.00677e-06
-0.0020433
0.00206921
-0.000409967
-7.50286e-07
-0.00203776
0.00208626
-0.000481931
-3.81898e-06
-0.00202451
0.00209661
-1.18676e-05
-0.00195285
-0.000615168
0.00208732
-0.000312268
2.39905e-06
-0.00233632
0.00234807
-0.000323404
3.13018e-06
-0.00233838
0.00234941
-0.000334456
3.41643e-06
-0.00234016
0.00235111
-0.000346
3.36975e-06
-0.00234105
0.00235252
-0.000359147
2.96809e-06
-0.00234092
0.00235403
-0.000376425
2.21121e-06
-0.00233987
0.00235714
-0.00040321
9.81195e-07
-0.00233788
0.00236469
-0.000453746
-7.88153e-07
-0.00233345
0.00238402
-0.000529016
-3.9162e-06
-0.0023217
0.00239707
-1.28367e-05
-0.00223794
-0.000665774
0.00237567
-0.000352792
2.37939e-06
-0.00262726
0.00263913
-0.000363872
3.01826e-06
-0.00262992
0.00264112
-0.000374847
3.23356e-06
-0.00263226
0.00264342
-0.0003863
3.10083e-06
-0.00263362
0.00264534
-0.000399396
2.62497e-06
-0.00263407
0.00264751
-0.000416694
1.79862e-06
-0.00263383
0.00265154
-0.000443817
5.5795e-07
-0.00263297
0.00266052
-0.000495693
-1.11261e-06
-0.00263015
0.00268235
-0.000573748
-3.86403e-06
-0.00262105
0.00269906
-1.2992e-05
-0.00252497
-0.000712512
0.00266389
-0.000394589
2.02209e-06
-0.00291878
0.00293108
-0.00040572
2.47162e-06
-0.00292204
0.00293371
-0.000416694
2.50038e-06
-0.00292449
0.0029362
-0.000428098
2.16163e-06
-0.00292579
0.00293813
-0.000441059
1.49156e-06
-0.00292614
0.00294023
-0.000458081
4.88323e-07
-0.00292606
0.00294439
-0.00048493
-8.19796e-07
-0.0029259
0.00295413
-0.000536997
-2.36198e-06
-0.00292452
0.00297783
-0.000616519
-4.15104e-06
-0.00291878
0.00299859
-1.21422e-05
-0.00281219
-0.000755683
0.0029505
-0.000435785
1.06728e-06
-0.00320665
0.00321908
-0.00044649
1.13486e-06
-0.00321076
0.0032228
-0.00045707
8.43965e-07
-0.00321383
0.00322607
-0.000468171
1.10358e-07
-0.00321575
0.0032289
-0.000480961
-9.49152e-07
-0.00321688
0.00323211
-0.000497826
-2.30924e-06
-0.00321781
0.00323747
-0.000524528
-3.78418e-06
-0.00321907
0.00324873
-0.000576322
-5.09889e-06
-0.00321998
0.00327451
-0.000655775
-5.50605e-06
-0.00321662
0.00329743
-1.01951e-05
-0.00309927
-0.000792427
0.00323397
-0.000477197
-0.00347522
0.00348823
-0.000488542
-0.00347883
0.00349131
-0.000499731
-0.00347954
0.00349157
-0.000511444
-0.00347699
0.00348881
-0.00052472
-0.00347183
0.00348416
-0.000541687
-0.00346513
0.00347979
-0.000567579
-0.00345807
0.00348018
-0.000616584
-0.00345214
0.00349605
-0.000689674
-0.00344853
0.00351612
-0.00333956
-0.000818675
0.00345837
1.43958e-05
8.87736e-07
-0.00086104
5.31263e-06
1.11233e-06
-0.00086253
-3.79135e-06
1.19307e-06
-0.000863115
-1.30998e-05
1.13542e-06
-0.000862892
-2.28121e-05
9.29458e-07
-0.00086183
-3.31462e-05
5.56823e-07
-0.000859668
-4.42494e-05
-1.66335e-08
-0.000855838
-5.55406e-05
-8.69701e-07
-0.000849171
-6.62353e-05
-2.19826e-06
-0.000838649
-3.96907e-06
-0.000822395
-6.39125e-05
1.54087e-05
1.51103e-06
-0.0011561
5.39059e-06
1.92717e-06
-0.00115771
-4.6171e-06
2.08094e-06
-0.00115838
-1.49318e-05
2.00182e-06
-0.00115808
-2.58185e-05
1.6679e-06
-0.00115658
-3.764e-05
1.05687e-06
-0.0011534
-5.12327e-05
1.06977e-07
-0.00114765
-6.76401e-05
-1.29798e-06
-0.00113749
-8.82603e-05
-3.54502e-06
-0.00112006
-6.61075e-06
-0.00109111
-9.86413e-05
1.67386e-05
1.82051e-06
-0.00145027
6.00822e-06
2.38447e-06
-0.00145205
-4.6296e-06
2.60816e-06
-0.00145284
-1.55068e-05
2.54611e-06
-0.00145241
-2.69612e-05
2.16516e-06
-0.00145044
-3.97264e-05
1.44165e-06
-0.00144635
-5.55481e-05
2.83569e-07
-0.00143921
-7.71553e-05
-1.43103e-06
-0.00142654
-0.000108635
-4.28696e-06
-0.0014029
-8.39897e-06
-0.00135936
-0.000133882
1.79565e-05
2.02768e-06
-0.00174094
6.74251e-06
2.74908e-06
-0.00174307
-4.38075e-06
3.06037e-06
-0.00174413
-1.58087e-05
3.04456e-06
-0.00174387
-2.7997e-05
2.65422e-06
-0.00174192
-4.19374e-05
1.86776e-06
-0.00173768
-5.99405e-05
5.52489e-07
-0.00172989
-8.61289e-05
-1.40523e-06
-0.00171524
-0.000128053
-4.79859e-06
-0.00168536
-9.90964e-06
-0.00162548
-0.000168999
1.9073e-05
2.27341e-06
-0.00203306
7.57244e-06
3.07364e-06
-0.00203564
-3.83151e-06
3.42886e-06
-0.00203716
-1.55952e-05
3.43536e-06
-0.0020373
-2.83122e-05
3.0417e-06
-0.00203569
-4.31602e-05
2.22573e-06
-0.00203173
-6.29153e-05
8.15687e-07
-0.00202381
-9.29959e-05
-1.29237e-06
-0.00200779
-0.000144893
-5.08039e-06
-0.00197233
-1.1068e-05
-0.00189519
-0.000201395
1.97786e-05
2.392e-06
-0.00232376
8.10058e-06
3.22698e-06
-0.00232686
-3.4343e-06
3.57773e-06
-0.00232878
-1.5341e-05
3.56687e-06
-0.00232927
-2.83329e-05
3.15e-06
-0.00232804
-4.37515e-05
2.31491e-06
-0.00232454
-6.4801e-05
8.69956e-07
-0.00231688
-9.80686e-05
-1.27876e-06
-0.00230019
-0.000159358
-5.2125e-06
-0.00226028
-1.18865e-05
-0.00216568
-0.000230804
2.0192e-05
2.36413e-06
-0.00261444
8.53651e-06
3.10529e-06
-0.00261815
-2.94834e-06
3.39042e-06
-0.00262059
-1.47941e-05
3.30628e-06
-0.00262151
-2.78443e-05
2.84795e-06
-0.00262072
-4.35505e-05
1.9861e-06
-0.0026178
-6.54959e-05
5.45257e-07
-0.0026107
-0.000101307
-1.5683e-06
-0.00259405
-0.000171277
-5.24885e-06
-0.00255105
-1.22509e-05
-0.00243907
-0.000256807
1.99343e-05
2.03095e-06
-0.00290553
8.27687e-06
2.58652e-06
-0.00290986
-3.10167e-06
2.71547e-06
-0.00291244
-1.47806e-05
2.47805e-06
-0.00291328
-2.76586e-05
1.90519e-06
-0.00291232
-4.32612e-05
9.63965e-07
-0.00290944
-6.54713e-05
-4.37908e-07
-0.00290271
-0.000102749
-2.40944e-06
-0.0028864
-0.000180121
-5.22234e-06
-0.00284143
-1.19002e-05
-0.00271324
-0.000279425
1.94044e-05
1.07271e-06
-0.00319313
8.21671e-06
1.21774e-06
-0.00319821
-2.65749e-06
1.05778e-06
-0.0032013
-1.38284e-05
4.73206e-07
-0.00320257
-2.63492e-05
-4.04983e-07
-0.00320205
-4.18557e-05
-1.58608e-06
-0.00319975
-6.44354e-05
-3.0116e-06
-0.00319391
-0.000103039
-4.676e-06
-0.00317911
-0.00018637
-6.14942e-06
-0.00313236
-1.00754e-05
-0.00298559
-0.000301867
1.82489e-05
-0.00346142
6.80966e-06
-0.00346617
-4.11379e-06
-0.00346756
-1.52094e-05
-0.00346542
-2.74173e-05
-0.00346003
-4.23419e-05
-0.0034518
-6.39036e-05
-0.00343952
-0.000101287
-0.00341943
-0.000186017
-0.00336995
-0.00321564
-0.000320013
1.2026e-05
7.76276e-07
-0.000854367
4.42334e-06
1.01628e-06
-0.000855943
-3.29453e-06
1.10431e-06
-0.000856501
-1.10376e-05
1.03988e-06
-0.000856188
-1.86826e-05
8.16419e-07
-0.000855001
-2.59845e-05
4.18123e-07
-0.000852784
-3.23914e-05
-1.77026e-07
-0.000849255
-3.65993e-05
-1.00694e-06
-0.000843956
-3.67275e-05
-2.15535e-06
-0.000836366
-3.43337e-06
-0.000826719
-2.89702e-05
1.38779e-05
1.35912e-06
-0.00114759
4.85259e-06
1.79917e-06
-0.00114946
-4.2338e-06
1.9623e-06
-0.00115015
-1.34721e-05
1.87175e-06
-0.00114967
-2.28686e-05
1.50596e-06
-0.00114787
-3.22722e-05
8.40371e-07
-0.00114442
-4.12822e-05
-1.78461e-07
-0.00113864
-4.87466e-05
-1.62305e-06
-0.00112941
-5.22005e-05
-3.70842e-06
-0.00111505
-6.13017e-06
-0.00109586
-4.47541e-05
1.59833e-05
1.70395e-06
-0.0014401
5.78143e-06
2.29898e-06
-0.00144235
-4.41503e-06
2.53272e-06
-0.00144321
-1.48014e-05
2.45269e-06
-0.00144261
-2.54732e-05
2.02085e-06
-0.00144028
-3.64932e-05
1.20197e-06
-0.00143569
-4.79756e-05
-9.88305e-08
-0.0014278
-5.94519e-05
-1.97938e-06
-0.0014147
-6.85115e-05
-4.84953e-06
-0.0013927
-8.36906e-06
-0.00136069
-6.49454e-05
1.76343e-05
1.96174e-06
-0.00172974
6.64333e-06
2.72531e-06
-0.00173251
-4.33935e-06
3.04873e-06
-0.00173366
-1.56244e-05
3.01033e-06
-0.00173314
-2.74577e-05
2.556e-06
-0.00173062
-4.01689e-05
1.64803e-06
-0.00172541
-5.43188e-05
1.38406e-07
-0.00171598
-7.00995e-05
-2.09356e-06
-0.00169935
-8.58016e-05
-5.7103e-06
-0.00166879
-1.03387e-05
-0.00162108
-8.82344e-05
1.90408e-05
2.25271e-06
-0.00202119
7.54085e-06
3.10189e-06
-0.00202451
-3.93027e-06
3.47325e-06
-0.00202611
-1.57912e-05
3.45838e-06
-0.00202588
-2.84671e-05
2.99834e-06
-0.00202346
-4.254e-05
2.0512e-06
-0.00201806
-5.90231e-05
4.13801e-07
-0.0020076
-7.89057e-05
-2.06273e-06
-0.00198794
-0.000101938
-6.3062e-06
-0.0019487
-1.19743e-05
-0.00188337
-0.000112121
1.998e-05
2.42028e-06
-0.00231128
8.14309e-06
3.3086e-06
-0.00231523
-3.61128e-06
3.68012e-06
-0.00231723
-1.57958e-05
3.65533e-06
-0.00231729
-2.89932e-05
3.17781e-06
-0.00231502
-4.40357e-05
2.21422e-06
-0.00230966
-6.24229e-05
5.31246e-07
-0.00229861
-8.6049e-05
-2.04334e-06
-0.00227659
-0.000116873
-6.64222e-06
-0.00222912
-1.31838e-05
-0.00214511
-0.000136233
2.0533e-05
2.41577e-06
-0.00260153
8.61533e-06
3.2102e-06
-0.00260613
-3.18162e-06
3.52203e-06
-0.00260864
-1.54162e-05
3.43734e-06
-0.00260906
-2.88377e-05
2.94294e-06
-0.00260706
-4.4488e-05
1.99268e-06
-0.00260192
-6.43513e-05
3.51015e-07
-0.00259066
-9.12583e-05
-2.20479e-06
-0.00256698
-0.000129979
-6.76916e-06
-0.0025122
-1.39518e-05
-0.002409
-0.000159281
2.03574e-05
2.09384e-06
-0.00289213
8.40914e-06
2.69889e-06
-0.0028974
-3.30442e-06
2.87128e-06
-0.00290007
-1.54046e-05
2.67428e-06
-0.00290042
-2.87353e-05
2.12379e-06
-0.00289817
-4.4528e-05
1.17318e-06
-0.00289282
-6.52353e-05
-3.29451e-07
-0.00288132
-9.45834e-05
-2.6495e-06
-0.0028566
-0.000140688
-6.40397e-06
-0.00279569
-1.37395e-05
-0.00267355
-0.000180586
1.97447e-05
1.14944e-06
-0.00317942
8.249e-06
1.32694e-06
-0.00318534
-2.96455e-06
1.24685e-06
-0.00318846
-1.4522e-05
7.71615e-07
-0.00318911
-2.7425e-05
2.48113e-08
-0.00318705
-4.31478e-05
-1.01451e-06
-0.00318184
-6.46486e-05
-2.33776e-06
-0.0031704
-9.64402e-05
-4.0913e-06
-0.00314587
-0.0001489
-6.37163e-06
-0.00307993
-1.15131e-05
-0.00293613
-0.000200588
1.85824e-05
-0.00344755
7.00467e-06
-0.00345327
-4.10073e-06
-0.00345521
-1.54434e-05
-0.0034533
-2.79152e-05
-0.00344753
-4.30007e-05
-0.00343772
-6.36987e-05
-0.00342116
-9.54109e-05
-0.00339181
-0.000150683
-0.00332105
-0.00316248
-0.000215359
9.33378e-06
6.07292e-07
-0.000849535
3.46362e-06
8.50788e-07
-0.000850924
-2.58769e-06
9.42925e-07
-0.000851393
-8.54682e-06
8.76884e-07
-0.000851106
-1.4107e-05
6.51255e-07
-0.000850092
-1.88455e-05
2.57148e-07
-0.000848303
-2.21201e-05
-3.1238e-07
-0.000845668
-2.28923e-05
-1.05951e-06
-0.000842124
-1.95794e-05
-1.98069e-06
-0.000837698
-2.86417e-06
-0.000832852
-1.05823e-05
1.17249e-05
1.11296e-06
-0.00114076
4.10721e-06
1.56326e-06
-0.00114256
-3.63919e-06
1.73159e-06
-0.00114319
-1.13767e-05
1.63357e-06
-0.00114269
-1.88891e-05
1.25199e-06
-0.00114096
-2.57873e-05
5.68806e-07
-0.00113783
-3.1312e-05
-4.47466e-07
-0.00113298
-3.39454e-05
-1.81899e-06
-0.00112602
-3.08489e-05
-3.60573e-06
-0.00111652
-5.42036e-06
-0.001106
-1.81515e-05
1.44351e-05
1.4828e-06
-0.00143133
5.25866e-06
2.09428e-06
-0.00143371
-3.98454e-06
2.33087e-06
-0.00143457
-1.3295e-05
2.23026e-06
-0.00143389
-2.25664e-05
1.75614e-06
-0.00143152
-3.15037e-05
8.73784e-07
-0.00142706
-3.94294e-05
-4.94255e-07
-0.00141983
-4.47339e-05
-2.40076e-06
-0.00140882
-4.3491e-05
-5.03976e-06
-0.0013925
-7.89648e-06
-0.001373
-2.87086e-05
1.65233e-05
1.79321e-06
-0.00171964
6.2282e-06
2.58583e-06
-0.0017227
-4.1304e-06
2.91302e-06
-0.00172388
-1.46898e-05
2.8441e-06
-0.0017232
-2.54949e-05
2.32541e-06
-0.00172039
-3.6457e-05
1.31497e-06
-0.00171489
-4.71085e-05
-3.23278e-07
-0.0017055
-5.58656e-05
-2.68176e-06
-0.00169031
-5.78763e-05
-6.18261e-06
-0.00166564
-1.01775e-05
-0.00163379
-4.28865e-05
1.82753e-05
2.13522e-06
-0.0020101
7.19438e-06
3.02276e-06
-0.00201387
-3.91906e-06
3.40173e-06
-0.00201549
-1.53412e-05
3.35349e-06
-0.00201497
-2.73091e-05
2.81754e-06
-0.00201198
-3.9984e-05
1.74259e-06
-0.00200581
-5.32033e-05
-7.20942e-08
-0.00199463
-6.56001e-05
-2.7724e-06
-0.00197545
-7.19287e-05
-7.05933e-06
-0.0019415
-1.21967e-05
-0.00189465
-5.86323e-05
1.9509e-05
2.36298e-06
-0.00229936
7.87776e-06
3.29575e-06
-0.00230387
-3.7285e-06
3.67969e-06
-0.0023059
-1.5712e-05
3.62758e-06
-0.00230558
-2.84863e-05
3.07652e-06
-0.00230251
-4.24884e-05
1.97885e-06
-0.0022959
-5.79581e-05
9.02578e-08
-0.00228331
-7.39582e-05
-2.78735e-06
-0.00226057
-8.55289e-05
-7.61122e-06
-0.002217
-1.37706e-05
-0.00215326
-7.58064e-05
2.02664e-05
2.40248e-06
-0.00258897
8.39945e-06
3.24289e-06
-0.00259421
-3.39658e-06
3.57253e-06
-0.00259673
-1.56021e-05
3.47169e-06
-0.0025967
-2.88185e-05
2.91795e-06
-0.00259369
-4.37425e-05
1.85355e-06
-0.00258688
-6.1075e-05
1.87159e-08
-0.00257326
-8.04492e-05
-2.86994e-06
-0.00254752
-9.78731e-05
-7.85837e-06
-0.00249453
-1.48995e-05
-0.00241261
-9.31382e-05
2.0247e-05
2.10879e-06
-0.00287899
8.27713e-06
2.75652e-06
-0.00288494
-3.51022e-06
2.95908e-06
-0.00288767
-1.56805e-05
2.78129e-06
-0.00288756
-2.89477e-05
2.22114e-06
-0.0028842
-4.42579e-05
1.22399e-06
-0.00287689
-6.28388e-05
-4.03571e-07
-0.00286232
-8.50389e-05
-3.02267e-06
-0.00283425
-0.000108511
-7.33248e-06
-0.00277275
-1.48323e-05
-0.00267203
-0.000110099
1.96997e-05
1.19833e-06
-0.00316585
8.12434e-06
1.40363e-06
-0.00317241
-3.22432e-06
1.38847e-06
-0.00317555
-1.49123e-05
9.98235e-07
-0.00317564
-2.77925e-05
3.4484e-07
-0.00317229
-4.30442e-05
-6.08587e-07
-0.00316476
-6.25173e-05
-1.89604e-06
-0.00314944
-8.76707e-05
-3.75273e-06
-0.00311999
-0.000117056
-6.49628e-06
-0.00305139
-1.22162e-05
-0.00292915
-0.000126655
1.86122e-05
-0.00343389
7.07629e-06
-0.00344033
-4.0533e-06
-0.00344269
-1.54464e-05
-0.00344091
-2.78725e-05
-0.00343476
-4.25508e-05
-0.00342366
-6.1432e-05
-0.00340418
-8.70679e-05
-0.00336993
-0.000119686
-0.00329493
-0.00315496
-0.000139414
6.8493e-06
4.22225e-07
-0.000846187
2.57488e-06
6.52781e-07
-0.000847302
-1.89868e-06
7.43494e-07
-0.000847663
-6.24098e-06
6.8119e-07
-0.000847445
-1.01073e-05
4.69389e-07
-0.000846695
-1.30928e-05
1.07186e-07
-0.000845425
-1.47038e-05
-3.97004e-07
-0.00084366
-1.43362e-05
-1.02188e-06
-0.00084147
-1.13197e-05
-1.72172e-06
-0.000838993
-2.32989e-06
-0.000836477
-5.36415e-06
9.38736e-06
8.18614e-07
-0.00113555
3.29759e-06
1.25819e-06
-0.00113707
-2.9683e-06
1.42494e-06
-0.00113761
-9.13035e-06
1.32591e-06
-0.00113717
-1.48461e-05
9.49645e-07
-0.00113573
-1.96458e-05
2.89457e-07
-0.00113321
-2.2814e-05
-6.59727e-07
-0.00112955
-2.32472e-05
-1.87604e-06
-0.00112473
-1.92823e-05
-3.31632e-06
-0.0011189
-4.6347e-06
-0.00111321
-9.76442e-06
1.2457e-05
1.18319e-06
-0.00142416
4.59247e-06
1.79126e-06
-0.00142638
-3.40523e-06
2.02437e-06
-0.00142717
-1.13531e-05
1.9082e-06
-0.00142653
-1.89761e-05
1.41171e-06
-0.00142436
-2.58019e-05
5.10341e-07
-0.00142045
-3.09543e-05
-8.42233e-07
-0.0014145
-3.28545e-05
-2.64828e-06
-0.00140615
-2.8615e-05
-4.9278e-06
-0.00139513
-7.14363e-06
-0.00138372
-1.53869e-05
1.48928e-05
1.528e-06
-0.00171095
5.6413e-06
2.33356e-06
-0.00171399
-3.74948e-06
2.65904e-06
-0.00171513
-1.32132e-05
2.56174e-06
-0.00171439
-2.25858e-05
1.99296e-06
-0.0017116
-3.15015e-05
9.172e-07
-0.00170638
-3.90679e-05
-7.68152e-07
-0.00169801
-4.33528e-05
-3.10527e-06
-0.00168557
-4.00349e-05
-6.27408e-06
-0.00166761
-9.54102e-06
-0.00164758
-2.38451e-05
1.69761e-05
1.91305e-06
-0.00200018
6.66985e-06
2.82684e-06
-0.00200406
-3.74175e-06
3.20857e-06
-0.00200563
-1.43359e-05
3.12569e-06
-0.00200494
-2.51189e-05
2.52036e-06
-0.00200173
-3.59133e-05
1.34186e-06
-0.00199544
-4.59409e-05
-5.80666e-07
-0.00198479
-5.30701e-05
-3.35011e-06
-0.00196808
-5.16633e-05
-7.38066e-06
-0.0019418
-1.17745e-05
-0.00191044
-3.36425e-05
1.85203e-05
2.20128e-06
-0.00228838
7.4343e-06
3.17048e-06
-0.00229313
-3.69947e-06
3.56274e-06
-0.00229512
-1.51021e-05
3.47945e-06
-0.00229453
-2.69509e-05
2.8553e-06
-0.00229099
-3.93119e-05
1.63626e-06
-0.00228383
-5.16589e-05
-4.03149e-07
-0.00227114
-6.18733e-05
-3.43571e-06
-0.00225027
-6.33714e-05
-8.12584e-06
-0.00221475
-1.35917e-05
-0.0021698
-4.50123e-05
1.95145e-05
2.29789e-06
-0.00257715
8.01141e-06
3.18051e-06
-0.00258272
-3.48874e-06
3.52516e-06
-0.0025852
-1.5312e-05
3.40376e-06
-0.0025848
-2.7829e-05
2.78615e-06
-0.0025811
-4.13639e-05
1.60578e-06
-0.00257331
-5.57435e-05
-3.9231e-07
-0.00255889
-6.90389e-05
-3.48259e-06
-0.00253418
-7.42205e-05
-8.48971e-06
-0.00248898
-1.49543e-05
-0.0024286
-5.68619e-05
1.96979e-05
2.04344e-06
-0.00286644
7.98657e-06
2.73465e-06
-0.00287279
-3.6141e-06
2.96309e-06
-0.00287551
-1.55425e-05
2.79613e-06
-0.00287502
-2.82951e-05
2.21505e-06
-0.00287088
-4.24502e-05
1.15662e-06
-0.00286228
-5.83082e-05
-5.91119e-07
-0.00284626
-7.43936e-05
-3.41033e-06
-0.00281824
-8.38757e-05
-7.91255e-06
-0.00276384
-1.50093e-05
-0.0026868
-6.90534e-05
1.92756e-05
1.19832e-06
-0.00315276
7.87193e-06
1.43218e-06
-0.0031597
-3.38224e-06
1.4739e-06
-0.0031628
-1.4934e-05
1.15274e-06
-0.00316244
-2.74274e-05
5.69609e-07
-0.00315815
-4.16475e-05
-3.28193e-07
-0.00314905
-5.83926e-05
-1.60751e-06
-0.00313168
-7.72909e-05
-3.53898e-06
-0.00310096
-9.15654e-05
-6.47589e-06
-0.00303855
-1.20785e-05
-0.00294215
-8.1492e-05
1.82972e-05
-0.00342071
7.00684e-06
-0.0034276
-3.96191e-06
-0.00343025
-1.51858e-05
-0.00342853
-2.72585e-05
-0.00342212
-4.10505e-05
-0.00341019
-5.7507e-05
-0.00338933
-7.70939e-05
-0.00335388
-9.41568e-05
-0.00328434
-0.00317034
-9.08624e-05
4.8166e-06
2.49231e-07
-0.000843927
1.84276e-06
4.53886e-07
-0.000844782
-1.31448e-06
5.38265e-07
-0.000845044
-4.34614e-06
4.8376e-07
-0.000844897
-6.94554e-06
2.97769e-07
-0.000844393
-8.79004e-06
-1.47129e-08
-0.000843566
-9.55043e-06
-4.35396e-07
-0.000842464
-8.91219e-06
-9.323e-07
-0.000841176
-6.64609e-06
-1.449e-06
-0.00083981
-1.86732e-06
-0.00083841
-2.84616e-06
7.16965e-06
5.17498e-07
-0.00113172
2.51967e-06
9.25651e-07
-0.0011329
-2.3222e-06
1.08372e-06
-0.00113331
-7.02451e-06
9.90559e-07
-0.00113298
-1.12146e-05
6.40289e-07
-0.00113188
-1.4451e-05
3.74062e-08
-0.00113003
-1.61745e-05
-8.01555e-07
-0.00112746
-1.57044e-05
-1.82825e-06
-0.00112431
-1.22594e-05
-2.9542e-06
-0.00112083
-3.90997e-06
-0.00111778
-5.6523e-06
1.03357e-05
8.44091e-07
-0.00141852
3.87021e-06
1.42516e-06
-0.00142041
-2.77353e-06
1.64747e-06
-0.00142109
-9.29037e-06
1.52409e-06
-0.00142054
-1.53065e-05
1.03089e-06
-0.00141873
-2.03018e-05
1.57737e-07
-0.00141558
-2.34789e-05
-1.10749e-06
-0.00141101
-2.36628e-05
-2.72523e-06
-0.00140506
-1.91481e-05
-4.61612e-06
-0.00139799
-6.31604e-06
-0.00139137
-9.09185e-06
1.29555e-05
1.19461e-06
-0.00170378
4.95067e-06
1.99084e-06
-0.00170656
-3.25897e-06
2.30794e-06
-0.00170758
-1.14335e-05
2.18975e-06
-0.00170688
-1.92457e-05
1.5958e-06
-0.00170435
-2.61808e-05
5.04454e-07
-0.00169979
-3.12796e-05
-1.14273e-06
-0.00169287
-3.28888e-05
-3.33482e-06
-0.00168335
-2.80264e-05
-6.07804e-06
-0.00167101
-8.68908e-06
-0.00165869
-1.45478e-05
1.52861e-05
1.60401e-06
-0.00199163
6.01867e-06
2.52476e-06
-0.00199532
-3.42646e-06
2.90311e-06
-0.00199678
-1.29297e-05
2.79052e-06
-0.00199604
-2.22865e-05
2.13594e-06
-0.00199291
-3.10792e-05
8.98238e-07
-0.00198704
-3.82938e-05
-1.0458e-06
-0.00197767
-4.18784e-05
-3.73927e-06
-0.00196409
-3.74009e-05
-7.34963e-06
-0.001945
-1.09892e-05
-0.00192466
-2.08771e-05
1.71043e-05
1.94265e-06
-0.00227862
6.85176e-06
2.93346e-06
-0.00228328
-3.52703e-06
3.32875e-06
-0.00228517
-1.40525e-05
3.21603e-06
-0.00228443
-2.46625e-05
2.53237e-06
-0.00228078
-3.51109e-05
1.2269e-06
-0.00227371
-4.44667e-05
-8.83523e-07
-0.00226194
-5.04437e-05
-3.91628e-06
-0.00224412
-4.72168e-05
-8.24215e-06
-0.00221709
-1.29119e-05
-0.00218657
-2.85225e-05
1.83295e-05
2.10151e-06
-0.00256637
7.48062e-06
3.01701e-06
-0.00257195
-3.44397e-06
3.37299e-06
-0.00257432
-1.4581e-05
3.23131e-06
-0.00257368
-2.60491e-05
2.55805e-06
-0.00256966
-3.78158e-05
1.28561e-06
-0.0025616
-4.91493e-05
-8.11484e-07
-0.00254763
-5.76892e-05
-3.95455e-06
-0.0025256
-5.64492e-05
-8.69242e-06
-0.00248977
-1.43539e-05
-0.00244712
-3.64918e-05
1.8735e-05
1.89227e-06
-0.00285479
7.55669e-06
2.62377e-06
-0.00286122
-3.59549e-06
2.87353e-06
-0.00286386
-1.49919e-05
2.71218e-06
-0.00286311
-2.6881e-05
2.10791e-06
-0.00285854
-3.94567e-05
9.95868e-07
-0.00284942
-5.23278e-05
-8.2896e-07
-0.00283337
-6.33425e-05
-3.71205e-06
-0.00280747
-6.48667e-05
-8.10003e-06
-0.00276291
-1.44371e-05
-0.0027066
-4.49837e-05
1.84702e-05
1.1426e-06
-0.00314047
7.49426e-06
1.40345e-06
-0.00314751
-3.42279e-06
1.49353e-06
-0.00315051
-1.45674e-05
1.22686e-06
-0.00314981
-2.63498e-05
6.95171e-07
-0.00314496
-3.91556e-05
-1.65411e-07
-0.00313509
-5.29374e-05
-1.43916e-06
-0.00311728
-6.63052e-05
-3.37953e-06
-0.00308793
-7.12662e-05
-6.28956e-06
-0.0030354
-1.12884e-05
-0.00296295
-5.36214e-05
1.76292e-05
-0.00340833
6.79605e-06
-0.00341537
-3.81115e-06
-0.00341815
-1.46357e-05
-0.00341648
-2.60664e-05
-0.00340999
-3.86052e-05
-0.00339782
-5.23918e-05
-0.00337698
-6.65687e-05
-0.00334308
-7.37016e-05
-0.0032835
-0.00319574
-5.95869e-05
3.29119e-06
1.05343e-07
-0.000842401
1.28826e-06
2.77077e-07
-0.000843056
-8.66299e-07
3.51953e-07
-0.000843241
-2.92006e-06
3.073e-07
-0.000843151
-4.63253e-06
1.53139e-07
-0.000842834
-5.77059e-06
-1.02501e-07
-0.000842325
-6.12997e-06
-4.37028e-07
-0.000841667
-5.55939e-06
-8.1715e-07
-0.000840929
-4.01154e-06
-1.19083e-06
-0.000840167
-1.47697e-06
-0.000839299
-1.64592e-06
5.24961e-06
2.41521e-07
-0.00112896
1.83177e-06
6.02654e-07
-0.0011298
-1.76675e-06
7.46219e-07
-0.00113011
-5.22917e-06
6.64267e-07
-0.00112987
-8.21468e-06
3.55415e-07
-0.00112909
-1.036e-05
-1.67541e-07
-0.00112782
-1.12715e-05
-8.7453e-07
-0.00112611
-1.05669e-05
-1.70587e-06
-0.00112412
-7.94688e-06
-2.56478e-06
-0.00112208
-3.25504e-06
-0.00112041
-3.53742e-06
8.28649e-06
5.03087e-07
-0.00141422
3.15726e-06
1.03459e-06
-0.00141571
-2.16708e-06
1.2387e-06
-0.00141626
-7.33147e-06
1.11689e-06
-0.00141583
-1.19352e-05
6.51672e-07
-0.00141442
-1.54919e-05
-1.53061e-07
-0.00141204
-1.73733e-05
-1.2814e-06
-0.00140872
-1.68214e-05
-2.66531e-06
-0.00140466
-1.29838e-05
-4.18151e-06
-0.00140021
-5.47267e-06
-0.00139635
-5.77839e-06
1.09024e-05
8.28226e-07
-0.00169807
4.21167e-06
1.58974e-06
-0.00170042
-2.72677e-06
1.89061e-06
-0.00170129
-9.56019e-06
1.76136e-06
-0.00170069
-1.58688e-05
1.17119e-06
-0.00169856
-2.10946e-05
1.15252e-07
-0.00169484
-2.43887e-05
-1.42155e-06
-0.00168944
-2.45475e-05
-3.38335e-06
-0.00168247
-1.98167e-05
-5.67208e-06
-0.00167425
-7.7269e-06
-0.00166671
-9.54291e-06
1.33516e-05
1.23679e-06
-0.0019845
5.2829e-06
2.13923e-06
-0.00198781
-3.02165e-06
2.50623e-06
-0.00198909
-1.12865e-05
2.37259e-06
-0.00198838
-1.91556e-05
1.69695e-06
-0.00198557
-2.60805e-05
4.54104e-07
-0.00198045
-3.10479e-05
-1.42573e-06
-0.0019727
-3.24077e-05
-3.92525e-06
-0.00196219
-2.72162e-05
-7.03432e-06
-0.00194883
-9.98593e-06
-0.00193579
-1.38237e-05
1.53637e-05
1.60734e-06
-0.00227023
6.16037e-06
2.59765e-06
-0.00227454
-3.24058e-06
2.98853e-06
-0.00227625
-1.26785e-05
2.85216e-06
-0.00227547
-2.18949e-05
2.1323e-06
-0.002272
-3.04295e-05
7.89871e-07
-0.00226551
-3.72148e-05
-1.30253e-06
-0.00225528
-4.02461e-05
-4.19497e-06
-0.00224082
-3.52538e-05
-8.01673e-06
-0.0022211
-1.18984e-05
-0.00220075
-1.91598e-05
1.67768e-05
1.82508e-06
-0.00255686
6.82714e-06
2.75681e-06
-0.00256216
-3.27656e-06
3.11811e-06
-0.00256434
-1.3482e-05
2.95958e-06
-0.00256358
-2.36819e-05
2.24803e-06
-0.00255957
-3.35633e-05
9.23654e-07
-0.00255185
-4.21067e-05
-1.1915e-06
-0.00253919
-4.70722e-05
-4.24047e-06
-0.00252059
-4.28744e-05
-8.51189e-06
-0.00249348
-1.32831e-05
-0.00246404
-2.45721e-05
1.73976e-05
1.66045e-06
-0.00284429
6.99944e-06
2.42271e-06
-0.00285048
-3.45978e-06
2.68753e-06
-0.00285297
-1.40698e-05
2.52911e-06
-0.00285207
-2.48437e-05
1.90688e-06
-0.00284742
-3.56484e-05
7.62134e-07
-0.00283845
-4.56557e-05
-1.08218e-06
-0.00282347
-5.26189e-05
-3.89168e-06
-0.00280085
-4.99939e-05
-7.91956e-06
-0.00276613
-1.32864e-05
-0.00272609
-3.04988e-05
1.73025e-05
1.03117e-06
-0.00312924
6.99523e-06
1.3137e-06
-0.00313609
-3.34807e-06
1.44295e-06
-0.00313892
-1.38342e-05
1.21833e-06
-0.00313802
-2.46443e-05
7.25125e-07
-0.00313297
-3.58157e-05
-1.05146e-07
-0.00312305
-4.67393e-05
-1.35991e-06
-0.00310608
-5.55532e-05
-3.24006e-06
-0.00307976
-5.51216e-05
-5.95597e-06
-0.00303779
-1.01079e-05
-0.0029851
-3.61456e-05
1.66197e-05
-0.00339699
6.44783e-06
-0.00340388
-3.59652e-06
-0.00340666
-1.38011e-05
-0.00340506
-2.4346e-05
-0.00339872
-3.53949e-05
-0.00338687
-4.65292e-05
-0.0033672
-5.61831e-05
-0.00333667
-5.73807e-05
-0.00328826
-0.00322353
-3.96952e-05
2.2121e-06
-3.11287e-09
-0.000841357
8.9378e-07
1.34705e-07
-0.000841873
-5.42794e-07
1.98966e-07
-0.000842004
-1.90612e-06
1.64394e-07
-0.000841952
-3.02091e-06
4.26104e-08
-0.000841762
-3.7271e-06
-1.57703e-07
-0.000841461
-3.90081e-06
-4.1388e-07
-0.00084108
-3.47135e-06
-6.96387e-07
-0.000840662
-2.44963e-06
-9.62732e-07
-0.000840226
-1.15785e-06
-0.000839621
-9.69694e-07
3.69488e-06
9.97719e-09
-0.00112697
1.26161e-06
3.16053e-07
-0.00112755
-1.32547e-06
4.41604e-07
-0.00112777
-3.7989e-06
3.73866e-07
-0.00112761
-5.87755e-06
1.14541e-07
-0.00112709
-7.285e-06
-3.19142e-07
-0.00112625
-7.75952e-06
-8.91488e-07
-0.00112516
-7.09771e-06
-1.54234e-06
-0.00112394
-5.21344e-06
-2.184e-06
-0.00112274
-2.67687e-06
-0.00112181
-2.29092e-06
6.45121e-06
1.89771e-07
-0.00141099
2.50371e-06
6.54457e-07
-0.0014121
-1.63013e-06
8.34333e-07
-0.00141252
-5.60331e-06
7.21235e-07
-0.00141221
-9.04123e-06
3.02986e-07
-0.00141117
-1.15316e-05
-4.06278e-07
-0.00140946
-1.26153e-05
-1.37211e-06
-0.00140716
-1.1836e-05
-2.51358e-06
-0.00140447
-8.82677e-06
-3.69794e-06
-0.0014017
-4.66304e-06
-0.00139945
-3.7483e-06
8.89501e-06
4.62917e-07
-0.00169363
3.47694e-06
1.16569e-06
-0.00169551
-2.20459e-06
1.44255e-06
-0.00169622
-7.7485e-06
1.31204e-06
-0.00169574
-1.27097e-05
7.52769e-07
-0.00169405
-1.65611e-05
-2.24484e-07
-0.00169117
-1.86222e-05
-1.60083e-06
-0.00168715
-1.80894e-05
-3.29005e-06
-0.00168223
-1.4049e-05
-5.14394e-06
-0.00167685
-6.72948e-06
-0.00167224
-6.45423e-06
1.13221e-05
8.43902e-07
-0.00197874
4.50974e-06
1.70056e-06
-0.00198153
-2.5733e-06
2.04729e-06
-0.00198261
-9.55344e-06
1.90289e-06
-0.00198199
-1.59929e-05
1.23678e-06
-0.00197961
-2.13086e-05
4.18926e-08
-0.00197541
-2.46109e-05
-1.70284e-06
-0.0019693
-2.46941e-05
-3.93076e-06
-0.00196147
-1.98216e-05
-6.52167e-06
-0.00195233
-8.86231e-06
-0.00194402
-9.45945e-06
1.34224e-05
1.22291e-06
-0.00226321
5.39903e-06
2.18575e-06
-0.002267
-2.87516e-06
2.56312e-06
-0.00226849
-1.11023e-05
2.41153e-06
-0.00226775
-1.88921e-05
1.68425e-06
-0.00226466
-2.56756e-05
3.59292e-07
-0.00225904
-3.0426e-05
-1.633e-06
-0.0022506
-3.1561e-05
-4.27872e-06
-0.00223933
-2.63134e-05
-7.53381e-06
-0.00222533
-1.06749e-05
-0.00221191
-1.33421e-05
1.49514e-05
1.48843e-06
-0.00254872
6.08061e-06
2.41361e-06
-0.00255352
-3.01042e-06
2.77212e-06
-0.00255546
-1.21083e-05
2.60267e-06
-0.00255467
-2.09327e-05
1.87652e-06
-0.00255094
-2.89926e-05
5.48771e-07
-0.00254398
-3.51964e-05
-1.50333e-06
-0.00253312
-3.76532e-05
-4.33882e-06
-0.00251807
-3.24453e-05
-8.03672e-06
-0.00249818
-1.1915e-05
-0.00247816
-1.70817e-05
1.57565e-05
1.36084e-06
-0.00283507
6.33717e-06
2.13821e-06
-0.00284079
-3.22215e-06
2.41027e-06
-0.00284305
-1.28437e-05
2.25469e-06
-0.0028421
-2.23456e-05
1.6265e-06
-0.00283767
-3.13614e-05
4.79877e-07
-0.00282936
-3.88681e-05
-1.32178e-06
-0.00281615
-4.28146e-05
-3.9491e-06
-0.00279729
-3.83438e-05
-7.47333e-06
-0.00277116
-1.1802e-05
-0.00274323
-2.13157e-05
1.5822e-05
8.69616e-07
-0.00311928
6.38937e-06