/*--------------------------------*- C++ -*----------------------------------*\
| =========                 |                                                 |
| \\      /  F ield         | foam-extend: Open Source CFD                    |
|  \\    /   O peration     | Version:     4.0                                |
|   \\  /    A nd           | Web:         http://www.foam-extend.org         |
|    \\/     M anipulation  |                                                 |
\*---------------------------------------------------------------------------*/
FoamFile
{
    version     2.0;
    format      ascii;
    class       volScalarField;
    location    "1900";
    object      T;
}
// * * * * * * * * * * * * * * * * * * * * * * * * * * * * * * * * * * * * * //

dimensions      [0 0 0 1 0 0 0];

internalField   nonuniform List<scalar> 
34480
(
278.809
278.698
278.617
278.563
278.53
278.521
278.536
278.621
278.893
278.859
278.257
278.139
278.046
277.979
277.946
277.949
277.974
278.019
278.236
277.792
278.146
278.014
277.909
277.834
277.797
277.784
277.765
277.712
277.84
277.064
278.187
278.034
277.906
277.804
277.731
277.668
277.584
277.426
277.432
276.309
278.201
278.023
277.866
277.731
277.617
277.498
277.345
277.075
276.926
275.447
278.269
278.069
277.888
277.727
277.579
277.409
277.189
276.805
276.47
274.607
278.296
278.07
277.866
277.68
277.5
277.286
277.003
276.506
275.96
273.71
278.368
278.12
277.903
277.708
277.521
277.291
276.975
276.393
275.638
272.969
278.425
278.157
277.921
277.708
277.496
277.239
276.88
276.215
275.25
272.226
279.241
278.961
278.757
278.615
278.511
278.39
278.181
277.655
276.65
273.195
279.343
279.25
279.213
279.229
279.302
279.449
279.709
280.166
280.835
281.705
278.692
278.608
278.575
278.592
278.673
278.84
279.131
279.629
280.422
281.443
278.486
278.408
278.379
278.399
278.486
278.658
278.947
279.437
280.287
281.404
278.434
278.355
278.321
278.333
278.406
278.557
278.821
279.287
280.167
281.331
278.36
278.276
278.234
278.233
278.287
278.409
278.641
279.068
279.949
281.127
278.351
278.264
278.217
278.206
278.245
278.34
278.538
278.917
279.769
280.924
278.308
278.214
278.161
278.141
278.166
278.237
278.401
278.726
279.526
280.64
278.326
278.23
278.179
278.165
278.192
278.259
278.404
278.683
279.409
280.433
278.342
278.239
278.182
278.159
278.175
278.226
278.345
278.577
279.223
280.167
279.107
279.017
278.995
279.039
279.142
279.296
279.516
279.821
280.417
281.086
279.816
279.718
279.682
279.702
279.78
279.926
280.157
280.503
281.002
281.626
279.159
279.062
279.026
279.05
279.141
279.316
279.605
280.061
280.769
281.697
278.939
278.84
278.805
278.83
278.926
279.113
279.43
279.946
280.817
282.031
278.855
278.753
278.712
278.73
278.818
278.997
279.316
279.86
280.867
282.332
278.752
278.643
278.596
278.602
278.675
278.836
279.141
279.688
280.792
282.464
278.716
278.604
278.551
278.548
278.609
278.749
279.033
279.565
280.727
282.552
278.651
278.532
278.474
278.462
278.509
278.629
278.887
279.391
280.579
282.518
278.649
278.529
278.471
278.463
278.512
278.626
278.867
279.337
280.514
282.513
278.648
278.524
278.462
278.447
278.488
278.589
278.807
279.236
280.376
282.454
279.38
279.269
279.233
279.267
279.373
279.548
279.833
280.301
281.385
283.383
280.155
280.069
280.039
280.059
280.127
280.248
280.426
280.667
280.972
281.311
279.527
279.434
279.402
279.428
279.516
279.676
279.922
280.275
280.76
281.308
279.317
279.216
279.181
279.209
279.308
279.491
279.785
280.226
280.882
281.674
279.221
279.112
279.071
279.095
279.194
279.384
279.704
280.209
281.029
282.078
279.102
278.984
278.937
278.952
279.043
279.227
279.555
280.099
281.06
282.351
279.048
278.924
278.872
278.88
278.963
279.137
279.462
280.024
281.097
282.598
278.966
278.836
278.778
278.778
278.852
279.012
279.326
279.89
281.045
282.728
278.948
278.817
278.759
278.762
278.836
278.993
279.299
279.852
281.051
282.871
278.933
278.799
278.738
278.735
278.803
278.951
279.246
279.779
280.983
282.951
279.632
279.509
279.467
279.499
279.611
279.81
280.148
280.71
281.884
283.884
280.385
280.317
280.295
280.31
280.36
280.446
280.566
280.715
280.884
281.051
279.803
279.726
279.699
279.721
279.795
279.923
280.109
280.355
280.655
280.95
279.623
279.53
279.498
279.525
279.614
279.774
280.016
280.354
280.803
281.27
279.533
279.426
279.387
279.413
279.509
279.689
279.974
280.392
280.996
281.671
279.411
279.292
279.247
279.267
279.363
279.55
279.862
280.341
281.093
281.983
279.35
279.222
279.171
279.186
279.28
279.467
279.794
280.316
281.2
282.299
279.259
279.124
279.067
279.076
279.164
279.346
279.678
280.226
281.221
282.516
279.23
279.093
279.035
279.046
279.135
279.318
279.652
280.213
281.286
282.75
279.203
279.064
279.004
279.011
279.096
279.273
279.605
280.168
281.282
282.927
279.871
279.741
279.694
279.725
279.84
280.051
280.412
281
282.115
283.856
280.536
280.487
280.471
280.481
280.515
280.571
280.646
280.734
280.827
280.916
280.005
279.946
279.925
279.942
279.998
280.092
280.223
280.385
280.564
280.724
279.862
279.783
279.756
279.778
279.853
279.981
280.167
280.409
280.699
280.972
279.787
279.69
279.655
279.679
279.766
279.922
280.158
280.481
280.899
281.318
279.674
279.562
279.52
279.542
279.635
279.808
280.082
280.474
281.024
281.609
279.614
279.491
279.442
279.461
279.557
279.74
280.042
280.491
281.169
281.927
279.522
279.388
279.334
279.349
279.443
279.63
279.95
280.442
281.236
282.168
279.487
279.35
279.295
279.311
279.408
279.6
279.933
280.455
281.34
282.434
279.453
279.313
279.256
279.269
279.364
279.555
279.892
280.434
281.38
282.652
280.089
279.958
279.909
279.938
280.054
280.268
280.627
281.193
282.16
283.546
280.636
280.599
280.588
280.595
280.616
280.651
280.696
280.746
280.797
280.848
280.15
280.107
280.092
280.104
280.144
280.209
280.296
280.399
280.504
280.59
280.043
279.981
279.959
279.976
280.034
280.131
280.267
280.432
280.615
280.773
279.987
279.906
279.876
279.897
279.97
280.097
280.281
280.518
280.798
281.055
279.891
279.792
279.755
279.776
279.859
280.009
280.235
280.54
280.927
281.304
279.838
279.726
279.682
279.702
279.792
279.959
280.221
280.587
281.085
281.594
279.75
279.625
279.576
279.593
279.686
279.864
280.152
280.57
281.174
281.825
279.716
279.585
279.533
279.552
279.65
279.837
280.146
280.604
281.299
282.088
279.677
279.543
279.489
279.506
279.604
279.793
280.114
280.601
281.363
282.304
280.283
280.156
280.107
280.136
280.247
280.454
280.791
281.303
282.098
283.143
280.7
280.673
280.666
280.67
280.683
280.703
280.729
280.757
280.786
280.818
280.254
280.225
280.214
280.222
280.249
280.292
280.347
280.41
280.472
280.52
280.178
280.132
280.115
280.128
280.171
280.24
280.334
280.444
280.558
280.65
280.142
280.077
280.053
280.07
280.127
280.226
280.363
280.53
280.714
280.872
280.065
279.982
279.951
279.969
280.039
280.162
280.34
280.567
280.833
281.074
280.024
279.925
279.887
279.906
279.986
280.13
280.346
280.632
280.987
281.325
279.943
279.831
279.787
279.805
279.891
280.051
280.298
280.636
281.081
281.528
279.913
279.794
279.747
279.767
279.859
280.032
280.303
280.686
281.212
281.768
279.872
279.748
279.699
279.718
279.812
279.991
280.278
280.693
281.284
281.958
280.45
280.332
280.286
280.312
280.416
280.607
280.91
281.35
281.976
282.734
280.743
280.722
280.717
280.719
280.726
280.738
280.753
280.768
280.785
280.808
280.329
280.31
280.303
280.308
280.325
280.352
280.386
280.424
280.46
280.487
280.279
280.246
280.234
280.243
280.273
280.321
280.384
280.455
280.525
280.579
280.259
280.21
280.191
280.204
280.247
280.32
280.418
280.533
280.652
280.749
280.201
280.135
280.11
280.124
280.18
280.277
280.411
280.576
280.755
280.909
280.173
280.091
280.059
280.076
280.143
280.261
280.432
280.647
280.895
281.118
280.102
280.006
279.968
279.985
280.06
280.196
280.398
280.663
280.983
281.285
280.08
279.975
279.934
279.954
280.036
280.187
280.415
280.722
281.109
281.494
280.038
279.928
279.885
279.903
279.99
280.149
280.395
280.734
281.178
281.65
280.589
280.484
280.441
280.465
280.559
280.728
280.988
281.351
281.828
282.36
280.77
280.753
280.749
280.75
280.755
280.761
280.769
280.778
280.788
280.806
280.384
280.372
280.367
280.37
280.381
280.397
280.418
280.441
280.462
280.478
280.354
280.332
280.324
280.33
280.35
280.382
280.422
280.467
280.51
280.542
280.346
280.31
280.296
280.305
280.337
280.389
280.457
280.534
280.61
280.67
280.306
280.255
280.236
280.247
280.29
280.362
280.461
280.576
280.695
280.793
280.29
280.225
280.199
280.213
280.267
280.36
280.49
280.647
280.818
280.963
280.229
280.15
280.119
280.133
280.196
280.307
280.466
280.666
280.892
281.094
280.218
280.129
280.095
280.112
280.183
280.309
280.493
280.73
281.009
281.271
280.175
280.081
280.044
280.061
280.136
280.272
280.474
280.742
281.066
281.39
280.699
280.609
280.572
280.593
280.674
280.818
281.033
281.321
281.674
282.038
280.787
280.772
280.77
280.77
280.772
280.776
280.781
280.786
280.792
280.807
280.425
280.418
280.415
280.416
280.423
280.433
280.445
280.459
280.471
280.48
280.412
280.397
280.392
280.395
280.408
280.429
280.455
280.483
280.509
280.528
280.41
280.385
280.375
280.381
280.403
280.439
280.485
280.536
280.584
280.621
280.386
280.348
280.334
280.342
280.374
280.426
280.496
280.575
280.653
280.715
280.381
280.331
280.311
280.322
280.363
280.434
280.529
280.641
280.756
280.851
280.329
280.265
280.241
280.253
280.303
280.39
280.511
280.657
280.814
280.948
280.328
280.257
280.229
280.243
280.301
280.403
280.546
280.724
280.92
281.096
280.285
280.207
280.176
280.191
280.254
280.365
280.525
280.729
280.961
281.179
280.782
280.708
280.677
280.694
280.762
280.88
281.052
281.273
281.527
281.77
280.796
280.783
280.781
280.781
280.782
280.784
280.787
280.79
280.794
280.807
280.457
280.452
280.45
280.451
280.455
280.461
280.468
280.476
280.484
280.489
280.457
280.447
280.444
280.446
280.454
280.467
280.483
280.5
280.516
280.527
280.457
280.44
280.433
280.437
280.452
280.476
280.506
280.539
280.57
280.592
280.446
280.419
280.409
280.415
280.437
280.474
280.522
280.575
280.626
280.664
280.449
280.412
280.397
280.405
280.436
280.488
280.556
280.634
280.711
280.771
280.404
280.355
280.336
280.346
280.384
280.45
280.539
280.644
280.751
280.838
280.416
280.36
280.338
280.35
280.396
280.474
280.582
280.711
280.847
280.963
280.37
280.307
280.283
280.295
280.346
280.433
280.556
280.706
280.869
281.013
280.841
280.781
280.756
280.77
280.825
280.918
281.05
281.214
281.394
281.553
280.798
280.786
280.785
280.785
280.786
280.787
280.788
280.79
280.793
280.805
280.481
280.478
280.476
280.477
280.479
280.483
280.487
280.492
280.497
280.5
280.493
280.487
280.485
280.487
280.492
280.5
280.509
280.519
280.529
280.535
280.491
280.48
280.475
280.478
280.487
280.503
280.522
280.543
280.563
280.577
280.491
280.472
280.465
280.469
280.485
280.51
280.542
280.577
280.609
280.633
280.5
280.473
280.463
280.469
280.491
280.527
280.575
280.627
280.678
280.716
280.46
280.423
280.409
280.416
280.445
280.493
280.556
280.629
280.701
280.758
280.485
280.443
280.426
280.435
280.47
280.529
280.607
280.699
280.791
280.866
280.433
280.385
280.366
280.376
280.415
280.481
280.572
280.68
280.791
280.886
280.877
280.832
280.812
280.823
280.865
280.937
281.035
281.153
281.277
281.378
280.796
280.785
280.784
280.784
280.784
280.785
280.786
280.787
280.789
280.8
280.499
280.497
280.495
280.496
280.497
280.499
280.502
280.505
280.508
280.511
280.523
280.52
280.519
280.52
280.523
280.528
280.533
280.539
280.544
280.548
280.516
280.508
280.505
280.506
280.512
280.522
280.535
280.548
280.56
280.569
280.524
280.512
280.507
280.51
280.52
280.537
280.558
280.58
280.601
280.615
280.537
280.519
280.511
280.515
280.531
280.556
280.588
280.623
280.655
280.68
280.5
280.474
280.464
280.469
280.489
280.523
280.567
280.616
280.663
280.7
280.538
280.508
280.496
280.503
280.528
280.57
280.626
280.689
280.75
280.798
280.478
280.442
280.428
280.435
280.464
280.512
280.577
280.652
280.727
280.788
280.894
280.862
280.847
280.855
280.887
280.939
281.01
281.093
281.176
281.239
280.789
280.78
280.779
280.779
280.779
280.779
280.78
280.78
280.782
280.792
280.511
280.509
280.508
280.508
280.509
280.51
280.512
280.514
280.516
280.519
280.55
280.548
280.548
280.549
280.55
280.553
280.556
280.56
280.562
280.564
280.532
280.527
280.525
280.526
280.53
280.536
280.544
280.552
280.56
280.565
280.549
280.541
280.538
280.54
280.547
280.557
280.571
280.585
280.597
280.606
280.563
280.551
280.546
280.549
280.559
280.576
280.597
280.619
280.64
280.655
280.528
280.51
280.503
280.506
280.52
280.543
280.573
280.605
280.636
280.659
280.581
280.56
280.551
280.556
280.574
280.603
280.641
280.683
280.723
280.753
280.507
280.481
280.471
280.476
280.496
280.531
280.576
280.626
280.676
280.715
280.898
280.875
280.864
280.87
280.893
280.93
280.98
281.036
281.09
281.128
280.781
280.773
280.772
280.772
280.772
280.772
280.772
280.773
280.774
280.783
280.516
280.515
280.514
280.514
280.514
280.515
280.516
280.518
280.52
280.522
280.575
280.574
280.574
280.574
280.575
280.577
280.579
280.58
280.582
280.582
280.543
280.54
280.538
280.539
280.541
280.545
280.55
280.555
280.559
280.563
280.567
280.562
280.56
280.561
280.566
280.572
280.58
280.589
280.597
280.602
280.581
280.573
280.569
280.571
280.578
280.588
280.602
280.616
280.63
280.639
280.546
280.535
280.53
280.532
280.542
280.557
280.576
280.597
280.616
280.631
280.614
280.6
280.595
280.598
280.61
280.63
280.655
280.682
280.708
280.726
280.522
280.504
280.497
280.501
280.515
280.538
280.568
280.602
280.633
280.658
280.892
280.877
280.87
280.874
280.889
280.915
280.948
280.985
281.021
281.042
280.778
280.77
280.77
280.77
280.77
280.77
280.77
280.77
280.771
280.778
280.514
280.512
280.512
280.511
280.512
280.512
280.513
280.514
280.516
280.519
280.597
280.597
280.597
280.597
280.598
280.598
280.599
280.6
280.601
280.601
280.549
280.547
280.546
280.546
280.548
280.55
280.553
280.556
280.559
280.561
280.578
280.575
280.574
280.574
280.577
280.581
280.586
280.591
280.596
280.599
280.59
280.584
280.582
280.583
280.588
280.594
280.603
280.612
280.62
280.626
280.558
280.55
280.547
280.549
280.555
280.565
280.577
280.59
280.601
280.61
280.64
280.631
280.627
280.629
280.637
280.65
280.666
280.684
280.7
280.711
280.525
280.512
280.508
280.51
280.519
280.535
280.554
280.576
280.595
280.612
280.886
280.876
280.871
280.874
280.884
280.901
280.923
280.947
280.969
280.981
280.792
280.786
280.786
280.786
280.786
280.786
280.786
280.786
280.786
280.792
280.499
280.498
280.497
280.497
280.497
280.498
280.498
280.499
280.501
280.504
280.614
280.614
280.613
280.614
280.614
280.614
280.615
280.616
280.616
280.616
280.551
280.55
280.55
280.55
280.551
280.552
280.554
280.555
280.556
280.558
280.582
280.581
280.58
280.58
280.582
280.584
280.587
280.59
280.593
280.595
280.591
280.588
280.586
280.587
280.589
280.594
280.599
280.604
280.61
280.613
280.563
280.558
280.557
280.558
280.562
280.568
280.575
280.583
280.589
280.594
280.652
280.646
280.643
280.644
280.649
280.658
280.669
280.68
280.691
280.697
280.511
280.503
280.5
280.502
280.508
280.518
280.53
280.543
280.555
280.565
280.893
280.887
280.883
280.885
280.892
280.903
280.917
280.932
280.947
280.952
280.843
280.839
280.839
280.839
280.839
280.839
280.839
280.839
280.839
280.843
280.464
280.463
280.463
280.464
280.464
280.464
280.464
280.465
280.465
280.468
280.618
280.618
280.617
280.616
280.617
280.617
280.618
280.619
280.62
280.62
280.551
280.551
280.551
280.551
280.552
280.553
280.553
280.554
280.554
280.554
280.581
280.58
280.579
280.579
280.58
280.582
280.584
280.586
280.588
280.589
280.586
280.584
280.583
280.583
280.585
280.588
280.591
280.595
280.598
280.601
280.563
280.56
280.559
280.56
280.563
280.567
280.571
280.576
280.579
280.582
280.642
280.637
280.635
280.635
280.639
280.644
280.651
280.659
280.667
280.673
280.473
280.469
280.467
280.468
280.473
280.479
280.487
280.495
280.501
280.507
280.93
280.926
280.923
280.924
280.929
280.936
280.945
280.955
280.965
280.968
280.925
280.923
280.922
280.921
280.921
280.921
280.922
280.923
280.924
280.927
280.406
280.408
280.41
280.411
280.412
280.412
280.411
280.41
280.408
280.407
280.607
280.605
280.603
280.603
280.602
280.603
280.604
280.605
280.608
280.61
280.551
280.552
280.552
280.553
280.553
280.554
280.554
280.554
280.554
280.553
280.578
280.577
280.576
280.576
280.577
280.578
280.579
280.581
280.582
280.584
280.58
280.578
280.578
280.578
280.579
280.581
280.584
280.586
280.589
280.59
280.561
280.56
280.559
280.56
280.562
280.565
280.568
280.571
280.573
280.574
280.61
280.605
280.603
280.604
280.606
280.61
280.615
280.621
280.628
280.634
280.413
280.411
280.411
280.412
280.415
280.42
280.425
280.43
280.433
280.433
280.989
280.985
280.983
280.984
280.988
280.993
281
281.007
281.015
281.017
289.473
291.231
291.495
289.906
290.638
292.769
293.178
291.517
292.3
294.927
295.461
293.488
293.582
296.649
297.317
295.135
294.527
298.004
298.813
296.49
295.275
299.132
300.1
297.905
295.822
300.038
301.199
299.33
296.293
300.834
302.2
300.709
296.507
301.348
302.929
301.862
297.067
302.097
303.944
303.462
286.16
286.707
286.688
286.164
287.458
288.1
288.039
287.386
289.062
289.866
289.754
288.896
290.503
291.453
291.282
290.23
291.679
292.77
292.534
291.298
292.701
293.93
293.668
292.275
293.508
294.867
294.617
293.089
294.204
295.668
295.441
293.802
294.642
296.171
295.971
294.267
295.428
296.93
296.84
295.191
282.251
282.384
282.416
282.347
282.979
283.198
283.237
283.101
284.146
284.484
284.528
284.279
285.415
285.873
285.913
285.533
286.578
287.152
287.179
286.657
287.714
288.4
288.412
287.752
288.706
289.5
289.5
288.715
289.645
290.532
290.522
289.632
290.404
291.331
291.321
290.38
291.648
292.504
292.533
291.669
281.483
281.549
281.57
281.548
281.741
281.826
281.856
281.834
282.45
282.598
282.64
282.586
283.327
283.548
283.6
283.499
284.168
284.468
284.524
284.361
285.059
285.439
285.496
285.259
285.877
286.338
286.394
286.075
286.714
287.247
287.298
286.898
287.47
288.036
288.083
287.628
288.814
289.306
289.366
288.954
281.051
281.087
281.1
281.088
281.089
281.118
281.132
281.132
281.539
281.597
281.622
281.618
282.151
282.249
282.288
282.272
282.747
282.895
282.947
282.909
283.415
283.619
283.681
283.612
284.04
284.304
284.373
284.263
284.715
285.036
285.107
284.949
285.353
285.702
285.772
285.574
286.605
286.883
286.959
286.798
280.88
280.91
280.919
280.907
280.783
280.796
280.803
280.803
281.088
281.114
281.127
281.128
281.529
281.576
281.598
281.599
281.957
282.031
282.065
282.062
282.457
282.566
282.611
282.599
282.923
283.071
283.127
283.101
283.446
283.634
283.697
283.649
283.948
284.158
284.223
284.153
285.07
285.213
285.281
285.25
280.798
280.825
280.833
280.821
280.616
280.622
280.625
280.626
280.827
280.839
280.846
280.847
281.156
281.179
281.191
281.194
281.474
281.512
281.532
281.535
281.859
281.917
281.946
281.949
282.211
282.293
282.332
282.331
282.618
282.725
282.772
282.764
282.997
283.121
283.171
283.152
283.994
284.052
284.103
284.129
280.764
280.79
280.797
280.785
280.533
280.536
280.538
280.538
280.678
280.684
280.687
280.688
280.925
280.936
280.943
280.945
281.164
281.184
281.195
281.198
281.466
281.498
281.515
281.519
281.736
281.781
281.806
281.81
282.055
282.116
282.147
282.15
282.334
282.407
282.441
282.44
283.227
283.232
283.267
283.314
280.752
280.777
280.784
280.772
280.494
280.496
280.497
280.497
280.594
280.597
280.599
280.599
280.778
280.785
280.788
280.789
280.958
280.969
280.975
280.977
281.196
281.214
281.224
281.227
281.401
281.428
281.443
281.447
281.654
281.689
281.709
281.713
281.859
281.901
281.924
281.928
282.664
282.638
282.66
282.711
280.75
280.775
280.782
280.77
280.481
280.483
280.483
280.483
280.551
280.552
280.553
280.554
280.687
280.691
280.693
280.694
280.821
280.828
280.832
280.833
281.008
281.019
281.025
281.027
281.162
281.177
281.186
281.189
281.363
281.384
281.396
281.399
281.51
281.535
281.55
281.554
282.24
282.197
282.209
282.26
280.751
280.777
280.783
280.771
280.483
280.484
280.484
280.484
280.532
280.533
280.534
280.534
280.631
280.634
280.635
280.635
280.732
280.736
280.738
280.739
280.878
280.884
280.888
280.889
280.989
280.998
281.004
281.006
281.15
281.163
281.17
281.173
281.252
281.267
281.276
281.279
281.915
281.863
281.869
281.917
280.752
280.778
280.784
280.772
280.491
280.492
280.492
280.492
280.53
280.53
280.531
280.531
280.599
280.6
280.601
280.601
280.675
280.677
280.678
280.679
280.788
280.792
280.794
280.795
280.864
280.87
280.873
280.874
280.996
281.003
281.008
281.01
281.059
281.068
281.074
281.076
281.663
281.607
281.61
281.655
280.751
280.777
280.784
280.772
280.502
280.502
280.502
280.503
280.537
280.537
280.537
280.537
280.581
280.582
280.582
280.583
280.64
280.641
280.642
280.642
280.727
280.729
280.731
280.731
280.774
280.778
280.78
280.781
280.886
280.891
280.893
280.895
280.916
280.921
280.925
280.926
281.466
281.41
281.411
281.452
280.748
280.774
280.78
280.768
280.512
280.512
280.513
280.513
280.549
280.549
280.549
280.549
280.572
280.572
280.573
280.573
280.619
280.62
280.62
280.621
280.686
280.688
280.689
280.689
280.711
280.713
280.715
280.715
280.81
280.813
280.815
280.815
280.809
280.813
280.815
280.816
281.31
281.257
281.257
281.295
280.742
280.768
280.774
280.762
280.52
280.52
280.521
280.521
280.564
280.564
280.564
280.564
280.567
280.568
280.568
280.568
280.608
280.609
280.609
280.609
280.66
280.66
280.661
280.661
280.666
280.668
280.669
280.669
280.76
280.762
280.763
280.764
280.73
280.732
280.734
280.734
281.187
281.138
281.138
281.171
280.735
280.761
280.768
280.755
280.524
280.524
280.525
280.525
280.582
280.582
280.582
280.582
280.565
280.565
280.565
280.565
280.603
280.603
280.603
280.603
280.642
280.642
280.643
280.643
280.635
280.636
280.636
280.637
280.73
280.731
280.732
280.732
280.67
280.671
280.672
280.672
281.09
281.047
281.046
281.075
280.735
280.76
280.766
280.753
280.521
280.522
280.522
280.522
280.6
280.6
280.6
280.6
280.562
280.562
280.562
280.562
280.6
280.6
280.6
280.6
280.628
280.628
280.629
280.629
280.613
280.613
280.613
280.613
280.713
280.714
280.715
280.715
280.621
280.622
280.622
280.622
281.018
280.982
280.981
281.006
280.753
280.778
280.783
280.77
280.507
280.508
280.508
280.509
280.615
280.615
280.615
280.615
280.558
280.558
280.558
280.558
280.596
280.596
280.596
280.596
280.615
280.615
280.616
280.616
280.595
280.595
280.595
280.595
280.7
280.701
280.701
280.701
280.573
280.574
280.574
280.573
280.98
280.952
280.951
280.97
280.812
280.833
280.837
280.825
280.472
280.473
280.473
280.473
280.621
280.621
280.622
280.622
280.554
280.554
280.553
280.553
280.59
280.59
280.59
280.59
280.602
280.602
280.603
280.603
280.581
280.581
280.58
280.581
280.678
280.679
280.68
280.68
280.512
280.512
280.512
280.511
280.988
280.97
280.97
280.982
280.909
280.922
280.924
280.916
280.408
280.409
280.409
280.408
280.614
280.615
280.615
280.616
280.551
280.551
280.551
280.55
280.585
280.585
280.585
280.585
280.592
280.592
280.592
280.592
280.572
280.572
280.571
280.571
280.644
280.647
280.647
280.646
280.429
280.428
280.428
280.428
281.034
281.03
281.03
281.033
282.18
280.88
280.337
279.99
279.696
279.454
279.262
279.111
278.989
278.884
282.326
281.086
280.253
279.728
279.312
279.004
278.776
278.606
278.477
278.372
282.899
281.593
280.463
279.823
279.323
278.976
278.722
278.531
278.388
278.274
283.495
282.129
280.731
280.027
279.461
279.09
278.817
278.612
278.456
278.33
283.974
282.585
280.94
280.186
279.561
279.17
278.878
278.661
278.495
278.361
284.524
283.078
281.211
280.421
279.735
279.327
279.013
278.781
278.6
278.449
285.007
283.478
281.411
280.598
279.856
279.434
279.1
278.853
278.658
278.497
285.573
283.968
281.715
280.886
280.085
279.646
279.281
279.011
278.788
278.595
286.022
284.36
281.928
281.123
280.288
279.844
279.444
279.144
278.892
278.674
287.755
286.092
283.505
282.646
281.685
281.116
280.591
280.188
279.852
279.558
283.978
282.668
281.681
280.968
280.474
280.129
279.877
279.69
279.544
279.423
284.425
282.638
281.307
280.447
279.894
279.516
279.247
279.051
278.908
278.802
285.021
282.826
281.239
280.309
279.714
279.317
279.037
278.836
278.692
278.59
285.509
283.014
281.233
280.28
279.658
279.255
278.974
278.775
278.634
278.534
285.777
283.07
281.159
280.2
279.558
279.156
278.878
278.685
278.551
278.457
285.977
283.141
281.138
280.19
279.531
279.137
278.863
278.675
278.543
278.449
286.022
283.122
281.048
280.13
279.459
279.079
278.809
278.627
278.499
278.407
286.078
283.181
281.052
280.177
279.494
279.128
278.856
278.674
278.538
278.435
286.037
283.17
280.994
280.199
279.532
279.195
278.917
278.726
278.579
278.464
286.946
284.232
282.059
281.316
280.6
280.207
279.86
279.614
279.42
279.276
282.111
281.731
281.361
281.032
280.749
280.512
280.315
280.152
280.015
279.896
282.572
281.89
281.272
280.76
280.347
280.019
279.761
279.561
279.405
279.286
283.344
282.328
281.461
280.793
280.276
279.884
279.587
279.361
279.192
279.068
284.115
282.776
281.675
280.879
280.282
279.848
279.527
279.29
279.114
278.986
284.69
283.068
281.766
280.872
280.217
279.757
279.425
279.184
279.008
278.882
285.2
283.339
281.866
280.903
280.206
279.732
279.394
279.152
278.976
278.848
285.547
283.492
281.873
280.867
280.14
279.663
279.324
279.085
278.91
278.783
285.87
283.67
281.933
280.907
280.161
279.687
279.347
279.106
278.926
278.791
286.074
283.757
281.92
280.916
280.178
279.723
279.38
279.133
278.944
278.799
287.063
284.741
282.866
281.885
281.118
280.626
280.238
279.953
279.733
279.573
281.505
281.358
281.18
281
280.829
280.674
280.537
280.416
280.31
280.213
281.711
281.422
281.091
280.775
280.495
280.255
280.054
279.887
279.752
279.645
282.34
281.855
281.345
280.89
280.505
280.189
279.934
279.73
279.57
279.448
283.073
282.356
281.65
281.058
280.579
280.201
279.905
279.674
279.496
279.363
283.702
282.741
281.841
281.129
280.571
280.145
279.821
279.574
279.386
279.248
284.318
283.117
282.037
281.222
280.599
280.14
279.796
279.538
279.343
279.199
284.808
283.379
282.133
281.236
280.564
280.082
279.726
279.463
279.265
279.119
285.281
283.649
282.259
281.304
280.595
280.101
279.736
279.468
279.263
279.11
285.65
283.827
282.312
281.334
280.614
280.122
279.75
279.475
279.264
279.103
286.697
284.771
283.196
282.211
281.462
280.942
280.54
280.239
280.007
279.839
281.096
281.05
280.978
280.895
280.807
280.719
280.636
280.559
280.486
280.415
281.104
280.99
280.835
280.667
280.502
280.348
280.21
280.089
279.985
279.9
281.557
281.35
281.087
280.818
280.565
280.34
280.146
279.982
279.848
279.742
282.151
281.814
281.415
281.033
280.691
280.398
280.154
279.955
279.795
279.67
282.697
282.203
281.657
281.162
280.736
280.386
280.102
279.875
279.696
279.559
283.277
282.611
281.913
281.311
280.81
280.412
280.096
279.849
279.656
279.508
283.771
282.925
282.077
281.379
280.815
280.379
280.04
279.779
279.576
279.423
284.273
283.249
282.26
281.484
280.87
280.406
280.05
279.777
279.565
279.403
284.69
283.485
282.371
281.543
280.899
280.423
280.054
279.772
279.553
279.384
285.729
284.4
283.215
282.355
281.681
281.18
280.788
280.487
280.253
280.084
280.923
280.905
280.873
280.832
280.785
280.737
280.688
280.641
280.594
280.543
280.792
280.741
280.665
280.574
280.479
280.384
280.294
280.212
280.139
280.077
281.107
281.01
280.871
280.715
280.556
280.406
280.268
280.148
280.044
279.959
281.559
281.395
281.172
280.934
280.703
280.493
280.307
280.148
280.015
279.908
281.991
281.737
281.415
281.087
280.783
280.515
280.285
280.094
279.936
279.812
282.481
282.12
281.687
281.267
280.892
280.571
280.304
280.084
279.907
279.768
282.915
282.433
281.881
281.373
280.931
280.565
280.267
280.026
279.834
279.684
283.377
282.764
282.095
281.507
281.009
280.607
280.284
280.026
279.82
279.661
283.771
283.016
282.238
281.588
281.051
280.625
280.284
280.015
279.801
279.634
284.755
283.895
283.047
282.354
281.784
281.334
280.974
280.689
280.464
280.301
280.839
280.833
280.818
280.797
280.773
280.747
280.72
280.692
280.661
280.625
280.622
280.597
280.559
280.51
280.456
280.399
280.343
280.29
280.242
280.2
280.838
280.79
280.716
280.626
280.529
280.433
280.34
280.256
280.181
280.117
281.178
281.094
280.969
280.825
280.675
280.531
280.397
280.277
280.173
280.087
281.508
281.375
281.186
280.977
280.769
280.574
280.399
280.246
280.117
280.011
281.904
281.709
281.445
281.165
280.896
280.651
280.437
280.254
280.101
279.978
282.26
281.989
281.641
281.287
280.958
280.668
280.419
280.211
280.039
279.902
282.654
282.297
281.86
281.436
281.053
280.723
280.446
280.217
280.029
279.881
282.988
282.533
282.012
281.529
281.103
280.746
280.448
280.205
280.007
279.851
283.894
283.364
282.783
282.257
281.798
281.417
281.101
280.844
280.637
280.485
280.804
280.803
280.795
280.785
280.772
280.758
280.742
280.726
280.706
280.679
280.536
280.523
280.503
280.476
280.445
280.412
280.378
280.345
280.314
280.287
280.683
280.658
280.617
280.565
280.507
280.446
280.386
280.329
280.277
280.232
280.937
280.892
280.821
280.733
280.638
280.542
280.448
280.362
280.285
280.22
281.186
281.113
281.002
280.87
280.731
280.594
280.466
280.35
280.248
280.164
281.5
281.392
281.231
281.048
280.861
280.682
280.518
280.373
280.247
280.144
281.781
281.627
281.409
281.169
280.932
280.712
280.514
280.343
280.197
280.078
282.104
281.895
281.616
281.32
281.035
280.778
280.551
280.358
280.195
280.063
282.369
282.099
281.759
281.413
281.09
280.803
280.555
280.346
280.172
280.031
283.192
282.873
282.487
282.103
281.75
281.441
281.176
280.955
280.772
280.637
280.792
280.792
280.789
280.783
280.776
280.769
280.76
280.75
280.737
280.716
280.496
280.49
280.478
280.463
280.446
280.426
280.406
280.385
280.366
280.35
280.597
280.583
280.559
280.529
280.494
280.456
280.418
280.381
280.346
280.316
280.785
280.76
280.719
280.666
280.605
280.542
280.479
280.419
280.364
280.317
280.971
280.93
280.863
280.781
280.689
280.595
280.504
280.419
280.343
280.279
281.218
281.156
281.058
280.939
280.812
280.684
280.563
280.452
280.354
280.271
281.433
281.344
281.208
281.048
280.882
280.719
280.568
280.433
280.315
280.216
281.692
281.57
281.392
281.19
280.986
280.791
280.614
280.457
280.321
280.209
281.895
281.735
281.516
281.276
281.038
280.817
280.619
280.446
280.299
280.178
282.638
282.449
282.197
281.926
281.664
281.423
281.21
281.026
280.871