/*--------------------------------*- C++ -*----------------------------------*\
| =========                 |                                                 |
| \\      /  F ield         | foam-extend: Open Source CFD                    |
|  \\    /   O peration     | Version:     4.0                                |
|   \\  /    A nd           | Web:         http://www.foam-extend.org         |
|    \\/     M anipulation  |                                                 |
\*---------------------------------------------------------------------------*/
FoamFile
{
    version     2.0;
    format      ascii;
    class       volVectorField;
    location    "1900";
    object      Urel;
}
// * * * * * * * * * * * * * * * * * * * * * * * * * * * * * * * * * * * * * //

dimensions      [0 1 -1 0 0 0 0];

internalField   nonuniform List<vector> 
34480
(
(209.005 -9.79441 -19.091)
(209.325 -9.29411 -21.5536)
(209.483 -8.5688 -23.9802)
(209.489 -7.64432 -26.4138)
(209.34 -6.55947 -28.9926)
(208.998 -5.31707 -31.8922)
(208.382 -3.89741 -35.5128)
(207.216 -2.18426 -40.199)
(204.544 0.0510153 -48.1212)
(197.606 4.25546 -75.2915)
(209.937 -12.8041 -26.8094)
(210.197 -11.6769 -29.5934)
(210.324 -10.3952 -32.2533)
(210.297 -8.97316 -34.8565)
(210.062 -7.44738 -37.5202)
(209.559 -5.83768 -40.4518)
(208.751 -4.16305 -44.1111)
(207.459 -2.36947 -49.2399)
(204.323 -0.295435 -58.0608)
(196.163 3.65805 -88.6308)
(210.626 -17.1019 -33.746)
(210.86 -15.5508 -36.8312)
(210.954 -13.8224 -39.7784)
(210.884 -11.9108 -42.6013)
(210.588 -9.87194 -45.4272)
(210.061 -7.73996 -48.5128)
(209.309 -5.54235 -52.3867)
(208.165 -3.20943 -58.0775)
(204.865 -0.574216 -67.7761)
(195.654 4.13056 -101.29)
(210.632 -20.4973 -41.1579)
(210.867 -18.4153 -44.5376)
(210.977 -16.1576 -47.7244)
(210.939 -13.7059 -50.7494)
(210.706 -11.1171 -53.7473)
(210.291 -8.42828 -57.0041)
(209.674 -5.67202 -61.0508)
(208.695 -2.76946 -67.136)
(205.369 0.452428 -77.4581)
(195.355 5.84402 -112.879)
(210.79 -24.974 -48.0194)
(211.054 -22.4823 -51.6766)
(211.202 -19.7772 -55.15)
(211.227 -16.8402 -58.4248)
(211.084 -13.7471 -61.6608)
(210.805 -10.5352 -65.1557)
(210.337 -7.23142 -69.4376)
(209.541 -3.7462 -75.942)
(206.314 0.10053 -86.9318)
(195.657 6.19517 -123.872)
(210.674 -28.2283 -55.6156)
(210.95 -25.2366 -59.5096)
(211.117 -22.0171 -63.1515)
(211.176 -18.5488 -66.57)
(211.101 -14.8991 -69.9172)
(210.939 -11.1108 -73.5153)
(210.624 -7.21254 -77.8763)
(210.043 -3.11748 -84.6079)
(207.063 1.37468 -96.0827)
(196.007 8.10671 -134.171)
(210.754 -33.0098 -62.4738)
(211.07 -29.6291 -66.608)
(211.267 -25.9851 -70.4996)
(211.364 -22.067 -74.1247)
(211.348 -17.9499 -77.6647)
(211.283 -13.6701 -81.4428)
(211.109 -9.23246 -85.975)
(210.744 -4.53358 -92.9906)
(208.095 0.697762 -105.044)
(196.745 8.26069 -144.125)
(210.581 -36.1796 -70.321)
(210.902 -32.3269 -74.6624)
(211.078 -28.1652 -78.6819)
(211.134 -23.7091 -82.4162)
(211.077 -19.0123 -86.0093)
(210.994 -14.1321 -89.7895)
(210.865 -9.06589 -94.2562)
(210.658 -3.70606 -101.228)
(208.417 2.37006 -113.47)
(197.101 10.8372 -153.055)
(210.525 -41.4425 -77.1505)
(210.89 -37.2228 -81.6779)
(211.097 -32.6856 -85.8805)
(211.192 -27.8699 -89.7658)
(211.186 -22.8307 -93.5192)
(211.147 -17.5981 -97.445)
(211.087 -12.1157 -102.077)
(211.019 -6.23105 -109.204)
(209.107 0.77464 -121.818)
(197.677 10.7322 -161.342)
(209.561 -44.6434 -85.1126)
(209.836 -40.0414 -89.9211)
(209.783 -35.0025 -94.3262)
(209.425 -29.6473 -98.3957)
(208.807 -23.9893 -102.257)
(208.021 -18.0692 -106.188)
(207.152 -11.8217 -110.661)
(206.366 -5.05625 -117.277)
(204.428 2.9596 -129.04)
(194.244 14.3053 -166.631)
(205.89 1.91164 3.00085)
(206.369 1.10909 1.54419)
(206.556 0.425974 -0.00970955)
(206.472 -0.117985 -1.60984)
(206.094 -0.5471 -3.31962)
(205.332 -0.861901 -5.15143)
(203.985 -1.06649 -7.15899)
(201.619 -1.17234 -9.31726)
(198.153 -1.2574 -11.2449)
(193.578 -1.15948 -14.3934)
(207.188 2.86707 2.7986)
(207.62 2.1627 1.16249)
(207.792 1.51784 -0.491635)
(207.703 0.942356 -2.18856)
(207.291 0.415015 -3.99585)
(206.436 -0.0702391 -5.97141)
(204.942 -0.528533 -8.20838)
(202.357 -0.994786 -10.9579)
(198.188 -1.58517 -14.0066)
(192.503 -1.82522 -20.5813)
(208.136 2.57569 3.3082)
(208.545 1.76956 1.54584)
(208.703 1.04292 -0.255763)
(208.604 0.420818 -2.08933)
(208.167 -0.135336 -4.02905)
(207.293 -0.638084 -6.15869)
(205.809 -1.11674 -8.66717)
(203.231 -1.58801 -12.0864)
(198.686 -2.15889 -16.3329)
(192.068 -2.07272 -26.7166)
(208.378 3.17596 3.30499)
(208.794 2.40142 1.45759)
(208.973 1.69243 -0.402106)
(208.915 1.08632 -2.29587)
(208.542 0.544541 -4.30907)
(207.77 0.0553896 -6.56811)
(206.398 -0.41427 -9.29881)
(203.914 -0.857298 -13.2583)
(199.14 -1.36549 -18.4764)
(191.707 -0.935311 -32.4543)
(208.731 2.66652 3.84009)
(209.173 1.80713 1.93745)
(209.391 1.04031 -0.0188561)
(209.398 0.406785 -2.00734)
(209.117 -0.148687 -4.14503)
(208.481 -0.637412 -6.58578)
(207.26 -1.09427 -9.57176)
(204.938 -1.49043 -14.0625)
(200.086 -1.90411 -20.2308)
(191.946 -1.07465 -37.6936)
(208.765 3.39151 3.63613)
(209.223 2.53966 1.7217)
(209.466 1.78207 -0.2052)
(209.516 1.16221 -2.17421)
(209.308 0.633396 -4.29653)
(208.801 0.181208 -6.77212)
(207.745 -0.225618 -9.84276)
(205.644 -0.549539 -14.6619)
(200.88 -0.831678 -21.5475)
(192.215 0.363274 -42.2107)
(208.969 2.56579 4.16187)
(209.462 1.61502 2.23929)
(209.737 0.785339 0.260667)
(209.833 0.113109 -1.7482)
(209.693 -0.451833 -3.93466)
(209.3 -0.921078 -6.5148)
(208.407 -1.31114 -9.7437)
(206.551 -1.56939 -14.9173)
(201.994 -1.65735 -22.5676)
(192.905 0.000144414 -46.2459)
(208.883 3.37336 3.69739)
(209.385 2.40907 1.80508)
(209.649 1.59756 -0.0867998)
(209.719 0.95014 -2.02312)
(209.563 0.440476 -4.11931)
(209.192 0.0364904 -6.62192)
(208.392 -0.264738 -9.78056)
(206.757 -0.41916 -15.0048)
(202.528 -0.20882 -23.0525)
(193.312 1.83397 -49.2182)
(208.895 2.05555 4.24657)
(209.429 0.977418 2.40335)
(209.721 0.0660838 0.527218)
(209.827 -0.689107 -1.37665)
(209.728 -1.31869 -3.47977)
(209.431 -1.83509 -6.02967)
(208.753 -2.19041 -9.3347)
(207.345 -2.32196 -14.7931)
(203.455 -1.74213 -23.4882)
(193.988 1.00286 -51.4987)
(207.973 2.86429 3.63814)
(208.45 1.69351 1.79075)
(208.568 0.796604 -0.0336354)
(208.355 0.0679648 -1.90457)
(207.827 -0.474113 -3.92911)
(207.02 -0.855612 -6.35317)
(205.82 -1.01331 -9.46911)
(204.018 -0.832142 -14.5635)
(200.277 0.222247 -23.0376)
(191.631 4.03752 -51.3453)
(203.516 1.42732 2.33467)
(204.019 0.832961 1.21659)
(204.2 0.301919 -0.0130059)
(204.096 -0.132367 -1.26318)
(203.695 -0.482973 -2.55443)
(202.949 -0.747322 -3.83229)
(201.763 -0.935192 -5.04895)
(199.987 -1.0721 -6.05474)
(197.433 -1.24346 -6.49849)
(194.216 -1.43276 -6.51691)
(204.91 2.41283 2.31395)
(205.406 1.87044 0.946833)
(205.585 1.34415 -0.448177)
(205.462 0.853527 -1.86523)
(204.998 0.388459 -3.3309)
(204.11 -0.0564015 -4.84777)
(202.637 -0.494373 -6.37944)
(200.309 -0.957077 -7.86277)
(196.685 -1.55587 -8.80231)
(191.845 -2.13773 -9.81066)
(205.944 2.21023 2.94914)
(206.444 1.52697 1.3965)
(206.625 0.888782 -0.207801)
(206.5 0.325361 -1.83723)
(206.012 -0.195356 -3.53811)
(205.059 -0.683302 -5.32716)
(203.443 -1.16323 -7.21419)
(200.798 -1.66533 -9.29173)
(196.296 -2.33389 -11.0026)
(189.854 -2.91268 -13.5841)
(206.34 2.89504 2.99558)
(206.862 2.21838 1.31945)
(207.068 1.57765 -0.37966)
(206.978 1.0126 -2.11131)
(206.528 0.489712 -3.93945)
(205.612 -0.000763093 -5.92236)
(203.98 -0.490732 -8.10598)
(201.167 -0.997625 -10.7403)
(195.928 -1.68277 -13.2005)
(187.992 -2.1679 -17.559)
(206.841 2.42462 3.57041)
(207.395 1.64818 1.80701)
(207.638 0.938981 -0.0181788)
(207.605 0.338807 -1.87623)
(207.224 -0.202803 -3.86851)
(206.397 -0.694358 -6.08554)
(204.824 -1.17134 -8.60206)
(201.966 -1.63978 -11.8314)
(196.18 -2.28785 -15.1302)
(186.923 -2.57927 -21.5723)
(207.005 3.19869 3.39143)
(207.579 2.41591 1.59549)
(207.849 1.70636 -0.221033)
(207.857 1.11346 -2.08317)
(207.539 0.592672 -4.09123)
(206.81 0.131649 -6.38672)
(205.337 -0.305057 -9.06245)
(202.537 -0.71701 -12.7144)
(196.405 -1.27808 -16.7151)
(186.057 -1.34132 -25.3338)
(207.322 2.38946 3.94045)
(207.928 1.50186 2.11823)
(208.228 0.719157 0.232706)
(208.282 0.0775106 -1.68824)
(208.026 -0.471466 -3.78431)
(207.396 -0.936078 -6.22024)
(206.042 -1.33875 -9.12109)
(203.362 -1.67032 -13.2317)
(197.055 -2.06973 -18.0275)
(185.778 -1.80012 -28.9571)
(207.329 3.23505 3.48034)
(207.942 2.33194 1.68495)
(208.236 1.56524 -0.116334)
(208.273 0.948002 -1.969)
(208.01 0.453668 -3.98376)
(207.408 0.055962 -6.36655)
(206.139 -0.257941 -9.25996)
(203.612 -0.488569 -13.554)
(197.321 -0.621221 -18.8722)
(185.382 -0.070131 -31.8736)
(207.421 1.90364 4.03406)
(208.053 0.887457 2.27624)
(208.368 0.0348383 0.473808)
(208.434 -0.660849 -1.36063)
(208.213 -1.23148 -3.38702)
(207.673 -1.68728 -5.81451)
(206.515 -1.99295 -8.87595)
(204.182 -2.127 -13.5146)
(198.024 -1.86096 -19.6421)
(185.301 -0.799353 -34.2647)
(206.564 2.77001 3.39331)
(207.145 1.67704 1.66479)
(207.33 0.850899 -0.0517048)
(207.158 0.187502 -1.82376)
(206.622 -0.293585 -3.74783)
(205.71 -0.615361 -6.03763)
(204.194 -0.726528 -8.92189)
(201.624 -0.547186 -13.3054)
(195.604 0.217606 -19.5468)
(182.823 2.30035 -34.6953)
(201.78 0.94851 1.7021)
(202.217 0.547098 0.911711)
(202.367 0.165022 0.00816673)
(202.269 -0.158489 -0.896186)
(201.92 -0.429212 -1.79989)
(201.305 -0.641787 -2.62134)
(200.394 -0.808439 -3.29557)
(199.16 -0.95268 -3.68714)
(197.6 -1.1299 -3.58049)
(195.869 -1.36543 -2.75292)
(203.1 1.90611 1.79209)
(203.568 1.53058 0.718816)
(203.731 1.13341 -0.387112)
(203.6 0.740396 -1.49659)
(203.152 0.352726 -2.60126)
(202.342 -0.0323903 -3.6706)
(201.093 -0.425614 -4.62857)
(199.301 -0.849401 -5.34686)
(196.836 -1.37192 -5.40296)
(194.037 -1.93903 -4.61973)
(204.088 1.75822 2.50456)
(204.599 1.21827 1.20707)
(204.775 0.688459 -0.149934)
(204.633 0.20292 -1.51723)
(204.133 -0.261833 -2.91152)
(203.205 -0.714132 -4.31291)
(201.714 -1.1734 -5.65495)
(199.465 -1.66591 -6.84616)
(196.11 -2.29732 -7.29994)
(192.03 -2.99291 -6.92418)
(204.547 2.52482 2.58839)
(205.104 1.97039 1.13302)
(205.309 1.41904 -0.35347)
(205.187 0.914369 -1.86025)
(204.686 0.43116 -3.42294)
(203.719 -0.0398989 -5.05579)
(202.092 -0.52789 -6.71296)
(199.505 -1.05525 -8.37918)
(195.288 -1.76108 -9.29356)
(189.823 -2.52721 -9.54067)
(205.132 2.09934 3.2042)
(205.733 1.43033 1.62675)
(205.973 0.798598 -0.0187244)
(205.892 0.248312 -1.68635)
(205.427 -0.263044 -3.45079)
(204.484 -0.743415 -5.35561)
(202.807 -1.22575 -7.38143)
(200.004 -1.72934 -9.61109)
(195.035 -2.44366 -11.1403)
(188.231 -3.18268 -12.3685)
(205.387 2.92798 3.0542)
(206.017 2.23792 1.41984)
(206.284 1.59488 -0.242528)
(206.237 1.0443 -1.94271)
(205.812 0.547408 -3.75774)
(204.918 0.091722 -5.7794)
(203.249 -0.360454 -8.01071)
(200.338 -0.827717 -10.6684)
(194.765 -1.50818 -12.7415)
(186.753 -2.16774 -15.1357)
(205.789 2.14509 3.63234)
(206.451 1.34223 1.94898)
(206.746 0.62239 0.19568)
(206.74 0.0232386 -1.5879)
(206.362 -0.499214 -3.52015)
(205.532 -0.952755 -5.71697)
(203.91 -1.36391 -8.22124)
(200.971 -1.74569 -11.3673)
(194.939 -2.30146 -14.1237)
(185.837 -2.77488 -17.9502)
(205.875 3.04134 3.18317)
(206.545 2.21885 1.51921)
(206.839 1.51035 -0.158198)
(206.821 0.933256 -1.88565)
(206.437 0.462664 -3.75506)
(205.624 0.0763355 -5.9255)
(204.042 -0.247677 -8.46713)
(201.141 -0.536638 -11.8563)
(194.851 -0.881347 -15.1102)
(184.863 -1.19438 -20.3191)
(206.035 1.70842 3.76563)
(206.716 0.77085 2.12465)
(207.026 -0.0165405 0.424867)
(207.032 -0.653044 -1.30713)
(206.682 -1.16997 -3.20957)
(205.912 -1.57446 -5.43752)
(204.387 -1.84604 -8.14293)
(201.576 -1.99569 -11.889)
(195.215 -1.94776 -15.9864)
(184.252 -1.89931 -22.3815)
(205.247 2.64837 3.10349)
(205.881 1.64551 1.51561)
(206.099 0.893269 -0.0750796)
(205.936 0.293758 -1.72602)
(205.365 -0.131681 -3.51583)
(204.342 -0.403129 -5.61228)
(202.576 -0.481776 -8.16667)
(199.575 -0.316665 -11.7255)
(193.234 0.22822 -16.0579)
(181.78 1.20176 -22.864)
(200.569 0.550528 1.19426)
(200.911 0.294316 0.666406)
(201.026 0.0334466 0.0360199)
(200.951 -0.195895 -0.582868)
(200.692 -0.397273 -1.18725)
(200.254 -0.563013 -1.69738)
(199.641 -0.702682 -2.06653)
(198.879 -0.831416 -2.20476)
(198.014 -0.975693 -2.02034)
(197.162 -1.14216 -1.42918)
(201.725 1.43324 1.31204)
(202.118 1.1987 0.510912)
(202.255 0.919405 -0.320662)
(202.142 0.620841 -1.14512)
(201.769 0.312196 -1.93551)
(201.12 -0.00528446 -2.64866)
(200.176 -0.336113 -3.21045)
(198.931 -0.690087 -3.5125)
(197.408 -1.09544 -3.32756)
(195.911 -1.51238 -2.51773)
(202.573 1.29119 2.05138)
(203.044 0.889025 1.01657)
(203.206 0.469216 -0.0824744)
(203.072 0.0674121 -1.17969)
(202.62 -0.331174 -2.26702)
(201.811 -0.731187 -3.303)
(200.58 -1.14584 -4.20308)
(198.862 -1.59264 -4.8373)
(196.579 -2.12681 -4.81331)
(194.189 -2.69548 -3.92718)
(203.012 2.11576 2.14953)
(203.555 1.68947 0.936608)
(203.751 1.23594 -0.31449)
(203.621 0.801655 -1.57336)
(203.131 0.371313 -2.84642)
(202.221 -0.0616155 -4.11398)
(200.771 -0.521265 -5.29385)
(198.638 -1.02683 -6.27053)
(195.548 -1.66623 -6.46655)
(192.078 -2.37043 -5.60793)
(203.61 1.72726 2.79554)
(204.216 1.17744 1.43219)
(204.447 0.634286 -0.00546321)
(204.344 0.144449 -1.45294)
(203.853 -0.324354 -2.95281)
(202.904 -0.778091 -4.50599)
(201.312 -1.24527 -6.04433)
(198.855 -1.74823 -7.4922)
(194.991 -2.42781 -8.08633)
(190.374 -3.19514 -7.53492)
(203.907 2.60588 2.67092)
(204.554 2.02329 1.22815)
(204.816 1.45889 -0.250715)
(204.736 0.961 -1.75676)
(204.258 0.499539 -3.3359)
(203.303 0.0633415 -5.02919)
(201.631 -0.384982 -6.78376)
(198.947 -0.871706 -8.60568)
(194.387 -1.56052 -9.56004)
(188.647 -2.35419 -9.46019)
(204.355 1.85249 3.2769)
(205.042 1.1502 1.76233)
(205.331 0.504912 0.170177)
(205.284 -0.0428577 -1.4439)
(204.833 -0.529974 -3.16756)
(203.9 -0.963391 -5.06249)
(202.199 -1.3719 -7.1115)
(199.364 -1.78051 -9.39671)
(194.208 -2.38061 -10.8784)
(187.384 -3.10035 -11.5029)
(204.496 2.80549 2.84044)
(205.196 2.07929 1.33501)
(205.488 1.44016 -0.192545)
(205.432 0.911621 -1.76559)
(204.973 0.472938 -3.44831)
(204.037 0.105517 -5.34387)
(202.321 -0.219222 -7.45806)
(199.414 -0.543762 -9.99064)
(193.833 -0.991802 -11.8666)
(186.049 -1.657 -13.2464)
(204.708 1.47462 3.45826)
(205.417 0.630442 1.95956)
(205.721 -0.0844278 0.387276)
(205.684 -0.659766 -1.21436)
(205.249 -1.1244 -2.95688)
(204.341 -1.4829 -4.93669)
(202.638 -1.72744 -7.22483)
(199.708 -1.89054 -10.0745)
(193.883 -1.98203 -12.684)
(185.051 -2.39481 -14.8195)
(203.982 2.50175 2.77549)
(204.647 1.59958 1.34546)
(204.889 0.925311 -0.103025)
(204.733 0.389966 -1.61262)
(204.146 0.0174965 -3.23976)
(203.061 -0.209339 -5.1016)
(201.193 -0.264057 -7.2724)
(198.096 -0.119027 -10.0004)
(192.168 0.260015 -12.8113)
(182.627 0.640426 -15.1318)
(199.737 0.251117 0.825192)
(199.991 0.0925547 0.488699)
(200.072 -0.0801327 0.0638514)
(200.021 -0.237078 -0.342502)
(199.845 -0.382669 -0.735229)
(199.558 -0.507918 -1.04638)
(199.173 -0.619073 -1.2508)
(198.721 -0.723607 -1.2941)
(198.244 -0.83225 -1.14386)
(197.789 -0.943768 -0.777572)
(200.713 1.03928 0.911516)
(201.016 0.909868 0.337357)
(201.123 0.727003 -0.259608)
(201.035 0.511255 -0.844714)
(200.751 0.276025 -1.38612)
(200.273 0.0255332 -1.84305)
(199.609 -0.238968 -2.15811)
(198.79 -0.518043 -2.25861)
(197.882 -0.816594 -2.0378)
(197.074 -1.1047 -1.43107)
(201.386 0.860231 1.63692)
(201.784 0.573629 0.84309)
(201.922 0.253395 -0.0145313)
(201.809 -0.0674737 -0.86316)
(201.432 -0.397166 -1.68039)
(200.78 -0.736179 -2.41761)
(199.835 -1.0911 -2.99844)
(198.606 -1.47059 -3.31456)
(197.132 -1.89667 -3.14399)
(195.744 -2.32642 -2.34675)
(201.753 1.71067 1.72145)
(202.242 1.40245 0.747234)
(202.418 1.04483 -0.268371)
(202.296 0.684046 -1.28244)
(201.855 0.313749 -2.27977)
(201.064 -0.0684362 -3.22069)
(199.866 -0.479173 -4.01828)
(198.226 -0.930944 -4.5453)
(196.091 -1.46997 -4.43745)
(193.95 -2.04195 -3.43949)
(202.31 1.34183 2.37866)
(202.878 0.909575 1.23774)
(203.092 0.458133 0.0189471)
(202.981 0.0346777 -1.19938)
(202.509 -0.382844 -2.43204)
(201.629 -0.797061 -3.64902)
(200.233 -1.22971 -4.7635)
(198.229 -1.70031 -5.64701)
(195.411 -2.29851 -5.77468)
(192.403 -2.96323 -4.76623)
(202.603 2.25716 2.26902)
(203.229 1.78617 1.03299)
(203.475 1.30652 -0.245578)
(203.377 0.868328 -1.54108)
(202.891 0.450947 -2.87017)
(201.958 0.0461758 -4.232)
(200.417 -0.378793 -5.54344)
(198.116 -0.850392 -6.71206)
(194.635 -1.48429 -7.04673)
(190.718 -2.2274 -6.09605)
(203.062 1.52991 2.89567)
(203.739 0.935957 1.56881)
(204.013 0.372558 0.157767)
(203.938 -0.11715 -1.26635)
(203.457 -0.561652 -2.75994)
(202.504 -0.965987 -4.33641)
(200.868 -1.35782 -5.93743)
(198.335 -1.76682 -7.50459)
(194.24 -2.34402 -8.22513)
(189.39 -3.07543 -7.55936)
(203.231 2.54015 2.46928)
(203.929 1.91977 1.14116)
(204.21 1.35796 -0.217051)
(204.128 0.884663 -1.61456)
(203.632 0.484656 -3.08645)
(202.652 0.143437 -4.68388)
(200.95 -0.169468 -6.36114)
(198.26 -0.501804 -8.14051)
(193.678 -0.97388 -9.13481)
(187.947 -1.71739 -8.79423)
(203.48 1.21044 3.12396)
(204.187 0.469681 1.78637)
(204.479 -0.16714 0.361557)
(204.411 -0.679615 -1.08741)
(203.927 -1.09275 -2.64425)
(202.955 -1.4086 -4.35213)
(201.229 -1.62866 -6.21877)
(198.435 -1.79501 -8.27898)
(193.516 -1.9583 -9.83258)
(186.809 -2.51414 -9.91538)
(202.804 2.3364 2.41914)
(203.473 1.54239 1.15944)
(203.725 0.949206 -0.133385)
(203.574 0.478299 -1.48492)
(202.986 0.156502 -2.92791)
(201.891 -0.0308486 -4.53179)
(200.04 -0.06811 -6.30657)
(197.086 0.0555621 -8.29697)
(191.988 0.313712 -9.984)
(184.561 0.412672 -10.0832)
(199.162 0.041594 0.576659)
(199.347 -0.0571145 0.370035)
(199.403 -0.170962 0.0878659)
(199.371 -0.276356 -0.172251)
(199.26 -0.379819 -0.425386)
(199.082 -0.471958 -0.616361)
(198.852 -0.556628 -0.736352)
(198.593 -0.636098 -0.752725)
(198.332 -0.713376 -0.658308)
(198.071 -0.784578 -0.451705)
(199.984 0.739671 0.599638)
(200.201 0.681301 0.200813)
(200.279 0.570979 -0.210715)
(200.216 0.422482 -0.60941)
(200.016 0.250613 -0.966496)
(199.685 0.0610551 -1.25007)
(199.243 -0.140846 -1.4212)
(198.726 -0.350729 -1.43689)
(198.192 -0.563438 -1.25232)
(197.754 -0.755243 -0.85096)
(200.48 0.49436 1.28503)
(200.794 0.295195 0.695097)
(200.905 0.0578316 0.0464053)
(200.816 -0.190589 -0.590538)
(200.524 -0.454327 -1.1885)
(200.03 -0.730654 -1.70193)
(199.344 -1.02084 -2.07134)
(198.502 -1.32609 -2.22262)
(197.574 -1.64983 -2.04301)
(196.77 -1.95865 -1.47353)
(200.751 1.34089 1.3316)
(201.164 1.13131 0.57484)
(201.314 0.860298 -0.22197)
(201.21 0.570595 -1.01172)
(200.84 0.262432 -1.76737)
(200.194 -0.0626068 -2.44255)
(199.261 -0.413096 -2.9615)
(198.057 -0.794 -3.22045)
(196.632 -1.22349 -3.01396)
(195.318 -1.65909 -2.19345)
(201.232 0.971564 1.9792)
(201.735 0.645285 1.05273)
(201.923 0.281895 0.0489205)
(201.818 -0.0737293 -0.947365)
(201.396 -0.434893 -1.93141)
(200.633 -0.800511 -2.85687)
(199.48 -1.18468 -3.63803)
(197.926 -1.6007 -4.14874)
(195.947 -2.09812 -4.06634)
(194.013 -2.62887 -3.11904)
(201.49 1.9053 1.87097)
(202.063 1.54077 0.842964)
(202.285 1.14615 -0.230869)
(202.183 0.771172 -1.31321)
(201.725 0.403847 -2.39808)
(200.874 0.0396801 -3.45716)
(199.539 -0.346539 -4.39841)
(197.669 -0.776129 -5.09988)
(195.12 -1.32098 -5.10561)
(192.498 -1.94663 -4.03169)
(201.931 1.19626 2.50739)
(202.566 0.710385 1.37573)
(202.817 0.231508 0.155951)
(202.728 -0.196084 -1.06896)
(202.255 -0.592493 -2.32858)
(201.349 -0.960078 -3.6013)
(199.875 -1.32244 -4.80824)
(197.733 -1.70758 -5.8273)
(194.625 -2.22251 -6.09961)
(191.26 -2.86526 -5.07414)
(202.102 2.25956 2.08541)
(202.766 1.74775 0.944221)
(203.029 1.26732 -0.232898)
(202.932 0.853662 -1.44259)
(202.435 0.497371 -2.69382)
(201.481 0.188092 -3.99718)
(199.903 -0.102544 -5.27586)
(197.554 -0.41816 -6.45344)
(193.972 -0.858348 -6.88355)
(189.873 -1.53956 -5.9241)
(202.37 0.92639 2.77588)
(203.05 0.293404 1.61028)
(203.323 -0.262427 0.346532)
(203.235 -0.711338 -0.934928)
(202.739 -1.07387 -2.29204)
(201.773 -1.34964 -3.72542)
(200.139 -1.5462 -5.2009)
(197.639 -1.70611 -6.62913)
(193.697 -1.88972 -7.46415)
(188.783 -2.41871 -6.70093)
(201.732 2.16045 2.04582)
(202.379 1.4781 0.962869)
(202.628 0.967535 -0.165161)
(202.484 0.560813 -1.34718)
(201.916 0.287433 -2.59348)
(200.859 0.134948 -3.93368)
(199.124 0.110253 -5.33113)
(196.468 0.213064 -6.7146)
(192.311 0.384831 -7.61586)
(186.78 0.372463 -6.78183)
(198.755 -0.0989962 0.41806)
(198.892 -0.163226 0.295814)
(198.93 -0.240193 0.107247)
(198.911 -0.310831 -0.0576673)
(198.844 -0.383992 -0.222851)
(198.739 -0.450521 -0.343256)
(198.605 -0.512977 -0.420316)
(198.46 -0.570942 -0.432977)
(198.313 -0.624226 -0.383306)
(198.146 -0.668765 -0.27341)
(199.458 0.529793 0.367821)
(199.606 0.515987 0.097243)
(199.661 0.456894 -0.17613)
(199.619 0.35983 -0.437622)
(199.485 0.239398 -0.66463)
(199.267 0.101594 -0.834924)
(198.984 -0.0463784 -0.924226)
(198.666 -0.198192 -0.908702)
(198.355 -0.345825 -0.771883)
(198.112 -0.471501 -0.513531)
(199.8 0.203913 1.00277)
(200.033 0.0656686 0.575231)
(200.117 -0.107096 0.0966709)
(200.052 -0.294535 -0.37032)
(199.838 -0.499206 -0.799825)
(199.483 -0.716752 -1.15441)
(199.006 -0.945062 -1.39149)
(198.447 -1.1806 -1.46537)
(197.87 -1.41824 -1.32194)
(197.401 -1.63305 -0.946606)
(199.976 1.02544 0.995391)
(200.305 0.891859 0.425209)
(200.427 0.694033 -0.18002)
(200.343 0.468912 -0.775764)
(200.051 0.220714 -1.33137)
(199.551 -0.0461771 -1.80297)
(198.856 -0.333586 -2.13141)
(198.004 -0.640623 -2.24278)
(197.069 -0.968953 -2.02983)
(196.265 -1.28662 -1.42392)
(200.362 0.638216 1.6159)
(200.785 0.400538 0.88409)
(200.943 0.116543 0.0796884)
(200.852 -0.173812 -0.713298)
(200.496 -0.477258 -1.47908)
(199.87 -0.78954 -2.16717)
(198.963 -1.11807 -2.70368)
(197.803 -1.4691 -2.98672)
(196.446 -1.86507 -2.83174)
(195.212 -2.26772 -2.08505)
(200.565 1.57085 1.49604)
(201.065 1.30075 0.665536)
(201.258 0.986376 -0.210332)
(201.162 0.674597 -1.08858)
(200.756 0.360384 -1.94858)
(200.023 0.0427688 -2.74855)
(198.924 -0.29497 -3.40231)
(197.465 -0.666973 -3.79571)
(195.651 -1.11095 -3.64732)
(193.915 -1.6042 -2.7128)
(200.969 0.870056 2.12986)
(201.539 0.485103 1.18994)
(201.761 0.0888216 0.161705)
(201.67 -0.275509 -0.86541)
(201.233 -0.620555 -1.90075)
(200.421 -0.945804 -2.90218)
(199.161 -1.2694 -3.7874)
(197.427 -1.61355 -4.4212)
(195.142 -2.04728 -4.44784)
(192.842 -2.56818 -3.45754)
(201.119 1.97878 1.7051)
(201.726 1.57179 0.750951)
(201.964 1.17277 -0.241768)
(201.863 0.820545 -1.2606)
(201.393 0.511075 -2.29392)
(200.517 0.237826 -3.32528)
(199.13 -0.0230148 -4.26581)
(197.173 -0.306307 -5.00194)
(194.47 -0.684084 -5.09012)
(191.597 -1.24205 -4.03004)
(201.394 0.63435 2.42848)
(202.023 0.107673 1.43726)
(202.272 -0.367238 0.340825)
(202.176 -0.753309 -0.766627)
(201.697 -1.06654 -1.92144)
(200.792 -1.30438 -3.09442)
(199.328 -1.47756 -4.22891)
(197.2 -1.62415 -5.18413)
(194.159 -1.79849 -5.56548)
(190.659 -2.23211 -4.57328)
(200.781 1.98343 1.66827)
(201.382 1.41193 0.761846)
(201.618 0.983407 -0.197687)
(201.485 0.639635 -1.20507)
(200.954 0.412114 -2.2515)
(199.978 0.29025 -3.3372)
(198.425 0.274532 -4.39687)
(196.15 0.358258 -5.31052)
(192.894 0.468943 -5.69536)
(188.918 0.42438 -4.5918)
(198.456 -0.192206 0.321538)
(198.562 -0.237435 0.252448)
(198.588 -0.292418 0.122685)
(198.578 -0.340589 0.0171825)
(198.539 -0.392834 -0.0944444)
(198.478 -0.440545 -0.174337)
(198.402 -0.485768 -0.229652)
(198.32 -0.527021 -0.245348)
(198.236 -0.563078 -0.22636)
(198.117 -0.59049 -0.173681)
(199.077 0.395525 0.199939)
(199.174 0.408155 0.019519)
(199.21 0.383556 -0.155399)
(199.184 0.324026 -0.320071)
(199.098 0.243295 -0.458356)
(198.96 0.147031 -0.556036)
(198.785 0.0424977 -0.598908)
(198.593 -0.0637822 -0.574092)
(198.411 -0.164055 -0.477405)
(198.274 -0.245238 -0.311782)
(199.292 -0.0137544 0.786064)
(199.457 -0.112395 0.481955)
(199.518 -0.237365 0.13524)
(199.473 -0.376039 -0.201692)
(199.323 -0.530677 -0.507076)
(199.078 -0.696801 -0.752681)
(198.758 -0.870557 -0.909749)
(198.397 -1.04636 -0.952141)
(198.042 -1.2164 -0.854484)
(197.766 -1.36258 -0.622084)
(199.388 0.771894 0.717795)
(199.638 0.692939 0.300244)
(199.732 0.553631 -0.145365)
(199.669 0.384173 -0.581185)
(199.448 0.190604 -0.978306)
(199.079 -0.021151 -1.30002)
(198.581 -0.248569 -1.50351)
(197.995 -0.487236 -1.54026)
(197.389 -0.730942 -1.35797)
(196.896 -0.95591 -0.931928)
(199.678 0.355325 1.29962)
(200.016 0.187133 0.735891)
(200.144 -0.0289878 0.107545)
(200.069 -0.259734 -0.508089)
(199.785 -0.507447 -1.09079)
(199.295 -0.765796 -1.59386)
(198.609 -1.03733 -1.9589)
(197.77 -1.32239 -2.11259)
(196.856 -1.62767 -1.95449)
(196.07 -1.92185 -1.41171)
(199.818 1.2691 1.15843)
(200.234 1.0775 0.50638)
(200.395 0.834885 -0.187256)
(200.311 0.583136 -0.879356)
(199.97 0.322147 -1.54198)
(199.368 0.0537017 -2.13039)
(198.5 -0.231086 -2.57194)
(197.402 -0.539977 -2.77573)
(196.135 -0.887527 -2.57503)
(194.996 -1.25796 -1.84181)
(200.174 0.567224 1.77795)
(200.664 0.271174 1.0172)
(200.855 -0.0482613 0.17189)
(200.77 -0.351038 -0.66803)
(200.387 -0.643861 -1.49852)
(199.695 -0.923667 -2.26912)
(198.663 -1.20327 -2.90498)
(197.311 -1.49761 -3.28545)
(195.669 -1.84763 -3.19697)
(194.117 -2.24594 -2.3766)
(200.286 1.71187 1.34323)
(200.818 1.40063 0.567646)
(201.026 1.07928 -0.245587)
(200.929 0.787647 -1.07928)
(200.508 0.526029 -1.90768)
(199.742 0.291117 -2.69961)
(198.578 0.0648091 -3.36782)
(197.011 -0.178516 -3.80047)
(195.024 -0.485774 -3.70335)
(193.045 -0.910736 -2.75706)
(200.56 0.346031 2.09583)
(201.121 -0.0809701 1.27326)
(201.34 -0.478087 0.342867)
(201.245 -0.803709 -0.592382)
(200.807 -1.0697 -1.55246)
(199.999 -1.27171 -2.49071)
(198.746 -1.42147 -3.34289)
(197.01 -1.55029 -3.96263)
(194.733 -1.70166 -4.08241)
(192.296 -2.03028 -3.14778)
(199.96 1.81528 1.29911)
(200.497 1.34972 0.562454)
(200.712 1.0003 -0.230755)
(200.591 0.716987 -1.06508)
(200.115 0.53227 -1.91728)
(199.249 0.437087 -2.76884)
(197.916 0.427738 -3.54129)
(196.045 0.494825 -4.10965)
(193.575 0.562923 -4.17957)
(190.801 0.519266 -3.11596)
(198.227 -0.256197 0.266075)
(198.314 -0.291139 0.229747)
(198.332 -0.333597 0.135641)
(198.327 -0.367733 0.0659371)
(198.305 -0.406064 -0.0139064)
(198.271 -0.440558 -0.0710752)
(198.228 -0.473178 -0.115453)
(198.182 -0.502219 -0.135267)
(198.132 -0.52632 -0.136031)
(198.038 -0.542756 -0.116989)
(198.795 0.320274 0.0786746)
(198.856 0.348072 -0.0398804)
(198.88 0.345964 -0.146754)
(198.864 0.312901 -0.244974)
(198.811 0.261646 -0.323959)
(198.726 0.197178 -0.375211)
(198.62 0.125867 -0.390941)
(198.506 0.0535558 -0.36402)
(198.399 -0.0133839 -0.295359)
(198.32 -0.0653031 -0.186093)
(198.91 -0.16864 0.625466)
(199.023 -0.242951 0.41157)
(199.065 -0.333995 0.162902)
(199.034 -0.435333 -0.0784271)
(198.933 -0.549609 -0.295389)
(198.771 -0.673198 -0.467908)
(198.563 -0.801651 -0.57733)
(198.334 -0.929192 -0.609591)
(198.117 -1.04829 -0.55237)
(197.954 -1.14619 -0.417932)
(198.948 0.579168 0.496418)
(199.131 0.537098 0.198964)
(199.201 0.442431 -0.119187)
(199.155 0.318809 -0.428447)
(198.996 0.172566 -0.704401)
(198.733 0.0101749 -0.918756)
(198.387 -0.16386 -1.04216)
(197.994 -0.343598 -1.04441)
(197.605 -0.520346 -0.90229)
(197.302 -0.676945 -0.61005)
(199.149 0.128797 1.03415)
(199.409 0.0121738 0.609476)
(199.508 -0.148511 0.129968)
(199.45 -0.327274 -0.337364)
(199.232 -0.523876 -0.77224)
(198.864 -0.731228 -1.13562)
(198.363 -0.948635 -1.38417)
(197.774 -1.17268 -1.46927)
(197.165 -1.40243 -1.33851)
(196.667 -1.61206 -0.964068)
(199.228 1.00917 0.866762)
(199.56 0.879086 0.369048)
(199.69 0.697564 -0.164165)
(199.62 0.5002 -0.693782)
(199.346 0.289881 -1.19017)
(198.873 0.0702014 -1.61221)
(198.213 -0.161612 -1.90294)
(197.41 -0.408716 -1.99724)
(196.54 -0.672289 -1.79889)
(195.798 -0.941318 -1.2547)
(199.535 0.299731 1.46222)
(199.941 0.0780258 0.861635)
(200.098 -0.173026 0.183576)
(200.024 -0.418414 -0.486715)
(199.704 -0.660513 -1.13776)
(199.139 -0.894358 -1.71944)
(198.327 -1.12851 -2.16949)
(197.306 -1.37091 -2.39249)
(196.149 -1.64468 -2.26774)
(195.113 -1.937 -1.63907)
(199.597 1.47033 1.01185)
(200.045 1.24217 0.399542)
(200.22 0.991713 -0.246252)
(200.133 0.757406 -0.9079)
(199.773 0.54262 -1.55174)
(199.132 0.346482 -2.14147)
(198.193 0.156854 -2.59944)
(196.981 -0.0442154 -2.83434)
(195.554 -0.285061 -2.65456)
(194.211 -0.59513 -1.88904)
(199.868 0.0716341 1.79011)
(200.35 -0.266296 1.12364)
(200.537 -0.591459 0.351101)
(200.45 -0.860704 -0.4212)
(200.067 -1.08242 -1.20214)
(199.378 -1.25096 -1.93792)
(198.348 -1.37774 -2.56672)
(196.982 -1.4865 -2.96018)
(195.319 -1.61012 -2.94843)
(193.656 -1.84776 -2.17824)
(199.27 1.66546 0.94949)
(199.732 1.29745 0.370186)
(199.92 1.02197 -0.264547)
(199.815 0.79529 -0.933693)
(199.402 0.64976 -1.60467)
(198.664 0.577593 -2.24959)
(197.562 0.57275 -2.78839)
(196.08 0.625808 -3.11477)
(194.257 0.664505 -3.01119)
(192.369 0.633195 -2.10734)
(198.046 -0.304717 0.237752)
(198.121 -0.334095 0.221172)
(198.134 -0.369793 0.147872)
(198.132 -0.395497 0.0988649)
(198.119 -0.424896 0.0373551)
(198.1 -0.450471 -0.0076456)
(198.076 -0.474281 -0.0468754)
(198.05 -0.494736 -0.0705359)
(198.019 -0.510676 -0.0840341)
(197.94 -0.520011 -0.0851739)
(198.581 0.288889 -0.0108743)
(198.62 0.32554 -0.0874739)
(198.636 0.337806 -0.148058)
(198.627 0.32303 -0.201239)
(198.594 0.293042 -0.240794)
(198.543 0.251967 -0.261909)
(198.48 0.205037 -0.260741)
(198.412 0.157101 -0.233023)
(198.349 0.11299 -0.181831)
(198.302 0.0799982 -0.105299)
(198.618 -0.273633 0.509907)
(198.693 -0.333638 0.359757)
(198.72 -0.401321 0.181485)
(198.701 -0.47514 0.00805478)
(198.635 -0.558338 -0.147633)
(198.53 -0.648271 -0.272027)
(198.398 -0.74085 -0.353221)
(198.256 -0.831035 -0.384148)
(198.125 -0.912658 -0.357862)
(198.029 -0.977021 -0.288503)
(198.623 0.440608 0.324506)
(198.752 0.421977 0.118645)
(198.802 0.360035 -0.101387)
(198.771 0.272692 -0.313921)
(198.66 0.165744 -0.499991)
(198.479 0.0453422 -0.638893)
(198.246 -0.0836081 -0.711406)
(197.987 -0.215037 -0.699218)
(197.739 -0.340516 -0.593942)
(197.552 -0.44818 -0.395396)