/*--------------------------------*- C++ -*----------------------------------*\
| =========                 |                                                 |
| \\      /  F ield         | foam-extend: Open Source CFD                    |
|  \\    /   O peration     | Version:     4.0                                |
|   \\  /    A nd           | Web:         http://www.foam-extend.org         |
|    \\/     M anipulation  |                                                 |
\*---------------------------------------------------------------------------*/
FoamFile
{
    version     2.0;
    format      ascii;
    class       volScalarField;
    location    "400";
    object      alphat;
}
// * * * * * * * * * * * * * * * * * * * * * * * * * * * * * * * * * * * * * //

dimensions      [1 -1 -1 0 0 0 0];

internalField   nonuniform List<scalar> 
34480
(
0.00195527
0.00195256
0.00195102
0.00195058
0.00195146
0.00195466
0.00196366
0.00198886
0.00204703
0.00215182
0.0162219
0.0151901
0.0146206
0.0139187
0.011282
0.00609062
0.0025967
0.00150395
0.00157759
0.00229774
0.0445638
0.0422007
0.0399539
0.0355988
0.025044
0.0113027
0.0041652
0.00208359
0.00195648
0.00278659
0.0485703
0.0458526
0.0435699
0.0389327
0.0270846
0.0117712
0.00410066
0.00194024
0.00184944
0.00281004
0.0474
0.0447727
0.0429603
0.038886
0.0273097
0.0117855
0.0039912
0.00180032
0.00172661
0.00277435
0.0452547
0.0428311
0.0413183
0.0375226
0.0260011
0.0109204
0.00366713
0.00165305
0.00163899
0.00277323
0.0427535
0.0406965
0.0395183
0.0360619
0.0248767
0.0102921
0.00344504
0.00155162
0.00157497
0.00277399
0.0350386
0.0337364
0.0330327
0.0305344
0.0212448
0.00861558
0.00284017
0.00131355
0.00142401
0.00266504
0.0119013
0.0117844
0.0117821
0.0115292
0.00973807
0.00503335
0.00166896
0.000753537
0.000888708
0.00188533
0.00181264
0.00181373
0.00181572
0.00181818
0.00182104
0.00182427
0.00182878
0.00183587
0.00184825
0.00180186
0.00194351
0.00194047
0.00193873
0.00193824
0.00193907
0.00194171
0.00194772
0.00196078
0.00199093
0.00205228
0.0154773
0.0145789
0.0141379
0.0141522
0.0144052
0.014241
0.0121382
0.00749394
0.00358719
0.0037335
0.0416855
0.039725
0.0385297
0.0376
0.0355264
0.0301158
0.0210012
0.0110591
0.00467712
0.00489324
0.0456012
0.0432617
0.0420539
0.0411944
0.0389384
0.0327662
0.0223481
0.0109469
0.0043344
0.00502726
0.0448545
0.0425236
0.0416185
0.0411483
0.0393806
0.0335768
0.0230076
0.0107485
0.00399175
0.00504543
0.0431459
0.0409532
0.0402508
0.0400362
0.0386286
0.033215
0.0228675
0.010402
0.00375241
0.00516192
0.0410739
0.0391821
0.0387126
0.0386877
0.0376181
0.0326934
0.0227551
0.0102199
0.00359089
0.0052698
0.0340403
0.0328246
0.0325892
0.0327357
0.0322357
0.0287782
0.020576
0.00916886
0.00317498
0.00506523
0.0118878
0.0117507
0.0117804
0.011878
0.0119681
0.0117451
0.0103827
0.00534101
0.00176499
0.00306595
0.00180473
0.00180353
0.00180351
0.00180417
0.0018054
0.00180704
0.00181009
0.00181605
0.00183621
0.00187818
0.00192858
0.001926
0.00192456
0.00192431
0.00192523
0.00192757
0.00193235
0.00194212
0.00196174
0.00198816
0.0147158
0.014018
0.0136364
0.0136571
0.0140581
0.0148427
0.0157455
0.0154286
0.0122343
0.00831143
0.0385636
0.0369257
0.0360621
0.0359112
0.0361176
0.0356849
0.0326457
0.0256115
0.0157915
0.0102298
0.0423014
0.0403225
0.0394413
0.0394197
0.0397483
0.039233
0.0354238
0.0260376
0.0141548
0.0100967
0.041958
0.0399843
0.0393243
0.0395424
0.0401891
0.0400872
0.0364674
0.0256405
0.0123751
0.00977301
0.0407077
0.0388402
0.0383264
0.0387027
0.0395995
0.0399404
0.036712
0.0249055
0.010911
0.00958814
0.0391043
0.037478
0.037146
0.0376149
0.0386663
0.0393751
0.0366786
0.0242556
0.0097754
0.00938786
0.0328759
0.031829
0.0316627
0.0320839
0.0330012
0.0339614
0.0325705
0.0215658
0.00817346
0.00863812
0.0118685
0.0117343
0.0117588
0.0118557
0.0120222
0.01217
0.012306
0.0102552
0.00439874
0.0049218
0.00179475
0.0017929
0.0017924
0.00179281
0.00179417
0.00179642
0.00180073
0.00180916
0.00183237
0.00188301
0.00191127
0.00190929
0.00190818
0.00190804
0.0019088
0.00191052
0.0019138
0.0019204
0.00193379
0.00194915
0.0141769
0.0136504
0.0133244
0.0133098
0.0135919
0.0142468
0.0155058
0.0173417
0.0185358
0.0169533
0.0356385
0.0343481
0.0336529
0.0336104
0.034167
0.0351224
0.0356767
0.0343603
0.0296091
0.022274
0.0391451
0.0375496
0.0368257
0.0369019
0.0376197
0.0386615
0.0388913
0.0360409
0.0284107
0.0210478
0.0391604
0.0375651
0.0370166
0.0372581
0.0381626
0.0394232
0.0397547
0.0359496
0.0259832
0.0196801
0.0383498
0.0368237
0.0363863
0.0367407
0.0377982
0.0393347
0.0399478
0.0354692
0.0236515
0.0187893
0.037197
0.0358494
0.0355607
0.0359791
0.0371108
0.0388208
0.0397329
0.0347998
0.0215082
0.0179449
0.0317864
0.0309098
0.0307597
0.0311157
0.0319899
0.0334288
0.0346291
0.0307502
0.0181946
0.0161682
0.0118791
0.0117491
0.0117674
0.0118434
0.0119845
0.0120987
0.012275
0.0122699
0.00921465
0.00899885
0.00178363
0.00178143
0.0017807
0.00178106
0.00178262
0.00178553
0.00179083
0.00180067
0.00182394
0.00187003
0.00189242
0.00189095
0.0018901
0.00189
0.00189054
0.00189169
0.00189386
0.00189832
0.00190802
0.00191882
0.0138939
0.0134918
0.0132119
0.0131729
0.0133512
0.0137978
0.0147602
0.0165781
0.0188981
0.0197063
0.0332076
0.0322482
0.031678
0.0315984
0.032014
0.0330153
0.0346992
0.0365955
0.0371359
0.0337386
0.0364109
0.0351779
0.0345711
0.0345851
0.0351379
0.0362582
0.0379131
0.0393071
0.0382513
0.0331537
0.0366786
0.0354337
0.0349708
0.0351122
0.0357883
0.0370121
0.0386548
0.0395549
0.0367998
0.0312379
0.0362263
0.0350151
0.0346375
0.0348712
0.0356597
0.0370627
0.0388791
0.0394822
0.0350979
0.0298493
0.0354538
0.0343657
0.0341095
0.0343996
0.0352461
0.0367434
0.0386829
0.039027
0.0331012
0.0284287
0.0308115
0.0300906
0.0299521
0.030207
0.0308454
0.0319939
0.0336356
0.0341983
0.0285811
0.0254244
0.0119242
0.011799
0.0118115
0.0118667
0.0119687
0.0120421
0.0120883
0.0123919
0.0122734
0.012998
0.00177155
0.00176916
0.00176828
0.00176862
0.00177031
0.00177365
0.00177939
0.00178944
0.00180993
0.0018461
0.0018725
0.00187141
0.00187076
0.00187067
0.001871
0.00187173
0.00187317
0.00187641
0.0018842
0.00189302
0.0138251
0.0135085
0.0132643
0.0132114
0.0133225
0.013627
0.0143217
0.0157572
0.0178492
0.0189143
0.031413
0.0307142
0.0302457
0.0301279
0.0303565
0.0310514
0.0325818
0.0351551
0.0378326
0.0379547
0.0342443
0.0333104
0.032806
0.0327568
0.0330792
0.0338561
0.03545
0.038153
0.0408331
0.0403434
0.0346248
0.0336751
0.0332929
0.0333458
0.0337555
0.0345839
0.03612
0.0386066
0.040699
0.0396789
0.0344156
0.0334769
0.0331613
0.0332916
0.0337933
0.0347575
0.0364247
0.0388723
0.040245
0.0389385
0.0339264
0.0330704
0.0328529
0.0330337
0.0335922
0.0346339
0.0363678
0.0386952
0.0391456
0.0376375
0.0299688
0.0293898
0.029269
0.02944
0.029865
0.0306402
0.0319397
0.0338533
0.0341029
0.0334936
0.0120077
0.0118886
0.0118971
0.0119358
0.0120044
0.0120481
0.011986
0.0121222
0.0126367
0.0145009
0.00175834
0.0017559
0.00175496
0.0017553
0.00175704
0.00176052
0.00176626
0.00177568
0.00179248
0.00181889
0.00185185
0.00185102
0.0018505
0.0018504
0.0018506
0.00185104
0.00185201
0.00185462
0.0018615
0.00186943
0.0139105
0.0136513
0.0134333
0.0133719
0.0134397
0.0136564
0.0141856
0.0153657
0.0171871
0.0181995
0.0302203
0.0296991
0.0293093
0.0291761
0.0292816
0.0297144
0.0308286
0.0330046
0.0357323
0.0366763
0.032658
0.0319447
0.0315271
0.0314434
0.0316007
0.032053
0.0331659
0.0355431
0.0388863
0.0403404
0.033033
0.0323125
0.0320028
0.0320004
0.0322148
0.0326803
0.0336982
0.0359252
0.0393236
0.0412264
0.0329576
0.0322401
0.0319845
0.0320443
0.0323305
0.032896
0.0340057
0.0362876
0.0396862
0.0420104
0.0326553
0.0319955
0.0318185
0.0319208
0.0322583
0.0328921
0.0340546
0.0363027
0.0393914
0.0417979
0.0292833
0.0288278
0.0287275
0.0288356
0.029098
0.0295673
0.0303825
0.0320548
0.0345244
0.0372316
0.0121374
0.0120248
0.0120303
0.0120564
0.0120998
0.0121201
0.0119977
0.0119606
0.0122814
0.0138789
0.00174385
0.00174151
0.00174058
0.0017409
0.00174261
0.00174598
0.00175137
0.00175967
0.00177285
0.00179159
0.00183062
0.00182996
0.00182952
0.00182942
0.00182953
0.0018298
0.00183047
0.00183278
0.00183919
0.00184668
0.0141017
0.0138799
0.0136803
0.0136132
0.0136523
0.0138139
0.0142479
0.0152877
0.0169535
0.0179484
0.0294933
0.0290862
0.028756
0.0286242
0.0286664
0.0289461
0.0297618
0.0314842
0.0338322
0.034847
0.0315645
0.0310067
0.0306607
0.0305668
0.0306317
0.0308838
0.0316132
0.0333872
0.0362415
0.0378335
0.0318651
0.0313161
0.0310684
0.031039
0.0311361
0.0313696
0.0319655
0.033527
0.0364724
0.0387413
0.031843
0.0312991
0.0310974
0.0311158
0.031263
0.0315591
0.0321933
0.0337553
0.0368606
0.0399809
0.031649
0.031149
0.0310104
0.0310617
0.0312495
0.0315975
0.0322634
0.0337934
0.0368347
0.0405129
0.028765
0.0284135
0.0283339
0.0283979
0.0285469
0.028803
0.0292396
0.0302981
0.0326563
0.036339
0.0123199
0.0122137
0.0122172
0.0122342
0.0122599
0.0122642
0.0121203
0.0119841
0.012096
0.0131691
0.00172796
0.00172582
0.00172495
0.00172526
0.00172685
0.00172994
0.00173473
0.00174166
0.00175166
0.00176482
0.00180884
0.00180829
0.00180791
0.00180782
0.00180787
0.00180802
0.00180854
0.00181068
0.00181684
0.00182414
0.0143685
0.0141699
0.0139831
0.0139122
0.0139317
0.0140574
0.0144412
0.0154007
0.0169806
0.0179723
0.0290864
0.0287529
0.0284679
0.0283455
0.0283589
0.02856
0.0292018
0.0306278
0.0326898
0.0337338
0.0308416
0.0303941
0.0301069
0.0300168
0.030037
0.0301841
0.03069
0.0320465
0.0344174
0.0359243
0.0310458
0.0306242
0.0304283
0.0303902
0.0304253
0.030534
0.0308844
0.0319663
0.0342901
0.036311
0.0310305
0.0306207
0.0304652
0.0304623
0.0305287
0.0306682
0.03101
0.032006
0.0343678
0.0370755
0.030891
0.0305176
0.0304126
0.0304339
0.0305288
0.0307015
0.0310497
0.0319739
0.0342486
0.0374691
0.0284111
0.0281446
0.0280839
0.0281189
0.0281942
0.028316
0.0285163
0.029098
0.0307963
0.0339068
0.0125616
0.0124617
0.012464
0.0124747
0.0124885
0.0124844
0.0123449
0.0121711
0.0121699
0.0129593
0.00171056
0.00170869
0.00170792
0.00170822
0.00170963
0.00171232
0.00171638
0.00172191
0.00172926
0.00173841
0.00178643
0.00178597
0.00178564
0.00178555
0.00178555
0.00178562
0.00178609
0.00178813
0.00179412
0.00180136
0.0146951
0.014511
0.014334
0.0142614
0.0142674
0.0143731
0.0147298
0.0156397
0.0171714
0.0181654
0.0288884
0.0286016
0.0283518
0.0282416
0.0282444
0.028404
0.0289426
0.0301857
0.0320708
0.0331478
0.0303761
0.0300093
0.0297709
0.0296909
0.029692
0.0297867
0.0301687
0.0312774
0.0333507
0.0348567
0.0304906
0.0301654
0.0300122
0.0299749
0.0299809
0.0300293
0.0302515
0.0310568
0.0329767
0.0348809
0.0304634
0.0301569
0.0300395
0.0300276
0.0300508
0.0301078
0.0302914
0.0309527
0.0327766
0.0351474
0.0303471
0.0300727
0.0299956
0.0300009
0.0300424
0.0301173
0.0302888
0.0308454
0.0325037
0.0351829
0.0282075
0.028009
0.0279645
0.0279814
0.0280121
0.0280564
0.0281277
0.0284295
0.0296099
0.0320969
0.0128695
0.0127753
0.012777
0.0127835
0.0127899
0.0127825
0.0126644
0.0124924
0.0124467
0.0131167
0.00169156
0.00169002
0.00168937
0.00168963
0.00169083
0.00169306
0.00169635
0.00170059
0.00170584
0.00171215
0.00176327
0.00176285
0.00176257
0.00176248
0.00176248
0.00176254
0.00176297
0.00176492
0.00177075
0.00177803
0.015086
0.0149053
0.0147358
0.0146639
0.0146663
0.0147635
0.0151005
0.0159755
0.0174801
0.0184847
0.0288221
0.028567
0.0283458
0.0282486
0.0282482
0.0283829
0.0288531
0.0299741
0.0317464
0.0328544
0.0300805
0.0297755
0.0295782
0.0295102
0.0295045
0.0295723
0.0298805
0.0308338
0.0327295
0.0342903
0.0301243
0.0298736
0.0297553
0.0297231
0.0297175
0.029739
0.0298947
0.0305383
0.0322153
0.0341258
0.0300829
0.0298561
0.0297694
0.0297551
0.0297573
0.0297744
0.0298768
0.0303485
0.0318388
0.0340701
0.0299758
0.0297778
0.0297228
0.0297207
0.0297341
0.0297591
0.0298397
0.0301924
0.031459
0.0338381
0.0281332
0.0279879
0.0279563
0.0279627
0.0279685
0.0279724
0.0279821
0.0281379
0.0289944
0.031109
0.0132514
0.0131625
0.0131639
0.0131679
0.0131699
0.0131621
0.013075
0.0129272
0.0128763
0.0134984
0.0016709
0.00166968
0.00166917
0.00166939
0.00167036
0.00167214
0.0016747
0.00167782
0.00168146
0.0016858
0.00173924
0.00173887
0.00173863
0.00173855
0.00173855
0.0017386
0.00173901
0.00174084
0.00174648
0.00175384
0.0155502
0.0153726
0.0152102
0.0151416
0.0151427
0.0152329
0.0155524
0.0163977
0.0178869
0.0189165
0.0288369
0.0286053
0.0284097
0.0283256
0.028325
0.028442
0.0288597
0.0298888
0.031584
0.0327315
0.0298934
0.0296379
0.0294763
0.0294205
0.0294134
0.0294659
0.0297236
0.0305646
0.0323422
0.0339906
0.0298875
0.0296956
0.0296058
0.0295799
0.0295712
0.0295821
0.0297007
0.0302377
0.0317511
0.0337217
0.0298375
0.0296723
0.0296095
0.0295959
0.0295894
0.0295895
0.0296509
0.0300085
0.0312774
0.0334633
0.0297356
0.029596
0.0295579
0.029553
0.0295532
0.0295558
0.0295927
0.0298311
0.0308429
0.0330571
0.0281637
0.0280592
0.0280373
0.0280379
0.0280316
0.0280175
0.0280037
0.0280887
0.0287437
0.0306345
0.0137176
0.0136333
0.0136345
0.0136371
0.0136369
0.0136299
0.0135763
0.013464
0.0134276
0.0140259
0.00164853
0.00164761
0.00164722
0.00164741
0.00164817
0.00164951
0.00165142
0.00165364
0.0016561
0.00165905
0.00171418
0.00171386
0.00171366
0.0017136
0.0017136
0.00171365
0.00171401
0.0017157
0.00172106
0.0017285
0.0160963
0.0159246
0.0157722
0.0157089
0.0157096
0.0157929
0.0160936
0.0169068
0.0183843
0.0194602
0.0289002
0.0286893
0.0285188
0.0284481
0.0284484
0.0285504
0.0289216
0.0298703
0.0315076
0.0327186
0.0297745
0.0295612
0.0294309
0.0293866
0.0293804
0.0294229
0.0296401
0.0303853
0.0320664
0.0338271
0.0297377
0.0295929
0.0295261
0.0295062
0.029498
0.0295055
0.0296006
0.0300549
0.0314336
0.0334786
0.0296865
0.0295685
0.0295236
0.0295119
0.029503
0.0294977
0.0295383
0.029819
0.0309171
0.0330799
0.0295902
0.0294947
0.029469
0.0294636
0.0294588
0.0294535
0.0294712
0.0296413
0.0304675
0.032556
0.028275
0.0282008
0.0281857
0.0281833
0.0281724
0.028153
0.0281344
0.0281875
0.0287064
0.0304285
0.0142824
0.0142016
0.0142027
0.0142045
0.0142036
0.0141977
0.0141728
0.0141002
0.0140859
0.014661
0.0016244
0.00162374
0.00162346
0.00162361
0.00162417
0.00162515
0.00162651
0.00162803
0.00162964
0.00163164
0.00168792
0.00168766
0.00168749
0.00168745
0.00168745
0.00168749
0.0016878
0.00168931
0.00169428
0.00170172
0.0167399
0.0165794
0.0164414
0.0163854
0.0163864
0.016462
0.0167397
0.0175115
0.0189718
0.020121
0.0289912
0.0288022
0.0286581
0.0286007
0.0286023
0.02869
0.0290149
0.0298823
0.0314661
0.0327774
0.0296984
0.0295233
0.0294214
0.0293875
0.0293828
0.0294175
0.029598
0.0302486
0.0318277
0.0337157
0.0296461
0.0295394
0.0294908
0.0294757
0.0294695
0.0294764
0.0295539
0.0299343
0.0311775
0.0332819
0.0295998
0.0295174
0.0294856
0.0294758
0.0294675
0.0294622
0.029492
0.029714
0.0306575
0.0327754
0.0295109
0.0294479
0.0294307
0.0294258
0.0294204
0.0294141
0.0294245
0.0295497
0.0302218
0.032169
0.028445
0.0283925
0.0283816
0.0283778
0.0283666
0.0283483
0.0283319
0.0283718
0.0287871
0.0303447
0.0149658
0.0148871
0.0148881
0.0148897
0.0148888
0.0148843
0.0148748
0.0148421
0.0148506
0.0153909
0.00159845
0.00159801
0.00159782
0.00159793
0.00159834
0.00159901
0.00159992
0.00160093
0.00160195
0.00160328
0.00166031
0.00166011
0.00165998
0.00165995
0.00165995
0.00165998
0.00166024
0.00166152
0.00166595
0.00167324
0.0175059
0.0173645
0.0172461
0.0171994
0.0172011
0.0172676
0.0175158
0.0182296
0.0196542
0.0209058
0.0290967
0.0289341
0.0288177
0.0287734
0.028776
0.0288492
0.029125
0.0298995
0.0314173
0.0328686
0.0296505
0.0295116
0.0294352
0.0294102
0.0294073
0.0294352
0.0295803
0.0301292
0.0315779
0.0335845
0.0295942
0.0295181
0.0294832
0.0294719
0.0294678
0.0294751
0.0295377
0.0298464
0.0309347
0.0330508
0.0295566
0.0295003
0.0294775
0.0294693
0.0294629
0.0294597
0.0294835
0.0296561
0.0304439
0.0324604
0.0294764
0.0294365
0.0294248
0.0294206
0.0294163
0.0294122
0.0294205
0.0295128
0.0300447
0.0318025
0.0286543
0.028616
0.0286074
0.028603
0.0285936
0.0285795
0.0285672
0.0286004
0.0289281
0.0302997
0.0157968
0.0157191
0.0157199
0.0157216
0.0157213
0.0157183
0.0157124
0.0157063
0.0157348
0.0162221
0.00157063
0.00157036
0.00157024
0.00157032
0.0015706
0.00157104
0.00157163
0.00157225
0.00157287
0.00157372
0.00163123
0.0016311
0.00163102
0.001631
0.001631
0.00163102
0.00163121
0.00163223
0.00163597
0.00164282
0.0184334
0.0183212
0.0182274
0.0181916
0.018194
0.0182495
0.0184605
0.0190927
0.020444
0.0218181
0.0292095
0.0290784
0.0289899
0.0289573
0.0289605
0.0290192
0.0292424
0.0299048
0.0313218
0.0329349
0.0296232
0.029519
0.0294649
0.0294472
0.0294458
0.0294677
0.0295786
0.0300163
0.0312864
0.0333583
0.0295707
0.0295182
0.0294932
0.0294844
0.0294821
0.0294899
0.0295393
0.0297772
0.0306826
0.032722
0.029543
0.0295048
0.0294878
0.0294808
0.0294765
0.0294762
0.0294961
0.0296252
0.0302501
0.03208
0.0294716
0.0294472
0.0294386
0.029435
0.0294324
0.0294312
0.0294396
0.0295061
0.0299059
0.0314088
0.0288847
0.0288549
0.028847
0.0288426
0.0288358
0.0288268
0.0288199
0.0288462
0.0290949
0.0302488
0.0168185
0.0167412
0.0167417
0.0167436
0.0167442
0.0167428
0.016739
0.0167345
0.0167667
0.0171793
0.00154091
0.00154075
0.00154068
0.00154074
0.00154091
0.0015412
0.00154156
0.00154192
0.00154227
0.00154278
0.00160075
0.00160066
0.00160061
0.00160061
0.0016006
0.00160061
0.00160074
0.00160147
0.00160436
0.0016104
0.0195838
0.0195113
0.0194461
0.0194218
0.0194248
0.0194678
0.0196338
0.020156
0.0213708
0.0228544
0.0293273
0.0292301
0.0291663
0.029143
0.0291462
0.0291912
0.0293602
0.029889
0.0311443
0.0328883
0.0296144
0.0295418
0.0295054
0.0294933
0.029493
0.0295101
0.0295893
0.0299105
0.0309426
0.0329585
0.0295688
0.029533
0.0295143
0.0295071
0.0295063
0.0295145
0.0295524
0.029723
0.0304191
0.0322512
0.0295497
0.0295231
0.0295094
0.0295033
0.0295009
0.0295032
0.0295206
0.0296121
0.0300706
0.0316097
0.0294861
0.029471
0.0294639
0.0294607
0.0294596
0.0294611
0.02947
0.0295164
0.0297945
0.0309768
0.0291181
0.0290927
0.0290848
0.0290805
0.0290763
0.0290721
0.0290706
0.0290923
0.0292696
0.0301758
0.0180974
0.0180202
0.0180207
0.0180229
0.0180242
0.0180242
0.0180221
0.018018
0.0180375
0.0183635
0.0015093
0.0015092
0.00150916
0.0015092
0.00150931
0.00150949
0.00150971
0.00150992
0.00151012
0.00151039
0.00156885
0.00156894
0.00156892
0.00156893
0.00156893
0.00156893
0.001569
0.00156945
0.00157141
0.00157617
0.0210557
0.021031
0.0209948
0.0209814
0.0209847
0.0210146
0.0211305
0.0215152
0.0225045
0.0240047
0.0294496
0.0293819
0.0293367
0.0293195
0.0293222
0.0293549
0.0294723
0.0298525
0.0308647
0.0326098
0.0296237
0.0295764
0.0295523
0.0295437
0.0295444
0.0295579
0.0296109
0.0298209
0.0305641
0.0323253
0.0295843
0.0295587
0.0295433
0.029537
0.0295373
0.0295457
0.0295743
0.0296864
0.0301624
0.0316304
0.0295709
0.0295507
0.0295387
0.0295332
0.0295324
0.0295368
0.0295523
0.0296136
0.0299147
0.0310647
0.0295135
0.0295029
0.0294962
0.0294932
0.0294932
0.0294966
0.029506
0.0295377
0.0297119
0.0305323
0.0293353
0.0293119
0.0293037
0.0292997
0.0292975
0.0292971
0.0292999
0.0293189
0.029437
0.0300846
0.01974
0.0196642
0.0196647
0.019667
0.0196688
0.0196698
0.0196689
0.0196652
0.0196736
0.0199124
0.00147597
0.0014759
0.00147586
0.00147588
0.00147595
0.00147606
0.00147621
0.00147635
0.0014765
0.00147664
0.00153611
0.00153608
0.00153607
0.00153607
0.00153607
0.00153608
0.00153612
0.00153637
0.00153745
0.00154053
0.023011
0.0230346
0.0230226
0.0230176
0.0230207
0.0230385
0.0231055
0.0233375
0.0240035
0.0252877
0.0295719
0.0295218
0.0294879
0.029474
0.0294759
0.0294985
0.0295715
0.0298047
0.0304956
0.031985
0.0296493
0.0296179
0.0296003
0.0295933
0.0295945
0.0296056
0.0296397
0.0297582
0.0302001
0.0314718
0.0296144
0.0295933
0.0295797
0.029574
0.0295748
0.0295829
0.0296045
0.0296713
0.0299451
0.0309186
0.0296035
0.0295862
0.0295753
0.0295704
0.0295705
0.029576
0.0295899
0.0296294
0.029799
0.0305111
0.0295527
0.0295433
0.0295368
0.0295339
0.0295344
0.0295385
0.0295478
0.0295701
0.0296659
0.0301363
0.0295167
0.0294954
0.0294871
0.0294834
0.0294825
0.0294843
0.0294899
0.0295068
0.0295798
0.0299839
0.0219291
0.0218583
0.0218588
0.021861
0.0218629
0.0218642
0.0218642
0.0218611
0.0218614
0.0220188
0.00144114
0.00144106
0.00144101
0.00144102
0.00144106
0.00144115
0.00144127
0.0014414
0.00144155
0.00144166
0.00150106
0.00150097
0.00150093
0.00150091
0.00150091
0.00150094
0.001501
0.00150115
0.00150161
0.00150301
0.0257354
0.0257866
0.0257876
0.0257869
0.0257889
0.025797
0.0258239
0.0259159
0.0262083
0.0269176
0.0296804
0.0296359
0.0296098
0.0295988
0.0295996
0.0296134
0.0296513
0.0297591
0.0300967
0.0310121
0.0296834
0.0296586
0.0296448
0.0296389
0.0296397
0.0296478
0.0296679
0.0297219
0.0299105
0.0305574
0.0296545
0.0296352
0.0296242
0.0296196
0.0296202
0.0296265
0.0296409
0.0296753
0.0297936
0.0302626
0.0296449
0.0296293
0.0296204
0.0296166
0.029617
0.0296217
0.0296323
0.0296556
0.0297312
0.0300602
0.0296069
0.0295974
0.0295916
0.0295891
0.0295897
0.0295934
0.029601
0.029616
0.0296604
0.0298665
0.0296473
0.0296297
0.0296224
0.0296194
0.0296192
0.0296218
0.029628
0.0296418
0.0296822
0.0298886
0.02501
0.0249549
0.0249551
0.0249565
0.024958
0.0249594
0.0249602
0.0249588
0.0249565
0.0250435
0.00140427
0.00140418
0.00140412
0.00140411
0.00140415
0.00140422
0.00140434
0.00140447
0.00140463
0.00140478
0.00249794
0.00251581
0.0024996
0.00245561
0.00172963
0.0017449
0.00173138
0.00170816
0.00216962
0.00219987
0.0021797
0.00213558
0.00246161
0.00250516
0.00247576
0.00241116
0.00271879
0.00277263
0.00273634
0.00266391
0.00298593
0.00304918
0.00300936
0.00293424
0.00320716
0.00327743
0.00323635
0.00316367
0.00333019
0.0034062
0.00336741
0.00330105
0.00292521
0.00299399
0.00295576
0.00290519
0.00233292
0.00234701
0.002316
0.00224355
0.00213734
0.00214262
0.00214047
0.00213129
0.00391064
0.00393562
0.00373898
0.00341803
0.00492495
0.00492671
0.00465434
0.00427458
0.00533344
0.00537317
0.00506987
0.00464754
0.0057997
0.00589378
0.00555865
0.00507601
0.00652069
0.00668892
0.00630924
0.00573544
0.00723518
0.00747366
0.0070367
0.0063736
0.00769374
0.00800932
0.00752607
0.00679434
0.00581238
0.00610299
0.00566914
0.00508747
0.00215514
0.00218352
0.0021761
0.00214419
0.00200416
0.00200522
0.00200367
0.00200021
0.00630259
0.00621075
0.00607604
0.00603045
0.00726999
0.00706571
0.00687585
0.0068682
0.00722887
0.00702793
0.00683764
0.00680692
0.0073179
0.00713423
0.00692297
0.00680711
0.00776093
0.00760679
0.00734526
0.00710006
0.00823983
0.0081
0.00776573
0.00737978
0.00847936
0.0083844
0.00799125
0.00747162
0.00609053
0.00606229
0.00575961
0.00531861
0.00203063
0.00204551
0.0020431
0.00202754
0.0019482
0.00194678
0.00194561
0.00194475
0.0141022
0.0136479
0.0136017
0.0139843
0.0161591
0.0154289
0.0154507
0.0162783
0.0144581
0.0138459
0.0139489
0.014833
0.0132449
0.012745
0.0128586
0.0136851
0.0128309
0.0124346
0.0125289
0.013257
0.0126004
0.0122661
0.0123086
0.0129017
0.0120929
0.0118728
0.0118708
0.0122742
0.00804244
0.00799813
0.00797059
0.0080839
0.0019443
0.00195314
0.00195368
0.00194712
0.00191461
0.00191284
0.00191167
0.00191104
0.019385
0.019195
0.0190551
0.0189789
0.0302432
0.0295979
0.0294396
0.0297614
0.0272807
0.0264512
0.0264008
0.0271165
0.0239728
0.0231591
0.02323
0.0242269
0.0220055
0.0213146
0.0214835
0.0226425
0.0204879
0.0199032
0.0201023
0.0213107
0.0185562
0.0181804
0.0183851
0.0194533
0.0109783
0.0109156
0.0109861
0.0113758
0.00188391
0.00188918
0.00189034
0.00188791
0.00188738
0.00188541
0.00188422
0.00188372
0.0188609
0.0186735
0.018492
0.0183391
0.0369163
0.0365603
0.0362861
0.0361273
0.0374859
0.0367802
0.0364376
0.0364746
0.0348604
0.0338936
0.0336113
0.0340153
0.0325628
0.031546
0.0314186
0.0322005
0.0301782
0.0292074
0.0292185
0.0302933
0.0265178
0.0258243
0.02595
0.0270466
0.0133108
0.0132036
0.0131925
0.0133971
0.00183784
0.00184086
0.00184194
0.00184131
0.00186294
0.00186083
0.00185963
0.00185924
0.0180949
0.0178915
0.0177054
0.0175552
0.0361881
0.035939
0.0356675
0.0354101
0.0390601
0.0386283
0.0382722
0.0380256
0.0389894
0.0383219
0.0379185
0.0378129
0.0388063
0.0379664
0.0375973
0.0377355
0.0375298
0.0365786
0.0362949
0.0367275
0.0329806
0.0322222
0.0320807
0.0326291
0.0134696
0.0133855
0.0132545
0.0132016
0.00180096
0.00180264
0.00180345
0.00180352
0.00183948
0.00183723
0.00183601
0.00183573
0.0177713
0.0175494
0.0173617
0.0172239
0.0343841
0.0341447
0.0338788
0.0336169
0.0367474
0.0363687
0.0360246
0.0357432
0.037122
0.036585
0.0361861
0.0359606
0.0381156
0.0374844
0.037076
0.0369404
0.0383488
0.0376367
0.0372431
0.0372364
0.0342524
0.0336597
0.0333544
0.0334232
0.0126341
0.0125627
0.0124396
0.0123738
0.00176946
0.00177037
0.0017709
0.00177116
0.00181629
0.0018139
0.00181267
0.00181248
0.0176977
0.01745
0.0172573
0.0171335
0.0332232
0.0329811
0.0327297
0.0324914
0.0348344
0.0344653
0.0341437
0.0338877
0.0347591
0.0342532
0.0338829
0.0336739
0.0353809
0.0348035
0.0344155
0.0342608
0.035708
0.0350825
0.0346903
0.0346008
0.0322814
0.0317622
0.0314388
0.0314026
0.0122961
0.0122564
0.0121748
0.0121293
0.00174072
0.00174118
0.00174149
0.00174176
0.00179296
0.00179044
0.0017892
0.00178911
0.0177699
0.017489
0.0172875
0.0171781
0.0325316
0.0322721
0.0320303
0.0318216
0.0337267
0.033354
0.0330541
0.032837
0.0333848
0.0329022
0.0325695
0.0324035
0.0335427
0.0330046
0.032662
0.0325484
0.0335453
0.0329727
0.0326286
0.0325707
0.0305725
0.030099
0.0298201
0.0298121
0.0124521
0.0124611
0.0124137
0.0123687
0.00171326
0.00171347
0.00171363
0.00171388
0.0017692
0.00176658
0.00176533
0.00176534
0.0179521
0.0176327
0.0174195
0.0173251
0.0320855
0.0317954
0.0315558
0.0313756
0.0330791
0.0326871
0.0323992
0.0322203
0.0326724
0.0322021
0.0318996
0.031777
0.0325883
0.0320892
0.0317923
0.0317246
0.0323908
0.031882
0.0315963
0.0315806
0.0297685
0.0293581
0.0291366
0.0291646
0.0128824
0.0129441
0.012924
0.0128704
0.00168626
0.00168634
0.00168641
0.00168662
0.00174476
0.00174206
0.00174082
0.00174093
0.0182382
0.0178764
0.0176503
0.0175717
0.0317805
0.03145
0.0312067
0.0310536
0.0326731
0.0322503
0.0319663
0.0318237
0.0322938
0.0318252
0.0315442
0.0314625
0.0321047
0.0316371
0.031378
0.0313528
0.0318211
0.0313723
0.0311381
0.0311596
0.0295176
0.029171
0.029001
0.0290577
0.0134688
0.0135818
0.0135842
0.0135178
0.00165917
0.00165917
0.00165919
0.00165937
0.0017194
0.00171668
0.00171547
0.00171568
0.0186363
0.0182304
0.0179909
0.01793
0.0315756
0.0311985
0.0309476
0.0308213
0.0324056
0.0319477
0.0316639
0.0315576
0.0320803
0.0316103
0.0313469
0.0313049
0.0318478
0.0314075
0.0311808
0.0311948
0.0315294
0.0311342
0.0309435
0.0309965
0.0295357
0.0292461
0.0291188
0.0291968
0.0141583
0.0143202
0.014341
0.0142584
0.00163156
0.00163152
0.00163152
0.00163167
0.00169291
0.00169023
0.00168908
0.00168938
0.0191641
0.0187142
0.0184625
0.0184221
0.0314555
0.0310296
0.0307697
0.0306718
0.0322236
0.0317347
0.0314526
0.0313851
0.0319443
0.0314781
0.0312338
0.0312319
0.0316897
0.0312797
0.0310841
0.031134
0.0313527
0.0310087
0.0308563
0.0309347
0.0296677
0.0294295
0.029337
0.0294289
0.0149308
0.0151389
0.0151741
0.0150721
0.00160309
0.00160304
0.00160302
0.00160314
0.00166507
0.00166252
0.00166145
0.00166184
0.0198466
0.0193561
0.0190952
0.0190794
0.0314107
0.03094
0.0306731
0.0306078
0.032089
0.031583
0.0313101
0.0312855
0.0318299
0.0313813
0.0311621
0.0312
0.0315561
0.0311852
0.0310225
0.0311034
0.0312014
0.03091
0.0307929
0.0308895
0.029829
0.0296387
0.0295748
0.0296718
0.015785
0.0160359
0.0160816
0.0159576
0.00157347
0.00157343
0.0015734
0.0015735
0.00163571
0.00163338
0.00163244
0.0016329
0.0207157
0.0201932
0.0199292
0.0199432
0.0314234
0.0309219
0.0306559
0.0306293
0.0319604
0.0314627
0.0312123
0.0312341
0.0316911
0.0312809
0.0310957
0.0311697
0.0313959
0.0310767
0.0309495
0.0310523
0.0310223
0.0307861
0.0307019
0.030807
0.0299709
0.0298261
0.0297847
0.0298766
0.0167353
0.0170227
0.017075
0.0169281
0.0015425
0.00154246
0.00154243
0.00154251
0.00160475
0.00160274
0.00160196
0.00160246
0.0218091
0.0212713
0.0210145
0.0210648
0.0314533
0.0309501
0.0307005
0.0307188
0.0317838
0.0313308
0.0311205
0.0311867
0.0314833
0.0311359
0.0309927
0.0310918
0.0311706
0.0309151
0.0308238
0.0309336
0.0307853
0.0306054
0.0305498
0.0306511
0.0300641
0.0299621
0.0299365
0.030012
0.0178821
0.0182079
0.0182661
0.0180962
0.00151011
0.00151009
0.00151007
0.00151012
0.00157227
0.00157067
0.00157008
0.00157058
0.023169
0.0226445
0.022411
0.0225026
0.0314239
0.0309666
0.0307553
0.030816
0.0314929
0.0311264
0.0309719
0.0310677
0.0311664
0.0309028
0.0308039
0.0309065
0.0308559
0.0306708
0.0306105
0.0307072
0.0304846
0.0303577
0.0303232
0.0304067
0.0300892
0.0300252
0.0300074
0.0300567
0.0193792
0.0197475
0.0198086
0.0196096
0.00147641
0.0014764
0.00147639
0.00147643
0.00153843
0.00153731
0.00153694
0.00153738
0.0248453
0.0243752
0.024186
0.0243163
0.0312165
0.0308652
0.0307109
0.0307866
0.0310302
0.0307825
0.0306866
0.0307771
0.0307233
0.0305518
0.0304888
0.0305648
0.0304578
0.0303394
0.0302991
0.0303625
0.0301492
0.030067
0.0300429
0.0300967
0.0300361
0.0300007
0.0299833
0.0300036
0.0214419
0.0218519
0.0219106
0.0216781
0.00144161
0.00144163
0.00144163
0.00144165
0.00150243
0.00150185
0.00150169
0.00150201
0.0269399
0.0265679
0.0264409
0.0265868
0.0306979
0.0304912
0.030387
0.0304236
0.0304119
0.0302788
0.0302193
0.0302643
0.0302119
0.0301154
0.0300685
0.0300998
0.0300534
0.0299833
0.0299489
0.0299749
0.029869
0.029817
0.0297939
0.029819
0.0299269
0.0299016
0.0298812
0.0298863
0.0245188
0.0249183
0.0249618
0.0247232
0.00140512
0.00140521
0.00140521
0.00140517
0.0022777
0.00213442
0.00205374
0.00201418
0.00199127
0.00197793
0.00196982
0.0019646
0.00196119
0.00195875
0.00242099
0.00259033
0.00602929
0.0104088
0.0146223
0.0177634
0.0193229
0.0194476
0.0187267
0.0176666
0.00306155
0.00409143
0.0090935
0.0169408
0.0260519
0.034522
0.0411611
0.0452857
0.0468643
0.0464878
0.00331552
0.00476746
0.00962994
0.0187159
0.0297709
0.0395931
0.0467539
0.0507709
0.0519239
0.0510292
0.00347239
0.00459573
0.00950722
0.0196999
0.0322496
0.0424745
0.0489944
0.0518508
0.0518939
0.0502591
0.00365919
0.00445366
0.00934046
0.0204164
0.0340863
0.0442354
0.0497631
0.0513451
0.0503979
0.0482402
0.00378423
0.00425924
0.0090661
0.0207907
0.0352811
0.0449423
0.0492217
0.0495568
0.0478513
0.0455037