/*--------------------------------*- C++ -*----------------------------------*\
| =========                 |                                                 |
| \\      /  F ield         | foam-extend: Open Source CFD                    |
|  \\    /   O peration     | Version:     4.0                                |
|   \\  /    A nd           | Web:         http://www.foam-extend.org         |
|    \\/     M anipulation  |                                                 |
\*---------------------------------------------------------------------------*/
FoamFile
{
    version     2.0;
    format      ascii;
    class       volScalarField;
    location    "400";
    object      divFlux;
}
// * * * * * * * * * * * * * * * * * * * * * * * * * * * * * * * * * * * * * //

dimensions      [1 -3 -1 0 0 0 0];

internalField   nonuniform List<scalar> 
34480
(
0.0214748
0.0169296
0.0170424
0.0147211
0.0154282
0.0142398
0.0141724
8.18757
31.7649
0.000155842
0.284082
0.168973
0.0747358
0.0328304
0.0333885
0.0283009
0.0233207
3.5922
24.4355
0.011016
0.0511686
0.012833
0.0386151
0.0179691
0.0221003
0.0204065
0.0167781
0.0101034
15.8496
0.0156085
0.06573
0.0482543
0.0331726
0.015265
0.0154604
0.0123551
0.0105766
0.00715387
8.34233
0.00568572
0.0350994
0.0304137
0.0154041
0.00705177
0.00622211
0.00460447
0.00431788
0.00377675
2.63562
0.00158232
0.00520928
0.0115307
0.00395861
0.000763336
0.000673616
0.00098202
0.00153736
0.00149395
0.000414496
0.00101743
0.010544
0.000935451
0.00181624
0.00222124
0.00143321
0.000303597
0.000425033
0.000506529
9.58474e-06
0.000433677
0.0126186
0.00330462
0.00359292
0.00273202
0.0015641
0.000421972
5.00115e-05
2.27741e-05
0.00032613
3.93965e-05
0.00950658
0.00350234
0.00313554
0.00211806
0.00103404
0.00024428
0.000109776
0.000287477
0.000686842
0.000472323
0.00599361
0.00281674
0.00220211
0.00135245
0.000619404
0.000242461
0.000276639
0.000496306
0.000873826
0.000591069
0.771846
0.274001
0.131226
0.00587645
0.00319871
0.00376804
0.00372106
0.00409471
1.70444
7.51198
0.502079
0.148695
0.0178356
0.0127166
0.00679866
0.00623583
0.00703541
0.00589788
4.51012
8.41919
0.203879
0.0110404
0.024495
0.0168298
0.00787234
0.00535886
0.00775303
0.00604025
4.15762
6.40833
0.0886537
0.00343204
0.0170897
0.00959254
0.00382153
8.7257e-05
0.00139472
0.00624514
2.19853
3.08145
0.00263483
0.00555567
0.00839237
0.00453913
0.00219916
0.0012209
0.00342508
0.00141279
0.00161319
0.0208463
0.00715972
0.0102654
0.00866473
0.00491803
0.00186866
0.000952862
0.00363029
0.00176325
0.000695065
0.0137356
0.00859899
0.0162453
0.0114721
0.00614871
0.00155661
0.00113704
0.00298719
0.00233138
0.000623828
0.00916737
0.0193121
0.0165034
0.0104302
0.00474808
5.96241e-05
0.00175569
0.00225745
0.00151862
0.0003829
0.00554539
0.0167869
0.0123157
0.00693711
0.00209692
0.00153587
0.00211065
0.00118517
0.000402409
0.00220626
0.00255262
0.0094275
0.00829669
0.00359346
0.000442051
0.00166059
0.00167202
0.000228436
0.00179253
0.00315232
7.64138e-05
1.58849
1.10729
1.07084
0.95299
1.0047
1.19638
1.68329
2.59056
4.76192
7.01598
1.0698
0.5255
0.437404
0.327367
0.377489
0.590845
0.981219
1.37575
4.70747
5.796
0.0310191
0.027397
0.00697379
0.0101931
0.00968759
0.0106198
0.00239859
0.0610882
3.77477
3.33002
0.0933293
0.0177404
0.027924
0.0226063
0.016583
0.0131481
0.0112973
0.00948293
2.35191
0.712922
0.084213
0.0209594
0.0193586
0.0150688
0.0113838
0.00859289
0.00660661
0.00688035
0.806936
0.0110725
0.0416452
0.00915261
0.00653859
0.00584452
0.00566799
0.00462894
0.0030517
0.00397073
0.00374442
0.0065262
0.0110462
0.000865683
0.00160029
8.51856e-05
0.00191287
0.0019944
0.00131148
0.0025492
0.00249757
0.00450116
0.00826669
0.00718489
0.00527611
0.00220601
0.000425143
0.00085693
0.000709504
0.00194905
0.00184389
0.00308014
0.0107394
0.00755813
0.00503429
0.00185301
0.000537009
0.000731078
0.000656651
0.00138939
0.00111389
0.00145589
0.0119638
0.00645115
0.00377511
0.00117477
0.000508015
0.000734586
0.000692626
0.000560998
2.81108e-05
0.000169115
1.65833
1.27062
1.23424
1.15676
1.24244
1.41733
1.78254
2.32917
3.35516
5.21108
1.13331
0.635931
0.558404
0.502964
0.593108
0.843036
1.32832
1.88423
3.57956
5.63631
0.223703
0.0262789
0.0216154
0.0207345
0.0178283
0.0126234
0.362889
0.712948
2.93833
4.90887
0.0918671
0.0410043
0.0264274
0.0204089
0.0158398
0.0104039
0.00491625
0.00106734
2.27429
3.92895
0.0402824
0.0270244
0.0170971
0.0123935
0.00915646
0.0056778
0.00196131
0.00161085
1.38419
2.7053
0.0206505
0.0193969
0.0129268
0.0086499
0.00555795
0.00279422
0.000448404
0.00207555
0.801409
1.74674
0.0223771
0.018511
0.012439
0.00763551
0.00403718
0.00138982
0.000361674
0.00215701
0.0368061
0.681061
0.0231273
0.0157177
0.01014
0.0056249
0.00225415
0.000176585
0.000896852
0.00197435
0.00207632
0.128683
0.0177415
0.0113197
0.00681581
0.00313668
0.000443909
0.000776015
0.0010223
0.00110702
0.000683106
0.00234069
0.0123954
0.00643566
0.00344989
0.0011562
0.000447357
0.000967754
0.000689872
4.4629e-05
0.000795771
0.000847659
1.44248
1.17925
1.16072
1.11532
1.21178
1.36177
1.64754
2.04553
2.61952
3.69693
0.949772
0.613561
0.553659
0.540528
0.651343
0.892645
1.30536
1.87617
2.82346
4.24116
0.131641
0.0441799
0.026828
0.0150425
0.00846114
0.182466
0.571163
1.04864
2.21019
3.73597
0.0182915
0.0162955
0.00771118
0.00177856
0.000865154
0.000583682
0.00130751
0.363585
1.74259
3.25893
0.00409844
0.000665659
0.00125112
0.00299677
0.00325647
0.00187162
0.000498481
0.00268658
1.1534
2.56509
0.00318658
0.00283054
0.00313809
0.00332583
0.0025724
0.000871929
0.00102757
0.002424
0.825394
2.06047
0.00615081
0.00525688
0.00410003
0.00307974
0.00156848
0.000253099
0.00164538
0.00227255
0.320907
1.41103
0.00447692
0.00356223
0.00250857
0.00139744
1.7182e-05
0.00131962
0.0018562
0.00162451
0.238185
1.1614
0.0027921
0.00183224
0.00083239
0.000140559
0.00122164
0.00182505
0.00141856
0.000239694
0.000960364
0.705018
0.000224191
0.000898744
0.00100966
0.00112651
0.00140602
0.0013463
0.000470919
0.00097067
0.00173722
1.04047
1.11245
0.925554
0.928278
0.895287
0.971319
1.06356
1.23672
1.45436
1.71526
2.20773
0.749981
0.508154
0.461485
0.460372
0.547432
0.720474
0.989412
1.37262
1.84959
2.63086
0.198214
0.00826627
0.00735842
0.00642788
0.0331011
0.217135
0.520319
0.926907
1.55333
2.44922
0.0398915
0.0232147
0.0164621
0.0112799
0.00800103
0.0067238
0.126032
0.506088
1.28922
2.2889
0.0254311
0.0167622
0.0117043
0.00757696
0.00512427
0.00433218
0.00403367
0.033852
0.916451
1.95536
0.0152014
0.0107104
0.00735402
0.00455509
0.00318656
0.00302686
0.00287851
0.00162545
0.739219
1.74715
0.0126769
0.00820968
0.00567113
0.00352789
0.00269812
0.00271216
0.00239735
0.00108227
0.393448
1.3819
0.0122786
0.00747805
0.00508199
0.00330105
0.00265184
0.00247145
0.00169166
8.01634e-05
0.398461
1.33673
0.00922938
0.00580498
0.00408027
0.0027818
0.00227515
0.00185071
0.000574856
0.00135444
0.0902176
1.16242
0.00666002
0.0043029
0.0028607
0.00170316
0.00109824
0.000547083
0.000589351
0.00192066
0.243113
1.41129
0.790236
0.643167
0.662209
0.634381
0.688261
0.73576
0.833479
0.945803
1.06458
1.30173
0.543491
0.363898
0.33388
0.335949
0.393137
0.500405
0.655734
0.877645
1.09151
1.49991
0.224314
0.0280887
0.0210794
0.01499
0.0551454
0.180399
0.377646
0.64993
0.967161
1.45146
0.043664
0.0184045
0.0125003
0.00814644
0.00512509
0.00285504
0.128612
0.420886
0.857391
1.43284
0.0193342
0.00739928
0.00444101
0.00267026
0.00154337
0.000697296
0.00106139
0.130657
0.651617
1.30206
0.0117629
0.00320974
0.00137083
0.000660922
0.000211257
0.000122365
0.00052765
0.00366312
0.584726
1.26322
0.00353838
0.000297231
0.00103218
0.000794246
0.000673728
0.000559606
0.000335927
0.00186129
0.35193
1.06751
0.00046702
0.00127016
0.0013956
0.000900141
0.000627509
0.00029018
0.000782145
0.00214611
0.405662
1.13092
0.000227097
0.000944245
0.000813734
0.000296818
3.02983e-05
0.000382467
0.00151956
0.00264302
0.186278
1.05374
0.000760786
0.000538707
0.00060864
0.000871664
0.000973993
0.0011805
0.00172225
0.00186514
0.30049
1.22142
0.473729
0.383279
0.409962
0.384843
0.42192
0.441458
0.493968
0.546399
0.594755
0.702901
0.290629
0.197273
0.18306
0.188237
0.223542
0.285184
0.368367
0.485295
0.563714
0.765581
0.0812117
0.0027421
0.000923722
0.000359534
0.0190539
0.0996634
0.217179
0.373505
0.510969
0.765499
0.0115571
0.00562938
0.00496117
0.00410117
0.00341459
0.00310674
0.0716111
0.258522
0.478137
0.797971
0.0114662
0.00567162
0.00444959
0.00342525
0.00282923
0.00269706
0.00355166
0.0982197
0.384695
0.767673
0.0085009
0.00394232
0.00290474
0.00225323
0.00191373
0.00196523
0.0027855
0.0539206
0.394393
0.817786
0.00674991
0.0032702
0.00211456
0.00167417
0.0014864
0.00165609
0.00238672
0.00245923
0.24532
0.721014
0.00655579
0.00326361
0.00219555
0.00177575
0.00156904
0.00171973
0.00230305
0.00215316
0.329053
0.832153
0.00424783
0.0026175
0.00206182
0.00186006
0.00167519
0.00174399
0.00208553
0.00157687
0.163276
0.754313
0.00243499
0.00206129
0.00172222
0.00149163
0.00124204
0.00113142
0.000938194
3.60535e-05
0.261908
0.888471
0.228701
0.181957
0.210277
0.187419
0.213378
0.218575
0.246903
0.26939
0.288417
0.3368
0.1025
0.0640507
0.057503
0.062296
0.0821742
0.115076
0.156196
0.213477
0.240264
0.335832
0.00356548
0.0109301
0.00862803
0.00610201
0.00414023
0.0265121
0.0905439
0.170765
0.23229
0.352568
0.0265589
0.0109099
0.00794671
0.00537996
0.00339425
0.00174568
0.00510405
0.111352
0.218142
0.392747
0.0167144
0.00727947
0.00505934
0.00335626
0.00193675
0.000689702
0.000222101
0.0313923
0.1799
0.398781
0.0124022
0.00543461
0.00354712
0.00214183
0.00106703
0.000132757
0.000498783
0.0359816
0.224002
0.473947
0.00796216
0.00301866
0.00183194
0.00088209
0.000199295
0.000433839
0.000790709
0.000363126
0.126403
0.422484
0.00568842
0.00206581
0.000986129
0.000264874
0.0001674
0.000565611
0.00067179
0.000462397
0.224826
0.544147
0.00442542
0.00151638
0.000640439
0.000126573
6.59196e-05
0.000198164
2.38745e-05
0.00124975
0.100971
0.462867
0.00316197
0.0015108
0.0011013
0.00083196
0.00073054
0.00070608
0.00114157
0.00200435
0.188419
0.573594
0.089787
0.0500236
0.0779726
0.0575241
0.0756532
0.073897
0.0885787
0.0964986
0.106517
0.126844
0.0101958
0.000442852
0.000522459
0.000549683
0.000234658
0.00421026
0.0221815
0.0486182
0.0598191
0.105637
0.0119742
0.00396078
0.00270931
0.0018854
0.00116208
0.000483963
0.011304
0.0498088
0.0831783
0.128477
0.00367992
0.00120262
0.000485072
0.000222917
4.46738e-05
0.000153695
0.000650841
0.0154872
0.0708247
0.156025
0.000859538
1.37664e-05
0.000208876
0.000332016
0.000339224
0.00039771
0.000943534
0.0024059
0.0569569
0.174079
3.82972e-05
0.000253332
0.000395475
0.000351703
0.000314778
0.000361736
0.000877541
0.00629812
0.107171
0.24488
0.00189842
0.000729093
0.000663497
0.000445991
0.000338431
0.000322212
0.000754907
0.00168334
0.0361629
0.208283
0.0025873
0.00124607
0.000882289
0.000608628
0.000520527
0.000537536
0.000993209
0.00226044
0.135429
0.320828
0.000835519
0.000635693
0.000653046
0.000647744
0.000754844
0.000931565
0.00152316
0.00218714
0.0393015
0.245527
0.000752763
0.000104973
0.000215952
0.000358076
0.000488325
0.000716885
0.00129019
0.00135958
0.115292
0.333462
0.0150043
0.00140852
0.00187153
0.00198492
0.0017348
0.00135053
0.000870659
0.00098801
0.0078237
0.0222386
0.0115568
0.00121317
0.00163377
0.00161569
0.00108967
0.000549274
0.00040221
0.000124783
0.00102284
0.0090588
0.0102875
0.00276376
0.00246547
0.00199972
0.00125762
0.000387466
8.08766e-05
0.000777059
0.00263101
0.0238355
0.010403
0.00383408
0.00304381
0.00228674
0.0014139
0.000499673
9.67061e-05
0.0012778
0.00380362
0.0298925
0.00827786
0.00326928
0.00277741
0.00199875
0.00120884
0.000431022
0.000200422
0.000713156
0.00245867
0.0472298
0.00702699
0.00313279
0.00236429
0.00167306
0.000972767
0.000272241
0.000367126
0.000102856
0.0353014
0.104828
0.00533986
0.0026717
0.00180193
0.00118081
0.00058683
4.72421e-06
0.000586384
0.000406147
0.000253809
0.0725734
0.00595143
0.00274071
0.00177498
0.00106269
0.000443897
0.000135306
0.000751599
0.000376554
0.0713689
0.168704
0.00504892
0.00242392
0.00154717
0.000930561
0.000403336
0.000127706
0.000716285
0.000607735
0.000345012
0.100799
0.00237673
0.00163244
0.00127624
0.00102189
0.000762859
0.000344998
5.50994e-05
0.000316522
0.0560481
0.170134
0.00108475
0.000698243
0.000470286
0.000346666
0.000415006
0.000198902
0.000282588
3.83923e-05
0.0015747
0.00447914
0.00143142
0.000982486
0.000390037
5.11554e-05
5.99889e-06
2.93273e-06
0.000829657
0.00190036
0.00391487
0.00404918
0.00559398
0.00180774
0.00123674
0.000738392
0.000643168
0.000666499
0.000161107
0.00134932
0.00649513
0.00380347
0.00368478
0.00112933
0.000881035
0.00065319
0.000736905
0.000913381
0.000566839
0.000974901
0.00349014
0.000112996
0.00190699
0.0013262
0.000667186
0.000504434
0.000590696
0.000681957
0.00023273
0.00107393
0.00161513
0.00215195
0.00187157
0.000885558
0.000604447
0.000411408
0.000439493
0.000511006
0.000141605
0.00073681
0.00108413
0.0263018
0.000954601
0.000229999
0.000197473
0.000135671
0.000229779
0.000369281
0.00016511
0.000367047
0.000913996
0.00220106
0.000681335
0.000217798
5.63813e-05
3.54647e-05
2.45812e-05
0.000151035
4.44013e-06
0.000404502
0.0307868
0.0756464
0.00231622
0.000911692
0.000450847
8.53478e-05
6.94436e-05
6.78302e-05
0.000317435
0.000814277
0.000400336
0.0159218
0.00282607
0.00149316
0.00111711
0.000677132
0.000382309
0.000228414
0.000355618
0.000903042
0.0168733
0.0707203
0.0180152
0.00268392
0.00351044
0.00391964
0.00378462
0.00387779
0.00468556
0.00533587
0.00317365
0.000701603
0.00384743
0.000736971
0.000382339
5.75743e-05
0.000193521
0.000303832
0.000828546
0.00220941
0.00167155
0.00763616
0.000941652
0.000561641
0.000491688
0.000194935
3.9241e-05
0.000434014
0.00110556
0.00166174
0.000981026
0.00653811
0.00297877
0.000527112
0.000673616
0.00053411
0.000411244
0.00010412
0.00062275
0.000461106
0.00020353
0.00343125
0.000987357
0.00138072
0.000901806
0.000679145
0.000593803
0.000295689
0.00058831
0.000555712
0.000716038
0.00285866
0.00200367
0.0010155
0.000911108
0.000632416
0.000468752
0.000128661
0.000788777
0.000899145
0.00119495
0.00205224
0.00273256
0.00112871
0.000897842
0.000549294
0.000325529
3.92448e-05
0.000926371
0.00123335
0.00152153
0.00146286
0.0035814
0.00181259
0.00129331
0.000770961
0.000388794
0.000103569
0.00107267
0.00162303
0.0122141
0.0291755
0.00269282
0.00162237
0.00127911
0.000809997
0.000432154
6.63958e-05
0.0011553
0.00186728
0.00175142
0.0002467
0.000225531
0.000279051
0.000394327
0.000300858
0.000151832
0.000288495
0.00141696
0.0018051
0.00242393
0.020801
0.0665169
0.017216
0.0163955
0.0146057
0.0138484
0.013567
0.0127406
0.0104467
0.00734651
0.0108715
0.00980154
0.000187476
0.000244571
0.000411722
0.000325302
5.50982e-05
0.000820764
0.00101819
0.00430128
0.00140264
0.00416124
0.000396827
0.000385799
0.000575868
0.00070249
0.000802416
0.000575123
0.000331515
0.00527661
0.00158458
0.000407743
0.000880614
0.000679369
0.000683469
0.00078036
0.00104334
0.00115913
0.000140634
0.00369584
0.000823654
0.00364559
0.000181564
0.000467909
0.000585492
0.000606205
0.000805049
0.000951602
0.000165262
0.00274951
0.00183304
0.00162687
0.000778557
0.000514993
0.000528929
0.000524448
0.000704044
0.000861073
0.000385256
0.00231171
0.00178659
0.000944341
0.000591052
0.000359187
0.000357704
0.000377068
0.000564148
0.000741635
0.000610903
0.00195046
0.00180599
0.00191277
0.000730611
0.000416265
0.000322068
0.000281001
0.000390779
0.000568142
0.000678094
0.00407222
0.0101188
0.00298594
0.00148829
0.000969796
0.000665974
0.000412373
0.000317741
0.000530439
0.000739173
0.00165483
0.00150697
0.00188304
0.00142201
0.00121406
0.000980279
0.000704531
0.000431071
4.69489e-05
0.000626421
3.48555e-05
0.000340371
0.396891
0.0422795
0.0467479
0.0467227
0.0437619
0.0380492
0.0305895
0.0233116
0.0185127
0.0142499
0.00583081
0.00168003
0.000889441
0.000258284
0.000158788
0.000562706
0.00161064
0.00299091
0.00221416
0.00725574
0.00178001
2.92137e-05
0.000150488
7.69032e-05
0.000287412
0.00085987
0.00200395
0.00294155
0.00278922
0.004858
0.00199731
0.000174232
0.000332264
0.000326261
1.20834e-05
0.00053066
0.00175352
0.00223696
0.00263039
0.00291357
0.00274516
0.000280094
6.561e-05
0.000259776
4.82177e-06
0.000527035
0.00181903
0.00215315
0.00250145
0.0022695
9.51556e-06
0.000305796
9.26368e-05
0.000100561
0.00021946
0.000794812
0.00205628
0.00221157
0.00242122
0.001421
0.000414914
0.000341369
0.000131933
2.7251e-05
0.000364662
0.00101447
0.00220847
0.00225142
0.00239727
0.000837462
0.00118734
0.000612382
0.000432926
0.000213162
0.000320946
0.00112318
0.00223559
0.00223153
0.00156767
0.00156948
0.000276318
0.000300232
0.000321064
0.000182093
0.000335538
0.00120356
0.00226669
0.00250466
0.00254984
6.93988e-05
0.00130529
0.000781938
0.000742479
0.000793783
0.00113757
0.0018513
0.00294168
0.00307828
0.00376413
0.00120822
1.06512
0.14385
0.149623
0.129606
0.102457
0.0759332
0.0534812
0.0352972
0.0196064
0.000756175
0.0232705
0.00494571
0.00321092
0.00270877
0.00270993
0.00277659
0.00218782
0.000991674
0.00361519
0.00379933
0.000982285
0.000908487
1.16647e-05
0.000382015
0.000358661
0.000154196
1.97429e-06
0.000480683
0.00160556
0.000183154
0.00226909
0.000583845
0.000325171
0.00031611
0.000421716
0.000116301
0.000293798
0.000109535
0.00101322
0.00127319
0.00177207
0.00043864
0.000476148
0.00037427
0.000389103
0.000247652
0.000243052
3.43459e-07
0.000560343
0.00136864
0.00160768
3.0532e-05
0.000377975
0.000375375
0.000347216
0.000282804
0.000238997
7.41663e-05
0.000277362
0.00121896
0.0011255
0.000179682
0.000304037
0.000266217
0.000138483
0.000405005
0.000138422
6.57101e-05
5.77562e-05
0.00102817
0.0012786
0.000534156
0.000438462
0.000269173
4.06593e-05
0.000497369
0.000577704
0.000791819
0.00218103
0.00235229
0.00181669
0.000993978
0.000850108
0.000547434
2.46505e-05
0.000285835
0.000338268
0.000576564
0.00057483
0.00102759
0.000496552
0.000316406
0.000381404
6.09005e-05
0.000744318
0.00168013
0.00205488
0.00248722
0.00274765
0.000793355
3.71197
0.326823
0.275988
0.184714
0.115507
0.0688789
0.0372893
0.0144448
0.00523768
0.0253074
0.0557094
0.0133252
0.012744
0.010797
0.00737721
0.00347682
0.000144183
0.00370505
0.00788979
0.00652231
0.00630558
0.00188691
0.000801805
0.00039951
0.00067394
0.00142602
0.00119183
0.0008354
0.00153937
0.00302364
0.00180329
0.000667895
0.000307952
0.000246134
0.000678047
0.00157337
0.00150391
0.0010955
0.00229656
0.00139233
0.00174129
0.000248979
8.35287e-06
0.000479418
0.000787288
0.00163351
0.00156524
0.00109817
0.00219929
0.00094399
0.00128045
0.0004793
0.00024415
0.000725017
0.00095196
0.00170474
0.00161197
0.0011762
0.00212655
0.000462822
0.000440142
0.00024155
0.000303519
0.000846873
0.00108047
0.0017553
0.00166015
0.00129054
0.0021455
9.43942e-05
0.00829042
0.00975845
0.00903602
0.00894829
0.0091341
0.00904802
0.0104496
0.00983494
0.0130352
0.00825746
0.000741799
0.000378085
0.000515316
0.000947135
0.00126381
0.00194081
0.00223104
0.00222108
0.00266138
0.00060304
0.00069203
0.000687554
0.00104096
0.00142724
0.00110121
0.000819744
0.000977655
0.000666842
0.00156174
0.000256102
8.60179
0.0606545
0.063923
0.0483259
0.0359663
0.0285333
0.0248159
0.0245637
0.0277435
0.0321641
0.0250751
0.045398
0.0289395
0.015352
0.00685535
0.00145344
0.00304984
0.00725205
0.010062
0.0134285
0.0162713
0.00320417
0.00204094
0.000201284
0.000100891
0.000354175
0.000526452
0.0002069
0.000933423
0.00273009
0.00566604
0.000640782
0.000272144
0.000928406
0.000936994
0.000517382
0.000480439
0.000906443
0.000943204
0.0012349
0.000826162
0.000984738
0.000320446
0.000954141
0.000953553
0.000567052
0.000554792
0.000823041
0.00114033
0.00109964
0.0019764
0.0007571
0.000155755
0.00102115
0.000981211
0.000646759
0.000691134
0.000842104
0.0012915
0.000828026
0.000414183
0.000447652
9.87131e-05
0.00116248
0.00106702
0.000756388
0.000833736
0.000927833
0.00151368
0.000508825
0.0288354
0.0321486
0.0323352
0.0337883
0.0340772
0.0341562
0.0351269
0.0328114
0.0390602
0.0200081
0.000458359
0.000386032
0.000242531
0.00103482
0.000923397
0.0008941
0.000873641
0.000746629
0.0012665
0.00013165
0.000192612
9.43065e-05
0.000996354
0.00198531
0.0020543
0.00203122
0.00198889
0.00190579
0.00318182
0.000727609
3.53841
0.0398915
0.0164714
0.00421032
0.00269359
0.00704102
0.0107387
0.0147788
0.0194497
0.0244736
0.0313369
0.0253383
0.0195156
0.0137331
0.0101463
0.00805699
0.0067845
0.00574334
0.00465185
0.00524371
0.0240564
0.000293235
0.000443332
0.000486349
0.000645442
0.000588152
0.000479216
0.000389521
0.00124334
0.000264165
0.000340495
0.00048549
0.000703746
0.000216432
0.000269685
0.00021338
0.000213996
1.53904e-06
0.000825756
0.00028528
0.00468722
4.43167e-05
0.000467541
0.000332437
0.00029623
0.000230489
0.000290147
3.67896e-05
0.000710824
0.00013265
0.00264134
0.000325871
0.000358373
0.000359248
0.000264529
0.000195604
0.000290182
8.00207e-05
0.000577345
4.34241e-05
0.00082981
0.000488882
0.000290727
0.000361593
0.000234368
0.000187028
0.000287244
0.000132596
0.000528567
2.14327e-05
0.0266067
0.0301545
0.0286193
0.0292723
0.0293354
0.0296405
0.0307148
0.0296091
0.0386365
0.0126488
0.00042361
0.000620869
0.000182356
0.000464596
0.000535923
0.000554831
0.00057059
0.000585248
0.000679681
0.000327492
0.000349402
0.000533964
0.000432579
0.000643439
0.000731202
0.00079645
0.000662603
0.000946789
0.00242742
0.000240521
1.23622
0.259604
0.271438
0.279074
0.284727
0.288726
0.291652
0.296201
0.283772
0.308264
0.0271722
0.00631617
0.00460051
0.00329869
0.00220275
0.00133479
0.000538016
0.00031791
0.000893398
0.00132055
0.00533877
0.00127794
0.000777966
0.000439055
0.000359776
0.000293696
0.000235049
0.000396137
0.000432544
0.00605061
0.00497624
0.000896552
0.000619175
0.000402258
0.000412331
0.000416177
0.000370816
0.000500331
0.0008914
0.000413686
0.00281342
0.000841927
0.000612194
0.00043977
0.00046375
0.000466253
0.000420993
0.000448774
0.00103448
0.000412343
0.00135381
0.000787483
0.000614195
0.00048298
0.000520339
0.00051729
0.000489022
0.000426955
0.00111656
0.000353099
0.000667119
0.000761003
0.000619081
0.000514159
0.000561831
0.000560298
0.00055865
0.000442427
0.00116089
0.000282744
0.000414446
0.000750569
0.000645624
0.000572021
0.000585932
0.000569541
0.000479638
0.000776108
0.00769023
0.0089147
0.00026086
0.0008056
0.000637284
0.000657113
0.000687225
0.000687262
0.000722952
0.000532929
0.00115188
0.00010716
0.340684
0.34013
0.338783
0.338317
0.337902
0.337754
0.338108
0.338659
0.342898
0.325567
504.973
335.451
379.26
591.858
489.549
383.975
423.048
599.48
440.955
359.681
397.396
573.597
373.956
318.158
351.472
520.423
313.673
263.137
313.591
492.405
265.19
216.686
275.541
457.039
226.864
180.99
244.972
427.31
195.49
152.782
221.028
402.399
163.941
129.309
198.003
371.563
144.646
117.668
193.008
363.893
52.948
4.76981
0.028452
15.401
70.9821
6.74491
0.022026
17.7349
80.4251
8.28848
0.121657
20.4297
83.0889
9.93476
0.182564
20.4584
82.094
10.9283
0.120209
23.1444
79.4785
11.4942
0.0754824
25.4156
76.0265
11.3419
0.0596066
26.6602
72.8258
11.5569
0.0452618
27.9258
68.2532
12.4412
2.33641
28.3875
65.7303
17.0345
8.60139
28.5028
37.2068
25.7187
22.9322
26.7308
44.1309
27.5425
22.3187
28.9719
49.4896
28.8985
23.9356
32.8961
51.218
27.6541
23.865
34.932
50.9354
25.5317
23.1203
35.9776
49.8276
23.5226
22.2448
36.587
48.1293
21.3982
21.0347
36.7511
46.8027
19.857
20.2766
37.1983
44.5812
17.5712
18.9668
36.4763
43.4277
16.9583
19.5129
36.2788
8.26709
6.1265
5.39114
5.87635
11.4046
7.66387
6.25594
7.2773
14.1356
8.94729
7.01316
8.30665
16.2923
9.67617
7.75476
9.60141
17.7723
9.87229
8.28759
10.7
19.0888
10.0615
8.87718
11.8146
19.9153
9.95862
9.20602
12.7061
20.8822
10.0859
9.7836
13.9158
20.7938
9.28844
9.7676
14.4245
20.8183
9.5039
11.0929
15.6809
4.63382
4.10794
3.82229
3.96464
5.99926
4.94171
4.61748
4.96611
6.6281
5.38215
4.90353
5.24083
7.39862
5.66086
4.94508
5.3103
7.95404
5.72321
4.945
5.46918
8.66536
5.87776
5.12927
5.82416
9.22718
5.88839
5.22721
6.06636
10.0714
6.13071
5.64105
6.68628
10.5322
5.93949
5.95238
7.17263
11.2309
6.53977
7.33061
8.42667
2.29504
2.1765
2.07208
2.11575
2.90423
2.55158
2.50525
2.67321
3.04113
2.67688
2.66763
2.98607
3.40584
2.85907
2.71575
2.99404
3.64805
2.93249
2.68014
2.91582
4.00585
3.09956
2.79653
3.05866
4.27723
3.16878
2.85085
3.12555
4.81716
3.43314
3.14828
3.47657
5.27552
3.52304
3.48514
3.82617
5.77391
3.94473
4.32535
4.52098
1.26786
1.24313
1.20567
1.22604
1.52752
1.3709
1.35908
1.42438
1.56214
1.39822
1.39528
1.48985
1.69649
1.51608
1.50684
1.66223
1.79848
1.56137
1.5021
1.62852
1.998
1.68345
1.58519
1.70477
2.10666
1.73183
1.61451
1.73071
2.4271
1.9407
1.82081
1.96147
2.73187
2.07798
2.06184
2.17823
3.00673
2.33945
2.52268
2.54077
0.669034
0.658458
0.639625
0.636135
0.792947
0.696967
0.665486
0.633306
0.832331
0.698602
0.620321
0.490706
0.891765
0.786762
0.734246
0.666244
0.915153
0.829038
0.787922
0.761684
1.0391
0.926452
0.878411
0.873426
1.08204
0.958958
0.909702
0.9141
1.28341
1.1135
1.063
1.09415
1.40343
1.18132
1.17253
1.19466
1.56717
1.35712
1.44396
1.43466
0.335049
0.333075
0.322412
0.311602
0.355384
0.344342
0.343934
0.339975
0.359822
0.334653
0.322346
0.297806
0.432061
0.375168
0.345169
0.303445
0.446538
0.400953
0.375922
0.354144
0.534711
0.484143
0.456428
0.452382
0.555222
0.51195
0.481921
0.473177
0.6931
0.628418
0.595838
0.602245
0.704807
0.641656
0.627016
0.629077
0.817434
0.770852
0.805695
0.802415
0.102388
0.134797
0.136801
0.135378
0.0799897
0.125137
0.153211
0.188434
0.0595576
0.116024
0.168256
0.259218
0.127085
0.142851
0.170415
0.237824
0.159852
0.150583
0.161276
0.213821
0.235383
0.211355
0.20985
0.260188
0.249016
0.229593
0.218063
0.247778
0.351395
0.318027
0.300003
0.334796
0.334312
0.316797
0.302841
0.321167
0.418218
0.412101
0.42204
0.422977
0.0245635
0.00773952
0.0154211
0.0169257
0.0210001
0.019693
0.0150525
0.0100982
0.0241189
0.0261447
0.0255497
0.0132845
0.00454801
0.0043799
0.0137004
0.0310183
0.022333
0.0216405
0.0242211
0.035025
0.0786238
0.065944
0.0622177
0.0722713
0.0785186
0.0718938
0.0650187
0.0658093
0.153439
0.137181
0.128262
0.140181
0.132657
0.127182
0.118272
0.114177
0.193678
0.191434
0.196707
0.187688
0.0226588
0.0141249
0.0132825
0.0147482
0.00374134
0.0153875
0.0253054
0.0408156
0.00784364
0.0235047
0.0446374
0.0823204
0.00350138
0.0180513
0.0314828
0.0634627
0.0028879
0.00751764
0.0171261
0.0470831
0.0072363
0.00466364
0.00196845
0.0275339
0.00276684
0.00425037
0.000450965
0.0255952
0.0525806
0.0510141
0.0468145
0.0298876
0.0290082
0.0311926
0.0282467
0.00734387
0.0714764
0.0743944
0.0798832
0.0751482
0.0390212
0.00603351
0.00292155
4.92461e-05
0.0150265
0.0181257
0.0229267
0.0278724
0.012043
0.0210981
0.0290084
0.0376157
0.00227253
0.0109701
0.0179155
0.0256549
0.00299965
0.00898593
0.0159505
0.0244755
0.00361952
0.00810565
0.0144525
0.0234328
0.0042428
0.00635171
0.0122887
0.0217942
0.0108268
0.0169983
0.0200538
0.028344
0.00223978
0.00381159
0.00793685
0.0201859
0.0211797
0.0239312
0.0229479
0.0300193
0.00860447
0.00542257
0.00693543
0.0100722
0.000611661
0.0050038
0.00821009
0.0138904
0.00300519
0.0101547
0.0159049
0.0275535
0.00558356
0.00756882
0.0115276
0.0228499
0.00230582
0.00378045
0.00711882
0.019365
0.00163583
0.00260848
0.00509764
0.0180233
0.00305845
0.00169305
0.00257828
0.0138373
0.00326743
0.00201095
0.00245316
0.0145032
0.0039903
0.00340141
0.00121672
0.0107763
0.00117215
3.36416e-05
0.00204269
0.00481121
0.00729363
0.0102118
0.0112485
0.013657
0.00704277
0.0118379
0.0152975
0.0184796
0.00787322
0.0147346
0.0203915
0.0272192
0.00116447
0.0106198
0.0162126
0.0238999
0.000640585
0.0094118
0.0145966
0.0229494
0.00120285
0.00825418
0.0129913
0.021956
0.00219685
0.00690681
0.0112636
0.0207122
0.00195289
0.00487005
0.00880366
0.0176093
0.000568203
0.00616545
0.00919759
0.022221
0.0050707
0.00272112
0.00114997
0.0049294
0.063095
0.0276045
0.0299095
0.0359497
0.00876173
0.00448126
0.00532451
0.00819876
0.000340866
0.00142778
0.00214068
0.00136298
0.0015108
0.00186045
0.00267131
0.00146993
0.00118127
0.0022304
0.00305769
0.00132613
0.00135788
0.00211501
0.00300418
0.000782224
0.00130423
0.00254239
0.00352402
0.00136854
0.00173611
0.00154186
0.00241448
0.000663786
0.00307815
0.000899411
0.00406669
0.00412973
0.00448415
0.00250027
0.000587023
0.00589634
0.156209
0.0511152
0.054312
0.0649905
0.0294213
0.0170184
0.0197598
0.0249827
0.00390566
0.0049964
0.00580234
0.00704787
0.00311987
0.00528739
0.00622202
0.00835064
0.0022212
0.00482801
0.00555507
0.00808438
0.00165172
0.00443779
0.0049401
0.00788932
0.00105217
0.00398436
0.00422547
0.00750605
2.73106e-05
0.00293789
0.00352843
0.0075929
0.00335298
0.00448021
0.00273025
0.00810368
0.00199559
0.000455701
0.00250266
0.00120362
0.079821
0.0229369
0.0228284
0.0263562
0.0162484
0.0108365
0.0118501
0.0144969
0.00266189
0.0026607
0.00232484
0.00209784
0.00298498
0.00343344
0.00296881
0.00310757
0.00241459
0.00334966
0.00254396
0.00264075
0.00202473
0.00326073
0.00214285
0.00225282
0.00207226
0.00339569
0.00187996
0.00198053
0.00124923
0.00290907
0.00148156
0.00153435
0.00135199
0.00320935
0.00225575
0.00386093
0.00657332
0.000321777
0.00329946
0.000782428
0.0159598
0.0147107
0.016113
0.0207072
0.00223216
0.000648326
0.00043819
0.000682424
0.000518006
0.00107562
0.000439957
0.000366447
0.000234422
0.00126056
0.000478247
0.000530952
0.000906445
0.00141225
0.000445136
0.000601863
0.00138033
0.00159139
0.00042665
0.000688921
0.00175087
0.00173357
0.000397123
0.000760593
0.0023332
0.00167886
0.000421702
0.00106385
0.00123448
0.00131803
0.000434972
0.000640715
0.0039687
0.00124839
0.00113872
3.76256e-05
0.238946
0.14927
0.127658
0.167545
0.00194209
0.00138871
0.00174315
0.00237208
0.00083202
6.8241e-05
0.00016676
0.000229555
0.00105585
7.27973e-05
0.00026836
0.000509806
0.00108237
5.61757e-05
0.000186558
0.000517727
0.00108479
0.000153673
0.000140637
0.000576643
0.0010837
0.00017648
0.000115801
0.000629758
0.000800264
0.000157412
0.000125394
0.000678155
0.000572069
4.69092e-05
2.1669e-06
0.000915845
0.3104
0.326829
0.331421
0.294717
0.0137908
70.1647
21.7506
4.16533
1.80598
0.720726
0.0717428
0.0243111
0.113302
0.0743161
0.00399344
61.2001
7.14447
0.291456
0.018914
0.0296338
0.0565157
0.146177
0.310223