/*--------------------------------*- C++ -*----------------------------------*\
| =========                 |                                                 |
| \\      /  F ield         | foam-extend: Open Source CFD                    |
|  \\    /   O peration     | Version:     4.0                                |
|   \\  /    A nd           | Web:         http://www.foam-extend.org         |
|    \\/     M anipulation  |                                                 |
\*---------------------------------------------------------------------------*/
FoamFile
{
    version     2.0;
    format      ascii;
    class       volScalarField;
    location    "400";
    object      epsilon;
}
// * * * * * * * * * * * * * * * * * * * * * * * * * * * * * * * * * * * * * //

dimensions      [0 2 -3 0 0 0 0];

internalField   nonuniform List<scalar> 
34480
(
4862.26
4853.43
4849.15
4847.52
4848.15
4855.11
4887.59
5012.58
5403.15
6323.04
621.569
546.243
530.545
580.138
813.88
1946.99
7977.87
39242.2
180004
647354
571.96
465.145
442.811
500.18
779.741
2158.39
9823.04
52016.9
256663
1.01448e+06
479.263
392.254
379.198
436.907
706.692
2077.57
10053.9
56344.7
295405
1.26013e+06
414.297
346.749
342.998
401.305
664.777
2029.82
10235.9
59807.5
328972
1.49113e+06
355.139
302.509
302.334
358.669
617.385
2011.79
10677.4
64794.6
371005
1.76919e+06
317.494
276.15
279.267
333.201
585.492
1985.93
10917.6
68225.4
404009
2.0108e+06
292.163
261.596
264.689
310.623
533.84
1830.97
10343.5
66339.8
404982
2.09577e+06
438.356
418.444
421.059
451.076
592.538
1401.89
6730.93
42401.8
264256
1.41197e+06
5572.96
5574.98
5578.51
5585.15
5594.65
5606.32
5622.91
5650.28
5710.43
5771.58
4775.07
4766.27
4761.98
4760.84
4762.12
4767.77
4786.28
4845.87
5023.04
5485.72
522.445
461.491
438.089
445.12
487.164
621.536
1140.8
3676.49
22412.6
183347
450.848
365.947
338.488
350.442
414.509
618.645
1382.66
5137.23
35339.8
307480
392.063
318.553
298.651
314.291
379.831
581.641
1336.81
5303.13
42235.1
397332
350.682
290.81
279.115
297.485
364.163
563.996
1309.06
5372.1
47783.5
478946
307.901
259.866
251.896
270.394
334.306
528.401
1265.19
5457.98
53771.5
568175
280.558
241.78
237.471
255.58
316.773
503.744
1225.14
5446.71
58137.5
643075
263.888
234.722
231.653
246.726
295.73
447.96
1052.76
4806.3
56746.3
664780
416.66
396.651
395.184
405.136
436.312
520.867
819.572
2864.8
35762.5
456087
5454.46
5452.37
5451.76
5454.37
5459.56
5466.25
5478.41
5502.21
5561.22
5731.74
4680.62
4672.51
4668.43
4667.22
4667.9
4671.34
4682.88
4722.05
4831.12
5025.23
431.197
390.253
371.087
371.135
387.403
435.15
592.175
1156.09
3243.91
12814
335.729
281.207
260.762
264.455
292.92
371.86
620.001
1524.48
5456.13
28473
304.394
253.8
238.029
245.113
276.637
358.35
609.664
1592.18
6872.98
45790.5
284.316
241.095
231.147
240.848
274.925
359.445
614.197
1652.58
8304.28
66268.2
257.931
222.022
214.87
225.454
259.317
343.968
602.332
1714.52
10056.3
92103.5
241.237
211.44
207.262
218.213
251.743
335.436
594.397
1760.12
11734.9
118998
233.985
211.151
208.215
217.916
245.512
314.786
533.943
1597.8
12130.9
136134
392.596
376.355
375.053
382.159
402.687
452.638
586.742
1191.87
7812.19
94593.2
5345.24
5340.33
5337.41
5337.94
5341.41
5346.35
5356.34
5378.57
5442.28
5628.21
4578.59
4571.73
4568.32
4567.38
4567.84
4569.9
4576.75
4602.06
4677.21
4798.76
366.304
337.94
322.834
320.527
326.891
347.336
413.369
627.067
1177.39
2339.56
252.859
219.438
205.037
205.39
219.067
255.839
362.324
692.049
1627.89
4567.9
236.697
203.606
192.003
195.057
211.701
252.156
363.532
723.989
1947.91
7404.31
230.193
200.544
192.893
198.097
217.279
261.399
378.524
763.656
2276.13
11078.6
216.02
190.307
184.559
190.885
211.025
257.703
382.367
805.109
2702.65
16192.5
207.53
185.476
181.961
188.951
209.845
258.155
388.495
842.096
3132.29
22053.6
208.05
190.657
188.163
194.799
212.805
254.78
370.061
792.652
3222.37
26280.3
369.969
357.074
355.968
361.114
375.344
409.77
492.743
752.181
2220.61
17902
5224.87
5219.51
5216.42
5216.89
5220.88
5227
5238.31
5261.61
5320.67
5467.09
4470
4464.17
4461.27
4460.42
4460.5
4461.38
4465.05
4481.36
4534.86
4621.71
323.534
302
289.676
286.62
288.589
297.539
329.359
432.382
670.318
944.91
199.861
178.595
168.194
166.947
172.734
189.152
236.487
374.696
692.24
1209.93
189.687
167.812
159.284
160.03
167.976
186.925
236.592
385.236
779.305
1770.81
189.679
169.472
163.712
166.083
175.99
197.714
251.117
410.506
880.777
2542.29
183.055
164.852
160.362
163.799
174.99
199.563
259.364
439.466
1021.56
3692.51
179.904
163.836
160.978
165.121
177.428
204.284
269.639
467.9
1161.79
5063.6
185.995
172.965
170.9
175.176
186.351
211.008
271.803
462.21
1193.54
6106.88
348.634
338.671
337.756
341.275
350.841
373.327
425.171
558.244
1008.87
4288.52
5097.89
5092.32
5089.18
5089.6
5093.71
5100.65
5112.29
5134.28
5183.7
5289.96
4355.46
4350.39
4347.87
4347.06
4346.87
4347.03
4349.06
4361.21
4403.72
4474.65
295.679
277.764
267.261
264.168
264.499
268.964
287.517
350.236
498.894
652.614
167.835
153.144
145.28
143.534
145.676
152.921
175.313
241.453
385.946
539.363
158.91
143.806
137.451
137.148
140.6
148.971
171.009
236.384
395.967
650.673
160.883
146.918
142.651
143.507
148.214
158.125
181.472
249.182
427.667
837.036
158.2
145.334
141.947
143.664
149.487
161.604
188.989
266.891
482.442
1141.41
157.99
146.444
144.253
146.567
153.424
167.514
198.8
286.642
538.699
1506.24
167.597
158.061
156.472
159.118
165.71
179.481
210.38
298.162
563.308
1795.97
328.622
321.263
320.623
322.948
329.183
343.304
375.863
448.995
630.317
1468.49
4963.78
4958.32
4955.3
4955.74
4959.79
4967.12
4978.4
4998.07
5036.35
5107.47
4235.31
4230.76
4228.5
4227.73
4227.37
4227.15
4228.48
4238.78
4275.5
4337.5
276.861
260.911
251.602
248.695
248.518
251.292
264.316
310.04
424.591
553.755
148.794
137.666
131.407
129.646
130.275
133.67
145.808
183.968
270.854
356.318
139.407
128.339
123.476
122.797
124.142
127.739
138.069
170.531
252.072
357.414
141.192
131.247
128.08
128.213
130.245
134.444
144.518
174.916
256.336
398.86
140.204
131.014
128.505
129.267
132.086
137.685
149.821
184.02
276.621
487.03
141.293
133.036
131.42
132.624
136.219
143.189
157.574
196.265
300.546
594.835
152.779
145.931
144.776
146.337
149.988
157.235
172.375
212.562
322.051
692.35
310.197
305.037
304.671
306.143
310.027
318.552
338.943
380.473
468.872
749.17
4822.3
4817.23
4814.45
4814.93
4818.76
4825.95
4836.3
4853.08
4881.98
4929.69
4109.74
4105.55
4103.47
4102.75
4102.33
4101.95
4103.18
4112.57
4145.81
4201.74
263.173
248.365
239.879
237.205
236.94
239.081
249.455
286.742
384.952
506.323
137.321
128.23
123.038
121.433
121.487
123.294
131.031
157.445
222.056
292.484
127.178
118.606
114.787
114.044
114.469
116.011
121.43
140.603
193.329
263.87
128.027
120.703
118.332
118.169
118.92
120.528
124.981
140.377
186.381
264.069
127.55
120.885
119.045
119.316
120.551
122.931
128.22
144.169
191.31
287.91
128.971
123.066
121.908
122.481
124.229
127.441
133.846
151.235
200.598
320.355
141.18
136.346
135.551
136.426
138.282
141.798
148.924
167.335
218.084
360.603
293.404
290.024
289.895
290.79
293.084
297.985
310.642
334.744
382.849
508.772
4673.26
4668.78
4666.35
4666.86
4670.35
4676.94
4685.99
4699.67
4720.97
4753.98
3978.77
3974.86
3972.94
3972.27
3971.87
3971.54
3972.88
3981.7
4012.47
4063.74
252.199
238.136
230.276
227.824
227.602
229.482
238.252
270.63
359.227
476.508
130.149
122.323
117.891
116.482
116.345
117.467
123.107
143.83
198.072
264.337
119.477
112.554
109.497
108.812
108.862
109.533
112.785
126.066
166.6
227.834
119.329
113.776
111.986
111.734
111.91
112.403
114.474
123.556
155.148
214.692
118.85
113.945
112.603
112.641
113.083
113.938
116.19
124.405
153.137
216.52
120.119
115.889
115.078
115.313
116.066
117.377
120.094
128.307
155.519
223.767
132.315
128.958
128.44
128.901
129.717
131.187
134.299
142.796
169.275
243.188
278.134
276.133
276.184
276.709
277.978
280.599
288.287
302.465
330.216
401.329
4516.58
4512.83
4510.81
4511.32
4514.37
4520.09
4527.66
4538.32
4553.57
4576.86
3842.43
3838.74
3836.96
3836.38
3836.07
3835.92
3837.34
3845.69
3874.43
3921.93
242.507
229.011
221.688
219.44
219.289
220.954
228.579
257.615
339.512
453.915
125.368
118.417
114.576
113.362
113.177
113.98
118.472
135.936
184.362
249.309
114.538
108.791
106.319
105.733
105.647
105.952
108.159
118.42
152.836
211.515
113.598
109.302
107.945
107.694
107.638
107.687
108.731
114.868
139.614
193.294
112.967
109.318
108.344
108.284
108.354
108.525
109.429
114.156
134.394
186.148
113.9
110.868
110.311
110.378
110.624
111.022
112.056
116.19
133.43
183.484
125.655
123.365
123.048
123.267
123.516
123.925
125.055
128.965
144.379
193.604
264.15
263.17
263.34
263.641
264.288
265.542
269.991
278.339
294.862
341.348
4352.3
4349.35
4347.77
4348.26
4350.79
4355.5
4361.57
4369.52
4380.12
4396.74
3700.76
3697.3
3695.65
3695.17
3694.98
3694.97
3696.4
3704.24
3731.11
3775.45
233.093
220.242
213.465
211.42
211.249
212.666
219.413
245.79
322.259
434.34
121.886
115.612
112.272
111.24
111.064
111.701
115.452
130.696
175.198
239.817
111.259
106.417
104.417
103.935
103.814
103.969
105.608
114.034
144.71
202.933
109.796
106.436
105.409
105.193
105.065
104.966
105.561
110.126
130.951
182.414
109.03
106.303
105.6
105.507
105.421
105.319
105.637
108.647
124.289
170.901
109.604
107.439
107.063
107.053
107.064
107.062
107.355
109.584
121.683
163.556
120.695
119.162
118.98
119.065
119.032
118.94
119.129
120.878
130.695
168.806
251.132
250.876
251.111
251.284
251.579
252.071
254.398
259.211
269.194
302.341
4180.58
4178.42
4177.25
4177.7
4179.71
4183.39
4188.08
4193.76
4200.87
4212.86
3553.64
3550.49
3549.02
3548.64
3548.53
3548.59
3549.96
3557.21
3582.16
3623.76
223.362
211.219
205.061
203.227
203.053
204.268
210.242
234.187
305.644
415.71
119.071
113.398
110.519
109.658
109.512
110.044
113.233
126.691
168.005
232.748
108.963
104.873
103.267
102.881
102.766
102.862
104.146
111.242
139.064
197.421
107.226
104.597
103.825
103.65
103.518
103.4
103.795
107.377
125.441
175.677
106.403
104.369
103.864
103.766
103.633
103.451
103.534
105.611
118.301
161.785
106.67
105.136
104.885
104.845
104.765
104.621
104.62
105.914
114.953
151.926
116.984
115.978
115.88
115.894
115.743
115.459
115.246
115.978
122.666
154.408
238.727
238.96
239.218
239.324
239.439
239.556
240.524
243.133
249.143
273.916
4001.7
4000.25
3999.45
3999.85
4001.37
4004.08
4007.57
4011.44
4016.04
4024.77
3401.06
3398.29
3397.03
3396.74
3396.68
3396.77
3398.02
3404.56
3427.43
3466.49
213.027
201.751
196.29
194.699
194.541
195.576
200.795
222.264
288.554
396.657
116.562
111.494
109.063
108.364
108.253
108.706
111.407
123.212
161.448
226.465
107.243
103.819
102.552
102.252
102.158
102.231
103.258
109.23
134.37
192.686
105.437
103.397
102.822
102.685
102.576
102.486
102.789
105.654
121.352
170.213
104.641
103.134
102.771
102.68
102.549
102.375
102.383
103.893
114.343
155.034
104.67
103.599
103.431
103.385
103.285
103.122
103.036
103.845
110.786
143.808
114.148
113.501
113.448
113.426
113.247
112.931
112.598
112.866
117.62
144.741
226.588
227.135
227.39
227.463
227.5
227.467
227.655
228.86
232.368
251.201
3816.03
3815.17
3814.69
3815.02
3816.11
3817.99
3820.47
3822.99
3825.82
3832.18
3243.11
3240.79
3239.76
3239.55
3239.52
3239.62
3240.7
3246.4
3266.88
3303.37
201.92
191.736
187.062
185.742
185.612
186.475
190.911
209.696
270.203
375.982
114.158
109.75
107.767
107.221
107.144
107.529
109.768
119.894
154.733
219.798
105.863
103.059
102.089
101.861
101.791
101.858
102.676
107.591
129.831
187.295
104.145
102.588
102.164
102.057
101.977
101.928
102.185
104.459
117.837
164.48
103.44
102.336
102.071
101.99
101.882
101.75
101.754
102.881
111.392
148.814
103.3
102.565
102.45
102.405
102.318
102.188
102.11
102.649
107.97
137.026
111.895
111.479
111.445
111.406
111.244
110.973
110.66
110.736
114.176
137.243
214.403
215.137
215.372
215.432
215.446
215.382
215.276
215.572
217.457
231.659
3624.05
3623.64
3623.39
3623.66
3624.4
3625.62
3627.24
3628.8
3630.44
3635.02
3080.02
3078.2
3077.41
3077.27
3077.26
3077.34
3078.21
3082.96
3100.69
3134.25
189.958
181.117
177.309
176.276
176.182
176.875
180.487
196.296
249.99
352.373
111.772
108.099
106.557
106.149
106.102
106.424
108.216
116.567
147.36
211.63
104.697
102.483
101.769
101.601
101.554
101.619
102.257
106.139
125.054
180.151
103.175
102.016
101.704
101.618
101.566
101.557
101.784
103.541
114.504
157.553
102.601
101.801
101.603
101.531
101.451
101.371
101.397
102.241
108.947
142.177
102.345
101.851
101.766
101.725
101.663
101.582
101.544
101.924
105.894
130.556
110.002
109.725
109.691
109.646
109.519
109.321
109.09
109.111
111.589
130.689
201.899
202.73
202.936
202.993
203.009
202.963
202.85
202.71
203.524
213.899
3426.32
3426.21
3426.14
3426.35
3426.82
3427.55
3428.47
3429.36
3430.21
3433.39
2912.21
2910.9
2910.35
2910.27
2910.26
2910.32
2910.97
2914.68
2929.24
2959.17
177.134
169.866
166.966
166.218
166.161
166.689
169.455
182.002
227.514
324.293
109.402
106.521
105.391
105.099
105.076
105.341
106.708
113.2
139.079
200.756
103.687
102.029
101.528
101.406
101.378
101.447
101.93
104.812
119.935
170.387
102.424
101.585
101.352
101.28
101.251
101.274
101.481
102.78
111.236
148.932
101.996
101.422
101.265
101.2
101.148
101.114
101.17
101.796
106.797
134.727
101.664
101.336
101.266
101.23
101.192
101.156
101.162
101.442
104.261
124.018
108.309
108.105
108.062
108.015
107.927
107.803
107.665
107.704
109.45
124.544
188.835
189.694
189.868
189.925
189.953
189.937
189.864
189.722
189.978
197.141
3223.52
3223.59
3223.62
3223.78
3224.06
3224.45
3224.91
3225.26
3225.6
3227.65
2740.26
2739.48
2739.14
2739.11
2739.11
2739.13
2739.56
2742.21
2753.24
2778.46
163.514
157.967
155.952
155.463
155.44
155.816
157.758
166.886
202.716
290.027
107.118
105.02
104.239
104.034
104.028
104.246
105.231
109.874
129.969
185.987
102.818
101.658
101.321
101.231
101.219
101.292
101.651
103.619
114.651
157.531
101.831
101.239
101.057
100.994
100.981
101.028
101.216
102.129
108.112
138.592
101.542
101.13
100.999
100.941
100.911
100.914
100.995
101.452
104.9
126.533
101.164
100.945
100.881
100.848
100.83
100.828
100.868
101.081
102.946
117.477
106.706
106.531
106.475
106.432
106.377
106.315
106.256
106.33
107.521
118.672
174.971
175.803
175.946
176.002
176.04
176.051
176.015
175.901
175.941
180.37
3016.49
3016.64
3016.71
3016.83
3016.98
3017.16
3017.34
3017.4
3017.41
3018.56
2565.17
2564.79
2564.62
2564.63
2564.63
2564.63
2564.86
2566.5
2573.87
2593.07
149.211
145.387
144.157
143.883
143.886
144.13
145.335
151.154
176.134
248.152
105.023
103.607
103.081
102.929
102.933
103.113
103.788
106.76
120.563
166.634
102.084
101.332
101.107
101.037
101.036
101.112
101.378
102.594
109.628
141.934
101.355
100.941
100.793
100.736
100.734
100.793
100.962
101.57
105.326
127.143
101.184
100.887
100.773
100.722
100.708
100.735
100.829
101.159
103.299
118.129
100.787
100.635
100.575
100.546
100.539
100.557
100.616
100.782
101.907
111.334
105.131
104.964
104.901
104.862
104.832
104.812
104.809
104.908
105.684
113.177
160.024
160.777
160.891
160.944
160.985
161.009
160.996
160.904
160.809
162.993
2806.34
2806.49
2806.57
2806.65
2806.72
2806.79
2806.83
2806.77
2806.65
2807.17
2387.92
2387.8
2387.74
2387.76
2387.77
2387.76
2387.86
2388.67
2392.64
2404.71
134.283
132.01
131.398
131.281
131.297
131.437
132.055
135.051
149.125
198.889
103.204
102.288
101.928
101.806
101.813
101.958
102.398
104.044
111.857
143.529
101.455
100.994
100.837
100.779
100.783
100.857
101.053
101.728
105.407
125.315
100.953
100.664
100.545
100.496
100.499
100.557
100.697
101.08
103.078
115.942
100.871
100.658
100.564
100.522
100.517
100.552
100.644
100.877
102.032
110.451
100.5
100.391
100.338
100.313
100.312
100.336
100.395
100.524
101.132
106.199
103.57
103.415
103.353
103.32
103.305
103.307
103.333
103.437
103.916
108.307
143.538
144.149
144.236
144.281
144.316
144.339
144.334
144.257
144.097
144.673
2594.43
2594.53
2594.58
2594.63
2594.65
2594.67
2594.66
2594.59
2594.47
2594.63
2208.77
2208.69
2208.66
2208.67
2208.67
2208.68
2208.73
2209.01
2210.39
2215.3
118.401
117.371
117.165
117.138
117.154
117.219
117.448
118.467
123.59
146.556
101.669
101.098
100.869
100.782
100.786
100.882
101.129
101.85
104.983
120.258
100.851
100.582
100.476
100.433
100.436
100.49
100.617
100.939
102.338
110.871
100.561
100.373
100.292
100.259
100.262
100.302
100.395
100.604
101.416
106.871
100.539
100.399
100.336
100.308
100.308
100.335
100.401
100.544
101.042
104.568
100.282
100.207
100.17
100.154
100.155
100.173
100.215
100.301
100.574
102.623
102.02
101.898
101.849
101.825
101.818
101.826
101.858
101.943
102.208
104.279
124.46
124.838
124.89
124.92
124.942
124.957
124.952
124.897
124.755
124.547
2381.63
2381.66
2381.69
2381.7
2381.71
2381.7
2381.69
2381.66
2381.6
2381.64
8138.43
8217.04
8124.88
7836.58
1.15384e+06
1.16438e+06
1.15581e+06
1.1517e+06
2.13895e+06
2.19974e+06
2.18302e+06
2.12795e+06
3.03967e+06
3.17562e+06
3.14413e+06
3.01558e+06
4.04085e+06
4.26308e+06
4.20769e+06
4.03169e+06
5.32174e+06
5.65511e+06
5.57998e+06
5.38452e+06
6.59322e+06
7.0446e+06
6.95787e+06
6.78397e+06
7.38573e+06
7.94033e+06
7.86256e+06
7.75378e+06
5.14586e+06
5.56288e+06
5.48017e+06
5.45903e+06
7565.74
7774.35
7623.41
7277.13
6228.06
6260.63
6229.53
6145.74
450200
453011
465245
482193
880313
946379
975427
983008
1.33826e+06
1.51821e+06
1.56066e+06
1.54911e+06
1.84283e+06
2.17453e+06
2.23368e+06
2.23076e+06
2.43153e+06
2.95841e+06
3.05955e+06
3.10076e+06
2.9904e+06
3.73306e+06
3.90182e+06
4.02907e+06
3.34564e+06
4.28337e+06
4.53694e+06
4.77914e+06
2.58065e+06
3.4171e+06
3.62083e+06
3.93833e+06
6848.4
7027.37
6945.91
6747.62
5110.8
5109.32
5093.16
5067.92
35779.8
40724.3
38205.6
30833.2
87390.4
98848.5
90966.2
72697
159191
179758
162463
128973
256139
289506
259991
207406
390417
443489
399810
322008
544962
621958
563844
459606
680600
782089
713645
588315
547676
627845
564711
471058
6123.2
6184.8
6152.85
6069.97
4793.64
4783.54
4774.22
4766.75
3227.46
3301.34
3136.3
2839.86
7761.35
8036.78
7501.9
6550.59
15379.9
16081.4
14763.9
12465.6
27361.2
28750
26036.1
21434.7
46611.4
49314.4
44341.6
35899.4
71928.1
76363.2
68270.8
54763.9
97984
104690
93326
74501.5
79950.3
84957.6
74675.9
59971.2
5712.06
5738.44
5728.93
5697.31
4601.5
4592.29
4584.84
4579.1
938.443
919.451
885.298
848.799
1354.09
1338.19
1278.68
1207.9
2378.46
2396.45
2272.66
2095.19
4124.77
4204.34
3929.71
3516.98
7200.39
7413.88
6842.37
5955.01
11516.5
11896.5
10838.5
9211.19
16348.6
16999.8
15346.5
12786.9
13589.3
14028.1
12444.8
10329.2
5408.11
5420.36
5417.5
5405.56
4451.38
4443.02
4436.5
4431.48
599.245
578.035
554.161
533.68
491.576
466.646
441.832
424.662
639.46
612.779
581.807
560.184
937.346
910.804
862.159
821.099
1511.16
1493.74
1405.96
1313.11
2328.38
2321.16
2159.85
1972.62
3291.71
3317.73
3057.83
2730.12
2949.6
2937.74
2675.11
2402.19
5163.95
5168.58
5167.99
5164.8
4312.67
4304.71
4298.76
4294.31
502.802
483.789
463.328
446.044
309.287
290.214
273.065
261.663
309.172
288.128
271.004
262.422
361.877
338.044
318.302
310.177
489.82
463.673
437.363
424.941
669.595
639.681
600.691
578.23
899.261
871.342
815.675
775.218
1020.48
980.074
922.136
897.023
4955.39
4956.27
4956.43
4956.95
4175.28
4167.4
4161.77
4157.81
455.876
437.131
418.076
402.89
251.397
235.104
221.046
212.024
221.297
204.565
191.936
186.163
223.192
205.204
192.628
189.035
254.826
235.026
221.038
218.245
300.334
277.607
260.723
257.97
373.321
349.301
329.158
325.41
573.266
540.805
520.017
525.684
4765.76
4764.81
4764.95
4766.65
4035.44
4027.45
4022.02
4018.52
423.822
404.24
385.776
372.401
225.581
210.246
197.693
190.289
190.466
175.793
165.239
160.969
180.149
165.48
155.896
153.89
186.219
170.911
161.31
160.646
197.998
181.282
170.983
171.378
230.16
212.515
201.569
202.976
425.832
401.044
389.764
398.331
4582.38
4580.55
4580.43
4582.37
3891.81
3883.62
3878.34
3875.29
397.594
376.658
358.405
346.693
210.511
195.206
183.408
177.264
176.898
163.025
153.525
150.356
163.7
150.723
142.684
141.712
161.417
148.67
141.241
141.64
162.766
149.649
142.312
143.744
180.935
167.524
160.299
162.778
357.929
338.365
330.85
339.018
4399.23
4396.98
4396.67
4398.61
3743.76
3735.36
3730.22
3727.64
374.119
351.724
333.572
323.44
199.942
184.262
172.875
167.802
169.749
156.072
147.152
144.91
156.343
144.228
137.094
136.97
150.808
139.547
133.398
134.597
148.109
137.177
131.527
133.615
159.968
149.243
144.041
146.988
317.817
301.803
296.368
303.961
4213.76
4211.39
4210.97
4212.83
3591
3582.45
3577.49
3575.41
352.139
328.456
310.467
301.876
191.671
175.505
164.398
160.316
165.338
151.624
143.093
141.719
152.521
140.89
134.376
135.03
145.563
135.244
129.965
131.859
140.913
131.408
126.876
129.502
149.258
140.323
136.422
139.702
289.424
275.928
271.86
278.997
4024.74
4022.42
4021.97
4023.73
3433.43
3424.87
3420.13
3418.59
331.003
306.403
288.757
281.712
184.756
168.186
157.369
154.271
162.103
148.36
140.197
139.701
150.008
138.757
132.775
134.184
142.369
132.768
128.182
130.706
136.568
128.122
124.434
127.513
142.671
135.046
132.077
135.596
266.494
254.889
251.793
258.531
3831.57
3829.4
3828.97
3830.59
3271.07
3262.68
3258.24
3257.25
310.207
285.234
268.218
262.765
178.646
161.912
151.504
149.444
159.169
145.587
137.896
138.326
147.67
136.878
131.459
133.608
139.674
130.765
126.823
129.9
133.078
125.548
122.577
126.01
137.657
131.108
128.861
132.494
246.197
236.112
233.732
240.053
3633.98
3632.04
3631.64
3633.11
3104.01
3096.04
3092.02
3091.56
289.171
264.551
248.56
244.785
172.84
156.337
146.555
145.63
155.848
142.773
135.754
137.159
144.756
134.638
129.889
132.73
136.586
128.477
125.195
128.702
129.436
122.823
120.508
124.148
133.004
127.448
125.786
129.361
227.158
218.388
216.545
222.373
3432.01
3430.34
3430
3431.27
2932.46
2925.21
2921.71
2921.75
267.087
243.753
229.3
227.311
166.698
150.994
142.159
142.468
151.431
139.347
133.274
135.644
140.655
131.53
127.59
130.984
132.526
125.412
122.825
126.552
125.122
119.508
117.808
121.437
128.121
123.565
122.374
125.667
208.723
201.182
199.745
204.966
3225.98
3224.62
3224.33
3225.37
2756.75
2750.56
2747.69
2748.14
242.777
221.901
209.624
209.487
159.34
145.179
137.688
139.244
145.139
134.644
129.807
132.975
134.86
127.11
124.094
127.746
127.143
121.266
119.377
122.992
119.962
115.469
114.312
117.633
122.776
119.267
118.429
121.18
189.885
183.471
182.315
186.789
3016.69
3015.67
3015.44
3016.24
2577.5
2572.65
2570.51
2571.24
214.648
197.631
188.242
189.806
149.614
137.885
132.126
134.653
136.262
127.988
124.59
128.089
127.095
121.11
119.033
122.432
120.405
115.999
114.728
117.781
114.138
110.874
110.134
112.787
117.008
114.578
113.968
115.928
170.072
164.748
163.819
167.477
2805.23
2804.57
2804.4
2804.94
2395.56
2392.23
2390.86
2391.7
180.933
169.252
163.317
165.861
136.331
127.924
124.064
126.726
124.646
119.102
117.07
120.035
117.675
113.737
112.435
114.903
112.812
110.002
109.172
111.19
108.255
106.233
105.74
107.409
111.078
109.656
109.17
110.227
149.202
145.02
144.323
147.101
2592.9
2592.59
2592.49
2592.76
2211.45
2209.63
2209.01
2209.77
140.812
135.351
132.701
134.536
119.256
114.619
112.334
113.805
111.726
108.891
107.756
109.253
108.105
106.078
105.236
106.335
105.708
104.275
103.687
104.537
103.399
102.382
102.008
102.705
105.547
104.812
104.427
104.822
126.636
123.875
123.469
125.239
2380.49
2380.53
2380.48
2380.48
6685.07
5722.88
5264.84
5082.02
4982.75
4925.78
4895.45
4879.39
4870.93
4865.4
1.03952e+06
228691
40785.7
13176.3
5455.81
2741.67
1646.02
1151.62
900.484
744.027
1.64326e+06
250122
49026.4
15755.5
6568.43
3337.74
1979.26
1330.49
979.162
757.348
2.03271e+06
231561
46540.2
13933.2
5634.74
2817.34
1655.36
1106.59
813.197
630.835
2.34488e+06
234238
44646.4
12374.3
4890.83
2408.58
1403.93
934.625
686.11
535.948
2.68589e+06
245394
44238.6
11286.9
4322.39
2074.18
1190.16
784.577
574.913
452.082
2.94667e+06
254098
43384.6
10284.3
3831.81
1805.52
1029.26
678.097
498.086
395.672
2.97177e+06
243978
39060.6
8469.55
3059.77
1425.78
826.554
560.127
426.899
351.018
2.01435e+06
152560
22181.7
4472.84
1797.98
1030.06
750.412
612.762
534.586
483.662
5839.61
5800.94
5663.61
5641.74
5605.8
5589.26
5576.93
5571.88
5569.83
5570.01
5697.3
5312.67
5095.53
4959.23
4875.4
4826.38
4800.23
4787.34
4781.06
4777.29
237302
63661.2
20060.8
7421.73
3306.29
1773.53
1133.96
843.335
695.597
603.729
435078
104938
29743.5
10174.9
4407.2
2300
1400.07
968.047
733.297
586.733
614170
133464
33140.1
10065.3
4102.8
2073.91
1240.09
847.488
638.169
510.77
808229
160632
35316
9657.41
3750.64
1852.81
1095.88
744.757
559.433
450.534
1.04214e+06
191936
37925.3
9372.88
3455.37
1653.92
959.7
643.885
481.717
390.073
1.26823e+06
218527
39372.6
8902.25
3150.59
1477.2
850.434
569.838
426.778
348.541
1.4083e+06
226961
37244.8
7625.02
2582.61
1197.3
700.675
482.551
374.656
316.246
1.04684e+06
153723
22274.3
4205.66
1592.1
926.625
686.162
568.41
501.624
461.032
6029.6
5752.47
5603.42
5551.65
5509.32
5486.57
5470.96
5462.48
5457.29
5454.39
5000.55
4922.44
4843.32
4776.97
4731.81
4705.27
4691.48
4685.25
4682.59
4680.96
15187.6
7395.66
3997.18
2237.41
1339.91
891.417
672.152
566.321
510.182
470.589
33155.7
14121.6
6847.79
3495.15
1923.44
1162.98
787.888
595.159
485.015
411.139
53374.3
19576.1
8365.95
3841.79
1974.49
1141.88
750.909
555.14
446.372
376.437
78151.2
24741.7
9424.4
3961.94
1939.18
1089.9
704.885
515.835
412.336
348.851
111659
30879.5
10542.9
4065.73
1892.58
1026.46
647.805
465.819
369.533
313.506
148216
36396
11253.5
4023.46
1804.44
956.421
597.026
427.568
338.673
288.948
176377
38578.2
10746.8
3545.31
1542.02
812.538
516.538
379.63
310.23
271.996
125827
23893.9
6067.56
2085.93
1100.21
741.481
587.596
506.119
458.025
428.373
5812.37
5639.48
5523.1
5458.43
5414.47
5388.68
5371.4
5360.33
5352.77
5347.78
4748.23
4708.83
4661.71
4622.74
4597.95
4584.79
4578.95
4577.1
4577.06
4577.19
2241.75
1750.38
1286.89
901.123
651.103
512.241
442.737
411.573
396.464
383
4657.53
3154.41
2051.73
1275.75
813.052
560.146
428.163
359.722
319.806
289.653
7908.97
4642.76
2662.86
1495.74
890.73
585.656
431.884
352.574
307.454
275.733
12105.3
6171.98
3173.86
1645.33
935.947
598.08
432.06
347.266
299.513
268.102
18091.4
8033.01
3736.84
1794.64
972.331
598.391
419.701
329.592
280.621
250.752
24843.1
9708.92
4140.02
1865.97
976.599
587.029
405.828
315.932
267.266
238.966
30391.4
10438.2
4076.06
1729.32
887.299
533.835
375.529
298.008
257.481
234.468
21340
6486.39
2514.98
1225.41
793.192
602.418
507.482
453.053
419.416
398.365
5599.64
5475.1
5383.43
5327.98
5291.37
5268.28
5252.17
5241.17
5233.4
5228.21
4567.27
4539.18
4508.3
4485.16
4471.9
4465.82
4463.92
4464.41
4465.93
4467.28
787.413
719.052
605.384
489.575
407.905
361.615
339.961
333.255
332.609
329.844
1079.49
911.108
698.942
505.623
372.583
294.893
254.706
236.08
226.28
216.738
1749.1
1318.51
905.096
598.368
414.151
313.354
261.036
235.046
221.036
209.587
2693.08
1802.65
1120.02
689.157
456.985
335.958
273.299
241.291
223.558
210.693
4138.42
2453.74
1387.6
794.149
500.719
353.502
277.971
238.691
217.345
203.673
5809.85
3080.76
1608.43
868.452
528.579
363.804
280.784
237.787
214.041
199.703
7261.93
3438.07
1665.89
859.917
517.418
357.405
278.867
238.125
216.35
203.726
5281.57
2383.94
1259.48
798.498
603.216
501.703
443.875
408.216
385.224
370.825
5363.7
5288.48
5228.16
5187.88
5159.38
5139.55
5125.01
5114.53
5106.89
5101.67
4422.2
4399.23
4375.48
4358.93
4350.2
4346.69
4346.14
4347.47
4349.79
4351.91
505.785
473.698
417.043
360.341
321.443
300.653
292.662
292.768
296.386
297.575
404.805
376.208
319.015
258.566
214.557
189.349
178.31
175.996
176.752
175.518
533.438
470.254
371.308
283.587
226.024
193.855
178.251
172.52
171.125
168.885
756.308
614.94
449.099
324.711
250.52
209.984
189.093
179.696
175.701
172.197
1138.79
838.413
562.05
380.54
280.024
225.903
196.838
181.976
174.731
170.02
1598.84
1071.55
666.668
428.014
304.417
239.421
204.393
185.896
176.001
170.008
2042.88
1246.1
728.665
453.689
320.503
252.094
215.422
195.47
184.997
179.088
1743.43
1100.84
748.931
573.717
482.58
428.004
393.095
370.201
354.964
345.697
5147.31
5104.6
5067.55
5039.67
5018.08
5001.73
4989.13
4979.66
4972.54
4967.59
4286.7
4267.01
4247.16
4233.82
4227.08
4224.57
4224.46
4225.97
4228.68
4231.28
423.042
393.231
349.151
309.386
284.024
271.562
267.863
269.785
274.376
276.93
248.973
233.598
205.391
176.939
157.293
147.275
144.625
146.771
150.582
152.379
257.466
241.47
207.339
175.283
154.274
143.356
139.472
140.222
143.08
144.517
308.545
280.834
231.743
190.991
165.831
152.378
146.345
145.255
146.622
147.275
415.725
355.487
275.943
217.189
182.377
162.963
152.574
148.076
147.166
146.871
549.274
438.858
321.029
242.7
198.506
173.79
159.871
152.864
149.895
148.413
702.993
522.583
365.408
271.057
220.204
191.715
175.227
166.121
161.93
160.01
817.327
644.222
520.407
448.198
403.785
373.922
352.924
338.457
328.671
323.207
4949.98
4925.56
4902.98
4884
4868.06
4855.13
4844.7
4836.54
4830.25
4825.78
4151.62
4134.62
4117.44
4106.05
4100.37
4098.3
4098.3
4099.81
4102.56
4105.47
383.648
354.667
315.707
283.215
263.676
254.662
252.523
254.896
259.519
262.494
201.852
187.569
166.057
146.743
134.571
129.173
128.778
131.789
136.192
139.029
183.568
173.35
153.522
136.321
125.97
121.408
120.89
123.273
127.186
129.905
192.221
181.381
159.115
141.141
130.692
125.794
124.537
126.021
129.079
131.338
224.178
206.107
175.73
152.802
139.317
132.045
128.605
128.077
129.654
131.283
265.157
235.477
194.42
165.71
149.029
139.532
134.269
132.228
132.393
133.113
328.009
278.216
224.107
189.233
169.159
157.23
150.028
146.291
145.347
145.6
520.327
456.664
405.482
372.794
350.212
333.611
321.024
312.033
305.983
303.275
4763.51
4748.21
4734.15
4721.42
4710.02
4700.2
4691.94
4685.26
4679.96
4676.15
4013.72
3999.1
3984.01
3974.01
3969.04
3967.22
3967.26
3968.7
3971.42
3974.44
356.934
329.361
293.953
265.895
249.681
242.505
241.079
243.528
248.119
251.222
182.367
168.313
149.169
133.41
124.15
120.405
120.568
123.49
127.778
130.936
159.636
149.614
133.357
120.714
113.824
111.25
111.571
114.082
117.961
121.001
157.528
148.232
132.368
121.012
115.18
112.991
113.124
115.138
118.438
121.156
167.279
155.768
138.007
125.901
119.469
116.441
115.489
116.302
118.627
120.924
180.486
165.743
145.51
132.34
125.162