/*--------------------------------*- C++ -*----------------------------------*\
| =========                 |                                                 |
| \\      /  F ield         | foam-extend: Open Source CFD                    |
|  \\    /   O peration     | Version:     4.0                                |
|   \\  /    A nd           | Web:         http://www.foam-extend.org         |
|    \\/     M anipulation  |                                                 |
\*---------------------------------------------------------------------------*/
FoamFile
{
    version     2.0;
    format      ascii;
    class       volScalarField;
    location    "400";
    object      k;
}
// * * * * * * * * * * * * * * * * * * * * * * * * * * * * * * * * * * * * * //

dimensions      [0 2 -2 0 0 0 0];

internalField   nonuniform List<scalar> 
34480
(
8.69789
8.6871
8.68163
8.67956
8.68045
8.68923
8.72848
8.87502
9.3204
10.3357
8.96574
8.13605
7.86787
8.02783
8.55941
9.72306
12.8392
21.6262
47.2982
108.412
14.2911
12.5451
11.9106
11.9485
12.5109
13.9788
18.089
29.3875
63.0696
150.208
13.6936
12.0392
11.5384
11.707
12.4164
14.0312
18.2062
29.6006
65.9812
168.979
12.609
11.2125
10.9225
11.2393
12.1209
13.9113
18.17
29.4595
67.476
183.535
11.4271
10.2602
10.0728
10.4539
11.4156
13.3538
17.8208
29.4439
69.9794
200.701
10.5208
9.57243
9.48382
9.89462
10.8926
12.9036
17.4998
29.3352
71.7623
214.841
9.14173
8.48661
8.44481
8.79385
9.61464
11.3389
15.4704
26.627
68.3741
215.452
6.53092
6.34839
6.36606
6.51705
6.86395
7.59007
9.57466
16.138
43.6903
149.08
9.096
9.09842
9.10267
9.11031
9.12077
9.13334
9.15086
9.18005
9.24487
9.30943
8.59416
8.58335
8.5778
8.57624
8.57781
8.58492
8.60797
8.67926
8.88552
9.40264
8.03099
7.3291
7.03366
7.09384
7.48601
8.40334
10.5014
14.7902
25.1916
73.2158
12.2732
10.7993
10.2305
10.2834
10.8689
12.2197
15.242
21.2847
36.1702
108.573
11.9987
10.5391
10.0626
10.217
10.9181
12.3891
15.499
21.5702
38.1422
125.241
11.2788
10.0047
9.69792
9.95583
10.7747
12.3783
15.6
21.5684
39.0239
137.995
10.3806
9.29442
9.07306
9.37589
10.2397
11.9358
15.3169
21.4303
40.2161
152.304
9.68328
8.78268
8.65266
8.97459
9.85235
11.5825
15.0644
21.2665
41.0007
164.097
8.55278
7.92307
7.84353
8.11353
8.81485
10.2509
13.2847
18.9342
38.1243
163.774
6.35514
6.16656
6.16373
6.26755
6.52953
7.06813
8.33468
11.1694
22.6002
105.697
8.96639
8.96422
8.96392
8.96718
8.97309
8.98047
8.99339
9.01904
9.08359
9.26882
8.4806
8.47054
8.46523
8.46362
8.46451
8.46902
8.48388
8.53203
8.66221
8.88198
7.11844
6.61212
6.36041
6.3655
6.59657
7.17975
8.61887
11.9054
17.7242
28.9714
10.1908
9.13027
8.68976
8.73218
9.21351
10.3123
12.723
17.643
26.1363
47.8988
10.1842
9.0831
8.70081
8.82648
9.41294
10.6371
13.1695
18.2144
27.8061
60.3551
9.82101
8.83238
8.57762
8.77986
9.4542
10.7905
13.4392
18.4517
28.6212
71.4716
9.2257
8.36418
8.17476
8.41472
9.12641
10.5512
13.3731
18.5518
29.6102
83.4988
8.75705
8.02933
7.91524
8.17304
8.89886
10.362
13.3013
18.5836
30.3247
94.0074
7.9103
7.39639
7.32638
7.545
8.12089
9.32523
11.8841
16.7032
28.2058
96.4579
6.16023
5.99947
5.99622
6.07811
6.28247
6.69994
7.66516
9.9584
16.6246
60.7313
8.84614
8.84083
8.83793
8.83881
8.84293
8.84861
8.85938
8.88358
8.95389
9.15825
8.35678
8.34815
8.34364
8.34238
8.34304
8.34592
8.35521
8.38744
8.47934
8.61908
6.44425
6.07544
5.86741
5.84294
5.96137
6.28827
7.15167
9.30687
13.1705
17.7392
8.50543
7.78133
7.44586
7.44694
7.75181
8.48849
10.172
13.7792
19.5824
28.4011
8.63976
7.85115
7.5512
7.61834
8.01083
8.85734
10.6554
14.4533
20.9949
35.1366
8.53543
7.80626
7.6008
7.72743
8.18792
9.12216
11.0109
14.8466
21.7208
41.5515
8.19136
7.53717
7.37935
7.54106
8.03985
9.05802
11.1066
15.1586
22.5943
49.0676
7.91712
7.35115
7.25287
7.4343
7.95486
9.01932
11.1813
15.3778
23.2191
55.9698
7.32958
6.92201
6.86093
7.02116
7.43912
8.31663
10.1904
14.0281
21.6609
57.9532
5.97868
5.84396
5.84049
5.90175
6.05163
6.35034
7.0071
8.63943
12.8066
35.6808
8.71283
8.70695
8.70379
8.70456
8.70919
8.71637
8.72881
8.75448
8.82017
8.98305
8.22378
8.21636
8.21247
8.21134
8.21156
8.21301
8.21848
8.24006
8.30729
8.40917
6.00018
5.71353
5.5377
5.49996
5.5549
5.73185
6.2342
7.56571
10.0525
12.184
7.30222
6.80404
6.5447
6.51161
6.66502
7.0793
8.10925
10.4734
14.3258
18.0376
7.45994
6.89902
6.66388
6.68026
6.89637
7.38564
8.48888
11.0161
15.4307
21.6226
7.49683
6.96775
6.8043
6.86684
7.13405
7.68489
8.84167
11.4186
16.0959
25.1381
7.32571
6.83767
6.70845
6.80253
7.10782
7.73342
9.01966
11.8119
16.9312
29.5956
7.19244
6.76072
6.67757
6.79156
7.12409
7.80015
9.18434
12.1305
17.5448
33.8146
6.81863
6.50103
6.44833
6.55611
6.83108
7.39857
8.59965
11.2864
16.5186
35.0798
5.81079
5.69979
5.69621
5.73922
5.84259
6.04193
6.45273
7.47135
9.95641
21.0083
8.57111
8.56494
8.56163
8.56231
8.56706
8.57529
8.58829
8.61278
8.66824
8.78785
8.08223
8.0757
8.07228
8.07121
8.0711
8.07167
8.07513
8.09166
8.14649
8.23151
5.72614
5.48643
5.33291
5.29109
5.31579
5.41999
5.74299
6.64643
8.44115
9.93886
6.51085
6.15076
5.94502
5.89716
5.96212
6.17572
6.76991
8.24798
10.8121
12.7991
6.62228
6.21471
6.0301
6.01843
6.1219
6.37189
6.98074
8.50681
11.3788
14.4882
6.70691
6.32284
6.19558
6.21867
6.35657
6.64194
7.26522
8.79116
11.8071
16.289
6.63519
6.27477
6.17283
6.2219
6.39234
6.73638
7.44994
9.13293
12.4686
18.8293
6.5897
6.26659
6.20007
6.26659
6.46345
6.85333
7.64222
9.45056
12.9981
21.2577
6.37942
6.13792
6.09552
6.16456
6.33419
6.67283
7.36753
9.01408
12.3991
21.8704
5.65751
5.56877
5.56628
5.59543
5.66372
5.7908
6.03647
6.6225
7.9854
13.0033
8.42016
8.41406
8.41081
8.41149
8.41619
8.42489
8.43771
8.45986
8.50322
8.58431
7.93236
7.92646
7.92335
7.92234
7.92202
7.92209
7.92456
7.93888
7.98739
8.06333
5.56182
5.34865
5.21014
5.16785
5.17854
5.24829
5.48481
6.18149
7.65068
8.99314
6.01505
5.73599
5.56714
5.51672
5.5391
5.65056
6.00904
6.98144
8.81248
10.2411
6.05773
5.74936
5.60263
5.57938
5.62257
5.74186
6.06897
6.97794
8.86873
10.7535
6.13581
5.85245
5.75413
5.75654
5.81982
5.95258
6.26246
7.10733
8.99288
11.4784
6.11039
5.84403
5.76554
5.78769
5.87479
6.04692
6.40781
7.32768
9.38227
12.7945
6.11074
5.87166
5.82059
5.85636
5.96468
6.17152
6.58117
7.57323
9.74443
14.0984
6.01718
5.83734
5.80507
5.84699
5.94446
6.13143
6.50088
7.40377
9.4369
14.3377
5.52271
5.45372
5.45274
5.47167
5.51444
5.59088
5.73155
6.05299
6.79171
9.09968
8.25945
8.25372
8.2507
8.25139
8.25587
8.26439
8.27638
8.2955
8.32858
8.3837
7.7742
7.76873
7.76586
7.76491
7.7645
7.76436
7.76647
7.77979
7.82468
7.89473
5.4629
5.26471
5.13643
5.09493
5.09904
5.15172
5.34379
5.93437
7.24179
8.54866
5.71023
5.47972
5.33689
5.28948
5.29388
5.35804
5.59965
6.31213
7.77067
9.05344
5.68857
5.44521
5.32695
5.30121
5.31577
5.37185
5.55826
6.144
7.50399
8.95763
5.73752
5.52382
5.44797
5.44135
5.46592
5.52123
5.67236
6.15271
7.38995
9.06351
5.72677
5.52877
5.46939
5.47694
5.51682
5.59473
5.76698
6.2563
7.52404
9.60724
5.74479
5.56914
5.53126
5.54859
5.60336
5.70388
5.90196
6.41381
7.70207
10.1975
5.7296
5.59825
5.57495
5.59896
5.65001
5.74372
5.92532
6.3856
7.55603
10.2348
5.40814
5.35602
5.35655
5.36834
5.39348
5.43613
5.51234
5.68196
6.09316
7.31428
8.08844
8.08333
8.08066
8.08135
8.08547
8.09331
8.10399
8.11976
8.1444
8.18309
7.60756
7.60242
7.59976
7.59889
7.59847
7.59828
7.6004
7.61314
7.65556
7.72128
5.40053
5.21083
5.08993
5.04969
5.05054
5.09388
5.26044
5.78989
7.0058
8.30464
5.52177
5.32206
5.19853
5.15599
5.15371
5.1962
5.37824
5.95315
7.21821
8.47407
5.45027
5.25157
5.15522
5.13112
5.13335
5.16067
5.27905
5.70181
6.79216
8.11676
5.46655
5.30208
5.24357
5.23414
5.24038
5.25975
5.33624
5.63766
6.54078
7.91779
5.45529
5.30714
5.26281
5.2632
5.27816
5.30819
5.38733
5.65977
6.50303
8.02941
5.47492
5.34652
5.3192
5.32627
5.35068
5.39368
5.48306
5.74647
6.54196
8.20324
5.50966
5.41547
5.39949
5.41226
5.4352
5.47502
5.55498
5.78046
6.46721
8.12645
5.314
5.27576
5.27755
5.28461
5.29819
5.31945
5.35723
5.4425
5.67843
6.45129
7.90668
7.90238
7.90013
7.90081
7.90443
7.91127
7.92036
7.9328
7.95067
7.97837
7.43211
7.42729
7.42483
7.42405
7.42368
7.42358
7.42581
7.43805
7.47846
7.54083
5.35719
5.17258
5.05771
5.01907
5.01825
5.05574
5.2056
5.69482
6.85189
8.1526
5.40151
5.22297
5.11475
5.07744
5.07324
5.10523
5.25362
5.74712
6.90005
8.16125
5.29585
5.12983
5.05095
5.03002
5.02759
5.04217
5.12612
5.46069
6.40612
7.7071
5.28473
5.15639
5.11135
5.10204
5.10058
5.10475
5.14697
5.35865
6.0866
7.36693
5.26807
5.1568
5.12409
5.12144
5.12423
5.13169
5.16669
5.33203
5.9512
7.25271
5.28197
5.18866
5.16943
5.17125
5.1796
5.19358
5.22995
5.37102
5.90496
7.20239
5.34732
5.28101
5.27061
5.27667
5.28371
5.29451
5.3222
5.42965
5.85834
7.05951
5.23908
5.21186
5.21456
5.21866
5.22512
5.23369
5.24946
5.28909
5.4284
5.99067
7.71382
7.71041
7.70862
7.70927
7.71231
7.71798
7.72539
7.7348
7.74737
7.76744
7.24756
7.24301
7.24076
7.24009
7.23985
7.23991
7.24216
7.25383
7.29231
7.35201
5.32238
5.14171
5.03276
4.99619
4.99449
5.02772
5.16487
5.62313
6.73677
8.04664
5.31982
5.15745
5.06234
5.03016
5.02596
5.05216
5.17852
5.61609
6.69324
7.97037
5.19351
5.05308
4.9886
4.97118
4.96749
4.97645
5.0411
5.32093
6.17614
7.48923
5.16304
5.06227
5.02783
5.01979
5.01579
5.01452
5.04093
5.20298
5.82709
7.08043
5.14139
5.05789
5.03401
5.03041
5.02794
5.0259
5.04074
5.15071
5.64149
6.84406
5.14757
5.08033
5.06709
5.0665
5.06714
5.06789
5.07983
5.16034
5.5486
6.67129
5.23134
5.18553
5.1791
5.18135
5.18024
5.17696
5.17965
5.22922
5.5166
6.49259
5.1811
5.1624
5.16561
5.16799
5.17042
5.17213
5.17607
5.19186
5.27678
5.72276
7.50958
7.50706
7.50573
7.50632
7.50876
7.51322
7.51904
7.52585
7.53442
7.54911
7.0535
7.04933
7.04731
7.04677
7.04663
7.04678
7.04895
7.05988
7.09627
7.1537
5.28968
5.11361
5.01145
4.97758
4.97556
5.00526
5.13102
5.56107
6.63699
7.96409
5.25875
5.11056
5.02762
5.0004
4.99689
5.01927
5.12872
5.52121
6.53741
7.83727
5.1227
5.00367
4.95146
4.9374
4.93384
4.94026
4.99243
5.23213
6.01847
7.35469
5.08075
5.00181
4.97573
4.96925
4.96504
4.96263
4.98148
5.1118
5.66179
6.90746
5.05661
4.9943
4.97704
4.97343
4.96925
4.96417
4.97037
5.04916
5.45519
6.60013
5.05577
5.00795
4.99899
4.9975
4.99503
4.99086
4.99266
5.04216
5.34008
6.35612
5.15068
5.11963
5.11581
5.116
5.11139
5.10262
5.095
5.11697
5.32157
6.16341
5.13726
5.12494
5.12835
5.12981
5.13024
5.12878
5.12707
5.13108
5.18463
5.55446
7.29378
7.29208
7.29116
7.29168
7.29355
7.29687
7.30126
7.30598
7.3116
7.32243
6.84947
6.8458
6.84405
6.84363
6.84355
6.84374
6.84573
6.85573
6.88964
6.94494
5.2551
5.08594
4.99221
4.96181
4.95986
4.98623
5.10033
5.50051
6.5371
7.88964
5.20751
5.07364
5.00274
4.98036
4.97775
4.99707
5.09161
5.44214
6.39959
7.72788
5.07066
4.97065
4.92915
4.91812
4.9152
4.92036
4.9631
5.16843
5.8898
7.24747
5.02386
4.96264
4.94317
4.93811
4.9346
4.93274
4.94764
5.05422
5.53993
6.77376
4.99998
4.95396
4.94153
4.93826
4.93407
4.92895
4.93192
4.99112
5.3315
6.42335
4.99382
4.96043
4.95441
4.95273
4.94954
4.94452
4.94308
4.97578
5.20989
6.1368
5.09551
5.07477
5.07248
5.07164
5.06615
5.05647
5.04616
5.05564
5.20716
5.94746
5.10463
5.09702
5.10037
5.10141
5.10107
5.09864
5.09488
5.09362
5.12831
5.43906
7.06632
7.0653
7.06474
7.06517
7.06654
7.06887
7.072
7.07514
7.07866
7.08664
6.63512
6.63202
6.63058
6.63027
6.63024
6.63042
6.63216
6.64099
6.67187
6.72478
5.21619
5.05769
4.97449
4.94834
4.94674
4.96968
5.07082
5.43609
6.42448
7.80866
5.15978
5.04191
4.9833
4.96556
4.96387
4.98038
5.06052
5.36768
6.25889
7.61762
5.02972
4.9475
4.91547
4.90707
4.90491
4.90932
4.94405
5.11648
5.76624
7.13155
4.98328
4.93667
4.92232
4.91841
4.91584
4.91504
4.92749
5.01391
5.43523
6.63725
4.96186
4.92832
4.91931
4.91646
4.91296
4.90903
4.91122
4.95655
5.23879
6.26269
4.95215
4.92935
4.92523
4.92366
4.92085
4.91676
4.91516
4.93801
5.12134
5.95357
5.05761
5.04376
5.04218
5.04086
5.03584
5.02748
5.01815
5.02256
5.1365
5.78255
5.08056
5.07637
5.0795
5.0804
5.08
5.07775
5.07392
5.07075
5.09332
5.35151
6.82715
6.82666
6.82638
6.82673
6.82767
6.8292
6.83125
6.83324
6.83531
6.84111
6.41018
6.40774
6.40663
6.40642
6.40641
6.40655
6.40798
6.41544
6.44257
6.49236
5.17179
5.02878
4.95834
4.93707
4.93598
4.95526
5.0416
5.36428
6.28723
7.70253
5.11239
5.01291
4.96672
4.95328
4.95239
4.96622
5.03187
5.2918
6.10035
7.48157
4.99566
4.93049
4.90676
4.90056
4.89912
4.90299
4.93047
5.06975
5.63458
6.97764
4.95333
4.91875
4.90824
4.90517
4.90349
4.90376
4.91437
4.98244
5.33472
6.47069
4.93578
4.91166
4.90495
4.90247
4.89989
4.89749
4.89987
4.93442
5.16103
6.08976
4.92392
4.90872
4.90573
4.90435
4.9023
4.89971
4.89913
4.91563
5.05529
5.77627
5.03041
5.02082
5.01939
5.0179
5.01392
5.00775
5.00086
5.00373
5.08874
5.63693
5.06285
5.06111
5.06393
5.06485
5.06473
5.06318
5.06018
5.05674
5.07087
5.2784
6.5763
6.57618
6.5761
6.57638
6.57699
6.57792
6.5791
6.58023
6.58133
6.58538
6.17458
6.17285
6.17207
6.17194
6.17194
6.17204
6.17312
6.17904
6.20164
6.24699
5.12214
4.99995
4.94411
4.92808
4.92755
4.94295
5.01264
5.28352
6.1141
7.54479
5.06465
4.98563
4.95131
4.94158
4.9413
4.95258
5.00385
5.21222
5.91386
7.28959
4.96651
4.91754
4.9008
4.89634
4.89551
4.89898
4.9199
5.0259
5.48961
6.75925
4.93059
4.90569
4.8979
4.89538
4.89444
4.89559
4.90464
4.95583
5.23388
6.2564
4.91747
4.90028
4.89504
4.89286
4.89117
4.8902
4.89307
4.91882
5.09121
5.8904
4.90448
4.89449
4.8921
4.89089
4.88963
4.88848
4.88911
4.90119
5.00237
5.59231
5.00877
5.00148
4.99986
4.99837
4.99557
4.99165
4.98751
4.99038
5.05207
5.49587
5.04974
5.04977
5.05227
5.05327
5.05352
5.05278
5.05081
5.04782
5.05569
5.21325
6.31389
6.31399
6.31404
6.31426
6.31463
6.31513
6.31573
6.31618
6.31661
6.31922
5.92861
5.92753
5.92705
5.92699
5.92699
5.92703
5.92777
5.93203
5.94941
5.98836
5.06929
4.9727
4.93238
4.92151
4.92152
4.93296
4.98482
5.19508
5.89682
7.29759
5.01791
4.95975
4.93569
4.92877
4.9289
4.93789
4.97561
5.13005
5.69641
7.00583
4.94167
4.90733
4.89605
4.89283
4.8925
4.89566
4.91094
4.98524
5.33419
6.45559
4.91303
4.89551
4.88951
4.88735
4.88694
4.88871
4.89637
4.93263
5.13445
5.98771
4.9042
4.89191
4.88757
4.88564
4.88467
4.88484
4.88814
4.90672
5.028
5.66308
4.89072
4.8841
4.88198
4.88089
4.88027
4.88022
4.88179
4.89067
4.95878
5.40223
4.98868
4.98241
4.98049
4.97908
4.97732
4.97532
4.97359
4.97695
5.01979
5.35544
5.03978
5.04112
5.04331
5.04439
5.04498
5.0449
5.04381
5.04132
5.04438
5.15359
6.04023
6.04043
6.04053
6.04069
6.0409
6.04114
6.04137
6.04144
6.04144
6.04291
5.67239
5.67223
5.672
5.672
5.672
5.67201
5.67242
5.67509
5.68687
5.71704
5.01737
4.94926
4.92387
4.91758
4.918
4.9257
4.95993
5.10432
5.63606
6.91216
4.97472
4.93497
4.91855
4.91343
4.91374
4.92078
4.94676
5.04948
5.45681
6.59677
4.92092
4.89857
4.89107
4.88864
4.88865
4.89158
4.90237
4.94922
5.17976
6.06306
4.89928
4.887
4.88215
4.88023
4.88017
4.88224
4.88862
4.91258
5.04267
5.67491
4.89409
4.88516
4.88144
4.87974
4.87929
4.88021
4.88366
4.89662
4.97323
5.42043
4.88066
4.87607
4.8741
4.87313
4.8729
4.87351
4.87556
4.88208
4.92366
5.2176
4.96728
4.96142
4.95931
4.95804
4.95706
4.9564
4.95637
4.96011
4.98822
5.21897
5.0313
5.03355
5.03547
5.03659
5.03735
5.03769
5.03717
5.03502
5.0344
5.09924
5.75593
5.75613
5.75624
5.75635
5.75645
5.75654
5.75659
5.7565
5.75632
5.75696
5.40783
5.40767
5.40759
5.40761
5.40762
5.40762
5.4078
5.40914
5.41556
5.43483
4.97169
4.93168
4.91888
4.91613
4.91674
4.92122
4.93992
5.02068
5.35097
6.34478
4.93699
4.91074
4.89929
4.89523
4.89553
4.90083
4.91736
4.97612
5.21915
6.05624
4.90322
4.8894
4.88418
4.88222
4.88239
4.885
4.89245
4.91842
5.04359
5.61486
4.88793
4.87922
4.87528
4.87366
4.87376
4.87573
4.88075
4.89534
4.96606
5.35235
4.88545
4.87892
4.87583
4.87444
4.8743
4.87549
4.87868
4.88734
4.92907
5.18964
4.87322
4.86988
4.86814
4.86731
4.86727
4.86808
4.87009
4.87482
4.89721
5.05825
4.94275
4.93741
4.93536
4.9343
4.93379
4.93384
4.93473
4.93835
4.95553
5.09364
5.02007
5.02274
5.02439
5.02543
5.02618
5.02661
5.02631
5.02437
5.02138
5.04944
5.46193
5.46207
5.46215
5.46221
5.46225
5.46227
5.46225
5.46215
5.46197
5.46215
5.13341
5.13324
5.13321
5.13322
5.13322
5.13324
5.13332
5.13378
5.13604
5.14398
4.9323
4.91576
4.91167
4.91107
4.91159
4.91361
4.92077
4.9506
5.08463
5.61155
4.90396
4.88681
4.87934
4.87645
4.87659
4.87991
4.88876
4.91465
5.01732
5.45058
4.88601
4.8777
4.87416
4.87271
4.87284
4.87468
4.87919
4.89107
4.93993
5.19659
4.87686
4.87099
4.8683
4.86719
4.86729
4.86866
4.87186
4.8794
4.90825
5.07745
4.8762
4.87181
4.8697
4.86879
4.86878
4.8697
4.87193
4.87696
4.89473
5.00628
4.8678
4.86546
4.86423
4.86368
4.86371
4.86433
4.86575
4.86874
4.87855
4.94452
4.91317
4.90905
4.90741
4.90665
4.9064
4.90668
4.90772
4.91057
4.91981
4.98602
4.98924
4.99145
4.99263
4.99338
4.99392
4.99422
4.99398
4.99247
4.98909
4.99331
5.1585
5.15854
5.15859
5.15861
5.15862
5.15861
5.15859
5.15853
5.15844
5.15848
12.2477
12.3262
12.2307
11.932
120.424
121.261
120.604
119.964
182.627
186.163
185.161
181.665
231.032
237.891
236.234
229.347
279.175
289.295
286.708
278.37
334.996
348.798
345.636
337.284
385.897
403.259
399.887
393.028
415.503
435.986
433.078
428.967
325.17
342.455
339.035
338.176
11.1441
11.3481
11.2025
10.8646
10.24
10.2793
10.2459
10.1505
117.124
117.794
116.312
113.224
183.024
189.606
187.014
180.014
233.897
249.696
245.788
234.712
285.124
311.693
306.65
293.321
345.899
385.701
380.81
366.273
402.699
456.388
452.635
438.802
437.525
504.101
502.831
491.622
333.264
392.155
389.004
385.353
10.4319
10.6123
10.5307
10.3303
8.98357
8.98293
8.96455
8.93449
42.0333
44.4956
42.6231
38.1499
70.4004
73.7673
69.7975
62.3689
94.5444
98.9777
92.7954
82.5092
120.391
126.245
117.826
104.388
152.652
160.873
150.064
132.477
185.379
196.079
182.762
160.977
209.47
222.941
207.87
182.68
158.953
169.509
156.664
137.672
9.6862
9.75081
9.71773
9.63107
8.61165
8.59949
8.58837
8.57935
18.9868
18.8884
18.3783
17.7328
31.4807
31.2948
30.2548
29.0194
41.8577
41.8702
40.2625
38.1522
53.3528
53.6203
51.2449
47.9718
68.3982
69.2108
65.8627
60.9704
84.0434
85.3668
80.8369
74.1451
95.8292
98.0501
92.5428
84.1134
70.484
72.3721
67.7124
61.1448
9.24907
9.27724
9.26721
9.23366
8.3815
8.36953
8.36018
8.35329
12.0388
11.8571
11.5922
11.3283
18.0543
17.7534
17.3072
16.9135
22.705
22.4373
21.828
21.241
27.9988
27.7762
26.8922
25.9814
35.3881
35.3276
34.0684
32.6296
43.1271
43.1821
41.4156
39.3135
48.7911
49.2176
47.0157
44.1503
34.1713
34.5941
32.6788
30.2996
8.91834
8.9315
8.92845
8.91581
8.19873
8.18729
8.1788
8.17274
9.51024
9.29401
9.05586
8.85025
12.0498
11.6837
11.3262
11.0796
13.8406
13.4201
13.0153
12.7774
16.1466
15.6926
15.2034
14.9254
19.7906
19.3634
18.7464
18.3402
23.6265
23.2017
22.3827
21.7798
26.2835
26.0315
25.048
24.1621
17.6075
17.4938
16.6825
15.9302
8.64782
8.65269
8.65206
8.64888
8.02768
8.01641
8.00842
8.00301
8.54581
8.33578
8.11529
7.92872
9.4791
9.15108
8.84328
8.62533
9.8422
9.44904
9.12172
8.94695
10.6318
10.1875
9.83322
9.69299
12.3283
11.8638
11.4657
11.3218
14.1653
13.6675
13.192
13.019
15.3643
14.9468
14.4282
14.1844
10.4495
10.2063
9.84981
9.69434
8.41325
8.41395
8.41413
8.41504
7.85629
7.84486
7.83713
7.83229
8.0733
7.85659
7.64251
7.47258
8.33995
8.03777
7.76366
7.57404
8.08673
7.73544
7.45751
7.31556
8.1582
7.76622
7.48342
7.38982
8.82592
8.40591
8.1073
8.04067
9.60597
9.14926
8.81987
8.77169
10.1078
9.69196
9.36501
9.32026
7.60124
7.3613
7.18218
7.20126
8.1971
8.19573
8.19587
8.19811
7.6799
7.66811
7.66051
7.6562
7.77434
7.5399
7.32519
7.17117
7.7716
7.47618
7.22217
7.05968
7.31053
6.98664
6.74221
6.62934
7.09866
6.75441
6.52049
6.45809
7.2764
6.91431
6.67979
6.65058
7.5347
7.14659
6.90163
6.90012
7.71489
7.35364
7.12496
7.14498
6.47278
6.27131
6.16145
6.21644
7.98534
7.98294
7.98278
7.98529
7.49661
7.48438
7.47686
7.4731
7.54924
7.29018
7.07052
6.93189
7.43245
7.12938
6.88496
6.74639
6.93604
6.62235
6.39778
6.31034
6.63544
6.32149
6.11957
6.08283
6.6005
6.28412
6.09332
6.0909
6.62639
6.29987
6.11137
6.13608
6.66271
6.36165
6.19397
6.24024
5.97817
5.8148
5.73868
5.79791
7.77097
7.7681
7.76771
7.7702
7.30534
7.29269
7.28525
7.28208
7.36261
7.07579
6.84929
6.72599
7.19528
6.87691
6.63619
6.5192
6.73076
6.41631
6.203
6.13828
6.417
6.11958
5.93839
5.92396
6.29087
6.0056
5.84469
5.86424
6.2142
5.93393
5.78441
5.82822
6.18538
5.93367
5.8073
5.86868
5.73382
5.60122
5.54612
5.60446
7.55081
7.54778
7.54727
7.54967
7.10534
7.09238
7.08508
7.08254
7.2005
6.88563
6.6522
6.54469
7.01154
6.6752
6.43578
6.33952
6.60233
6.28234
6.07634
6.03328
6.30184
6.01347
5.84701
5.85326
6.13544
5.87148
5.73227
5.77115
6.00918
5.76262
5.64129
5.70082
5.95132
5.73711
5.64033
5.71275
5.59722
5.4885
5.44832
5.50529
7.32306
7.32009
7.31953
7.3218
6.89603
6.88295
6.87589
6.87404
7.05642
6.71559
6.47665
6.38607
6.86069
6.50746
6.26964
6.19467
6.50996
6.18458
5.98549
5.96452
6.22849
5.94712
5.79341
5.81977
6.04325
5.79622
5.6748
5.7312
5.8888
5.6687
5.56949
5.64227
5.82076
5.63595
5.56156
5.64213
5.50773
5.41771
5.38858
5.44389
7.08655
7.08377
7.08323
7.08533
6.67688
6.66399
6.65731
6.65617
6.92573
6.56352
6.32204
6.25032
6.73146
6.36577
6.13218
6.08035
6.43107
6.1046
5.91491
5.91739
6.16514
5.89296
5.75286
5.79908
5.96974
5.73954
5.63481
5.70683
5.79593
5.5994
5.51922
5.60252
5.72966
5.56995
5.5134
5.59873
5.43629
5.36132
5.34041
5.39336
6.84046
6.83796
6.83746
6.83937
6.44744
6.43514
6.429
6.42858
6.80241
6.42635
6.18722
6.13719
6.61351
6.24346
6.0191
5.99332
6.34787
6.02855
5.85326
5.88072
6.09071
5.83335
5.70967
5.77478
5.88894
5.67862
5.59113
5.67572
5.70055
5.52781
5.4652
5.55521
5.64568
5.50959
5.46771
5.55334
5.36823
5.30582
5.29093
5.34039
6.58426
6.5821
6.58166
6.58332
6.2073
6.19606
6.19067
6.19091
6.67583
6.2975
6.0681
6.0435
6.49242
6.13045
5.92298
5.92646
6.24142
5.94135
5.78746
5.84024
5.98759
5.75341
5.64994
5.73085
5.78325
5.59806
5.52881
5.62076
5.58613
5.43935
5.39321
5.4844
5.55178
5.43973
5.40975
5.48991
5.29679
5.24524
5.23452
5.2791
6.31768
6.3159
6.31552
6.31689
5.95619
5.94654
5.94208
5.94288
6.5264
6.16299
5.95403
5.95879
6.34571
6.00946
5.82894
5.86309
6.08927
5.82396
5.69936
5.77408
5.83976
5.63899
5.55902
5.64862
5.64074
5.48704
5.43619
5.5271
5.44555
5.32775
5.29625
5.3809
5.44006
5.35336
5.33228
5.40007
5.22014
5.17829
5.17022
5.20837
6.04103
6.03969
6.03939
6.04045
5.69419
5.6866
5.68324
5.68442
6.31993
5.99612
5.82192
5.85752
6.14018
5.85246
5.70955
5.76908
5.86769
5.65448
5.56519
5.65094
5.63566
5.47888
5.42311
5.50854
5.45714
5.34102
5.30654
5.38457
5.28166
5.19544
5.1752
5.24377
5.30934
5.24894
5.23343
5.28203
5.14039
5.10762
5.1011
5.13132
5.75494
5.75407
5.75384
5.75456
5.42173
5.41652
5.41436
5.41567
6.00235
5.75106
5.62751
5.6859
5.83458
5.62076
5.52159
5.58682
5.56376
5.41763
5.36295
5.43785
5.37793
5.27309
5.23747
5.30068
5.2426
5.16743
5.14451
5.19674
5.11022
5.05594
5.04221
5.08588
5.1644
5.12867
5.11583
5.14183
5.06166
5.03812
5.03275
5.05355
5.46033
5.45993
5.45978
5.46015
5.13887
5.13603
5.13504
5.13621
5.50537
5.36076
5.29536
5.34609
5.40194
5.27844
5.21661
5.25336
5.2056
5.12828
5.09645
5.13514
5.10339
5.04755
5.02355
5.05196
5.03361
4.99379
4.97682
4.99901
4.96397
4.93545
4.9245
4.94308
5.01951
5.00001
4.98907
4.99871
4.98269
4.96832
4.96451
4.97575
5.15742
5.1575
5.15743
5.15742
10.7277
9.67868
9.16406
8.95513
8.83981
8.77427
8.73914
8.72019
8.71003
8.70345
137.636
67.4268
43.7671
32.8253
25.0962
19.6386
15.8872
13.3415
11.583
10.2311
194.844
88.8282
59.1228
45.9224
36.858
30.2912
25.4977
21.9444
19.1607
16.7894
226.074
92.5391
59.4899
45.5301
36.6042
29.8924
24.9255
21.2524
18.4331
16.0993
249.405
91.6946
58.1022
44.1599
35.6057
28.7143
23.5685
19.7953
16.9744
14.7664
275.055
92.6556
57.4951
43.0396
34.4962
27.2548
21.9172
18.0854
15.3427
13.312
294.269
92.4837
56.2705
41.5662
33.1296
25.6926
20.3175
16.5541
13.9444
12.1191
295.618
86.0361
50.4786
36.1628
28.3923
21.4523
16.7312
13.6067
11.6035
10.2705
204.006
49.7961
26.5433
17.9338
13.692
10.447
8.72613
7.75491
7.18663
6.82648
9.38872
9.34727
9.19806
9.17362
9.1341
9.11588
9.1023
9.09676
9.09456
9.09489
9.64878
9.21738
8.97047
8.81273
8.71431
8.65636
8.626
8.61067
8.60303
8.59849
75.8387
42.4813
31.4741
24.3459
19.0887
15.3087
12.7124
10.9959
9.83598
8.96368
114.86
61.5127
45.7049
36.1489
29.4839
24.4634
20.8007
18.1174
16.0291
14.2862
139.261
69.0535
48.6704
37.4386
30.3031
24.8726
20.8976
17.9973
15.7954
14.0245
161.674
74.1101
49.6699
37.4528
30.1447
24.4017
20.1767
17.1206
14.8594
13.1509
188.217
80.1026
51.0782
37.5281
29.8084
23.6036
19.0983
15.9047
13.6512
12.0524
211.3
84.0882
51.3977
36.9454
29.0487
22.5727
17.959
14.7713
12.5865
11.1263
221.266
81.7806
47.3405
32.7841
25.2569
19.1328
15.018
12.3347
10.6449
9.58021
153.677
49.5441
25.578
16.6646
12.5564
9.74177
8.24035
7.40063
6.91346
6.6278
9.59018
9.29501
9.13281
9.07572
9.02902
9.00387
8.98659
8.97723
8.97158
8.96854
8.85545
8.76607
8.6751
8.59731
8.54357
8.51178
8.49541
8.48785
8.48454
8.48261
29.3828
24.6784
20.68
16.674
13.4196
11.0983
9.59911
8.69179
8.1134
7.66012
47.5955
38.7762
32.4496
26.4261
21.6236
18.0772
15.6115
13.9019
12.6079
11.5126
60.446
45.5857
36.4002
28.6224
22.9926
18.9462
16.1405
14.1925
12.754
11.5894
72.5687
50.3684
38.6348
29.5556
23.4216
19.0202
15.9576
13.8417
12.3171
11.1645
86.882
55.4815
40.9266
30.3972
23.6447
18.7782
15.4183
13.1303
11.5608
10.457
99.616
58.9154
42.0467
30.4768
23.3862
18.2446
14.7505
12.4246
10.8706
9.8434
105.837
57.4899
39.2716
27.4477
20.6032
15.7322
12.6094
10.6454
9.44108
8.69133
71.3139
33.597
21.1217
14.1112
10.6336
8.58927
7.52113
6.92208
6.57383
6.37206
9.35983
9.17296
9.04527
8.97383
8.92513
8.89649
8.87728
8.865
8.85669
8.85129
8.55826
8.51297
8.45816
8.41186
8.38191
8.36592
8.35884
8.35645
8.35633
8.35659
16.5822
15.4806
13.5621
11.3161
9.46716
8.22612
7.50582
7.13202
6.92173
6.73407
26.9964
24.9623
21.7394
18.0585
14.9974
12.8116
11.3871
10.4862
9.84318
9.27248
34.3624
30.197
25.0955
20.1161
16.3637
13.7641
12.0512
10.9413
10.163
9.51414
41.4976
34.4199
27.4228
21.3498
17.0921
14.173
12.2295
10.9615
10.087
9.41388
50.2946
39.1257
29.931
22.5872
17.6938
14.3441
12.1126
10.6602
9.70362
9.02932
58.2559
42.5827
31.4895
23.1637
17.8554
14.2326
11.8488
10.3232
9.33591
8.6833
62.2743
42.246
29.9277
21.2629
16.0556
12.6077
10.4637
9.15817
8.37881
7.89417
40.8006
24.2546
16.0167
11.2567
8.9144
7.61391
6.91189
6.50964
6.27398
6.13935
9.13032
8.99371
8.89202
8.83023
8.78935
8.76353
8.74552
8.73324
8.72463
8.71895
8.34071
8.30829
8.27192
8.24396
8.22765
8.2201
8.2178
8.21827
8.2201
8.22191
10.8574
10.3107
9.30362
8.14843
7.22962
6.65117
6.3551
6.24296
6.20781
6.15442
16.3469
15.547
13.9155
11.9693
10.3258
9.18884
8.51362
8.15772
7.93805
7.70806
20.3497
18.7648
16.1555
13.4611
11.3675
9.94674
9.06923
8.56527
8.24905
7.96044
24.4614
21.6907
17.9813
14.5791
12.1076
10.4462
9.39157
8.76008
8.35738
8.03093
29.9008
25.2786
20.1402
15.8206
12.8261
10.8143
9.51441
8.71304
8.21626
7.86182
34.9375
28.1763
21.6886
16.5975
13.2186
10.967
9.51906
8.62844
8.07381
7.70505
37.5422
28.4931
21.0269
15.6053
12.229
10.0647
8.73901
7.94968
7.49253
7.20929
23.6549
16.1782
11.571
8.95554
7.61776
6.85732
6.4202
6.16286
6.01191
5.92897
8.87182
8.78779
8.72
8.67467
8.64259
8.62025
8.60386
8.59208
8.58354
8.57776
8.16345
8.13681
8.10839
8.08801
8.07701
8.07254
8.07188
8.07354
8.07643
8.07924
8.51346
8.118
7.45669
6.7523
6.2255
5.91938
5.78894
5.77381
5.80635
5.81293
10.7922
10.411
9.54243
8.50304
7.64967
7.10551
6.84168
6.7686
6.76412
6.71497
12.5692
11.9776
10.6892
9.30098
8.22931
7.54557
7.17828
7.02687
6.97273
6.89394
14.6817
13.658
11.8246
10.0615
8.77785
7.95552
7.47907
7.2428
7.12614
7.01492
17.8271
15.9931
13.3465
11.022
9.39197
8.33042
7.6753
7.30524
7.10554
6.9613
20.8401
18.0218
14.5476
11.7214
9.81727
8.58065
7.80551
7.35241
7.0901
6.91672
22.4544
18.4794
14.3679
11.3166
9.38867
8.1791
7.44167
7.01122
6.77688
6.63717
14.0332
10.913
8.69105
7.41301
6.7108
6.28857
6.02906
5.87358
5.78473
5.74104
8.63115
8.58249
8.54029
8.5086
8.48408
8.4655
8.45119
8.44045
8.43242
8.42686
7.99582
7.97283
7.94861
7.93181
7.9231
7.91981
7.91969
7.92175
7.92521
7.92869
7.62531
7.23697
6.68067
6.14658
5.77614
5.57769
5.50898
5.52653
5.58273
5.61539
8.35263
8.0263
7.4386
6.80142
6.32074
6.05232
5.96654
6.0046
6.08476
6.1167
8.82488
8.51536
7.80811
7.06919
6.53227
6.22788
6.10841
6.11635
6.17933
6.20286
9.69036
9.27426
8.35371
7.46922
6.85303
6.4927
6.32023
6.28095
6.30592
6.30853
11.3272
10.5774
9.25327
8.08001
7.27676
6.77921
6.49427
6.36279
6.3259
6.30195
12.9788
11.7914
10.0283
8.58283
7.62199
7.01723
6.65011
6.45515
6.36531
6.31159
13.9172
12.1672
10.0646
8.5019
7.51667
6.90519
6.53149
6.32169
6.22608
6.17932
9.33874
8.06365
7.05715
6.45799
6.1027
5.87622
5.72902
5.64125
5.59528
5.57929
8.40876
8.38032
8.35424
8.33243
8.31416
8.29931
8.28735
8.27802
8.27084
8.26577
7.82687
7.80682
7.78542
7.77071
7.76317
7.76038
7.76041
7.76249
7.76623
7.77015
7.20516
6.82
6.30907
5.85424
5.5567
5.40662
5.36294
5.39117
5.45511
5.49974
7.32985
6.99761
6.5036
6.02965
5.7053
5.5471
5.52337
5.59234
5.69668
5.76102
7.21816
6.96505
6.47496
6.01253
5.70876
5.56302
5.538
5.59914
5.70094
5.76682
7.4313
7.19051
6.65037
6.16658
5.85921
5.7052
5.66099
5.69879
5.77916
5.8332
8.15761
7.79812
7.09293
6.49421
6.10911
5.88958
5.78237
5.7619
5.80033
5.83636
8.94489
8.41011
7.5125
6.79885
6.34433
6.07112
5.91575
5.8531
5.8525
5.86411
9.44964
8.65769
7.6138
6.85481
6.38496
6.09666
5.92256
5.83566
5.81832
5.82607
7.24
6.64566
6.16503
5.87847
5.70163
5.58441
5.50542
5.46055
5.44243
5.44454
8.19598
8.17775
8.16125
8.14645
8.13322
8.12184
8.11227
8.10454
8.09843
8.09401
7.65252
7.63506
7.61582
7.60256
7.59578
7.59326
7.59332
7.59535
7.59912
7.60334
6.94425
6.57083
6.09231
5.68689
5.43223
5.30902
5.27791
5.31032
5.37741
5.42865
6.85711
6.52143
6.06566
5.66537
5.4107
5.29717
5.29216
5.36379
5.47024
5.5466
6.56096
6.30459
5.88491
5.5305
5.31969
5.23305
5.23658
5.30674
5.41353
5.4932
6.5153
6.29256
5.88016
5.55315
5.3694
5.29471
5.29474
5.35317
5.44662
5.51899
6.7863
6.52157
6.05659
5.70336
5.50016
5.40009
5.36725
5.38995
5.4556
5.51627
7.10214
6.77211
6.24551
5.8651
5.64395
5.52316
5.46544
5.46233
5.50101
5.54332
7.34974
6.90577
6.33841
5.95573
5.73288
5.6026
5.52948
5.50539
5.52719
5.56282
6.3045
5.93392
5.67065
5.52684
5.44033
5.38267
5.34358
5.32447
5.3231
5.33584
7.98453