/*--------------------------------*- C++ -*----------------------------------*\
| =========                 |                                                 |
| \\      /  F ield         | foam-extend: Open Source CFD                    |
|  \\    /   O peration     | Version:     4.0                                |
|   \\  /    A nd           | Web:         http://www.foam-extend.org         |
|    \\/     M anipulation  |                                                 |
\*---------------------------------------------------------------------------*/
FoamFile
{
    version     2.0;
    format      ascii;
    class       volScalarField;
    location    "400";
    object      MaU;
}
// * * * * * * * * * * * * * * * * * * * * * * * * * * * * * * * * * * * * * //

dimensions      [0 0 0 0 0 0 0];

internalField   nonuniform List<scalar> 
34480
(
0.581033
0.582933
0.584217
0.585148
0.585773
0.586031
0.585799
0.58431
0.579214
0.574719
0.583962
0.586016
0.587498
0.588319
0.58846
0.587908
0.586612
0.583816
0.576131
0.572351
0.589909
0.59174
0.592919
0.593314
0.592927
0.592041
0.59083
0.58875
0.581221
0.578436
0.5928
0.59465
0.595781
0.596297
0.596236
0.595979
0.595678
0.595026
0.588669
0.586798
0.595729
0.597611
0.598787
0.59957
0.599982
0.600434
0.601025
0.601723
0.596849
0.595793
0.597087
0.598916
0.600127
0.601136
0.601957
0.603039
0.604439
0.606361
0.60321
0.603262
0.598504
0.600333
0.601627
0.602881
0.604083
0.605701
0.607799
0.610813
0.609523
0.610624
0.598876
0.600585
0.601847
0.603131
0.604422
0.606197
0.608626
0.612374
0.612947
0.61544
0.600303
0.601807
0.60311
0.604631
0.606306
0.608464
0.611318
0.61577
0.61807
0.62082
0.598203
0.599245
0.599797
0.60005
0.599995
0.599966
0.60032
0.602399
0.604568
0.610147
0.575938
0.578107
0.579226
0.5796
0.579185
0.577679
0.574456
0.56808
0.55795
0.54376
0.57916
0.581631
0.583091
0.583544
0.582956
0.581035
0.577055
0.56916
0.555314
0.538763
0.585237
0.587533
0.588821
0.589062
0.588186
0.586052
0.582059
0.574398
0.559919
0.543063
0.588573
0.590899
0.59214
0.592496
0.591913
0.590331
0.587135
0.580604
0.566615
0.550174
0.591833
0.59417
0.595427
0.596021
0.59586
0.59494
0.592603
0.587298
0.5742
0.558523
0.593433
0.595705
0.596987
0.597794
0.598014
0.597711
0.596186
0.592087
0.580169
0.565781
0.595065
0.597304
0.59865
0.599689
0.600272
0.600512
0.599722
0.596767
0.586267
0.573374
0.595603
0.597703
0.599016
0.600089
0.600783
0.601257
0.600925
0.598891
0.589981
0.579123
0.597245
0.599076
0.600389
0.60164
0.602655
0.603526
0.603729
0.60264
0.595483
0.585918
0.595332
0.596743
0.597526
0.597871
0.597666
0.597036
0.595628
0.593247
0.586714
0.581009
0.572492
0.57464
0.575609
0.575734
0.575005
0.573228
0.570074
0.564937
0.556787
0.54504
0.575231
0.577919
0.57933
0.579554
0.578646
0.576378
0.572074
0.564395
0.551205
0.533854
0.580902
0.583538
0.584888
0.585025
0.583955
0.581444
0.576725
0.568215
0.552558
0.531054
0.584446
0.58715
0.588469
0.588705
0.587846
0.58569
0.581373
0.573115
0.556146
0.531349
0.587906
0.590624
0.591952
0.592392
0.591873
0.59023
0.586498
0.578811
0.56116
0.533834
0.589696
0.592352
0.593705
0.594345
0.594158
0.593029
0.589918
0.582952
0.565097
0.536073
0.591509
0.594116
0.595524
0.596384
0.596526
0.595885
0.593387
0.587222
0.56961
0.539498
0.592226
0.594689
0.596069
0.596971
0.597226
0.596826
0.594766
0.589369
0.572441
0.541982
0.594078
0.596235
0.597593
0.598628
0.599122
0.599042
0.597466
0.592953
0.577236
0.546033
0.592389
0.594136
0.595093
0.595452
0.595052
0.593882
0.591207
0.585952
0.570998
0.541203
0.570455
0.572321
0.573083
0.573071
0.572308
0.570705
0.568127
0.564384
0.559084
0.551573
0.572253
0.574886
0.576184
0.576272
0.57526
0.573032
0.569166
0.562823
0.55282
0.54063
0.577196
0.57993
0.581253
0.581293
0.580112
0.577541
0.572979
0.565313
0.552635
0.53656
0.580719
0.583577
0.584884
0.584979
0.58389
0.581426
0.576847
0.568805
0.554226
0.534531
0.58423
0.587126
0.588435
0.588685
0.587822
0.585655
0.581299
0.573231
0.557167
0.534224
0.586133
0.588986
0.590318
0.590736
0.590126
0.588309
0.584278
0.576389
0.559187
0.533488
0.588082
0.590887
0.592263
0.592876
0.592536
0.591095
0.587452
0.579896
0.561976
0.533991
0.588965
0.591626
0.59298
0.593636
0.593399
0.592151
0.588808
0.581681
0.56357
0.533933
0.590989
0.593325
0.594638
0.595396
0.595347
0.594342
0.591308
0.584745
0.567236
0.535922
0.58954
0.591474
0.592496
0.592775
0.592108
0.590367
0.586613
0.579499
0.562446
0.531117
0.569568
0.571081
0.57165
0.5716
0.570981
0.569779
0.567982
0.565579
0.562402
0.557622
0.570216
0.572654
0.573824
0.573878
0.572974
0.571097
0.568018
0.563239
0.556053
0.547523
0.574218
0.576888
0.578148
0.57816
0.577041
0.574715
0.570798
0.564589
0.555053
0.543641
0.577503
0.580356
0.581614
0.581631
0.580483
0.578043
0.573794
0.566861
0.555453
0.541059
0.580885
0.583813
0.585074
0.585192
0.584154
0.581795
0.577442
0.570063
0.556951
0.539596
0.582782
0.585702
0.58699
0.587238
0.586359
0.584169
0.579843
0.572205
0.557543
0.537359
0.584775
0.587667
0.588997
0.589407
0.588729
0.586776
0.582589
0.574871
0.558945
0.536139
0.585766
0.588531
0.589847
0.5903
0.589702
0.587873
0.58381
0.576165
0.559455
0.534443
0.58791
0.590353
0.591617
0.592147
0.59169
0.59004
0.586148
0.5787
0.562003
0.534923
0.586681
0.588731
0.589789
0.589985
0.589109
0.586962
0.582592
0.574691
0.558068
0.530204
0.569391
0.570584
0.570993
0.570945
0.570501
0.569684
0.56852
0.567044
0.565102
0.561613
0.568919
0.571115
0.572158
0.572227
0.571517
0.570077
0.567787
0.564289
0.559013
0.552397
0.57195
0.574452
0.575618
0.575642
0.574686
0.572754
0.569629
0.564862
0.557802
0.549264
0.574875
0.57759
0.578759
0.578742
0.577659
0.575462
0.571842
0.566271
0.557716
0.547094
0.577992
0.580814
0.581989
0.58202
0.58094
0.578645
0.574695
0.568465
0.558389
0.545532
0.579777
0.582629
0.583836
0.583955
0.582942
0.580648
0.576484
0.569713
0.558089
0.542903
0.581729
0.584586
0.585835
0.58608
0.585189
0.582989
0.57874
0.571584
0.558544
0.541025
0.582759
0.585517
0.586763
0.587044
0.5862
0.584042
0.579747
0.572369
0.558274
0.538643
0.584964
0.587419
0.58861
0.588948
0.588201
0.586151
0.581902
0.574443
0.559992
0.538485
0.583915
0.585992
0.587041
0.587154
0.586127
0.583741
0.579152
0.571278
0.556627
0.534258
0.569575
0.570521
0.570813
0.570781
0.570489
0.56997
0.569256
0.568372
0.567139
0.564322
0.568134
0.57011
0.571045
0.57115
0.570645
0.569612
0.567975
0.565411
0.561327
0.555699
0.57028
0.572573
0.573637
0.573697
0.572947
0.571446
0.569074
0.565494
0.560155
0.55327
0.572805
0.575305
0.576363
0.576345
0.57541
0.573572
0.570671
0.566378
0.560004
0.551779
0.575574
0.578194
0.579254
0.57924
0.578226
0.576171
0.572824
0.567838
0.560291
0.550538
0.57717
0.579849
0.580945
0.580978
0.579949
0.577762
0.574049
0.568396
0.559524
0.548055
0.579011
0.581727
0.582868
0.582991
0.582009
0.57979
0.575826
0.569612
0.55942
0.546122
0.58001
0.582658
0.583807
0.583955
0.582982
0.580724
0.576579
0.569948
0.558675
0.543653
0.582219
0.584595
0.585692
0.58588
0.584963
0.582746
0.578541
0.571656
0.559875
0.5435
0.5813
0.583318
0.584322
0.584361
0.583257
0.580803
0.576328
0.569045
0.556908
0.539974
0.569866
0.570638
0.570851
0.570835
0.570654
0.570339
0.569913
0.569383
0.568546
0.566089
0.567654
0.569463
0.570314
0.570458
0.570129
0.56942
0.568262
0.566327
0.562951
0.557792
0.569062
0.571154
0.57212
0.572222
0.571677
0.57057
0.568827
0.566139
0.561924
0.555947
0.571217
0.573472
0.574411
0.574411
0.573659
0.572211
0.569992
0.566763
0.561931
0.555167
0.573609
0.57597
0.5769
0.576871
0.575988
0.574264
0.57158
0.567736
0.56211
0.554397
0.574972
0.577404
0.578369
0.578353
0.577395
0.575455
0.572334
0.567823
0.561182
0.552314
0.576656
0.579149
0.58016
0.580201
0.579228
0.577161
0.573691
0.568559
0.560822
0.550647
0.577562
0.580015
0.581045
0.581098
0.580097
0.577923
0.574181
0.568541
0.559847
0.548419
0.579727
0.581944
0.582929
0.583009
0.582026
0.579834
0.575953
0.569971
0.560769
0.548605
0.578884
0.580767
0.581695
0.581677
0.580566
0.578195
0.574079
0.567717
0.558111
0.54582
0.570105
0.570759
0.57092
0.570917
0.570809
0.570624
0.570372
0.570049
0.569437
0.567204
0.567322
0.569019
0.56981
0.569987
0.569791
0.569316
0.568487
0.566954
0.563996
0.559043
0.568156
0.570079
0.570959
0.571099
0.570729
0.569945
0.568685
0.566634
0.563139
0.557647
0.570011
0.572025
0.572848
0.572874
0.572304
0.571217
0.56958
0.567179
0.563402
0.557508
0.572036
0.574118
0.574916
0.574889
0.574167
0.572797
0.570738
0.567858
0.563622
0.557222
0.573156
0.575301
0.576127
0.576089
0.575256
0.573632
0.571133
0.567664
0.562725
0.555633
0.574662
0.57688
0.57775
0.577742
0.57685
0.575041
0.572156
0.56809
0.562321
0.554386
0.575425
0.577623
0.578518
0.57851
0.57756
0.575598
0.572397
0.567814
0.561278
0.55254
0.577514
0.579513
0.580372
0.580379
0.579417
0.577389
0.574
0.569051
0.562093
0.553173
0.576696
0.578384
0.579212
0.579155
0.578101
0.575928
0.572325
0.567025
0.559691
0.551052
0.570201
0.570775
0.570902
0.570908
0.570845
0.570737
0.570588
0.570383
0.569906
0.567838
0.567033
0.568663
0.569411
0.569609
0.569507
0.569189
0.568575
0.567295
0.564583
0.559701
0.567445
0.569236
0.570044
0.57021
0.569977
0.569438
0.568528
0.566917
0.563884
0.558643
0.569084
0.570882
0.571599
0.571649
0.57124
0.570458
0.569281
0.567496
0.564432
0.55905
0.570777
0.572588
0.573259
0.573243
0.572685
0.571645
0.570123
0.568008
0.564759
0.559197
0.571669
0.573518
0.574206
0.574163
0.573479
0.572185
0.570266
0.567678
0.564
0.55811
0.573001
0.574919
0.575647
0.575614
0.574845
0.573343
0.571049
0.567941
0.563684
0.557334
0.573584
0.575494
0.576248
0.576206
0.57536
0.573681
0.571066
0.567487
0.562666
0.555893
0.575582
0.577324
0.57805
0.578016
0.577136
0.575363
0.572538
0.568611
0.563486
0.55697
0.574744
0.576198
0.57691
0.576831
0.575881
0.573984
0.570964
0.566729
0.561296
0.555385
0.570111
0.570625
0.570729
0.57074
0.570705
0.570642
0.570552
0.570414
0.570025
0.568104
0.566725
0.568314
0.569029
0.569239
0.569196
0.568981
0.568504
0.567386
0.564826
0.55995
0.566843
0.56853
0.569274
0.569456
0.56932
0.568957
0.568293
0.566986
0.564259
0.559144
0.568349
0.569959
0.570582
0.570649
0.57037
0.569826
0.568997
0.567656
0.565082
0.560005
0.569751
0.571313
0.571869
0.571867
0.571454
0.570698
0.569609
0.568077
0.565528
0.560508
0.570445
0.572011
0.57257
0.572532
0.571998
0.571011
0.56959
0.567709
0.564952
0.559882
0.571623
0.573242
0.573833
0.573793
0.573165
0.571974
0.57022
0.567917
0.564797
0.559566
0.572005
0.573615
0.574231
0.574174
0.57346
0.572091
0.57004
0.567341
0.56384
0.558488
0.573914
0.575383
0.575978
0.575924
0.575164
0.573687
0.571429
0.568426
0.564736
0.559954
0.573015
0.574216
0.574809
0.574723
0.573905
0.57232
0.569889
0.566629
0.562712
0.55876
0.569816
0.570283
0.570369
0.570383
0.570364
0.570327
0.57027
0.570173
0.569848
0.568075
0.566369
0.567927
0.568609
0.568822
0.568816
0.568666
0.568279
0.567272
0.56482
0.559923
0.566286
0.567885
0.568568
0.568754
0.568685
0.568442
0.56795
0.566859
0.564353
0.559306
0.567731
0.569177
0.569716
0.569793
0.569613
0.569246
0.568669
0.567649
0.565426
0.560546
0.568881
0.570221
0.570677
0.570686
0.570395
0.569864
0.569108
0.568009
0.565964
0.561319
0.569414
0.570721
0.571166
0.571138
0.570739
0.570016
0.568999
0.567662
0.565577
0.56109
0.570468
0.571806
0.572272
0.572235
0.571746
0.570842
0.569548
0.567892
0.565612
0.561191
0.570635
0.571955
0.572443
0.572384
0.571811
0.570742
0.569192
0.567223
0.564713
0.560395
0.572475
0.573676
0.574148
0.574089
0.573466
0.572289
0.570553
0.568334
0.565732
0.562184
0.571479
0.572432
0.572906
0.572824
0.572151
0.570882
0.568997
0.566575
0.56382
0.561235
0.569314
0.569737
0.569809
0.569825
0.569814
0.569792
0.569755
0.569683
0.569409
0.567797
0.565955
0.567478
0.568123
0.568329
0.568343
0.568236
0.567912
0.566995
0.56464
0.55972
0.565731
0.567243
0.567865
0.568043
0.568016
0.567856
0.567486
0.56656
0.564238
0.559241
0.567173
0.56847
0.568933
0.569013
0.568902
0.568662
0.568265
0.567481
0.565533
0.560808
0.568101
0.569245
0.569612
0.569629
0.569432
0.569074
0.568563
0.567782
0.566118
0.561767
0.56851
0.569589
0.569935
0.569917
0.569631
0.569122
0.568417
0.567487
0.565898
0.561864
0.569474
0.570558
0.570917
0.570887
0.570523
0.569863
0.568942
0.567782
0.566124
0.562319
0.569417
0.570472
0.570846
0.570793
0.570353
0.569551
0.568421
0.567029
0.565251
0.561708
0.571223
0.572178
0.572539
0.572486
0.571997
0.571098
0.569811
0.568225
0.566425
0.563756
0.570095
0.570818
0.571185
0.571112
0.570583
0.569607
0.568198
0.566457
0.564566
0.562912
0.568602
0.568982
0.569042
0.569057
0.569052
0.569038
0.569013
0.568958
0.568731
0.567298
0.565487
0.566956
0.567554
0.567745
0.56777
0.567691
0.567418
0.566588
0.564344
0.559421
0.565145
0.566558
0.567112
0.567274
0.567271
0.567167
0.566888
0.566105
0.563965
0.559035
0.566626
0.567782
0.568172
0.568248
0.568184
0.568033
0.567764
0.56716
0.565456
0.560895
0.567352
0.56832
0.568611
0.568631
0.568504
0.568272
0.567938
0.56739
0.566033
0.561962
0.567674
0.568553
0.568817
0.568807
0.568611
0.568265
0.567793
0.56716
0.565949
0.562312
0.568579
0.569441
0.56971
0.569687
0.569428
0.568965
0.568332
0.567544
0.566345
0.563053
0.568291
0.569113
0.569391
0.569348
0.569023
0.568445
0.567649
0.566696
0.565451
0.56252
0.570116
0.570854
0.571122
0.571078
0.570712
0.570052
0.569132
0.568033
0.566811
0.56478
0.568813
0.569337
0.569612
0.569552
0.569152
0.56843
0.567413
0.566203
0.564935
0.563904
0.567668
0.568005
0.568053
0.568067
0.568065
0.568056
0.568039
0.567998
0.567815
0.566579
0.564968
0.566355
0.566893
0.567063
0.56709
0.567033
0.566808
0.566074
0.563976
0.559093
0.564498
0.565788
0.566264
0.566403
0.566413
0.566348
0.566142
0.565495
0.563565
0.558753
0.566052
0.567062
0.567381
0.567448
0.567415
0.567323
0.567146
0.56669
0.56523
0.560889
0.566588
0.567395
0.56762
0.56764
0.567562
0.567417
0.567206
0.566831
0.565741
0.561988
0.566857
0.567563
0.56776
0.567756
0.567627
0.567401
0.567094
0.566675
0.565762
0.562525
0.567729
0.5684
0.568595
0.56858
0.568402
0.568089
0.567669
0.56715
0.566297
0.563476
0.567203
0.567829
0.568028
0.567996
0.567766
0.567364
0.566821
0.566187
0.565328
0.562919
0.569115
0.569673
0.569866
0.569832
0.569569
0.569103
0.568466
0.567728
0.566914
0.56536
0.567578
0.567942
0.568141
0.568095
0.567804
0.56729
0.566579
0.565764
0.564932
0.564309
0.566476
0.566766
0.566803
0.566815
0.566815
0.56681
0.566798
0.566768
0.566629
0.565609
0.564398
0.565666
0.566128
0.56627
0.566296
0.566257
0.566081
0.565464
0.563569
0.558805
0.563753
0.564888
0.565277
0.565387
0.565402
0.565365
0.565222
0.564714
0.563041
0.558448
0.565409
0.566262
0.566512
0.566565
0.56655
0.566498
0.566387
0.566058
0.56486
0.560846
0.565772
0.566428
0.566595
0.566612
0.566566
0.56648
0.566352
0.566104
0.56526
0.561909
0.566025
0.566581
0.566723
0.566723
0.566641
0.566497
0.566302
0.566032
0.565362
0.562569
0.566878
0.567389
0.567526
0.567516
0.567398
0.567192
0.56692
0.566589
0.565998
0.563652
0.566115
0.56658
0.566722
0.566699
0.566542
0.566269
0.565906
0.565496
0.56491
0.562979
0.5682
0.568615
0.568751
0.568727
0.568544
0.568224
0.567795
0.567311
0.566778
0.565597
0.566326
0.56657
0.566712
0.566679
0.566475
0.566119
0.565635
0.565101
0.56456
0.564199
0.564914
0.565157
0.565183
0.565192
0.565194
0.565191
0.565185
0.565166
0.565071
0.564282
0.563772
0.564875
0.565245
0.565353
0.565376
0.565353
0.565228
0.564748
0.563135
0.558633
0.562868
0.563813
0.564108
0.564188
0.564202
0.564183
0.564092
0.563726
0.562372
0.558164
0.564647
0.565333
0.565514
0.565551
0.565545
0.565515
0.565449
0.565229
0.564316
0.560789
0.564874
0.565389
0.565509
0.565523
0.565495
0.565441
0.565361
0.565202
0.564586
0.561752
0.565155
0.565582
0.565684
0.565687
0.565634
0.565539
0.565412
0.565237
0.564763
0.562482
0.565997
0.566375
0.56647
0.566464
0.566386
0.566249
0.566071
0.56586
0.56546
0.563615
0.565025
0.565369
0.565471
0.565459
0.565353
0.565168
0.564921
0.56465
0.564248
0.562773
0.567378
0.567684
0.567782
0.567768
0.567643
0.567426
0.567138
0.56682
0.566468
0.565591
0.564951
0.565114
0.565219
0.565197
0.565059
0.564815
0.564486
0.564136
0.563777
0.563576
0.562771
0.562943
0.562959
0.562966
0.562968
0.562967
0.562965
0.562955
0.562901
0.562353
0.563097
0.563988
0.564255
0.564327
0.564342
0.564327
0.564247
0.563916
0.562676
0.558677
0.561816
0.562546
0.562753
0.562807
0.562815
0.562799
0.562737
0.562494
0.561507
0.557932
0.5637
0.564216
0.564339
0.564363
0.564355
0.564329
0.564277
0.564132
0.563504
0.56067
0.563859
0.564249
0.56434
0.564354
0.564333
0.564286
0.564216
0.564096
0.56367
0.561481
0.564217
0.564541
0.564622
0.56463
0.564592
0.564517
0.564412
0.564275
0.56394
0.562236
0.565053
0.565331
0.565404
0.565404
0.565349
0.565248
0.565112
0.564954
0.564677
0.563349
0.563997
0.564258
0.564344
0.564344
0.564272
0.564136
0.56395
0.563743
0.56344
0.562391
0.566702
0.566931
0.567008
0.567002
0.566917
0.566763
0.566558
0.566332
0.566083
0.565455
0.563238
0.563358
0.563443
0.563435
0.56334
0.563169
0.562936
0.562689
0.562425
0.562303
0.559678
0.559804
0.55982
0.559827
0.559828
0.559822
0.559813
0.559798
0.559766
0.559447
0.562445
0.563084
0.563253
0.563295
0.563296
0.56327
0.563202
0.56299
0.562185
0.559077
0.560608
0.561134
0.561286
0.561331
0.561329
0.56129
0.561206
0.561014
0.560372
0.557743
0.562471
0.562839
0.562934
0.562958
0.562943
0.562894
0.562812
0.562668
0.562257
0.560312
0.562653
0.562953
0.563043
0.563068
0.563046
0.562982
0.562878
0.562727
0.562403
0.560939
0.563126
0.563385
0.56347
0.563491
0.563459
0.563378
0.563253
0.563086
0.5628
0.561678
0.563966
0.564184
0.564259
0.564273
0.56423
0.564136
0.563997
0.563826
0.563578
0.562724
0.563118
0.563342
0.563433
0.563449
0.563396
0.563281
0.563111
0.562903
0.562611
0.561901
0.566238
0.566415
0.566486
0.56649
0.566428
0.566307
0.566139
0.565947
0.565733
0.565302
0.560847
0.560959
0.56104
0.561043
0.560976
0.560845
0.560662
0.560457
0.560221
0.560106
0.555842
0.555938
0.555975
0.555994
0.555992
0.55597
0.555931
0.555874
0.555807
0.555628
0.561843
0.56223
0.562342
0.562376
0.562362
0.562302
0.562191
0.562
0.561559
0.559782
0.559248
0.559645
0.559804
0.55987
0.559861
0.559779
0.55962
0.559362
0.558893
0.557394
0.560874
0.561161
0.561277
0.561321
0.561301
0.561218
0.561068
0.560841
0.560476
0.559408
0.561153
0.561422
0.561543
0.561589
0.561567
0.561477
0.561316
0.561077
0.560718
0.559856
0.561732
0.561976
0.56209
0.56213
0.562102
0.562006
0.561841
0.561601
0.561255
0.560544
0.56257
0.562779
0.562878
0.562908
0.562873
0.562773
0.56261
0.562383
0.562073
0.561502
0.562267
0.562495
0.562606
0.562636
0.562595
0.562485
0.562308
0.562064
0.561717
0.561161
0.565851
0.565999
0.566074
0.566087
0.566038
0.56593
0.565771
0.565575
0.565349
0.565039
0.557749
0.557877
0.55796
0.557973
0.55792
0.557808
0.557644
0.557447
0.557208
0.557038
0.413464
0.392154
0.397144
0.436007
0.365879
0.340888
0.349175
0.404735
0.326339
0.297353
0.311361
0.388203
0.292787
0.261596
0.28219
0.381533
0.265397
0.233441
0.262278
0.376629
0.241326
0.209773
0.247282
0.373109
0.221501
0.191913
0.238092
0.373324
0.202681
0.176738
0.231716
0.373874
0.186629
0.1668
0.229984
0.378467
0.169504
0.157304
0.227358
0.376529
0.468134
0.457601
0.457116
0.465817
0.438737
0.424873
0.424109
0.434845
0.411164
0.392729
0.392605
0.408216
0.386749
0.363914
0.36503
0.385895
0.366136
0.338651
0.340307
0.366353
0.347422
0.315041
0.316659
0.347841
0.332025
0.294759
0.296159
0.33252
0.317615
0.275671
0.276637
0.31811
0.306417
0.260746
0.261447
0.307609
0.294418
0.246666
0.245245
0.293931
0.533548
0.53107
0.530111
0.530728
0.512934
0.508882
0.507414
0.508599
0.494964
0.488276
0.486461
0.489692
0.477366
0.467977
0.466043
0.471866
0.460537
0.448445
0.446534
0.455255
0.44288
0.428045
0.426195
0.437907
0.426689
0.409134
0.407379
0.422116
0.410417
0.390336
0.388699
0.406292
0.397201
0.375692
0.374286
0.393976
0.38317
0.362375
0.360368
0.379373
0.547027
0.545721
0.545142
0.545279
0.533772
0.532216
0.531232
0.53083
0.522884
0.51993
0.518571
0.518761
0.51191
0.507366
0.505729
0.506819
0.500947
0.494701
0.492885
0.495223
0.488262
0.480254
0.478332
0.48217
0.476049
0.46629
0.464333
0.469873
0.462931
0.451576
0.449681
0.457003
0.451935
0.439849
0.43818
0.446978
0.439716
0.428985
0.427113
0.435164
0.555471
0.554591
0.554223
0.55439
0.545169
0.544523
0.54391
0.543384
0.538169
0.53682
0.535938
0.535563
0.53122
0.528977
0.527806
0.527691
0.52417
0.520862
0.519434
0.519796
0.515261
0.510778
0.509138
0.510163
0.506531
0.500837
0.499048
0.500922
0.496719
0.4899
0.488066
0.490939
0.488828
0.481509
0.479832
0.483666
0.480112
0.47429
0.472523
0.475478
0.559653
0.558792
0.558511
0.558829
0.550714
0.550213
0.549759
0.54941
0.545895
0.544993
0.544389
0.544131
0.541487
0.540108
0.539315
0.539127
0.536947
0.534955
0.533954
0.533929
0.53063
0.527909
0.526699
0.52693
0.524473
0.520965
0.519573
0.520166
0.517324
0.513055
0.511562
0.512642
0.512153
0.507543
0.506152
0.507816
0.506531
0.50345
0.50201
0.502645
0.562192
0.561269
0.561025
0.561478
0.553875
0.553347
0.552962
0.552772
0.550385
0.549601
0.549137
0.549035
0.547617
0.546564
0.545995
0.545932
0.544671
0.543263
0.542566
0.542581
0.540058
0.538209
0.537362
0.537491
0.535651
0.53331
0.53231
0.532599
0.53042
0.527588
0.526484
0.527009
0.527456
0.524394
0.523355
0.524251
0.524249
0.522772
0.521716
0.52144
0.56367
0.562657
0.562431
0.563005
0.555525
0.5549
0.554536
0.554476
0.552925
0.552119
0.551714
0.551743
0.551345
0.550378
0.549921
0.549992
0.549516
0.548334
0.547809
0.547946
0.546115
0.544661
0.544048
0.544267
0.542953
0.541194
0.540484
0.540797
0.539108
0.537043
0.536261
0.536712
0.537852
0.535653
0.534923
0.53562
0.536404
0.535873
0.535165
0.534598
0.564488
0.563386
0.563171
0.563852
0.556283
0.555547
0.555184
0.555229
0.554304
0.553431
0.553045
0.553173
0.553606
0.552627
0.55222
0.552399
0.552603
0.551488
0.551054
0.551304
0.550141
0.548851
0.548377
0.54871
0.547943
0.546461
0.545936
0.546352
0.545135
0.543466
0.542906
0.543428
0.545122
0.543401
0.5429
0.5436
0.544977
0.544998
0.544554
0.543939
0.564855
0.563671
0.563465
0.564241
0.556458
0.555612
0.555241
0.555372
0.55493
0.553976
0.553593
0.553798
0.5549
0.553868
0.553481
0.553746
0.554517
0.553392
0.553003
0.553351
0.552808
0.551566
0.551169
0.551608
0.551396
0.55003
0.549616
0.550142
0.549385
0.547909
0.547492
0.548114
0.550303
0.548839
0.548495
0.549256
0.551128
0.551461
0.551197
0.550611
0.564905
0.563652
0.563454
0.564314
0.556257
0.555308
0.554926
0.555129
0.555064
0.554029
0.55364
0.553908
0.555547
0.554447
0.554066
0.554405
0.555627
0.554458
0.554093
0.554527
0.554532
0.553282
0.552929
0.553463
0.553773
0.552442
0.552096
0.552723
0.552373
0.550983
0.550656
0.551376
0.554019
0.552694
0.552451
0.553277
0.55555
0.55605
0.555901
0.555362
0.564722
0.563416
0.563229
0.564158
0.555814
0.554772
0.554378
0.554643
0.55487
0.553758
0.553361
0.553684
0.555757
0.554584
0.554202
0.554612
0.556175
0.554948
0.554596
0.555113
0.555584
0.554299
0.553975
0.5546
0.555376
0.554041
0.55374
0.554461
0.554436
0.553077
0.55281
0.553619
0.556666
0.555416
0.555237
0.556119
0.558678
0.559257
0.559178
0.558686
0.564366
0.563025
0.562849
0.563833
0.555224
0.554098
0.553692
0.554014
0.554463
0.553277
0.552873
0.55325
0.55568
0.554432
0.554051
0.554533
0.556335
0.555046
0.554706
0.555308
0.556159
0.55483
0.55453
0.555245
0.55642
0.555064
0.554798
0.555608
0.555806
0.554456
0.554232
0.55512
0.558518
0.557311
0.557174
0.558099
0.560803
0.561408
0.56137
0.560922
0.563873
0.562518
0.562354
0.563374
0.554559
0.553354
0.55294
0.553318
0.553921
0.552664
0.552256
0.552691
0.555429
0.554109
0.553732
0.554294
0.556244
0.554893
0.554568
0.55526
0.556413
0.55504
0.554763
0.55557
0.557071
0.555693
0.555459
0.556354
0.556665
0.555316
0.555128
0.556086
0.559778
0.558604
0.558495
0.559448
0.562136
0.562729
0.562714
0.562309
0.563258
0.56191
0.56176
0.562795
0.553878
0.552599
0.552181
0.552621
0.553305
0.551979
0.551572
0.552079
0.555099
0.553711
0.553347
0.553999
0.556016
0.55461
0.554307
0.555097
0.556478
0.55507
0.554821
0.555719
0.55747
0.556079
0.555877
0.55685
0.557159
0.555819
0.555662
0.556676
0.560613
0.559473
0.559385
0.560347
0.562826
0.563382
0.56338
0.563018
0.562502
0.561189
0.561053
0.562076
0.553244
0.551895
0.551481
0.551997
0.552671
0.551279
0.550886
0.551482
0.554775
0.55333
0.55299
0.553747
0.555758
0.554314
0.554043
0.554934
0.556475
0.555053
0.554838
0.555821
0.557737
0.556357
0.55619
0.557224
0.557419
0.556107
0.55598
0.557028
0.561166
0.560073
0.560001
0.56095
0.562974
0.563471
0.563473
0.563159
0.561514
0.56027
0.56015
0.561129
0.552745
0.551333
0.550936
0.551549
0.552096
0.550649
0.550284
0.550994
0.554543
0.553065
0.552766
0.553637
0.555576
0.554124
0.553896
0.554881
0.55652
0.555116
0.554943
0.555988
0.557983
0.556648
0.556517
0.557582
0.557579
0.556326
0.556225
0.557272
0.561576
0.56055
0.560489
0.561395
0.562596
0.563015
0.563017
0.562755
0.560065
0.558937
0.558836
0.559726
0.552546
0.551092
0.550734
0.551466
0.55171
0.550237
0.549925
0.550763
0.55449
0.553028
0.552788
0.553762
0.555564
0.55416
0.553984
0.555027
0.556699
0.55537
0.55524
0.556298
0.558281
0.557046
0.556951
0.557988
0.557789
0.556639
0.55656
0.557548
0.561993
0.561067
0.561014
0.561836
0.561563
0.561882
0.56188
0.561676
0.557782
0.556845
0.55677
0.557502
0.552993
0.551557
0.55127
0.552125
0.551751
0.550329
0.550092
0.55103
0.554692
0.553342
0.553175
0.554182
0.555773
0.554513
0.55439
0.555399
0.557019
0.555856
0.555763
0.556734
0.558615
0.557562
0.557492
0.558403
0.558182
0.557202
0.557135
0.557977
0.562597
0.561823
0.561776
0.562453
0.559565
0.559754
0.559744
0.559613
0.554648
0.554036
0.553991
0.554446
0.55462
0.553385
0.553203
0.554062
0.552522
0.551335
0.551178
0.552038
0.555184
0.554124
0.554019
0.554857
0.556124
0.55516
0.555074
0.555851
0.557284
0.556414
0.556342
0.55705
0.558722
0.557953
0.557894
0.558528
0.558554
0.55782
0.557755
0.558335
0.563313
0.562766
0.562726
0.563172
0.556586
0.55659
0.556573
0.556559
0.550232
0.556798
0.561926
0.565645
0.569114
0.572109
0.574586
0.576638
0.578431
0.580068
0.543686
0.545933
0.556043
0.563064
0.569206
0.573821
0.577235
0.579811
0.581776
0.583125
0.548286
0.544726
0.558437
0.566216
0.573447
0.578621
0.582524
0.585481
0.587661
0.58906
0.555502
0.545924
0.562572
0.569978
0.577342
0.582077
0.585644
0.588302
0.590287
0.591683
0.564278
0.549067
0.568021
0.574725
0.582021
0.586137
0.58928
0.591534
0.593206
0.594462
0.571258
0.550812
0.571831
0.5776
0.584861
0.588374
0.591177
0.593092
0.594541
0.595714
0.57884
0.55343
0.576215
0.580811
0.587985
0.590884
0.593367
0.594947
0.59613
0.597116
0.583663
0.553846
0.578394
0.581831
0.589098
0.591518
0.593866
0.59527
0.596403
0.597421
0.589621
0.556608
0.582704
0.584535
0.591737
0.593551
0.595902
0.597166
0.598143
0.599
0.578317
0.544475
0.572748
0.574896
0.583894
0.587197
0.591064
0.593432
0.595223
0.596551
0.500219
0.521874
0.538143
0.549456
0.557097
0.562448
0.566385
0.569427
0.571939
0.574195
0.480543
0.510182
0.532795
0.54748
0.557255
0.564018
0.568875
0.572515
0.575342
0.577404
0.471787
0.50834
0.535142
0.551046
0.561729
0.569121
0.574481
0.578477
0.581469
0.583538
0.467622
0.509408
0.539017
0.555077
0.565829
0.572956
0.578036
0.581769
0.584575
0.58662
0.467359
0.512732
0.544198
0.560003
0.570626
0.577298
0.58198
0.58534
0.587848
0.589754
0.467586
0.51513
0.547945
0.563176
0.573649
0.579841
0.584168
0.587197
0.589471
0.591275
0.469976
0.518522
0.552315
0.566697
0.576957
0.582618
0.586594
0.589293
0.591305
0.592929
0.471678
0.520277
0.554885
0.568288
0.578421
0.583617
0.58738
0.589881
0.591804
0.593423
0.47583
0.524378
0.559631
0.571536
0.581291
0.585904
0.589598
0.59198
0.593755
0.595236
0.470483
0.517674
0.553387
0.564806
0.575572
0.581153
0.585909
0.589079
0.591427
0.593099
0.533481
0.540518
0.546982
0.552344
0.556784
0.56048
0.563573
0.566203
0.568544
0.570729
0.514807
0.526154
0.537266
0.54651
0.553891
0.559652
0.564156
0.567769
0.570745
0.573036
0.503018
0.520031
0.535251
0.547125
0.556358
0.563394
0.56878
0.572965
0.576246
0.578652
0.494038
0.516538
0.535369
0.548975
0.559115
0.566498
0.571981
0.576152
0.579408
0.581883
0.488029
0.515498
0.537436
0.552233
0.562906
0.570332
0.575702
0.579691
0.582781
0.585195
0.482422
0.514115
0.53871
0.554276
0.565285
0.572623
0.577831
0.581619
0.584549
0.586898
0.479114
0.514234
0.541039
0.556971
0.568135
0.575255
0.580248
0.583801
0.586532
0.588743
0.47592
0.513646
0.542305
0.558282
0.569512
0.576375
0.581207
0.584607
0.587248
0.589439
0.476066
0.515972
0.546047
0.56145
0.572417
0.578901
0.583657
0.586954
0.589448
0.591495
0.470024
0.510389
0.541328
0.556655
0.568319
0.575488
0.580968
0.584821
0.587685
0.589723
0.545667
0.549405
0.552923
0.55599
0.558715
0.561148
0.563318
0.565273
0.567129
0.568983
0.531034
0.536283
0.542859
0.548988
0.554202
0.558506
0.562078
0.565129
0.567801
0.569984
0.521405
0.530043
0.539592
0.548067
0.555116
0.560811
0.565406
0.569163
0.572271
0.574702
0.512788
0.525376
0.537929
0.548287
0.556522
0.562923
0.567933
0.571928
0.575198
0.577819
0.505658
0.522464
0.537962
0.549934
0.55909
0.565939
0.571147
0.575195
0.578463
0.581122
0.498027
0.519023
0.537321
0.550647
0.56054
0.567682
0.572989
0.577021
0.580247
0.582906
0.492014
0.516998
0.537859
0.552226
0.562655
0.569925
0.57523
0.579176
0.582296
0.58487
0.486052
0.51465
0.537787
0.55287
0.563669
0.570958
0.576241
0.580124
0.583188
0.585743
0.483524
0.515397
0.54033
0.555546
0.566395
0.573574
0.578852
0.582669
0.585595
0.587996
0.477085
0.510514
0.536471
0.552
0.563469
0.571177
0.576963
0.581169
0.584325
0.586569
0.554422
0.556765
0.558662
0.560234
0.561689
0.56308
0.56441
0.565697
0.567027
0.568488
0.54255
0.545229
0.549084
0.552857
0.556198
0.559094
0.561647
0.563983
0.566174
0.568084
0.535658
0.54002
0.545677
0.551156
0.556001
0.560145
0.563681
0.566747
0.569447
0.571709
0.529072
0.535693
0.543358
0.550372
0.556365
0.561338
0.565462
0.568937
0.571942
0.5745
0.523094
0.532392
0.542246
0.550777
0.557816
0.563472
0.568025
0.57175
0.574906
0.577601
0.515947
0.528179
0.540328
0.550318
0.558311
0.564532
0.569414
0.573308
0.57655
0.579324
0.509762
0.525063
0.539495
0.550792
0.559589
0.566226
0.57132
0.575288
0.578535
0.581292
0.503351
0.521703
0.53829
0.550657
0.560084
0.567
0.572238
0.576256