/*--------------------------------*- C++ -*----------------------------------*\
| =========                 |                                                 |
| \\      /  F ield         | foam-extend: Open Source CFD                    |
|  \\    /   O peration     | Version:     4.0                                |
|   \\  /    A nd           | Web:         http://www.foam-extend.org         |
|    \\/     M anipulation  |                                                 |
\*---------------------------------------------------------------------------*/
FoamFile
{
    version     2.0;
    format      ascii;
    class       volScalarField;
    location    "400";
    object      p;
}
// * * * * * * * * * * * * * * * * * * * * * * * * * * * * * * * * * * * * * //

dimensions      [1 -1 -2 0 0 0 0];

internalField   nonuniform List<scalar> 
34480
(
113076
112930
112835
112784
112791
112879
113110
113651
114430
114470
112671
112518
112419
112364
112367
112444
112647
113134
113935
113436
111966
111824
111751
111716
111731
111792
111949
112337
113093
111941
111316
111190
111131
111095
111096
111113
111205
111472
112135
110354
110705
110590
110541
110498
110477
110447
110473
110623
111167
108825
110296
110203
110162
110115
110073
109998
109959
109991
110386
107512
109876
109794
109759
109702
109638
109524
109426
109355
109586
106255
109755
109696
109668
109621
109558
109441
109319
109177
109230
105447
109572
109515
109477
109411
109325
109196
109053
108859
108722
104604
109638
109593
109602
109624
109658
109688
109725
109710
109596
105066
113142
112988
112904
112880
112928
113064
113325
113772
114498
115465
112678
112511
112423
112399
112455
112608
112906
113447
114457
115794
111983
111821
111752
111744
111812
111968
112266
112829
114032
115649
111376
111222
111158
111143
111197
111321
111581
112107
113411
115225
110818
110667
110607
110581
110612
110694
110902
111361
112702
114625
110450
110315
110258
110222
110231
110269
110420
110793
112112
114039
110065
109937
109881
109832
109817
109813
109908
110195
111452
113333
109965
109854
109803
109759
109739
109722
109785
110001
111156
112915
109788
109681
109620
109558
109510
109469
109501
109667
110684
112395
109854
109758
109732
109737
109777
109846
109993
110264
111250
112804
113099
112968
112903
112899
112963
113106
113346
113704
114197
114783
112642
112489
112417
112416
112498
112678
112984
113465
114227
115145
111998
111841
111780
111791
111890
112090
112435
113000
114009
115274
111446
111286
111225
111230
111322
111512
111858
112453
113648
115237
110943
110779
110719
110712
110787
110951
111277
111864
113191
115061
110613
110458
110398
110382
110438
110570
110864
111417
112821
114903
110256
110104
110044
110015
110050
110147
110403
110910
112350
114598
110170
110033
109974
109947
109975
110059
110289
110754
112179
114522
109996
109862
109796
109754
109757
109812
110009
110444
111804
114279
110055
109930
109889
109894
109956
110083
110350
110849
112186
114683
112959
112861
112815
112817
112874
112988
113162
113394
113675
113954
112555
112427
112371
112379
112460
112621
112874
113232
113715
114215
111999
111856
111803
111820
111921
112116
112430
112896
113611
114394
111518
111362
111304
111317
111419
111623
111970
112512
113443
114529
111079
110912
110850
110854
110946
111141
111497
112081
113195
114582
110792
110626
110561
110555
110635
110812
111162
111760
113020
114679
110467
110298
110232
110214
110277
110430
110764
111357
112726
114638
110394
110236
110169
110152
110210
110353
110674
111258
112685
114805
110220
110065
109993
109966
110005
110126
110423
111000
112426
114783
110270
110123
110068
110074
110154
110323
110665
111286
112708
115214
112769
112702
112671
112676
112719
112799
112914
113057
113213
113354
112433
112335
112294
112305
112374
112501
112690
112935
113225
113497
111981
111861
111817
111837
111928
112096
112351
112699
113159
113616
111578
111436
111384
111402
111502
111693
112000
112441
113089
113771
111208
111048
110990
111000
111098
111297
111635
112145
112974
113898
110966
110800
110735
110738
110831
111026
111380
111937
112932
114099
110674
110501
110432
110425
110507
110691
111048
111634
112770
114183
110616
110448
110378
110371
110450
110629
110989
111595
112834
114473
110445
110278
110204
110189
110256
110422
110772
111394
112683
114583
110487
110327
110264
110272
110365
110564
110944
111605
112914
115011
112564
112521
112502
112507
112536
112587
112658
112741
112825
112895
112295
112226
112198
112209
112260
112353
112482
112640
112808
112952
111948
111853
111820
111838
111913
112046
112238
112483
112768
113027
111622
111503
111459
111477
111566
111731
111981
112317
112747
113161
111323
111180
111127
111141
111235
111419
111713
112128
112711
113305
111127
110972
110911
110919
111015
111207
111533
112012
112748
113534
110871
110702
110636
110637
110728
110920
111266
111795
112672
113664
110830
110663
110593
110594
110685
110880
111241
111809
112805
114000
110663
110494
110421
110416
110500
110689
111053
111655
112730
114169
110701
110537
110470
110480
110582
110793
111179
111817
112932
114555
112371
112345
112334
112338
112356
112387
112429
112476
112521
112556
112159
112114
112096
112105
112142
112204
112287
112384
112479
112557
111908
111839
111815
111830
111888
111986
112122
112286
112459
112605
111654
111559
111523
111540
111614
111746
111938
112182
112462
112713
111423
111301
111256
111271
111355
111512
111753
112073
112473
112851
111273
111135
111080
111091
111182
111357
111638
112027
112555
113076
111052
110897
110836
110842
110933
111117
111428
111877
112529
113211
111031
110873
110806
110813
110907
111101
111436
111934
112700
113548
110870
110707
110638
110640
110731
110926
111272
111813
112665
113715
110907
110746
110680
110693
110796
111006
111372
111946
112846
114042
112207
112192
112186
112189
112200
112218
112242
112267
112291
112309
112041
112013
112003
112009
112034
112073
112124
112181
112234
112274
111872
111824
111808
111820
111861
111930
112022
112127
112229
112310
111679
111607
111580
111594
111652
111752
111892
112061
112240
112391
111509
111411
111375
111388
111459
111586
111772
112008
112278
112517
111402
111285
111238
111251
111331
111481
111709
112011
112382
112725
111215
111079
111025
111034
111119
111284
111548
111910
112383
112848
111216
111073
111013
111023
111113
111292
111585
112000
112571
113163
111063
110912
110849
110856
110947
111131
111442
111900
112550
113294
111101
110952
110889
110903
111002
111199
111527
112016
112714
113566
112081
112073
112070
112072
112078
112088
112101
112115
112127
112136
111949
111933
111928
111933
111948
111972
112002
112034
112062
112083
111847
111816
111806
111815
111843
111889
111948
112013
112071
112115
111703
111651
111632
111643
111686
111758
111856
111969
112081
112170
111587
111511
111483
111495
111551
111649
111786
111954
112131
112281
111517
111423
111385
111397
111463
111585
111763
111988
112242
112467
111362
111247
111201
111211
111285
111425
111639
111919
112254
112569
111384
111261
111209
111220
111302
111458
111702
112032
112447
112854
111238
111105
111050
111059
111144
111309
111573
111944
112425
112939
111282
111149
111092
111106
111197
111372
111653
112052
112576
113166
111998
111993
111992
111993
111997
112002
112009
112016
112022
112027
111889
111881
111878
111882
111891
111905
111922
111939
111953
111963
111840
111821
111816
111822
111841
111870
111906
111944
111976
111998
111732
111697
111684
111692
111723
111773
111838
111911
111979
112031
111661
111606
111585
111594
111636
111708
111807
111921
112035
112127
111623
111550
111521
111531
111584
111678
111811
111972
112143
112287
111494
111401
111365
111374
111435
111549
111714
111923
112155
112364
111538
111437
111393
111405
111474
111604
111799
112051
112345
112619
111399
111286
111239
111249
111323
111463
111679
111967
112314
112661
111450
111336
111288
111301
111379
111529
111759
112071
112453
112853
111957
111954
111954
111955
111957
111960
111963
111966
111969
111971
111863
111859
111858
111861
111866
111874
111883
111891
111897
111901
111856
111845
111843
111847
111859
111877
111898
111919
111935
111944
111772
111749
111741
111747
111768
111801
111843
111889
111929
111958
111737
111698
111684
111691
111722
111772
111840
111916
111987
112042
111723
111670
111648
111656
111697
111766
111862
111974
112087
112177
111616
111545
111516
111524
111573
111660
111784
111934
112091
112228
111681
111601
111567
111577
111634
111737
111886
112071
112276
112456
111546
111453
111416
111425
111487
111601
111769
111985
112229
112459
111607
111514
111474
111485
111551
111673
111854
112090
112361
112626
111956
111955
111956
111956
111957
111958
111960
111961
111962
111963
111869
111869
111869
111871
111874
111878
111882
111885
111887
111887
111896
111891
111891
111894
111901
111911
111923
111933
111940
111942
111827
111813
111808
111812
111826
111847
111873
111901
111923
111939
111820
111794
111785
111790
111811
111846
111890
111939
111982
112014
111824
111786
111771
111777
111807
111857
111923
111999
112071
112127
111734
111680
111659
111666
111703
111767
111856
111961
112065
112153
111818
111758
111731
111740
111784
111863
111973
112105
112243
112359
111683
111610
111581
111589
111638
111726
111853
112010
112177
112327
111757
111684
111652
111661
111714
111809
111947
112118
112307
112479
111995
111994
111995
111995
111996
111996
111997
111997
111997
111997
111908
111909
111910
111911
111913
111914
111916
111916
111915
111915
111964
111962
111962
111965
111969
111974
111980
111984
111985
111983
111899
111891
111889
111892
111900
111913
111929
111944
111956
111963
111914
111898
111892
111896
111910
111933
111961
111990
112015
112033
111930
111904
111894
111899
111919
111954
111998
112047
112092
112125
111851
111813
111798
111803
111830
111876
111938
112008
112075
112130
111953
111909
111890
111897
111930
111988
112067
112157
112249
112321
111813
111759
111737
111743
111781
111847
111939
112048
112161
112257
111903
111847
111823
111831
111871
111943
112044
112164
112292
112402
112071
112070
112071
112071
112071
112071
112071
112071
112071
112070
111978
111979
111980
111981
111982
111982
111982
111981
111979
111977
112058
112058
112059
112061
112064
112066
112068
112068
112066
112061
111991
111988
111986
111989
111994
112001
112010
112018
112022
112025
112022
112013
112010
112013
112022
112036
112053
112070
112083
112091
112044
112027
112021
112024
112038
112061
112090
112120
112147
112166
111972
111946
111936
111940
111959
111990
112032
112077
112119
112153
112090
112061
112047
112053
112076
112117
112171
112231
112291
112334
111942
111902
111886
111891
111918
111965
112030
112104
112178
112238
112050
112010
111992
111998
112027
112079
112150
112233
112317
112386
112183
112183
112184
112184
112184
112184
112183
112183
112182
112181
112076
112078
112080
112080
112080
112080
112079
112077
112074
112072
112181
112183
112184
112186
112187
112187
112187
112185
112181
112175
112105
112104
112104
112105
112108
112112
112116
112119
112120
112120
112147
112143
112141
112143
112149
112157
112167
112175
112181
112184
112169
112159
112155
112158
112167
112181
112199
112217
112233
112243
112102
112085
112079
112082
112094
112115
112142
112170
112195
112215
112234
112215
112206
112210
112227
112254
112291
112329
112367
112390
112070
112042
112031
112034
112054
112086
112130
112179
112226
112263
112202
112174
112162
112166
112187
112223
112272
112326
112381
112422
112337
112336
112337
112337
112337
112337
112336
112335
112335
112333
112204
112206
112208
112208
112208
112207
112206
112203
112199
112197
112334
112337
112339
112340
112340
112340
112338
112335
112329
112323
112243
112244
112244
112245
112247
112249
112250
112250
112248
112247
112290
112289
112288
112290
112293
112298
112303
112307
112309
112308
112307
112301
112299
112301
112307
112316
112327
112337
112346
112350
112243
112233
112229
112231
112239
112253
112269
112286
112301
112311
112387
112375
112369
112371
112382
112401
112425
112449
112474
112484
112200
112180
112173
112175
112188
112210
112239
112270
112300
112322
112367
112348
112339
112342
112356
112381
112414
112449
112484
112508
112542
112542
112543
112543
112543
112543
112542
112541
112539
112538
112363
112365
112366
112367
112366
112365
112363
112360
112356
112353
112520
112523
112524
112526
112526
112525
112523
112519
112514
112507
112409
112410
112411
112412
112413
112414
112414
112413
112411
112408
112454
112453
112453
112454
112456
112459
112462
112464
112465
112463
112459
112455
112454
112455
112459
112465
112472
112479
112485
112486
112397
112390
112388
112389
112395
112404
112415
112426
112435
112439
112545
112536
112532
112533
112541
112553
112570
112586
112604
112608
112329
112315
112309
112311
112320
112335
112354
112375
112394
112408
112556
112543
112536
112538
112547
112564
112587
112610
112634
112647
112826
112826
112827
112828
112827
112827
112826
112825
112823
112821
112549
112550
112551
112552
112552
112551
112550
112548
112544
112542
112737
112738
112738
112738
112739
112739
112740
112739
112737
112731
112609
112608
112609
112609
112611
112613
112614
112615
112615
112613
112640
112638
112636
112636
112638
112642
112647
112651
112655
112655
112629
112625
112622
112622
112625
112631
112638
112646
112654
112656
112567
112561
112558
112559
112563
112571
112580
112590
112599
112602
112700
112691
112686
112686
112691
112701
112715
112730
112747
112750
112452
112441
112436
112437
112443
112454
112469
112484
112499
112510
112793
112783
112777
112777
112784
112796
112813
112830
112850
112859
113215
113214
113213
113213
113213
113214
113214
113215
113215
113214
112754
112752
112750
112750
112751
112754
112757
112761
112763
112766
112980
112973
112968
112966
112967
112971
112979
112988
112998
113004
112851
112845
112841
112840
112842
112847
112855
112865
112875
112882
112859
112850
112845
112843
112845
112851
112861
112874
112889
112899
112829
112819
112813
112811
112814
112821
112833
112847
112865
112877
112765
112756
112750
112749
112753
112760
112772
112787
112804
112815
112845
112833
112826
112824
112828
112838
112852
112869
112892
112907
112565
112555
112550
112549
112554
112563
112576
112592
112608
112620
113112
113102
113095
113095
113100
113110
113124
113140
113159
113170
113649
113642
113638
113636
113637
113639
113643
113650
113658
113669
112986
112973
112965
112962
112963
112970
112981
112998
113023
113058
113251
113227
113212
113206
113207
113215
113230
113256
113293
113345
113139
113120
113109
113105
113106
113114
113129
113151
113183
113229
113120
113101
113089
113085
113086
113095
113109
113132
113165
113212
113075
113057
113046
113042
113044
113053
113067
113090
113122
113166
113010
112994
112985
112982
112985
112993
113007
113028
113057
113096
113017
112999
112989
112986
112990
112999
113014
113035
113066
113108
112705
112694
112688
112686
112690
112699
112712
112729
112749
112770
113488
113476
113469
113468
113472
113481
113495
113511
113531
113548
126195
127415
127289
126155
128702
130129
129800
128364
130742
132334
131824
130069
132150
133852
133160
131161
133175
134957
134261
132104
134020
135851
135233
132970
134585
136438
135922
133582
135204
137058
136675
134287
135165
137006
136744
134346
135174
137032
136992
134688
116820
117026
117094
117018
118612
119007
119100
118869
120192
120763
120861
120437
121644
122376
122466
121821
122977
123841
123909
123056
124312
125285
125326
124296
125444
126497
126513
125332
126681
127792
127794
126506
127378
128533
128539
127191
128198
129414
129472
128136
115312
115409
115448
115437
116322
116517
116573
116524
117240
117533
117603
117503
118143
118536
118619
118448
119047
119542
119628
119366
120079
120671
120756
120390
121011
121690
121767
121290
122140
122893
122962
122380
122849
123653
123723
123049
123739
124596
124687
123946
114080
114108
114126
114133
114565
114632
114664
114669
115088
115209
115255
115244
115673
115859
115922
115888
116286
116543
116620
116548
117053
117385
117475
117351
117761
118166
118262
118076
118704
119177
119278
119023
119305
119829
119940
119625
120095
120672
120805
120448
113405
113418
113426
113430
113628
113656
113673
113680
113897
113954
113980
113983
114268
114362
114401
114400
114677
114813
114867
114855
115234
115420
115487
115457
115739
115976
116054
115997
116487
116774
116862
116772
116968
117296
117401
117284
117636
118007
118135
117995
112915
112921
112924
112927
112994
113003
113010
113015
113121
113139
113151
113157
113361
113402
113423
113431
113649
113716
113749
113756
114069
114169
114214
114217
114431
114565
114622
114616
115029
115199
115267
115248
115413
115613
115699
115670
115952
116183
116287
116247
112565
112568
112570
112571
112571
112574
112576
112579
112636
112640
112644
112648
112793
112809
112819
112826
113003
113034
113053
113062
113329
113381
113409
113419
113590
113664
113702
113711
114074
114172
114220
114226
114370
114491
114553
114556
114792
114933
115008
115006
112312
112314
112315
112315
112277
112277
112277
112279
112316
112315
112315
112317
112421
112427
112431
112436
112585
112599
112609
112616
112847
112873
112890
112899
113037
113077
113101
113112
113435
113491
113523
113534
113648
113720
113762
113772
113976
114062
114112
114120
112138
112138
112138
112139
112080
112079
112079
112080
112111
112108
112107
112109
112180
112181
112183
112186
112312
112318
112323
112328
112528
112541
112551
112558
112666
112688
112703
112711
112999
113031
113051
113061
113136
113179
113206
113216
113396
113448
113480
113489
112027
112027
112027
112027
111959
111957
111957
111958
111991
111988
111987
111987
112032
112032
112032
112034
112140
112142
112145
112149
112318
112325
112331
112336
112415
112427
112437
112443
112699
112717
112730
112737
112774
112801
112817
112825
112986
113018
113038
113046
111971
111971
111971
111971
111896
111895
111895
111896
111936
111933
111932
111933
111955
111954
111954
111956
112046
112046
112048
112050
112193
112196
112200
112203
112255
112261
112267
112272
112501
112511
112519
112524
112526
112543
112553
112558
112706
112725
112738
112743
111962
111962
111962
111962
111883
111882
111882
111883
111934
111932
111931
111932
111933
111932
111932
111934
112012
112012
112013
112015
112133
112135
112137
112139
112165
112169
112173
112176
112384
112390
112395
112398
112368
112378
112385
112388
112527
112539
112547
112551
111996
111996
111996
111996
111911
111910
111910
111911
111975
111973
111973
111974
111957
111956
111956
111957
112028
112027
112028
112029
112126
112127
112128
112130
112134
112136
112138
112141
112334
112337
112340
112342
112281
112288
112292
112294
112431
112438
112443
112446
112069
112069
112069
112069
111973
111973
111973
111975
112054
112053
112053
112054
112018
112017
112017
112019
112085
112084
112084
112085
112164
112164
112165
112166
112152
112152
112154
112156
112339
112341
112343
112344
112253
112257
112259
112261
112403
112407
112410
112412
112181
112181
112180
112180
112068
112068
112068
112070
112168
112167
112167
112168
112112
112111
112111
112113
112176
112175
112175
112176
112238
112238
112238
112239
112210
112210
112211
112212
112392
112393
112394
112395
112272
112274
112275
112276
112432
112434
112436
112437
112333
112333
112333
112332
112193
112192
112193
112195
112316
112315
112315
112316
112238
112237
112237
112238
112300
112299
112298
112299
112345
112345
112345
112345
112305
112304
112304
112305
112485
112486
112486
112487
112328
112329
112330
112330
112513
112514
112515
112516
112537
112537
112537
112537
112348
112348
112349
112350
112500
112499
112499
112499
112399
112397
112397
112398
112456
112454
112454
112454
112483
112482
112482
112482
112433
112432
112432
112432
112611
112611
112611
112611
112412
112413
112413
112413
112650
112650
112650
112651
112820
112820
112820
112819
112536
112536
112536
112537
112727
112726
112725
112726
112605
112603
112603
112603
112651
112650
112650
112650
112657
112657
112657
112657
112599
112597
112597
112597
112760
112761
112761
112761
112513
112514
112514
112515
112860
112860
112861
112863
113214
113214
113214
113214
112761
112761
112762
112762
113009
113010
113010
113010
112880
112879
112879
112879
112905
112905
112905
112906
112886
112887
112887
112887
112818
112817
112817
112818
112929
112932
112932
112932
112622
112622
112622
112623
113179
113179
113181
113182
113676
113679
113680
113680
113073
113077
113079
113079
113390
113400
113404
113404
113266
113273
113276
113275
113257
113266
113269
113267
113213
113222
113225
113223
113136
113143
113146
113144
113168
113181
113184
113179
112780
112781
112782
112783
113577
113582
113584
113582
120538
118280
116526
115366
114641
114162
113826
113579
113393
113243
121291
118435
116280
115041
114282
113783
113435
113182
112992
112838
121178
118025
115557
114379
113597
113082
112711
112438
112242
112105
120689
117399
114734
113660
112872
112374
112009
111746
111558
111434
119875
116644
113878
112900
112106
111639
111292
111052
110887
110792
119075
116057
113212
112348
111548
111123
110799
110588
110444
110362
118123
115412
112493
111753
110948
110570
110269
110088
109968
109917
117503
115160
112174
111564
110753
110419
110130
109965
109853
109795
116703
114688
111699
111268
110492
110217
109935
109779
109674
109615
117184
115358
112313
111898
111004
110632
110247
110012
109845
109722
116583
115974
115403
114916
114509
114171
113892
113661
113472
113318
117820
116690
115691
114929
114339
113884
113532
113256
113038
112866
118587
116933
115548
114572
113834
113284
112869
112552
112315
112151
119024
116917
115212
114103
113278
112690
112254
111932
111692
111532
119163
116704
114731
113540
112660
112063
111630
111319
111091
110950
119235
116542
114347
113121
112209
111625
111205
110914
110703
110570
119065
116235
113853
112627
111697
111136
110735
110467
110274
110162
119074
116205
113674
112482
111546
111013
110624
110368
110182
110064
118791
115902
113311
112221
111320
110827
110443
110193
110012
109892
119261
116420
113764
112679
111701
111138
110684
110377
110154
109988
115318
115058
114753
114454
114179
113935
113722
113538
113382
113252
116219
115668
115066
114535
114091
113726
113427
113183
112982
112822
116940
116029
115097
114334
113725
113244
112865
112567
112336
112171
117545
116245
115006
114062
113334
112783
112360
112037
111791
111619
118016
116313
114784
113693
112876
112284
111842
111514
111266
111104
118505
116423
114630
113430
112551
111939
111493
111170
110929
110768
118798
116369
114340
113065
112141
111526
111083
110773
110541
110395
119247
116530
114309
112998
112047
111438
110999
110692
110466
110313
119343
116393
114080
112805
111867
111274
110833
110526
110301
110145
119890
116821
114440
113148
112151
111507
111016
110669
110416
110227
114125
114051
113937
113803
113663
113524
113393
113272
113165
113072
114616
114418
114158
113886
113626
113388
113176
112992
112835
112705
115107
114721
114252
113800
113394
113043
112747
112503
112305
112158
115624
115015
114323
113702
113169
112729
112372
112086
111858
111692
116101
115229
114302
113522
112881
112375
111977
111666
111422
111254
116663
115507
114344
113424
112695
112142
111718
111396
111146
110970
117089
115637
114243
113206
112405
111821
111382
111056
110805
110637
117696
115963
114365
113240
112386
111782
111332
111000
110749
110570
117991
116011
114284
113127
112250
111636
111174
110838
110584
110402
118612
116441
114608
113395
112465
111810
111313
110947
110675
110470
113429
113398
113346
113280
113204
113126
113048
112974
112905
112844
113666
113586
113464
113320
113169
113021
112881
112754
112641
112546
113940
113768
113529
113270
113015
112779
112568
112384
112230
112113
114315
114024
113647
113261
112901
112581
112305
112073
111881
111736
114704
114263
113724
113207
112746
112352
112024
111755
111536
111378
115210
114592
113877
113231
112677
112223
111854
111559
111323
111149
115621
114800
113899
113132
112495
111991
111591
111280
111032
110857
116237
115204
114126
113254
112548
112004
111580
111253
110998
110810
116602
115371
114157
113212
112455
111882
111437
111099
110838
110645
117201
115785
114456
113440
112630
112020
111547
111187
110911
110701
112927
112914
112890
112857
112818
112776
112732
112689
112647
112610
113016
112984
112927
112852
112768
112681
112594
112513
112438
112373
113153
113080
112963
112820
112668
112517
112376
112247
112135
112048
113412
113279
113079
112852
112620
112401
112201
112024
111873
111755
113713
113498
113196
112872
112557
112269
112015
111797
111613
111476
114136
113818
113398
112971
112573
112223
111922
111670
111461
111302
114483
114038
113485
112953
112475
112067
111727
111449
111220
111052
115043
114458
113768
113136
112585
112128
111754
111453
111211
111027
115398
114669
113857
113139
112525
112028
111627
111311
111059
110868
115913
115045
114131
113343
112680
112148
111721
111386
111122
110917
112571
112565
112553
112536
112515
112492
112467
112443
112419
112398
112581
112566
112537
112497
112450
112400
112348
112298
112252
112210
112649
112616
112555
112476
112386
112293
112201
112115
112038
111979
112824
112760
112653
112519
112374
112227
112088
111961
111849
111758
113053
112946
112777
112577
112368
112164
111977
111809
111663
111551
113396
113233
112988
112713
112437
112177
111943
111739
111565
111428
113669
113432
113098
112740
112394
112080
111804
111569
111370
111220
114153
113829
113397
112956
112543
112178
111865
111604
111388
111217
114452
114027
113497
112978
112504
112098
111756
111476
111245
111067
114869
114353
113746
113166
112648
112209
111843
111545
111305
111114
112315
112312
112306
112297
112286
112274
112260
112247
112234
112222
112281
112274
112259
112238
112212
112184
112154
112125
112097
112072
112320
112303
112271
112226
112174
112118
112061
112006
111956
111918
112438
112406
112346
112267
112177
112082
111989
111901
111821
111756
112616
112561
112464
112340
112203
112064
111930
111807
111697
111611
112895
112809
112665
112489
112300
112114
111940
111783
111644
111532
113103
112974
112772
112535
112291
112057
111843
111654
111490
111362
113511
113331
113061
112761
112461
112182
111932
111716
111532
111383
113732
113486
113147
112784
112433
112115
111836
111600
111400
111242
114064
113762
113368
112958
112569
112223
111922
111670
111460
111290
112139
112137
112134
112129
112123
112117
112110
112103
112095
112089
112082
112078
112070
112059
112046
112030
112014
111997
111981
111967
112111
112102
112084
112059
112029
111996
111962
111928
111897
111875
112189
112171
112137
112090
112035
111975
111915
111856
111802
111757
112330
112299
112242
112166
112078
111985
111893
111806
111726
111663
112559
112511
112424
112311
112186
112056
111931
111814
111709
111621
112712
112639
112515
112360
112191
112023
111863
111717
111587
111484
113055
112952
112784
112582
112370
112164
111973
111801
111652
111527
113200
113057
112842
112595
112343
112104
111886
111695
111528
111394
113466
113290
113038
112756
112474
112211
111974
111768
111593
111448
112028
112026
112025
112022
112019
112016
112012
112008
112005
112002
111959
111957
111953
111948
111941
111932
111924
111915
111906
111898
111989
111985
111975
111961
111944
111925
111905
111885
111867
111855
112037
112027
112008
111980
111947
111910
111871
111833
111798
111768
112151
112133
112099
112052
111997
111936
111875
111815
111759
111715
112338
112310
112257
112186
112104
112016
111928
111845
111768
111702
112445
112403
112326
112225
112112
111994
111878
111770
111670
111590
112736
112676
112571
112438
112292
112144
112003
111872
111755
111655
112818
112734
112599
112434
112258
112083
111918
111770
111637
111528
113036
112932
112773
112583
112384
112190
112010
111849
111708
111589
111971
111970
111969
111968
111967
111965
111963
111961
111959
111958
111897
111896
111894
111892
111888
111884
111880
111875
111871
111867
111935
111932
111927
111919
111910
111899
111888
111877
111867
111862
111958
111953
111942
111926
111906
111884
111860
111837
111814
111795
112053
112042
112022
111994
111959
111920
111880
111840
111803
111774
112205
112189
112157
112112
112059
112001
111941
111883
111829
111781
112275
112249
112202
112137
112062
111981
111900
111822
111749
111689
112525
112489
112424
112337
112239
112136
112034
111938
111851
111773
112556
112505
112420
112312
112191
112068
111947
111836
111733
111648
112739
112678
112577
112452
112315
112177
112044
111922
111813
111719
111962
111962
111962
111961
111960
111959
111958
111958
111957
111956
111884
111884
111883
111882
111880
111879
111877
111875
111873
111871
111933
111932
111929
111925
111920
111915
111909
111903
111898
111898
111936
111933
111928
111919
111907
111894
111880
111866
111853
111841
112017
112011
112000
111982
111961
111937
111912
111886
111862
111844
112141
112132
112113
112085
112051
112014
111974
111935
111898
111865
112179
112164
112135
112094
112044
111991
111935
111881
111829
111787
112399
112378
112338
112283
112217
112148
112077
112008
111945
111887
112387
112357
112304
112233
112153
112067
111981
111900
111824
111761
112549
112512
112449
112368
112276
112180
112085
111996
111915
111844
111996
111996
111996
111996
111995
111995
111995
111994
111994
111994
111912
111912
111912
111912
111911
111911
111911
111910
111910
111909
111975
111975
111973
111972
111969
111967
111964
111961
111960
111962
111960
111959
111956
111951
111945
111938
111930
111922
111914
111907
112032
112029
112022
112012
112000
111985
111970
111954
111939
111928
112132
112127
112116
112099
112078
112055
112029
112004
111980
111957
112144
112135
112117
112092
112060
112025
111988
111952
111917
111888
112344
112332
112307
112272
112230
112184
112136
112089
112045
112003
112294
112275
112243
112198
112144
112087
112028
111971
111916
111870
112445
112423
112384
112332
112271
112207
112141
112078
112020
111968
112069
112069
112069
112069
112069
112069
112069
112069
112069
112069
111976
111976
111976
111976
111977
111977
111977
111978
111978
111977
112055
112055
112054
112054
112053
112052
112051
112051
112051
112054
112021
112021
112020
112018
112015
112011
112007
112003
111999
111996
112087
112086
112083
112078
112071
112063
112054
112045
112036
112030
112168
112166
112160
112150
112137
112123
112107
112092
112076
112062
112159
112154
112144