/*--------------------------------*- C++ -*----------------------------------*\
| =========                 |                                                 |
| \\      /  F ield         | foam-extend: Open Source CFD                    |
|  \\    /   O peration     | Version:     4.0                                |
|   \\  /    A nd           | Web:         http://www.foam-extend.org         |
|    \\/     M anipulation  |                                                 |
\*---------------------------------------------------------------------------*/
FoamFile
{
    version     2.0;
    format      ascii;
    class       volScalarField;
    location    "400";
    object      rho;
}
// * * * * * * * * * * * * * * * * * * * * * * * * * * * * * * * * * * * * * //

dimensions      [1 -3 0 0 0 0 0];

internalField   nonuniform List<scalar> 
34480
(
1.39629
1.39528
1.3947
1.39458
1.39511
1.39658
1.39972
1.40632
1.41468
1.41517
1.39372
1.39276
1.39229
1.39216
1.39257
1.39373
1.39633
1.40211
1.41041
1.40619
1.38667
1.38586
1.38571
1.38577
1.38623
1.38717
1.38935
1.39441
1.40268
1.39216
1.37931
1.37878
1.37885
1.37902
1.37949
1.3802
1.382
1.38632
1.39436
1.3779
1.37243
1.37209
1.37237
1.3726
1.37304
1.37349
1.37492
1.37852
1.38616
1.36456
1.36756
1.36754
1.368
1.36831
1.36869
1.3689
1.36992
1.37275
1.37966
1.35337
1.36259
1.36275
1.36335
1.36368
1.36398
1.36396
1.36462
1.36681
1.37287
1.34275
1.36104
1.36151
1.36225
1.36277
1.36319
1.36326
1.36385
1.36563
1.37064
1.33691
1.35903
1.35949
1.36013
1.36052
1.36081
1.36093
1.36154
1.36316
1.36701
1.33086
1.3566
1.3572
1.35827
1.35945
1.36077
1.36228
1.36445
1.36767
1.3721
1.3333
1.3961
1.39486
1.39415
1.39397
1.39444
1.39567
1.39791
1.4015
1.40739
1.41491
1.39301
1.39169
1.39105
1.39089
1.3914
1.39271
1.39516
1.39943
1.40765
1.41885
1.3863
1.385
1.38454
1.3845
1.38507
1.38634
1.38879
1.39339
1.40378
1.41818
1.37981
1.3786
1.37818
1.37811
1.37859
1.37963
1.38186
1.38635
1.39813
1.41497
1.37389
1.37273
1.37236
1.37221
1.37254
1.37325
1.37511
1.37915
1.39167
1.41
1.36982
1.36883
1.3685
1.3683
1.36847
1.36884
1.37022
1.37357
1.38618
1.40484
1.36553
1.36462
1.36433
1.36404
1.36402
1.36404
1.36494
1.36757
1.37985
1.39834
1.36445
1.36372
1.36347
1.36325
1.3632
1.36313
1.36379
1.36581
1.37732
1.39491
1.36266
1.3619
1.36154
1.36115
1.36087
1.36061
1.36105
1.36275
1.37311
1.39073
1.36046
1.35969
1.35961
1.35978
1.36021
1.36087
1.36227
1.3649
1.3751
1.3923
1.39459
1.39361
1.3931
1.39309
1.39366
1.3949
1.39691
1.39978
1.40343
1.40716
1.39139
1.3903
1.38984
1.38989
1.39063
1.39217
1.39465
1.39826
1.4037
1.40987
1.38517
1.38403
1.38369
1.38386
1.38476
1.38648
1.3893
1.3937
1.40144
1.41062
1.37942
1.37825
1.3779
1.37804
1.37891
1.38061
1.38358
1.38842
1.39806
1.41021
1.37423
1.37303
1.37269
1.37274
1.3735
1.37503
1.37792
1.38285
1.39391
1.40872
1.37069
1.36958
1.36924
1.36923
1.36987
1.37115
1.37384
1.37856
1.39052
1.40737
1.36682
1.36573
1.3654
1.3653
1.36577
1.36678
1.36918
1.37358
1.38605
1.40456
1.36596
1.36501
1.3647
1.36464
1.36506
1.36597
1.36819
1.37229
1.38478
1.40432
1.36429
1.36328
1.36288
1.36267
1.36285
1.3635
1.36547
1.36946
1.38151
1.40254
1.36213
1.36111
1.36089
1.36106
1.36171
1.36293
1.36543
1.37002
1.38206
1.40396
1.39231
1.39165
1.3913
1.39133
1.39181
1.39273
1.3941
1.39586
1.39775
1.39898
1.38942
1.38863
1.38833
1.38846
1.38915
1.39047
1.39244
1.39494
1.39792
1.40049
1.38408
1.38313
1.38288
1.38311
1.384
1.38563
1.38813
1.39157
1.39661
1.40153
1.37919
1.37812
1.3778
1.37799
1.37892
1.3807
1.38361
1.38788
1.39502
1.40259
1.37482
1.37362
1.37325
1.37337
1.37425
1.376
1.3791
1.38388
1.39283
1.40312
1.37184
1.37064
1.37023
1.37029
1.37109
1.37273
1.37585
1.38085
1.39126
1.40408
1.36839
1.36715
1.36674
1.36671
1.36739
1.36885
1.37186
1.37692
1.38846
1.40369
1.36775
1.3666
1.36618
1.36617
1.36681
1.3682
1.37116
1.37622
1.38842
1.4057
1.36614
1.36492
1.36443
1.36431
1.36479
1.36597
1.36874
1.37388
1.38624
1.40597
1.36402
1.36277
1.3624
1.36255
1.36334
1.36491
1.36802
1.37357
1.38606
1.40772
1.38976
1.38937
1.38916
1.38921
1.38955
1.39018
1.39107
1.39212
1.39311
1.39344
1.38731
1.38684
1.38668
1.38684
1.38741
1.38842
1.38982
1.39142
1.39287
1.3937
1.38297
1.38228
1.38212
1.38237
1.38316
1.38454
1.38651
1.38895
1.39179
1.39408
1.37897
1.37808
1.37781
1.37803
1.37892
1.38056
1.38307
1.38644
1.39105
1.39523
1.37541
1.37431
1.37397
1.37413
1.37503
1.37678
1.37965
1.38374
1.39007
1.39636
1.37298
1.37181
1.37139
1.3715
1.37238
1.37414
1.37722
1.38181
1.38972
1.39817
1.36997
1.36869
1.36824
1.36828
1.36909
1.37077
1.37393
1.37886
1.38814
1.39883
1.36955
1.3683
1.36783
1.36788
1.36867
1.37034
1.37357
1.37876
1.38907
1.40189
1.368
1.36666
1.36613
1.36611
1.36679
1.36835
1.37151
1.37696
1.38789
1.40333
1.36593
1.36455
1.36409
1.36425
1.36514
1.36695
1.37035
1.37615
1.38738
1.40507
1.38724
1.38706
1.38695
1.38698
1.38721
1.3876
1.38814
1.38872
1.38919
1.38903
1.38523
1.38504
1.385
1.38515
1.38558
1.38629
1.3872
1.3881
1.38861
1.38845
1.38189
1.38147
1.38141
1.38164
1.38228
1.38335
1.38478
1.38638
1.3878
1.3885
1.37874
1.37807
1.37788
1.3781
1.37887
1.38025
1.38226
1.38475
1.38752
1.38952
1.37597
1.37504
1.37474
1.37492
1.37577
1.37734
1.3798
1.38307
1.38728
1.39083
1.37408
1.37301
1.37262
1.37276
1.37363
1.37533
1.37811
1.38201
1.38764
1.39288
1.37149
1.37026
1.36982
1.3699
1.37076
1.37248
1.37547
1.37987
1.38683
1.39392
1.3713
1.37005
1.36956
1.36966
1.37052
1.37229
1.37546
1.38028
1.38839
1.39735
1.36982
1.36846
1.36792
1.36796
1.36877
1.3705
1.37372
1.37892
1.3879
1.39932
1.36783
1.36641
1.3659
1.36606
1.36701
1.36891
1.37231
1.37784
1.38727
1.40074
1.38498
1.38493
1.38489
1.38492
1.38506
1.38529
1.38559
1.38591
1.38611
1.38572
1.38333
1.38336
1.38342
1.38356
1.38386
1.38432
1.38486
1.38529
1.38526
1.38456
1.38091
1.38073
1.38075
1.38096
1.38145
1.38222
1.38319
1.38415
1.38471
1.38449
1.37852
1.37809
1.37796
1.37816
1.3788
1.37989
1.38139
1.38313
1.3847
1.38538
1.37649
1.37576
1.37552
1.3757
1.37643
1.37777
1.37974
1.38221
1.38492
1.38672
1.3751
1.3742
1.37384
1.374
1.37481
1.37632
1.37868
1.38181
1.3857
1.38876
1.37292
1.37181
1.3714
1.37151
1.37234
1.37396
1.37661
1.38031
1.38534
1.38986
1.37296
1.37179
1.37131
1.37144
1.37231
1.37403
1.37693
1.38112
1.38723
1.39327
1.37157
1.37025
1.36973
1.36981
1.37067
1.37241
1.37543
1.38005
1.38708
1.39522
1.36968
1.3683
1.36778
1.36794
1.36889
1.37075
1.37394
1.37886
1.38639
1.39619
1.38311
1.38315
1.38314
1.38316
1.38325
1.38338
1.38355
1.38371
1.38376
1.38326
1.38174
1.38193
1.38205
1.38217
1.38237
1.38265
1.38294
1.38307
1.38272
1.38171
1.3801
1.38013
1.38022
1.38039
1.38074
1.38126
1.38188
1.38238
1.3824
1.38165
1.37835
1.37813
1.37808
1.37826
1.37875
1.37955
1.38062
1.38176
1.38254
1.38241
1.37697
1.37646
1.37629
1.37644
1.37705
1.37811
1.37961
1.38139
1.38305
1.38374
1.37605
1.37533
1.37504
1.37518
1.37589
1.37716
1.37906
1.38145
1.38406
1.3857
1.37424
1.37329
1.37293
1.37305
1.37381
1.37524
1.37746
1.38042
1.38397
1.38673
1.37451
1.37348
1.37304
1.37318
1.37399
1.37556
1.37807
1.38151
1.38599
1.38995
1.3732
1.372
1.37152
1.37162
1.37245
1.37408
1.37676
1.38063
1.38594
1.39154
1.37145
1.37017
1.36968
1.36984
1.37073
1.37246
1.37529
1.37944
1.38522
1.39213
1.38171
1.38179
1.3818
1.38182
1.38187
1.38194
1.38203
1.3821
1.38208
1.38154
1.38051
1.38081
1.38098
1.38109
1.38122
1.38138
1.3815
1.38144
1.38091
1.37972
1.37953
1.37971
1.37985
1.38
1.38024
1.38057
1.38092
1.38112
1.38081
1.37974
1.37829
1.37825
1.37826
1.3784
1.37876
1.37933
1.38005
1.38074
1.38101
1.38038
1.37746
1.37714
1.37704
1.37717
1.37764
1.37845
1.37954
1.38075
1.38169
1.38167
1.37693
1.3764
1.37618
1.37631
1.37689
1.37791
1.37937
1.38111
1.3828
1.38349
1.37545
1.3747
1.37439
1.37451
1.37516
1.37635
1.37813
1.38039
1.38283
1.38438
1.37595
1.37509
1.37471
1.37485
1.37557
1.37692
1.37898
1.38169
1.38489
1.38735
1.37472
1.37367
1.37324
1.37336
1.37411
1.37555
1.37781
1.38091
1.38479
1.38851
1.37314
1.372
1.37155
1.37171
1.37251
1.37403
1.37643
1.37978
1.38408
1.38883
1.38078
1.38089
1.38091
1.38092
1.38095
1.38099
1.38103
1.38106
1.381
1.38045
1.37968
1.38006
1.38025
1.38035
1.38044
1.38052
1.38054
1.38037
1.37974
1.37843
1.37923
1.37952
1.37969
1.37982
1.37999
1.38019
1.38036
1.38035
1.37986
1.3786
1.37838
1.37847
1.37853
1.37865
1.3789
1.37929
1.37974
1.38012
1.38006
1.37912
1.378
1.37785
1.3778
1.37791
1.37826
1.37884
1.3796
1.38039
1.38084
1.38035
1.37779
1.37744
1.37728
1.37739
1.37785
1.37863
1.3797
1.38093
1.38195
1.382
1.37659
1.37602
1.37578
1.37589
1.37642
1.37737
1.37873
1.38039
1.382
1.38272
1.37731
1.37662
1.37631
1.37644
1.37704
1.37815
1.37978
1.38183
1.38404
1.38543
1.37613
1.37525
1.37489
1.375
1.37565
1.37686
1.37868
1.38107
1.38384
1.3862
1.37475
1.37378
1.37339
1.37353
1.37422
1.3755
1.37745
1.38005
1.38316
1.38636
1.38033
1.38044
1.38047
1.38048
1.38049
1.38051
1.38053
1.38053
1.38046
1.37992
1.37927
1.37969
1.37989
1.37998
1.38004
1.38007
1.38004
1.37981
1.37913
1.37775
1.37925
1.37961
1.3798
1.37991
1.38001
1.38013
1.38019
1.38006
1.37946
1.37808
1.37866
1.37885
1.37893
1.37903
1.3792
1.37945
1.37972
1.37989
1.37963
1.3785
1.37864
1.37862
1.37861
1.3787
1.37895
1.37935
1.37986
1.38034
1.38047
1.37969
1.37867
1.37847
1.37837
1.37846
1.3788
1.37937
1.38013
1.38096
1.38153
1.38117
1.3777
1.37729
1.37711
1.3772
1.37762
1.37834
1.37935
1.38052
1.38154
1.38169
1.3786
1.3781
1.37785
1.37796
1.37845
1.37932
1.38056
1.38204
1.38353
1.38418
1.37745
1.37675
1.37646
1.37656
1.37709
1.37806
1.37947
1.38124
1.38317
1.3846
1.3763
1.37551
1.37519
1.3753
1.37587
1.37691
1.37843
1.38037
1.38257
1.38468
1.38033
1.38044
1.38046
1.38047
1.38048
1.38049
1.38049
1.38048
1.3804
1.37989
1.37925
1.3797
1.3799
1.37999
1.38002
1.38003
1.37996
1.37971
1.379
1.37758
1.37958
1.37999
1.38018
1.38028
1.38035
1.3804
1.38039
1.3802
1.37954
1.3781
1.37915
1.3794
1.3795
1.37958
1.37969
1.37985
1.38
1.38003
1.37965
1.37842
1.37941
1.37948
1.3795
1.37957
1.37974
1.38001
1.38034
1.38061
1.38054
1.37957
1.37961
1.37953
1.37947
1.37954
1.37978
1.38019
1.38071
1.38124
1.38152
1.38089
1.3788
1.37854
1.37841
1.37849
1.3788
1.37933
1.38004
1.38085
1.38146
1.38124
1.37988
1.37953
1.37935
1.37944
1.37982
1.38047
1.38138
1.38242
1.38339
1.38355
1.37872
1.37818
1.37796
1.37804
1.37846
1.37921
1.38026
1.38153
1.38283
1.38364
1.37782
1.3772
1.37695
1.37704
1.37749
1.37829
1.37943
1.38083
1.38235
1.38372
1.38075
1.38085
1.38088
1.38088
1.38089
1.38089
1.38088
1.38087
1.38079
1.38032
1.37961
1.38006
1.38026
1.38034
1.38037
1.38035
1.38028
1.38001
1.37931
1.37786
1.38025
1.38067
1.38086
1.38094
1.38098
1.381
1.38096
1.38074
1.38006
1.37858
1.37988
1.38016
1.38027
1.38033
1.3804
1.38049
1.38056
1.38052
1.38009
1.3788
1.38033
1.38047
1.38051
1.38056
1.38068
1.38085
1.38104
1.38118
1.38099
1.37993
1.38064
1.38065
1.38062
1.38067
1.38084
1.38112
1.38146
1.38179
1.38188
1.38111
1.37995
1.3798
1.37972
1.37978
1.38
1.38037
1.38087
1.38139
1.38173
1.38129
1.38119
1.38097
1.38084
1.38091
1.38119
1.38166
1.3823
1.38301
1.38361
1.38346
1.37997
1.37957
1.37941
1.37947
1.37979
1.38034
1.3811
1.38198
1.38284
1.38323
1.37935
1.37888
1.37869
1.37876
1.3791
1.3797
1.38053
1.3815
1.38252
1.38339
1.38157
1.38166
1.38168
1.38169
1.38169
1.38169
1.38168
1.38166
1.3816
1.38117
1.38033
1.38078
1.38097
1.38104
1.38105
1.38103
1.38095
1.38069
1.38
1.37854
1.38124
1.38165
1.38183
1.3819
1.38193
1.38193
1.38187
1.38164
1.38098
1.37949
1.38085
1.38114
1.38124
1.38129
1.38134
1.38138
1.38141
1.38133
1.38088
1.37958
1.38145
1.38161
1.38166
1.3817
1.38178
1.38188
1.38199
1.38204
1.3818
1.38071
1.3818
1.38186
1.38185
1.38189
1.38201
1.38219
1.3824
1.38259
1.38257
1.38174
1.38118
1.38112
1.38107
1.38112
1.38127
1.38152
1.38185
1.38217
1.38234
1.38179
1.38255
1.38243
1.38235
1.3824
1.3826
1.38293
1.38336
1.38382
1.38419
1.38386
1.38123
1.38095
1.38084
1.38089
1.38111
1.3815
1.38203
1.38262
1.38317
1.38331
1.38093
1.38059
1.38045
1.38051
1.38075
1.38118
1.38176
1.38242
1.38308
1.38363
1.3828
1.38287
1.38289
1.38289
1.38289
1.38289
1.38288
1.38286
1.3828
1.38243
1.3814
1.38183
1.382
1.38206
1.38207
1.38205
1.38197
1.38173
1.38107
1.37962
1.38256
1.38296
1.38312
1.38318
1.38319
1.38318
1.38312
1.3829
1.38228
1.3808
1.38208
1.38236
1.38246
1.38249
1.38252
1.38254
1.38254
1.38244
1.38202
1.38075
1.38276
1.38294
1.38299
1.38302
1.38307
1.38312
1.38318
1.38318
1.38293
1.38186
1.3831
1.38319
1.3832
1.38323
1.3833
1.38341
1.38355
1.38364
1.38357
1.38274
1.38253
1.38253
1.3825
1.38253
1.38264
1.3828
1.38301
1.3832
1.38326
1.38267
1.38401
1.38396
1.3839
1.38394
1.38408
1.3843
1.38459
1.38488
1.38509
1.38467
1.38252
1.38234
1.38226
1.38229
1.38245
1.38272
1.38307
1.38345
1.38379
1.38379
1.3826
1.38237
1.38227
1.38231
1.38248
1.38277
1.38317
1.3836
1.38403
1.38436
1.38446
1.3845
1.38452
1.38452
1.38452
1.38452
1.38451
1.38449
1.38444
1.38413
1.38281
1.38321
1.38336
1.38341
1.38341
1.38339
1.38332
1.3831
1.3825
1.38108
1.38423
1.3846
1.38473
1.38478
1.38479
1.38477
1.38471
1.38452
1.38396
1.38253
1.3836
1.38385
1.38393
1.38396
1.38398
1.38398
1.38397
1.38387
1.3835
1.3823
1.38428
1.38445
1.3845
1.38452
1.38455
1.38458
1.38461
1.38458
1.38435
1.38336
1.38456
1.38465
1.38467
1.38469
1.38474
1.38481
1.38488
1.38493
1.38484
1.38407
1.38402
1.38404
1.38404
1.38406
1.38413
1.38423
1.38436
1.38447
1.38447
1.38391
1.38557
1.38556
1.38552
1.38555
1.38564
1.38579
1.38598
1.38615
1.38628
1.38585
1.38386
1.38373
1.38368
1.38371
1.38382
1.38399
1.38422
1.38446
1.38467
1.3846
1.38443
1.38427
1.3842
1.38423
1.38434
1.38454
1.38481
1.38508
1.38535
1.38555
1.38665
1.38668
1.3867
1.3867
1.3867
1.38669
1.38668
1.38666
1.38662
1.38637
1.38458
1.38492
1.38505
1.38509
1.38509
1.38507
1.38501
1.38483
1.3843
1.38296
1.38626
1.38657
1.38668
1.38671
1.38672
1.3867
1.38665
1.3865
1.38604
1.38472
1.38542
1.38563
1.3857
1.38572
1.38573
1.38573
1.38572
1.38564
1.38534
1.38427
1.38603
1.38617
1.3862
1.38622
1.38624
1.38626
1.38628
1.38626
1.38608
1.38522
1.38618
1.38626
1.38627
1.38628
1.38632
1.38637
1.38642
1.38645
1.38638
1.38573
1.38566
1.38569
1.38569
1.3857
1.38575
1.38582
1.38591
1.38598
1.38597
1.38548
1.3872
1.38719
1.38716
1.38718
1.38724
1.38734
1.38748
1.3876
1.3877
1.38731
1.38521
1.38513
1.38509
1.38511
1.38518
1.3853
1.38546
1.38561
1.38575
1.38566
1.38653
1.38641
1.38636
1.38638
1.38646
1.38659
1.38677
1.38695
1.38714
1.38725
1.3897
1.38966
1.38967
1.38967
1.38967
1.38967
1.38965
1.38963
1.3896
1.38941
1.38668
1.38695
1.38704
1.38707
1.38708
1.38707
1.38703
1.3869
1.3865
1.3853
1.38863
1.38885
1.38891
1.38893
1.38894
1.38894
1.38893
1.38884
1.38853
1.38742
1.3876
1.38774
1.38778
1.3878
1.38781
1.38783
1.38784
1.38781
1.38762
1.38676
1.38803
1.38811
1.38812
1.38813
1.38815
1.38818
1.38822
1.38823
1.38816
1.38751
1.388
1.38804
1.38803
1.38803
1.38806
1.38811
1.38817
1.38823
1.38823
1.38775
1.38748
1.38749
1.38748
1.38748
1.38752
1.38758
1.38766
1.38774
1.38777
1.38741
1.3888
1.38877
1.38874
1.38874
1.38878
1.38886
1.38898
1.3891
1.38922
1.38895
1.38653
1.38647
1.38643
1.38644
1.38649
1.38658
1.3867
1.38682
1.38693
1.38688
1.38914
1.38904
1.38899
1.389
1.38905
1.38915
1.38929
1.38943
1.38959
1.38967
1.39365
1.39364
1.39363
1.39363
1.39363
1.39364
1.39364
1.39365
1.39364
1.39354
1.38902
1.38917
1.38921
1.38922
1.38923
1.38926
1.38928
1.38926
1.38905
1.38818
1.39126
1.39134
1.39132
1.3913
1.39132
1.39136
1.39142
1.39148
1.39141
1.39072
1.39022
1.39025
1.39023
1.39023
1.39025
1.39029
1.39037
1.39045
1.39045
1.38997
1.39037
1.39035
1.39031
1.39029
1.39031
1.39037
1.39046
1.39058
1.39067
1.39036
1.39014
1.3901
1.39005
1.39003
1.39006
1.39012
1.39022
1.39036
1.39049
1.39031
1.3896
1.38955
1.38951
1.3895
1.38952
1.38959
1.3897
1.38983
1.38997
1.38985
1.39034
1.39026
1.3902
1.39018
1.39021
1.39029
1.39042
1.39057
1.39077
1.39074
1.3878
1.38773
1.38768
1.38768
1.38772
1.3878
1.38791
1.38804
1.38818
1.3882
1.39256
1.39247
1.39241
1.3924
1.39244
1.39253
1.39265
1.39279
1.39295
1.39306
1.39796
1.39792
1.39788
1.39786
1.39786
1.39788
1.39793
1.39799
1.39807
1.39815
1.3917
1.39165
1.39158
1.39156
1.39157
1.39163
1.39174
1.39189
1.39207
1.39198
1.39419
1.39402
1.39389
1.39383
1.39383
1.39391
1.39406
1.39429
1.39461
1.39482
1.39329
1.39315
1.39305
1.39301
1.39302
1.39309
1.39323
1.39344
1.39373
1.39398
1.39315
1.39299
1.39288
1.39284
1.39286
1.39293
1.39306
1.39328
1.39358
1.3939
1.39276
1.39261
1.39251
1.39248
1.3925
1.39257
1.3927
1.39291
1.3932
1.39354
1.39221
1.39207
1.39199
1.39196
1.39199
1.39206
1.39219
1.39237
1.39264
1.39295
1.39221
1.39205
1.39196
1.39194
1.39196
1.39204
1.39218
1.39237
1.39265
1.393
1.38942
1.38933
1.38927
1.38926
1.38929
1.38937
1.38948
1.38963
1.38981
1.38998
1.39649
1.39638
1.39632
1.39631
1.39634
1.39642
1.39654
1.39668
1.39686
1.39701
1.50582
1.5118
1.50849
1.50182
1.52909
1.53525
1.52866
1.51888
1.54601
1.55146
1.5421
1.53001
1.55761
1.56194
1.54982
1.53592
1.56622
1.56925
1.55629
1.54
1.5733
1.57483
1.56181
1.54315
1.57773
1.57753
1.56465
1.54378
1.58297
1.58096
1.5685
1.54552
1.5818
1.57798
1.56578
1.54086
1.57913
1.57431
1.56321
1.53682
1.41053
1.41056
1.41131
1.41253
1.426
1.42768
1.42871
1.42849
1.43807
1.44103
1.44232
1.44078
1.44962
1.45378
1.45526
1.45209
1.46076
1.46577
1.46711
1.46234
1.47242
1.47798
1.47902
1.47293
1.48244
1.48829
1.48901
1.48187
1.49406
1.50004
1.50053
1.49277
1.50059
1.50676
1.50722
1.49918
1.50693
1.51387
1.51443
1.50642
1.41021
1.41074
1.41096
1.41099
1.41817
1.41945
1.41976
1.41951
1.42431
1.42612
1.42654
1.4262
1.43045
1.43284
1.4334
1.43285
1.43691
1.43991
1.44054
1.43958
1.44476
1.44835
1.449
1.44746
1.45185
1.45594
1.45655
1.45432
1.4614
1.46591
1.46647
1.46353
1.46689
1.47185
1.47245
1.46873
1.47251
1.47844
1.47909
1.47423
1.39921
1.39919
1.39925
1.39937
1.40281
1.40321
1.40333
1.40327
1.40612
1.40679
1.40699
1.40692
1.41017
1.41121
1.41155
1.41143
1.41458
1.41605
1.41653
1.41628
1.42043
1.42238
1.42298
1.4225
1.42571
1.42814
1.42884
1.42802
1.43366
1.43655
1.43733
1.4361
1.43808
1.44147
1.44242
1.4408
1.4425
1.44693
1.44806
1.44568
1.39346
1.39336
1.39336
1.39346
1.39464
1.39482
1.39485
1.39477
1.39596
1.39628
1.39635
1.39629
1.39851
1.39904
1.3992
1.39915
1.40151
1.40227
1.40253
1.40249
1.40582
1.40686
1.40724
1.40715
1.40953
1.41089
1.41137
1.4112
1.41594
1.41763
1.41823
1.41791
1.4196
1.42168
1.42253
1.42211
1.42329
1.4263
1.42739
1.42646
1.38873
1.38855
1.38851
1.38863
1.38849
1.38845
1.38841
1.38837
1.38869
1.38866
1.38863
1.38864
1.39038
1.39048
1.39053
1.39057
1.3926
1.39287
1.393
1.39307
1.39596
1.39641
1.39663
1.39673
1.39864
1.39931
1.39963
1.39972
1.40394
1.40484
1.40527
1.40534
1.40711
1.4083
1.40897
1.40907
1.41005
1.41204
1.41292
1.4126
1.38523
1.38499
1.38495
1.38509
1.38422
1.3841
1.38402
1.384
1.38404
1.38388
1.38379
1.38381
1.38518
1.38507
1.38504
1.38511
1.38691
1.3869
1.38693
1.38705
1.38959
1.3897
1.38981
1.38997
1.39153
1.39178
1.39197
1.39217
1.39597
1.39639
1.39667
1.39689
1.39868
1.39931
1.39978
1.40007
1.40091
1.40224
1.40286
1.40275
1.38262
1.38234
1.38229
1.38246
1.38109
1.3809
1.38081
1.38081
1.38085
1.38061
1.3805
1.38053
1.3817
1.38149
1.38142
1.38149
1.38318
1.38301
1.38299
1.38311
1.38543
1.38533
1.38536
1.38554
1.38686
1.38684
1.38694
1.38717
1.39063
1.39073
1.39091
1.39117
1.3928
1.39307
1.39338
1.3937
1.39447
1.39538
1.39579
1.39573
1.38077
1.38046
1.3804
1.38061
1.37889
1.37867
1.37857
1.37859
1.37874
1.37845
1.37833
1.37838
1.37939
1.37912
1.37903
1.37912
1.38072
1.38048
1.38042
1.38055
1.38267
1.38246
1.38245
1.38263
1.38373
1.38358
1.38361
1.38384
1.38701
1.38693
1.38702
1.38729
1.38861
1.38866
1.38885
1.38916
1.38992
1.39057
1.39084
1.39077
1.37959
1.37925
1.37919
1.37942
1.37745
1.37719
1.37708
1.37713
1.37744
1.37713
1.37701
1.37708
1.37794
1.37764
1.37754
1.37764
1.37916
1.37887
1.3788
1.37894
1.38086
1.3806
1.38055
1.38074
1.38165
1.38141
1.3814
1.38163
1.38455
1.38436
1.38439
1.38466
1.38567
1.38558
1.38569
1.38599
1.38678
1.38727
1.38744
1.38736
1.37899
1.37863
1.37857
1.37882
1.37663
1.37635
1.37624
1.3763
1.37681
1.37648
1.37636
1.37644
1.37718
1.37685
1.37675
1.37687
1.37832
1.378
1.37791
1.37807
1.37981
1.3795
1.37945
1.37964
1.38036
1.38006
1.38003
1.38027
1.38297
1.38271
1.38271
1.38298
1.38371
1.38353
1.38359
1.38388
1.38473
1.38512
1.38523
1.38514
1.37892
1.37854
1.37848
1.37875
1.37635
1.37603
1.37592
1.37601
1.37673
1.37638
1.37626
1.37636
1.37698
1.37663
1.37652
1.37666
1.37807
1.37771
1.37763
1.3778
1.37938
1.37904
1.37897
1.37918
1.37972
1.37939
1.37934
1.37959
1.38213
1.38182
1.3818
1.38208
1.38253
1.3823
1.38233
1.38262
1.38357
1.38389
1.38397
1.38386
1.37932
1.37893
1.37888
1.37916
1.37652
1.37619
1.37608
1.37618
1.37712
1.37676
1.37664
1.37676
1.37724
1.37687
1.37677
1.37693
1.37831
1.37793
1.37784
1.37803
1.37947
1.3791
1.37903
1.37925
1.37964
1.37927
1.37923
1.37949
1.38191
1.38157
1.38154
1.38182
1.38201
1.38174
1.38175
1.38204
1.38314
1.38341
1.38346
1.38336
1.38017
1.37978
1.37973
1.38002
1.3771
1.37675
1.37664
1.37677
1.37794
1.37756
1.37744
1.37758
1.37792
1.37753
1.37743
1.37761
1.37898
1.37858
1.37849
1.37871
1.38
1.37961
1.37954
1.37979
1.38004
1.37965
1.3796
1.37988
1.38223
1.38187
1.38183
1.38213
1.38203
1.38174
1.38174
1.38203
1.38333
1.38356
1.38359
1.38349
1.38146
1.38107
1.38102
1.38132
1.37807
1.37771
1.3776
1.37774
1.37916
1.37876
1.37865
1.37881
1.37899
1.37857
1.37848
1.37868
1.38004
1.37962
1.37954
1.37978
1.38094
1.38053
1.38046
1.38073
1.38088
1.38047
1.38042
1.38072
1.38303
1.38265
1.38262
1.38292
1.38251
1.38221
1.3822
1.38249
1.38405
1.38424
1.38426
1.38417
1.38322
1.38284
1.38279
1.38309
1.37943
1.37904
1.37894
1.3791
1.38079
1.38038
1.38027
1.38045
1.38044
1.38001
1.37992
1.38015
1.38149
1.38105
1.38097
1.38124
1.38225
1.38183
1.38177
1.38206
1.38212
1.38171
1.38166
1.38197
1.38424
1.38387
1.38384
1.38414
1.38337
1.38307
1.38306
1.38334
1.38525
1.38542
1.38543
1.38535
1.38556
1.3852
1.38516
1.38544
1.3812
1.38079
1.38069
1.38088
1.38289
1.38246
1.38236
1.38257
1.38235
1.3819
1.38182
1.38208
1.38335
1.38291
1.38284
1.38313
1.38395
1.38354
1.38349
1.38379
1.38376
1.38336
1.38332
1.38364
1.38583
1.38547
1.38544
1.38575
1.38453
1.38424
1.38423
1.3845
1.387
1.38712
1.38713
1.38707
1.38874
1.38841
1.38838
1.38863
1.38346
1.38303
1.38294
1.38316
1.38557
1.38513
1.38504
1.38528
1.38487
1.38443
1.38435
1.38464
1.38575
1.38533
1.38527
1.38558
1.38615
1.38576
1.38572
1.38603
1.38589
1.38551
1.38548
1.38579
1.38772
1.3874
1.38738
1.38767
1.38591
1.38564
1.38563
1.38588
1.38948
1.38957
1.38958
1.38953
1.39305
1.39278
1.39275
1.39296
1.38636
1.38594
1.38586
1.38612
1.38904
1.38864
1.38858
1.38885
1.38831
1.38791
1.38786
1.38815
1.38892
1.38857
1.38853
1.38883
1.38905
1.38873
1.3887
1.38899
1.38868
1.38837
1.38835
1.38862
1.38992
1.38967
1.38966
1.3899
1.38743
1.3872
1.38719
1.3874
1.393
1.39307
1.39308
1.39306
1.39796
1.39781
1.39781
1.39794
1.39066
1.39035
1.39032
1.39057
1.39395
1.39373
1.39373
1.39398
1.39319
1.39298
1.39298
1.39321
1.39336
1.39319
1.3932
1.39341
1.39315
1.39302
1.39303
1.39321
1.39263
1.39249
1.39251
1.39267
1.39298
1.39291
1.39293
1.39305
1.38959
1.38944
1.38944
1.38958
1.39724
1.39731
1.39732
1.39729
1.4701
1.44884
1.43058
1.41824
1.41082
1.40612
1.40294
1.4007
1.3991
1.39789
1.47611
1.44776
1.42638
1.41428
1.4074
1.40306
1.40013
1.39806
1.39655
1.39527
1.47241
1.44106
1.41713
1.40629
1.39957
1.39532
1.39234
1.39022
1.38877
1.38778
1.46516
1.43238
1.40709
1.39773
1.39111
1.38705
1.38414
1.38211
1.38078
1.38
1.45445
1.4226
1.39705
1.38895
1.38238
1.37864
1.3759
1.37412
1.37302
1.37261
1.44342
1.41448
1.38888
1.38221
1.37569
1.37242
1.36994
1.36848
1.36763
1.36741
1.43079
1.40592
1.38023
1.37506
1.36858
1.36584
1.36363
1.36251
1.36194
1.36207
1.42164
1.40157
1.37587
1.37229
1.3659
1.3637
1.36167
1.36078
1.36034
1.36045
1.41113
1.3952
1.3702
1.36864
1.36279
1.3613
1.35948
1.35875
1.35841
1.35852
1.40988
1.3962
1.37135
1.37026
1.36359
1.3615
1.35896
1.35768
1.35689
1.35644
1.41641
1.41506
1.41275
1.41007
1.40732
1.40475
1.40249
1.40056
1.39897
1.39775
1.42761
1.42206
1.41631
1.41126
1.40691
1.40334
1.40045
1.39814
1.3963
1.39481
1.4345
1.4245
1.41524
1.40796
1.40207
1.39751
1.394
1.3913
1.38927
1.38787
1.43862
1.42458
1.41224
1.40338
1.39645
1.39133
1.38749
1.38463
1.38251
1.38114
1.44015
1.42289
1.40785
1.39791
1.39026
1.3849
1.38096
1.37813
1.37607
1.3749
1.44098
1.42157
1.40423
1.39369
1.3856
1.38025
1.37637
1.37368
1.37174
1.37064
1.43947
1.41876
1.39943
1.38864
1.38026
1.37504
1.37128
1.36878
1.36698
1.3661
1.43998
1.41889
1.39798
1.38733
1.37883
1.37381
1.37013
1.36771
1.36599
1.36502
1.43772
1.4163
1.39484
1.38498
1.37679
1.37209
1.36846
1.36608
1.36438
1.36334
1.44001
1.41849
1.39625
1.38626
1.37739
1.37211
1.36791
1.36506
1.36301
1.36146
1.41037
1.40922
1.40738
1.40529
1.40322
1.4013
1.3996
1.39812
1.39689
1.39594
1.41758
1.41409
1.40994
1.40613
1.40285
1.40008
1.39775
1.39581
1.39424
1.39294
1.42309
1.41677
1.40975
1.40387
1.39911
1.39528
1.39222
1.3898
1.38794
1.38663
1.42795
1.41841
1.40867
1.40107
1.39512
1.39053
1.38696
1.38423
1.38216
1.38079
1.43201
1.41895
1.40654
1.39749
1.3906
1.38551
1.38167
1.37882
1.37668
1.3754
1.43639
1.41989
1.40502
1.39485
1.38729
1.38194
1.378
1.37515
1.37305
1.37177
1.43902
1.41926
1.40213
1.39115
1.38307
1.37762
1.37366
1.37088
1.36884
1.36771
1.44357
1.42106
1.40211
1.39071
1.38233
1.37687
1.3729
1.37013
1.36813
1.36689
1.44478
1.42
1.40033
1.3892
1.3809
1.37552
1.37149
1.36869
1.36666
1.36534
1.44768
1.42143
1.40111
1.3897
1.38086
1.37504
1.37061
1.36747
1.36519
1.36347
1.39938
1.39955
1.39918
1.39843
1.3975
1.39651
1.39553
1.39463
1.39385
1.39325
1.40268
1.40176
1.40046
1.39891
1.39725
1.39559
1.39405
1.39269
1.39155
1.39059
1.40598
1.40371
1.4007
1.39762
1.3947
1.39206
1.38979
1.38789
1.38638
1.3853
1.40987
1.40596
1.40109
1.39648
1.39235
1.38883
1.38592
1.38357
1.38174
1.38048
1.41371
1.40776
1.40084
1.39475
1.38956
1.38535
1.38199
1.37936
1.37733
1.37604
1.41844
1.41018
1.40116
1.39375
1.38769
1.383
1.37935
1.37657
1.37445
1.37307
1.42197
1.41119
1.40009
1.39153
1.38474
1.37969
1.37586
1.37301
1.37085
1.36953
1.42772
1.41451
1.40155
1.39213
1.3848
1.37952
1.37553
1.3726
1.37041
1.36897
1.43058
1.41525
1.40123
1.39145
1.38385
1.37841
1.37428
1.37127
1.36902
1.36749
1.43426
1.41693
1.40186
1.39146
1.38337
1.37757
1.37315
1.36989
1.36746
1.3656
1.39344
1.39374
1.39366
1.3933
1.3928
1.39224
1.39167
1.39114
1.39068
1.39036
1.39437
1.39415
1.39377
1.39311
1.39224
1.39127
1.3903
1.38943
1.38869
1.38807
1.39579
1.39492
1.39363
1.39204
1.39032
1.38864
1.38708
1.38573
1.38463
1.38385
1.3985
1.39682
1.3944
1.3917
1.38903
1.38655
1.38437
1.38254
1.38106
1.38003
1.40157
1.39881
1.39503
1.39116
1.38754
1.38436
1.38166
1.37945
1.37768
1.37653
1.40575
1.40163
1.39634
1.39132
1.38684
1.38308
1.37997
1.37749
1.37554
1.37422
1.40904
1.40328
1.39638
1.39023
1.38497
1.38071
1.37729
1.37463
1.37253
1.37119
1.41477
1.40728
1.39881
1.39169
1.38576
1.3811
1.37742
1.37458
1.3724
1.37089
1.41831
1.40918
1.39955
1.39171
1.38525
1.38027
1.37636
1.37339
1.3711
1.36949
1.42191
1.41086
1.40007
1.39152
1.38459
1.37928
1.37512
1.37195
1.36953
1.36763
1.38872
1.38915
1.38923
1.38909
1.38884
1.38855
1.38824
1.38795
1.38771
1.38759
1.38822
1.3884
1.38848
1.3883
1.38791
1.3874
1.38686
1.38636
1.38595
1.38562
1.38858
1.3885
1.38812
1.38742
1.38651
1.3855
1.38451
1.38362
1.3829
1.38242
1.39048
1.38999
1.38895
1.38752
1.38589
1.38425
1.38272
1.38137
1.38028
1.37951
1.39293
1.39187
1.38999
1.38771
1.38532
1.38305
1.38101
1.37926
1.37783
1.37689
1.39645
1.39464
1.39177
1.38858
1.38546
1.38261
1.38013
1.37805
1.37636
1.3752
1.39919
1.3964
1.39239
1.38827
1.38441
1.38103
1.37816
1.37582
1.37393
1.37268
1.40442
1.40053
1.39533
1.3903
1.38576
1.38191
1.37871
1.37613
1.3741
1.37265
1.40799
1.4029
1.3966
1.39073
1.38557
1.38132
1.37784
1.3751
1.37291
1.37134
1.41094
1.40431
1.39701
1.39047
1.38486
1.3803
1.37661
1.37368
1.37138
1.36955
1.38528
1.38575
1.3859
1.38586
1.38574
1.38558
1.38542
1.38526
1.38516
1.38516
1.38397
1.38429
1.38456
1.38461
1.38448
1.38424
1.38396
1.38372
1.38354
1.38344
1.38389
1.38413
1.38416
1.38392
1.38346
1.38289
1.3823
1.38176
1.38135
1.38112
1.38523
1.38528
1.38494
1.38421
1.38326
1.3822
1.38117
1.38025
1.37949
1.37899
1.38721
1.38699
1.38613
1.38482
1.38329
1.38172
1.38024
1.37893
1.37785
1.37715
1.39015
1.38953
1.38805
1.38609
1.38396
1.38189
1.37998
1.37834
1.37697
1.37602
1.39231
1.39114
1.3889
1.38622
1.38347
1.3809
1.37861
1.37666
1.37505
1.37397
1.39692
1.39506
1.39197
1.38854
1.38518
1.38215
1.37951
1.3773
1.37551
1.37421
1.4001
1.39735
1.39332
1.38912
1.38519
1.38175
1.37882
1.37642
1.37445
1.37301
1.4023
1.3984
1.39359
1.38884
1.38451
1.38079
1.37766
1.37509
1.37301
1.37132
1.38274
1.38324
1.38342
1.38343
1.38338
1.3833
1.38321
1.38314
1.38311
1.38319
1.38089
1.38131
1.38167
1.38184
1.38186
1.38178
1.38167
1.38159
1.38157
1.38162
1.38071
1.38111
1.38135
1.38135
1.38117
1.38087
1.38055
1.38026
1.38008
1.38006
1.38173
1.38205
1.38206
1.38174
1.3812
1.38055
1.37989
1.3793
1.37883
1.37856
1.38342
1.38361
1.3833
1.38258
1.38162
1.38057
1.37954
1.37861
1.37784
1.37738
1.38592
1.38591
1.3852
1.38402
1.3826
1.38114
1.37974
1.37849
1.37745
1.37673
1.3876
1.38728
1.38607
1.38436
1.38245
1.38056
1.3788
1.37726
1.37596
1.37509
1.3916
1.39087
1.38907
1.38678
1.38437
1.38207
1.37999
1.37819
1.37669
1.37558
1.39415
1.39276
1.39024
1.38734
1.38445
1.38179
1.37943
1.37742
1.37574
1.37448
1.39575
1.39349
1.39038
1.38705
1.38384
1.38093
1.37839
1.37623
1.37444
1.37294
1.38098
1.38149
1.38168
1.38171
1.38169
1.38166
1.38161
1.38158
1.3816
1.38172
1.37875
1.37924
1.37965
1.37988
1.37998
1.37999
1.37998
1.38
1.38008
1.38024
1.37864
1.37912
1.37947
1.3796
1.37958
1.37945
1.3793
1.37918
1.37916
1.37928
1.37943
1.37989
1.38009
1.38001
1.37974
1.37936
1.37897
1.37861
1.37836
1.37827
1.38094
1.38134
1.38133
1.38097
1.38039
1.37971
1.37902
1.3784
1.37789
1.37763
1.3831
1.3834
1.38313
1.38244
1.38152
1.38052
1.37953
1.37863
1.37788
1.37737
1.3844
1.38453
1.38392
1.38284
1.38155
1.3802
1.37891
1.37774
1.37674
1.37608
1.38788
1.38776
1.38674
1.38525
1.38356
1.38188
1.3803
1.37889
1.37771
1.37681
1.38979
1.38919
1.38764
1.38569
1.38363
1.38164
1.37982
1.37821
1.37683
1.37579
1.39098
1.38966
1.38768
1.38541
1.38309