/*--------------------------------*- C++ -*----------------------------------*\
| =========                 |                                                 |
| \\      /  F ield         | foam-extend: Open Source CFD                    |
|  \\    /   O peration     | Version:     4.0                                |
|   \\  /    A nd           | Web:         http://www.foam-extend.org         |
|    \\/     M anipulation  |                                                 |
\*---------------------------------------------------------------------------*/
FoamFile
{
    version     2.0;
    format      ascii;
    class       volScalarField;
    location    "400";
    object      T;
}
// * * * * * * * * * * * * * * * * * * * * * * * * * * * * * * * * * * * * * //

dimensions      [0 0 0 1 0 0 0];

internalField   nonuniform List<scalar> 
34480
(
281.485
281.326
281.204
281.102
281.013
280.938
280.88
280.9
281.153
281.154
280.994
280.806
280.654
280.542
280.468
280.426
280.41
280.461
280.784
280.393
280.655
280.463
280.312
280.211
280.155
280.118
280.071
280.023
280.247
279.487
280.516
280.307
280.143
280.018
279.924
279.825
279.689
279.489
279.529
278.374
280.376
280.153
279.971
279.814
279.672
279.505
279.28
278.928
278.756
277.201
280.333
280.101
279.904
279.719
279.534
279.303
278.995
278.501
278.101
276.123
280.285
280.043
279.828
279.615
279.391
279.105
278.72
278.094
277.451
275.051
280.295
280.047
279.824
279.596
279.352
279.037
278.606
277.88
277.001
274.154
280.24
280
279.77
279.523
279.245
278.889
278.4
277.573
276.444
273.198
280.912
280.674
280.475
280.289
280.103
279.868
279.519
278.823
277.632
273.903
281.687
281.555
281.487
281.464
281.489
281.581
281.777
282.164
282.778
283.651
281.155
281.003
280.914
280.887
280.923
281.043
281.289
281.775
282.624
283.667
280.772
280.631
280.552
280.539
280.595
280.729
280.979
281.453
282.35
283.448
280.565
280.422
280.346
280.325
280.363
280.464
280.666
281.074
281.947
283.049
280.363
280.218
280.141
280.105
280.117
280.177
280.327
280.662
281.486
282.569
280.263
280.122
280.043
279.994
279.982
280.004
280.104
280.366
281.122
282.153
280.161
280.022
279.939
279.875
279.84
279.828
279.882
280.074
280.748
281.71
280.129
279.998
279.917
279.85
279.808
279.781
279.806
279.94
280.518
281.364
280.043
279.929
279.847
279.769
279.706
279.653
279.644
279.718
280.183
280.908
280.666
280.579
280.53
280.509
280.522
280.562
280.649
280.797
281.206
281.612
281.887
281.757
281.699
281.691
281.735
281.843
282.033
282.343
282.831
283.527
281.394
281.23
281.143
281.13
281.185
281.324
281.588
282.055
282.85
283.877
281.039
280.877
280.794
280.785
280.852
281.007
281.298
281.818
282.766
284.041
280.821
280.654
280.572
280.558
280.612
280.746
281.014
281.522
282.552
284.033
280.608
280.439
280.357
280.33
280.363
280.466
280.699
281.175
282.252
283.899
280.497
280.332
280.248
280.208
280.221
280.292
280.488
280.922
282.017
283.781
280.384
280.222
280.134
280.081
280.073
280.115
280.273
280.66
281.745
283.593
280.34
280.187
280.101
280.045
280.03
280.056
280.187
280.527
281.574
283.454
280.241
280.106
280.022
279.957
279.927
279.933
280.034
280.319
281.296
283.212
280.835
280.727
280.668
280.645
280.671
280.743
280.908
281.232
282.145
283.926
281.999
281.887
281.842
281.842
281.888
281.985
282.14
282.364
282.681
283.126
281.574
281.413
281.334
281.329
281.39
281.526
281.761
282.146
282.747
283.468
281.264
281.097
281.016
281.013
281.086
281.243
281.523
281.989
282.752
283.702
281.049
280.873
280.793
280.787
280.854
281.006
281.287
281.778
282.658
283.823
280.833
280.655
280.574
280.559
280.612
280.747
281.016
281.511
282.483
283.845
280.716
280.54
280.458
280.432
280.47
280.583
280.834
281.32
282.363
283.893
280.596
280.422
280.337
280.299
280.321
280.411
280.638
281.106
282.196
283.869
280.542
280.377
280.293
280.253
280.268
280.346
280.555
280.997
282.101
283.876
280.432
280.287
280.205
280.158
280.161
280.225
280.415
280.824
281.895
283.767
280.996
280.877
280.813
280.796
280.838
280.945
281.177
281.612
282.642
284.479
282.041
281.951
281.917
281.92
281.957
282.03
282.138
282.281
282.47
282.754
281.695
281.547
281.476
281.473
281.528
281.642
281.829
282.118
282.55
283.057
281.444
281.281
281.205
281.204
281.272
281.414
281.653
282.029
282.603
283.278
281.244
281.07
280.993
280.992
281.062
281.212
281.471
281.892
282.579
283.431
281.038
280.858
280.781
280.774
280.838
280.983
281.25
281.699
282.49
283.518
280.922
280.742
280.663
280.648
280.702
280.837
281.104
281.571
282.455
283.65
280.8
280.621
280.539
280.514
280.556
280.677
280.936
281.409
282.372
283.724
280.739
280.569
280.487
280.46
280.497
280.61
280.862
281.331
282.342
283.824
280.622
280.471
280.392
280.36
280.388
280.491
280.733
281.192
282.204
283.807
281.156
281.03
280.964
280.952
281.007
281.139
281.407
281.888
282.886
284.512
282.039
281.968
281.944
281.947
281.974
282.023
282.093
282.181
282.296
282.503
281.772
281.64
281.577
281.572
281.615
281.703
281.841
282.053
282.37
282.765
281.581
281.429
281.358
281.357
281.415
281.532
281.722
282.011
282.435
282.942
281.403
281.238
281.167
281.168
281.234
281.368
281.588
281.925
282.44
283.07
281.214
281.042
280.97
280.968
281.034
281.175
281.416
281.793
282.4
283.163
281.105
280.931
280.857
280.85
280.912
281.053
281.307
281.719
282.418
283.318
280.986
280.811
280.734
280.719
280.774
280.91
281.17
281.606
282.391
283.429
280.924
280.755
280.678
280.661
280.713
280.846
281.11
281.56
282.409
283.569
280.803
280.651
280.578
280.557
280.603
280.73
280.992
281.449
282.321
283.592
281.308
281.181
281.116
281.109
281.173
281.319
281.6
282.077
282.954
284.261
282.014
281.959
281.942
281.944
281.961
281.993
282.035
282.088
282.161
282.328
281.819
281.7
281.643
281.637
281.667
281.73
281.829
281.984
282.23
282.566
281.681
281.543
281.478
281.475
281.52
281.611
281.755
281.971
282.292
282.702
281.528
281.377
281.313
281.314
281.371
281.482
281.658
281.918
282.301
282.79
281.361
281.202
281.137
281.138
281.2
281.325
281.528
281.83
282.284
282.864
281.264
281.101
281.034
281.032
281.095
281.229
281.455
281.797
282.33
283.011
281.152
280.986
280.917
280.909
280.969
281.105
281.347
281.724
282.337
283.125
281.092
280.93
280.86
280.851
280.911
281.049
281.302
281.705
282.382
283.271
280.97
280.825
280.757
280.746
280.802
280.939
281.197
281.616
282.325
283.294
281.449
281.326
281.264
281.262
281.33
281.48
281.753
282.193
282.919
283.912
281.983
281.938
281.926
281.927
281.938
281.956
281.982
282.013
282.062
282.208
281.847
281.738
281.687
281.678
281.698
281.741
281.811
281.928
282.131
282.44
281.755
281.629
281.57
281.564
281.597
281.664
281.769
281.932
282.185
282.542
281.624
281.488
281.431
281.432
281.477
281.565
281.699
281.894
282.184
282.588
281.48
281.337
281.281
281.283
281.336
281.441
281.603
281.836
282.174
282.633
281.398
281.25
281.191
281.192
281.251
281.369
281.558
281.831
282.23
282.757
281.296
281.144
281.082
281.08
281.139
281.265
281.476
281.787
282.251
282.856
281.242
281.092
281.029
281.026
281.087
281.22
281.448
281.789
282.311
282.988
281.122
280.987
280.926
280.922
280.982
281.116
281.353
281.716
282.269
282.992
281.577
281.462
281.405
281.406
281.474
281.619
281.869
282.253
282.827
283.551
281.954
281.916
281.907
281.907
281.914
281.925
281.939
281.958
281.994
282.127
281.866
281.764
281.717
281.706
281.718
281.747
281.797
281.889
282.068
282.364
281.809
281.694
281.641
281.632
281.655
281.702
281.778
281.902
282.112
282.44
281.697
281.576
281.526
281.525
281.559
281.625
281.724
281.869
282.096
282.448
281.576
281.45
281.401
281.403
281.447
281.53
281.654
281.828
282.083
282.465
281.508
281.378
281.328
281.331
281.381
281.48
281.631
281.84
282.137
282.559
281.417
281.283
281.23
281.23
281.285
281.394
281.569
281.815
282.161
282.633
281.372
281.238
281.184
281.184
281.242
281.362
281.556
281.832
282.224
282.744
281.256
281.135
281.082
281.082
281.141
281.264
281.471
281.77
282.189
282.72
281.688
281.586
281.535
281.539
281.603
281.735
281.954
282.273
282.711
283.222
281.932
281.899
281.893
281.892
281.896
281.902
281.911
281.923
281.951
282.074
281.883
281.785
281.74
281.728
281.735
281.754
281.791
281.868
282.032
282.324
281.852
281.745
281.696
281.686
281.7
281.733
281.788
281.885
282.067
282.38
281.754
281.645
281.602
281.599
281.624
281.671
281.742
281.85
282.034
282.355
281.652
281.543
281.502
281.503
281.537
281.6
281.692
281.819
282.014
282.347
281.598
281.487
281.445
281.448
281.489
281.567
281.683
281.839
282.06
282.412
281.518
281.402
281.358
281.36
281.407
281.498
281.636
281.824
282.079
282.458
281.484
281.368
281.322
281.325
281.376
281.478
281.636
281.852
282.141
282.544
281.373
281.267
281.223
281.225
281.279
281.387
281.558
281.796
282.104
282.493
281.784
281.696
281.652
281.657
281.715
281.83
282.013
282.268
282.592
282.943
281.921
281.892
281.887
281.886
281.888
281.892
281.897
281.905
281.928
282.042
281.901
281.806
281.763
281.75
281.753
281.766
281.795
281.862
282.017
282.309
281.888
281.787
281.743
281.732
281.74
281.762
281.802
281.881
282.045
282.35
281.798
281.701
281.664
281.66
281.677
281.71
281.76
281.84
281.995
282.299
281.714
281.62
281.587
281.587
281.612
281.657
281.723
281.815
281.968
282.269
281.673
281.578
281.544
281.547
281.579
281.639
281.724
281.838
282.003
282.306
281.602
281.504
281.468
281.471
281.509
281.581
281.687
281.825
282.013
282.325
281.579
281.482
281.445
281.448
281.492
281.574
281.698
281.861
282.071
282.39
281.474
281.385
281.349
281.352
281.398
281.488
281.624
281.806
282.028
282.314
281.864
281.791
281.755
281.76
281.81
281.906
282.053
282.249
282.483
282.718
281.921
281.895
281.891
281.89
281.891
281.894
281.897
281.902
281.921
282.026
281.922
281.829
281.788
281.775
281.776
281.785
281.808
281.869
282.017
282.31
281.922
281.827
281.786
281.774
281.779
281.793
281.823
281.888
282.039
282.341
281.836
281.749
281.716
281.712
281.723
281.745
281.78
281.841
281.975
282.266
281.767
281.686
281.659
281.658
281.676
281.708
281.753
281.82
281.942
282.22
281.735
281.656
281.63
281.631
281.655
281.699
281.76
281.841
281.966
282.234
281.672
281.591
281.563
281.565
281.595
281.649
281.727
281.827
281.964
282.228
281.662
281.583
281.553
281.557
281.591
281.656
281.749
281.868
282.018
282.276
281.56
281.487
281.459
281.462
281.5
281.571
281.676
281.81
281.967
282.179
281.93
281.873
281.844
281.849
281.89
281.966
282.08
282.226
282.39
282.544
281.933
281.91
281.906
281.905
281.906
281.907
281.909
281.913
281.929
282.025
281.947
281.856
281.817
281.805
281.804
281.81
281.83
281.885
282.027
282.321
281.956
281.865
281.828
281.817
281.819
281.829
281.851
281.907
282.046
282.345
281.869
281.792
281.764
281.759
281.766
281.78
281.804
281.851
281.968
282.251
281.814
281.745
281.723
281.722
281.734
281.756
281.786
281.833
281.933
282.194
281.79
281.725
281.704
281.705
281.722
281.753
281.795
281.851
281.947
282.188
281.732
281.667
281.645
281.647
281.669
281.709
281.764
281.834
281.933
282.161
281.736
281.672
281.65
281.653
281.68
281.728
281.796
281.88
281.986
282.198
281.635
281.577
281.555
281.558
281.588
281.642
281.72
281.816
281.924
282.084
281.986
281.942
281.92
281.924
281.956
282.015
282.1
282.205
282.318
282.416
281.955
281.936
281.933
281.932
281.932
281.933
281.934
281.937
281.95
282.035
281.974
281.887
281.851
281.839
281.838
281.843
281.859
281.909
282.044
282.338
281.991
281.907
281.874
281.864
281.864
281.87
281.887
281.934
282.063
282.357
281.903
281.833
281.81
281.805
281.809
281.818
281.835
281.871
281.973
282.246
281.859
281.801
281.784
281.783
281.79
281.804
281.824
281.857
281.939
282.182
281.84
281.787
281.772
281.772
281.784
281.805
281.833
281.871
281.944
282.161
281.786
281.734
281.718
281.719
281.735
281.763
281.801
281.848
281.92
282.117
281.804
281.754
281.738
281.74
281.76
281.795
281.842
281.9
281.974
282.15
281.7
281.656
281.64
281.642
281.665
281.704
281.76
281.826
281.899
282.021
282.033
282.001
281.985
281.989
282.013
282.056
282.117
282.19
282.266
282.327
281.989
281.973
281.971
281.97
281.971
281.971
281.972
281.974
281.985
282.058
282.005
281.922
281.89
281.88
281.878
281.882
281.895
281.939
282.065
282.357
282.03
281.953
281.925
281.916
281.916
281.92
281.932
281.971
282.087
282.374
281.937
281.877
281.858
281.854
281.856
281.861
281.872
281.899
281.987
282.246
281.905
281.857
281.844
281.842
281.847
281.856
281.868
281.891
281.956
282.181
281.889
281.847
281.835
281.836
281.843
281.857
281.875
281.9
281.955
282.149
281.837
281.797
281.785
281.786
281.797
281.816
281.841
281.872
281.923
282.092
281.869
281.832
281.82
281.822
281.835
281.86
281.892
281.93
281.982
282.126
281.76
281.726
281.715
281.717
281.732
281.76
281.799
281.843
281.892
281.985
282.075
282.053
282.042
282.044
282.062
282.093
282.135
282.184
282.234
282.271
282.035
282.025
282.024
282.023
282.023
282.023
282.024
282.026
282.034
282.094
282.039
281.963
281.935
281.927
281.925
281.928
281.938
281.975
282.089
282.373
282.075
282.007
281.984
281.978
281.977
281.979
281.987
282.018
282.118
282.392
281.976
281.925
281.91
281.907
281.908
281.911
281.918
281.937
282.009
282.249
281.955
281.915
281.905
281.904
281.907
281.912
281.92
281.935
281.985
282.186
281.939
281.906
281.898
281.898
281.903
281.911
281.923
281.939
281.979
282.146
281.888
281.858
281.85
281.85
281.857
281.87
281.886
281.906
281.941
282.082
281.935
281.907
281.898
281.899
281.909
281.925
281.947
281.972
282.007
282.122
281.814
281.789
281.781
281.782
281.793
281.812
281.838
281.867
281.899
281.97
282.117
282.102
282.094
282.096
282.108
282.129
282.158
282.19
282.222
282.244
282.104
282.098
282.098
282.097
282.097
282.097
282.097
282.098
282.103
282.15
282.076
282.01
281.988
281.981
281.98
281.981
281.989
282.018
282.114
282.383
282.128
282.072
282.054
282.049
282.049
282.05
282.055
282.077
282.158
282.409
282.022
281.981
281.97
281.968
281.968
281.97
281.974
281.987
282.042
282.253
282.008
281.978
281.97
281.97
281.971
281.974
281.979
281.989
282.026
282.195
281.992
281.966
281.96
281.96
281.963
281.969
281.976
281.987
282.015
282.152
281.941
281.919
281.913
281.913
281.918
281.926
281.937
281.949
281.973
282.084
282
281.979
281.973
281.974
281.98
281.991
282.006
282.022
282.046
282.134
281.862
281.843
281.838
281.838
281.846
281.859
281.876
281.895
281.916
281.969
282.163
282.153
282.147
282.148
282.157
282.171
282.191
282.212
282.233
282.245
282.195
282.205
282.205
282.204
282.204
282.204
282.204
282.205
282.208
282.24
282.116
282.062
282.047
282.042
282.041
282.042
282.047
282.067
282.141
282.38
282.191
282.147
282.135
282.132
282.131
282.132
282.136
282.151
282.21
282.422
282.079
282.048
282.04
282.039
282.039
282.041
282.044
282.053
282.09
282.26
282.069
282.046
282.04
282.039
282.041
282.044
282.048
282.055
282.08
282.211
282.048
282.028
282.024
282.023
282.025
282.03
282.036
282.044
282.064
282.166
281.998
281.981
281.977
281.977
281.98
281.986
281.994
282.004
282.02
282.1
282.061
282.045
282.04
282.04
282.045
282.053
282.064
282.076
282.094
282.157
281.901
281.888
281.883
281.883
281.888
281.898
281.91
281.923
281.938
281.976
282.228
282.221
282.215
282.216
282.222
282.232
282.246
282.26
282.276
282.283
282.365
282.365
282.365
282.364
282.364
282.364
282.365
282.366
282.368
282.386
282.154
282.116
282.106
282.103
282.103
282.105
282.109
282.121
282.17
282.355
282.263
282.232
282.223
282.22
282.22
282.222
282.227
282.239
282.277
282.433
282.152
282.13
282.124
282.123
282.124
282.127
282.131
282.14
282.165
282.281
282.141
282.123
282.118
282.116
282.118
282.121
282.128
282.137
282.156
282.243
282.113
282.097
282.092
282.091
282.093
282.098
282.105
282.115
282.132
282.199
282.063
282.05
282.045
282.044
282.047
282.052
282.061
282.071
282.086
282.137
282.113
282.1
282.095
282.094
282.097
282.104
282.114
282.126
282.144
282.186
281.928
281.917
281.913
281.913
281.916
281.924
281.934
281.945
281.958
281.984
282.33
282.323
282.319
282.318
282.322
282.33
282.341
282.353
282.367
282.374
282.575
282.566
282.564
282.563
282.563
282.564
282.566
282.57
282.574
282.584
282.189
282.166
282.16
282.158
282.158
282.162
282.169
282.18
282.206
282.312
282.344
282.32
282.311
282.307
282.307
282.312
282.321
282.337
282.365
282.454
282.247
282.23
282.223
282.22
282.221
282.226
282.235
282.249
282.271
282.334
282.23
282.214
282.207
282.204
282.206
282.211
282.221
282.235
282.256
282.308
282.196
282.181
282.174
282.172
282.174
282.179
282.189
282.204
282.224
282.267
282.146
282.133
282.127
282.126
282.128
282.134
282.143
282.157
282.175
282.21
282.164
282.15
282.144
282.142
282.144
282.151
282.161
282.176
282.197
282.23
281.95
281.941
281.937
281.936
281.939
281.945
281.955
281.967
281.98
281.999
282.472
282.464
282.459
282.458
282.461
282.468
282.478
282.489
282.504
282.514
291.293
292.945
293.299
291.975
292.56
294.617
295.138
293.752
293.943
296.478
297.129
295.488
294.896
297.867
298.644
296.822
295.549
298.925
299.863
298.165
296.086
299.841
300.965
299.507
296.5
300.621
301.95
300.762
296.878
301.332
302.876
302.011
297.013
301.787
303.555
303.057
297.534
302.547
304.606
304.625
287.871
288.373
288.385
287.949
289.116
289.738
289.752
289.236
290.507
291.287
291.263
290.551
291.674
292.59
292.507
291.603
292.62
293.672
293.563
292.494
293.457
294.639
294.529
293.316
294.127
295.429
295.324
293.977
294.716
296.116
296.023
294.565
295.048
296.505
296.429
294.894
295.699
297.135
297.158
295.655
284.218
284.352
284.403
284.369
285.099
285.318
285.393
285.325
286.109
286.46
286.547
286.371
287.075
287.551
287.639
287.334
287.973
288.567
288.648
288.208
288.891
289.596
289.669
289.098
289.71
290.517
290.58
289.885
290.503
291.394
291.448
290.649
291.095
292.013
292.059
291.203
292.084
292.928
293.013
292.234
283.391
283.465
283.497
283.49
283.866
283.953
284.008
284.031
284.49
284.654
284.727
284.716
285.117
285.364
285.451
285.39
285.733
286.067
286.161
286.033
286.435
286.854
286.949
286.744
287.098
287.597
287.691
287.401
287.793
288.359
288.447
288.074
288.361
288.947
289.024
288.59
289.381
289.882
289.974
289.593
282.878
282.929
282.95
282.941
283.193
283.23
283.265
283.296
283.595
283.672
283.722
283.744
283.999
284.126
284.192
284.198
284.406
284.591
284.67
284.649
284.915
285.162
285.251
285.193
285.407
285.716
285.811
285.707
285.952
286.316
286.411
286.255
286.393
286.777
286.863
286.66
287.282
287.578
287.672
287.52
282.616
282.666
282.683
282.664
282.862
282.891
282.917
282.938
283.138
283.19
283.224
283.239
283.395
283.475
283.52
283.531
283.66
283.774
283.831
283.832
284.027
284.18
284.248
284.235
284.381
284.577
284.654
284.621
284.788
285.025
285.106
285.046
285.094
285.346
285.422
285.331
285.827
285.992
286.071
286.038
282.451
282.506
282.52
282.493
282.673
282.703
282.726
282.737
282.871
282.916
282.943
282.949
283.033
283.094
283.126
283.13
283.205
283.287
283.327
283.326
283.475
283.581
283.63
283.622
283.731
283.865
283.921
283.905
284.034
284.194
284.256
284.227
284.221
284.392
284.451
284.4
284.813
284.894
284.954
284.97
282.349
282.409
282.423
282.389
282.573
282.61
282.631
282.634
282.719
282.766
282.79
282.788
282.811
282.868
282.894
282.89
282.919
282.988
283.018
283.01
283.119
283.203
283.238
283.225
283.304
283.405
283.446
283.428
283.529
283.647
283.692
283.666
283.618
283.743
283.785
283.745
284.096
284.125
284.166
284.199
282.286
282.352
282.364
282.324
282.527
282.57
282.591
282.588
282.637
282.688
282.711
282.703
282.677
282.734
282.758
282.747
282.736
282.801
282.826
282.811
282.881
282.956
282.983
282.964
283.01
283.096
283.126
283.102
283.176
283.272
283.304
283.274
283.192
283.291
283.32
283.279
283.576
283.573
283.599
283.636
282.249
282.32
282.332
282.286
282.515
282.565
282.587
282.579
282.599
282.655
282.678
282.665
282.6
282.661
282.683
282.667
282.622
282.688
282.711
282.69
282.723
282.796
282.819
282.793
282.806
282.886
282.91
282.879
282.926
283.012
283.036
283
282.886
282.97
282.99
282.946
283.192
283.171
283.187
283.222
282.231
282.305
282.317
282.265
282.526
282.582
282.604
282.592
282.591
282.652
282.674
282.658
282.561
282.626
282.648
282.628
282.557
282.625
282.646
282.621
282.621
282.694
282.715
282.684
282.666
282.744
282.764
282.727
282.75
282.831
282.85
282.808
282.665
282.742
282.756
282.708
282.906
282.876
282.884
282.917
282.225
282.302
282.313
282.258
282.552
282.613
282.636
282.62
282.602
282.667
282.691
282.671
282.549
282.618
282.64
282.616
282.524
282.596
282.617
282.586
282.559
282.634
282.653
282.617
282.571
282.65
282.667
282.625
282.628
282.707
282.723
282.676
282.506
282.58
282.59
282.538
282.694
282.659
282.664
282.694
282.228
282.308
282.318
282.259
282.586
282.652
282.675
282.656
282.626
282.696
282.719
282.697
282.554
282.627
282.649
282.621
282.515
282.59
282.61
282.575
282.525
282.603
282.621
282.579
282.51
282.59
282.605
282.557
282.547
282.626
282.639
282.587
282.395
282.466
282.474
282.42
282.54
282.503
282.505
282.533
282.238
282.319
282.328
282.268
282.624
282.695
282.719
282.697
282.658
282.732
282.755
282.73
282.568
282.646
282.668
282.635
282.52
282.6
282.619
282.578
282.51
282.591
282.607
282.56
282.472
282.553
282.566
282.514
282.496
282.576
282.587
282.53
282.319
282.388
282.395
282.339
282.431
282.395
282.396
282.42
282.254
282.335
282.343
282.282
282.664
282.739
282.763
282.737
282.694
282.772
282.795
282.766
282.588
282.669
282.691
282.652
282.534
282.617
282.634
282.588
282.507
282.59
282.604
282.551
282.448
282.53
282.542
282.485
282.467
282.546
282.555
282.496
282.269
282.336
282.341
282.284
282.358
282.324
282.324
282.347
282.278
282.356
282.364
282.303
282.7
282.779
282.803
282.773
282.732
282.813
282.836
282.801
282.607
282.692
282.712
282.668
282.55
282.634
282.65
282.598
282.507
282.591
282.604
282.546
282.433
282.514
282.524
282.463
282.452
282.529
282.537
282.475
282.235
282.299
282.303
282.247
282.316
282.286
282.285
282.305
282.313
282.387
282.395
282.336
282.729
282.812
282.835
282.799
282.766
282.85
282.871
282.83
282.621
282.708
282.725
282.674
282.561
282.646
282.659
282.601
282.505
282.588
282.598
282.536
282.419
282.497
282.505
282.442
282.443
282.517
282.523
282.461
282.209
282.27
282.274
282.22
282.303
282.277
282.277
282.293
282.375
282.442
282.448
282.395
282.74
282.825
282.846
282.803
282.788
282.874
282.893
282.844
282.625
282.711
282.725
282.667
282.562
282.644
282.654
282.593
282.495
282.573
282.581
282.518
282.401
282.474
282.48
282.418
282.431
282.499
282.503
282.445
282.183
282.238
282.241
282.192
282.327
282.308
282.308
282.32
282.485
282.54
282.545
282.501
282.714
282.798
282.814
282.764
282.786
282.869
282.883
282.828
282.613
282.692
282.702
282.643
282.55
282.624
282.631
282.572
282.476
282.545
282.55
282.493
282.382
282.444
282.448
282.394
282.408
282.466
282.47
282.42
282.146
282.192
282.195
282.155
282.406
282.395
282.395
282.403
282.642
282.678
282.681
282.654
282.617
282.69
282.701
282.65
282.741
282.811
282.82
282.77
282.584
282.647
282.653
282.604
282.529
282.586
282.591
282.545
282.46
282.512
282.516
282.474
282.375
282.421
282.424
282.387
282.385
282.429
282.433
282.398
282.102
282.135
282.137
282.111
282.54
282.54
282.541
282.542
284.995
283.761
283.121
282.742
282.444
282.203
282.009
281.848
281.708
281.579
285.608
284.344
283.353
282.734
282.243
281.878
281.605
281.393
281.225
281.098
286.06
284.678
283.433
282.706
282.119
281.695
281.372
281.119
280.922
280.779
286.316
284.884
283.419
282.648
282.024
281.6
281.278
281.027
280.828
280.672
286.48
284.999
283.327
282.532
281.88
281.466
281.15
280.908
280.714
280.556
286.741
285.192
283.329
282.523
281.841
281.436
281.123
280.886
280.694
280.531
286.959
285.333
283.293
282.487
281.78
281.383
281.072
280.842
280.654
280.495
287.289
285.594
283.383
282.579
281.838
281.442
281.122
280.886
280.691
280.518
287.458
285.723
283.351
282.582
281.815
281.42
281.076
280.829
280.629
280.456
288.899
287.183
284.671
283.844
282.953
282.438
281.983
281.647
281.383
281.162
286.093
284.87
283.932
283.27
282.818
282.499
282.263
282.08
281.929
281.793
286.86
285.218
283.926
283.064
282.481
282.074
281.78
281.559
281.387
281.262
287.341
285.323
283.787
282.847
282.206
281.757
281.431
281.187
281.004
280.877
287.575
285.267
283.562
282.607
281.957
281.523
281.212
280.983
280.811
280.686
287.604
285.085
283.26
282.312
281.666
281.258
280.97
280.764
280.609
280.492
287.611
284.954
283.041
282.123
281.483
281.102
280.836
280.649
280.508
280.397
287.503
284.766
282.784
281.911
281.281
280.932
280.686
280.519
280.395
280.294
287.423
284.668
282.632
281.815
281.193
280.872
280.639
280.484
280.365
280.264
287.19
284.443
282.365
281.639
281.039
280.753
280.523
280.374
280.263
280.17
287.868
285.274
283.207
282.527
281.877
281.538
281.247
281.052
280.907
280.804
284.202
283.79
283.41
283.092
282.829
282.608
282.423
282.266
282.125
281.994
284.964
284.313
283.667
283.122
282.683
282.337
282.066
281.847
281.667
281.528
285.623
284.661
283.78
283.081
282.531
282.107
281.78
281.526
281.325
281.178
286.123
284.861
283.774
282.972
282.365
281.919
281.586
281.331
281.131
280.979
286.455
284.921
283.654
282.779
282.138
281.687
281.359
281.115
280.924
280.775
286.765
285.001
283.581
282.658
281.996
281.549
281.229
280.996
280.815
280.67
286.949
284.995
283.446
282.499
281.824
281.389
281.082
280.862
280.693
280.556
287.124
285.028
283.372
282.42
281.741
281.321
281.023
280.813
280.649
280.514
287.117
284.905
283.165
282.246
281.581
281.183
280.89
280.685
280.53
280.403
287.855
285.666
283.901
283
282.303
281.87
281.536
281.3
281.125
280.999
283.47
283.251
283.044
282.863
282.701
282.556
282.427
282.31
282.199
282.089
284.019
283.716
283.331
282.97
282.659
282.402
282.187
282.004
281.842
281.711
284.566
284.072
283.517
283.018
282.599
282.257
281.98
281.753
281.564
281.417
285.055
284.341
283.614
283.005
282.514
282.13
281.827
281.585
281.386
281.226
285.455
284.508
283.613
282.908
282.361
281.949
281.633
281.387
281.187
281.024
285.88
284.706
283.651
282.866
282.275
281.844
281.522
281.276
281.078
280.915
286.211
284.821
283.621
282.773
282.149
281.709
281.386
281.144
280.953
280.794
286.537
284.954
283.625
282.736
282.089
281.647
281.325
281.087
280.899
280.741
286.681
284.923
283.49
282.592
281.941
281.505
281.182
280.947
280.767
280.618
287.452
285.64
284.166
283.26
282.579
282.116
281.765
281.509
281.316
281.179
282.941
282.803
282.691
282.598
282.511
282.429
282.349
282.273
282.194
282.107
283.345
283.188
282.96
282.736
282.537
282.364
282.21
282.07
281.938
281.824
283.739
283.486
283.154
282.83
282.541
282.293
282.081
281.896
281.733
281.596
284.119
283.737
283.29
282.876
282.519
282.221
281.973
281.763
281.582
281.427
284.462
283.929
283.355
282.852
282.433
282.093
281.819
281.594
281.402
281.238
284.869
284.173
283.468
282.88
282.404
282.03
281.736
281.5
281.303
281.133
285.217
284.352
283.517
282.852
282.328
281.929
281.621
281.38
281.182
281.013
285.575
284.544
283.588
282.861
282.299
281.883
281.566
281.322
281.123
280.954
285.757
284.57
283.514
282.752
282.169
281.745
281.421
281.176
280.984
280.823
286.498
285.253
284.15
283.36
282.746
282.297
281.953
281.692
281.493
281.349
282.647
282.528
282.451
282.397
282.349
282.302
282.256
282.207
282.153
282.085
282.971
282.855
282.696
282.545
282.414
282.298
282.192
282.089
281.986
281.889
283.242
283.076
282.858
282.643
282.448
282.276
282.122
281.98
281.846
281.725
283.502
283.268
282.98
282.703
282.455
282.238
282.048
281.879
281.722
281.58
283.755
283.432
283.062
282.716
282.412
282.152
281.931
281.739
281.567
281.412
284.092
283.667
283.204
282.785
282.426
282.125
281.875
281.665
281.482
281.318
284.397
283.857
283.294
282.803
282.392
282.057
281.785
281.562
281.371
281.204
284.724
284.065
283.403
282.849
282.393
282.031
281.741
281.509
281.314
281.144
284.879
284.106
283.366
282.768
282.281
281.901
281.599
281.363
281.172
281.009
285.551
284.75
283.967
283.332
282.813
282.41
282.09
281.841
281.646
281.503
282.456
282.344
282.283
282.249
282.222
282.195
282.168
282.138
282.1
282.046
282.748
282.643
282.517
282.407
282.316
282.238
282.165
282.09
282.008
281.925
282.937
282.804
282.644
282.494
282.361
282.243
282.134
282.028
281.92
281.815
283.1
282.929
282.73
282.542
282.373
282.221
282.081
281.949
281.82
281.694
283.269
283.047
282.798
282.563
282.35
282.16
281.99
281.835
281.689
281.549
283.531
283.247
282.938
282.648
282.387
282.158
281.958
281.781
281.62
281.468
283.771
283.416
283.038
282.69
282.381
282.115
281.889
281.694
281.522
281.364
284.04
283.608
283.159
282.756
282.404
282.107
281.859
281.651
281.471
281.308
284.136
283.637
283.136
282.692
282.308
281.988
281.724
281.508
281.329
281.173
284.723
284.233
283.701
283.221
282.805
282.462
282.181
281.955
281.773
281.638
282.332
282.221
282.169
282.144
282.128
282.113
282.097
282.079
282.051
282.006
282.624
282.519
282.408
282.319
282.251
282.196
282.145
282.088
282.021
281.948
282.757
282.634
282.504
282.392
282.298
282.216
282.138
282.058
281.971
281.88
282.847
282.7
282.549
282.415
282.298
282.192
282.092
281.992
281.887
281.777
282.947
282.77
282.59
282.426
282.279
282.143
282.017
281.897
281.776
281.653
283.139
282.925
282.708
282.507
282.323
282.154
282.001
281.859
281.722
281.587
283.315
283.058
282.797
282.554
282.33
282.128
281.948
281.787
281.637
281.494
283.522
283.219
282.912
282.626
282.365
282.133
281.93
281.753
281.594
281.445
283.553
283.222
282.887
282.57
282.279
282.023
281.803
281.616
281.457
281.313
284.055
283.763
283.412
283.065
282.746
282.469
282.232
282.036
281.874
281.753
282.249
282.138
282.092
282.073
282.063
282.054
282.045
282.033
282.012
281.972
282.559
282.45
282.348
282.271
282.217
282.175
282.137
282.091
282.034
281.966
282.656
282.535
282.42
282.329
282.259
282.2
282.144
282.083
282.011
281.929
282.689
282.551
282.425
282.323
282.24
282.166
282.095
282.019
281.934
281.839
282.737
282.578
282.436
282.317
282.214
282.119
282.028
281.936
281.839
281.733
282.87
282.688
282.525
282.383
282.254
282.133
282.019
281.909
281.797
281.68
282.988
282.78
282.592
282.421
282.263
282.114
281.976
281.848
281.723
281.598
283.138
282.905
282.691
282.491
282.302
282.128
281.968
281.824
281.69
281.558
283.112
282.877
282.654
282.434
282.22
282.024
281.848
281.694
281.557
281.431
283.535
283.364
283.137
282.894