/*--------------------------------*- C++ -*----------------------------------*\
| =========                 |                                                 |
| \\      /  F ield         | foam-extend: Open Source CFD                    |
|  \\    /   O peration     | Version:     4.0                                |
|   \\  /    A nd           | Web:         http://www.foam-extend.org         |
|    \\/     M anipulation  |                                                 |
\*---------------------------------------------------------------------------*/
FoamFile
{
    version     2.0;
    format      ascii;
    class       volVectorField;
    location    "400";
    object      U;
}
// * * * * * * * * * * * * * * * * * * * * * * * * * * * * * * * * * * * * * //

dimensions      [0 1 -1 0 0 0 0];

internalField   nonuniform List<vector> 
34480
(
(195.591 2.92176 3.29395)
(196.206 2.01417 1.77912)
(196.61 1.25025 0.174212)
(196.884 0.62605 -1.56222)
(197.038 0.114366 -3.56972)
(197.039 -0.268441 -6.03124)
(196.81 -0.483945 -9.352)
(196.049 -0.399211 -13.8568)
(193.707 0.216775 -21.6383)
(187.165 2.80326 -48.6287)
(196.397 3.92616 2.70704)
(197.052 3.14222 1.07065)
(197.509 2.42721 -0.568873)
(197.74 1.80317 -2.28644)
(197.734 1.24023 -4.20196)
(197.473 0.740781 -6.51863)
(196.902 0.304166 -9.69408)
(195.686 0.00770065 -14.461)
(192.395 0.0138235 -22.8539)
(184.744 1.9652 -53.4915)
(198.284 3.09249 3.29391)
(198.864 2.23881 1.54378)
(199.22 1.48642 -0.234142)
(199.31 0.88713 -2.04153)
(199.132 0.385894 -3.99459)
(198.761 -0.0378588 -6.32908)
(198.207 -0.407968 -9.57419)
(197.167 -0.63703 -14.7968)
(193.797 -0.549609 -23.953)
(185.351 1.65039 -57.5027)
(199.202 3.25619 3.40754)
(199.783 2.48408 1.63885)
(200.119 1.80806 -0.167497)
(200.241 1.2893 -2.00192)
(200.16 0.86227 -3.9935)
(199.977 0.501856 -6.40111)
(199.692 0.171526 -9.76152)
(199.045 -0.0309206 -15.3914)
(195.901 0.0800667 -25.2449)
(186.833 2.39112 -60.7815)
(200.137 2.51135 3.98033)
(200.725 1.70271 2.23727)
(201.072 1.0077 0.388272)
(201.275 0.48761 -1.49559)
(201.337 0.0576366 -3.57583)
(201.367 -0.303067 -6.12404)
(201.344 -0.623739 -9.67189)
(201.068 -0.79396 -15.7353)
(198.244 -0.607353 -26.352)
(188.674 1.85576 -63.4847)
(200.574 3.03419 3.82332)
(201.141 2.28675 2.1359)
(201.494 1.63552 0.358846)
(201.764 1.14432 -1.47084)
(201.949 0.743632 -3.51864)
(202.17 0.412545 -6.07888)
(202.388 0.125714 -9.66645)
(202.454 -0.00232806 -15.9647)
(200.049 0.255985 -27.1433)
(190.201 2.7888 -65.4944)
(201.034 2.17265 4.33404)
(201.597 1.35985 2.69664)
(201.974 0.654517 0.917017)
(202.319 0.105837 -0.91924)
(202.62 -0.358165 -3.0131)
(203.001 -0.750602 -5.65885)
(203.426 -1.06663 -9.37144)
(203.799 -1.17776 -15.9436)
(201.857 -0.773034 -27.7534)
(191.816 1.97749 -67.1508)
(201.163 2.95064 3.8388)
(201.682 2.15128 2.27181)
(202.043 1.47247 0.610309)
(202.393 0.935671 -1.13776)
(202.718 0.503546 -3.14065)
(203.143 0.141988 -5.69986)
(203.667 -0.130862 -9.31051)
(204.255 -0.18346 -15.8384)
(202.825 0.423017 -27.8999)
(192.885 3.34928 -67.8823)
(201.629 1.71718 4.22311)
(202.079 0.817707 2.74135)
(202.451 0.028643 1.16339)
(202.873 -0.665566 -0.509707)
(203.316 -1.29686 -2.49307)
(203.857 -1.87305 -5.08654)
(204.503 -2.3154 -8.81801)
(205.291 -2.45214 -15.5071)
(204.317 -1.55621 -28.0419)
(194.33 2.11822 -68.1272)
(201.168 2.59367 3.57195)
(201.465 1.58714 2.0403)
(201.593 0.775229 0.493487)
(201.61 0.0647579 -1.17037)
(201.503 -0.523705 -3.10413)
(201.353 -0.996729 -5.60065)
(201.216 -1.25012 -9.12691)
(201.287 -1.0604 -15.3217)
(200.338 0.325276 -27.1262)
(191.678 4.96584 -65.6105)
(193.956 2.52949 2.91365)
(194.664 1.78277 1.64388)
(195.029 1.1269 0.252779)
(195.146 0.590701 -1.21582)
(194.999 0.154772 -2.82504)
(194.489 -0.172049 -4.59708)
(193.413 -0.384764 -6.59721)
(191.306 -0.484507 -8.81045)
(187.985 -0.537737 -10.8559)
(183.229 -0.318269 -14.3752)
(194.846 3.5542 2.55213)
(195.649 2.89277 1.08532)
(196.12 2.26675 -0.403102)
(196.259 1.7096 -1.94696)
(196.055 1.19405 -3.61716)
(195.409 0.724048 -5.46811)
(194.083 0.290944 -7.61241)
(191.463 -0.124849 -10.3236)
(186.889 -0.633105 -13.2316)
(180.947 -0.661609 -20.5271)
(196.758 2.84436 3.24287)
(197.511 2.07517 1.61627)
(197.929 1.37533 -0.0604866)
(198 0.80209 -1.77236)
(197.702 0.304571 -3.58511)
(196.986 -0.126452 -5.57563)
(195.647 -0.519375 -7.9512)
(193.063 -0.87304 -11.2941)
(188.193 -1.28201 -15.3271)
(181.576 -0.913945 -26.4284)
(197.801 3.10072 3.39857)
(198.564 2.39296 1.72069)
(198.968 1.74911 -0.00848497)
(199.076 1.23505 -1.77455)
(198.87 0.78863 -3.66221)
(198.325 0.400781 -5.78906)
(197.228 0.0358399 -8.39106)
(194.965 -0.282245 -12.3003)
(190.15 -0.636788 -17.3591)
(182.982 0.0571386 -32.0263)
(198.824 2.4059 3.99675)
(199.592 1.64332 2.32014)
(200.004 0.968755 0.528492)
(200.189 0.449642 -1.30551)
(200.117 0.00479087 -3.30431)
(199.777 -0.373467 -5.61442)
(198.943 -0.723557 -8.4782)
(197.033 -1.00027 -12.9424)
(192.398 -1.26456 -19.0178)
(184.729 -0.190216 -37.1208)
(199.321 2.98395 3.84971)
(200.069 2.26874 2.20862)
(200.489 1.62977 0.477772)
(200.742 1.13403 -1.31156)
(200.791 0.713174 -3.28666)
(200.646 0.360082 -5.63756)
(200.064 0.0419861 -8.60077)
(198.512 -0.184794 -13.4148)
(194.169 -0.350621 -20.2605)
(186.153 1.03657 -41.5225)
(199.834 2.14492 4.36213)
(200.571 1.35418 2.75982)
(201.013 0.660938 1.01552)
(201.342 0.117855 -0.786276)
(201.506 -0.343476 -2.81506)
(201.532 -0.72856 -5.27316)
(201.179 -1.05407 -8.40506)
(199.969 -1.25506 -13.5815)
(195.994 -1.26892 -21.2267)
(187.713 0.512479 -45.4512)
(200.002 2.96345 3.86703)
(200.695 2.18289 2.32871)
(201.125 1.51598 0.707437)
(201.464 0.984968 -0.998842)
(201.664 0.557604 -2.92902)
(201.766 0.206226 -5.31562)
(201.558 -0.0697928 -8.39521)
(200.636 -0.216558 -13.6376)
(197.118 -0.0101506 -21.7195)
(188.839 2.00693 -48.4078)
(200.53 1.73297 4.26951)
(201.135 0.850401 2.80264)
(201.564 0.0942239 1.24584)
(201.959 -0.550854 -0.38662)
(202.262 -1.11373 -2.28681)
(202.49 -1.60591 -4.7013)
(202.451 -1.97607 -7.92881)
(201.82 -2.15996 -13.4159)
(198.798 -1.65873 -22.2046)
(190.433 0.953021 -50.7511)
(200.113 2.65408 3.60671)
(200.588 1.67733 2.12343)
(200.849 0.915241 0.638327)
(200.958 0.259259 -0.949094)
(200.877 -0.262759 -2.75761)
(200.634 -0.669856 -5.04565)
(200.091 -0.884801 -8.09325)
(199.067 -0.782658 -13.2373)
(196.243 0.180261 -21.8437)
(188.913 3.9283 -50.8493)
(192.879 1.93192 2.1944)
(193.572 1.37736 1.21715)
(193.885 0.868742 0.108039)
(193.923 0.446359 -1.0449)
(193.683 0.0968705 -2.27063)
(193.102 -0.169532 -3.52041)
(192.078 -0.356332 -4.75295)
(190.42 -0.483129 -5.82586)
(187.814 -0.62935 -6.38851)
(184.065 -0.753804 -6.61632)
(193.622 2.94547 2.03805)
(194.486 2.43841 0.818481)
(194.938 1.9333 -0.436881)
(195.005 1.46786 -1.72858)
(194.705 1.02192 -3.09399)
(193.963 0.594247 -4.53525)
(192.564 0.174829 -6.02672)
(190.081 -0.257342 -7.51775)
(185.852 -0.803373 -8.45913)
(180.238 -1.27855 -9.9329)
(195.406 2.37109 2.85245)
(196.258 1.72759 1.42952)
(196.693 1.11963 -0.0609821)
(196.732 0.60392 -1.58715)
(196.376 0.134443 -3.19636)
(195.55 -0.297538 -4.90295)
(194.007 -0.715594 -6.73057)
(191.231 -1.13298 -8.80941)
(186.172 -1.6758 -10.4881)
(179.093 -2.03164 -13.6152)
(196.514 2.75656 3.05623)
(197.39 2.14906 1.53696)
(197.816 1.57119 -0.0439669)
(197.887 1.08853 -1.66534)
(197.596 0.645747 -3.39876)
(196.878 0.23552 -5.30143)
(195.449 -0.175559 -7.43342)
(192.721 -0.588383 -10.1015)
(187.19 -1.14845 -12.5699)
(178.854 -1.39412 -17.5519)
(197.599 2.13425 3.69795)
(198.483 1.45139 2.13763)
(198.914 0.827099 0.459866)
(199.051 0.32844 -1.26338)
(198.867 -0.118291 -3.14459)
(198.306 -0.518243 -5.27632)
(197.05 -0.910118 -7.74347)
(194.468 -1.28345 -11.0316)
(188.649 -1.80261 -14.3925)
(179.222 -1.85513 -21.5013)
(198.156 2.79058 3.57276)
(199.02 2.13495 2.01896)
(199.461 1.53317 0.378319)
(199.661 1.05028 -1.32555)
(199.583 0.623046 -3.20965)
(199.182 0.245529 -5.41814)
(198.116 -0.118327 -8.05128)
(195.735 -0.449135 -11.7817)
(189.787 -0.904625 -15.8904)
(179.475 -0.77263 -25.1919)
(198.725 1.98728 4.10651)
(199.575 1.24383 2.56755)
(200.035 0.583239 0.893673)
(200.306 0.0557992 -0.842733)
(200.332 -0.401728 -2.80033)
(200.084 -0.792854 -5.14484)
(199.205 -1.14001 -8.00403)
(197.051 -1.41985 -12.1972)
(191.108 -1.74139 -17.1313)
(180.052 -1.32855 -28.7216)
(198.95 2.85841 3.6145)
(199.753 2.11871 2.13162)
(200.203 1.48054 0.574858)
(200.487 0.965668 -1.07137)
(200.55 0.544011 -2.93662)
(200.379 0.193264 -5.22668)
(199.638 -0.0964807 -8.08446)
(197.716 -0.313391 -12.4657)
(191.939 -0.42649 -17.9514)
(180.382 0.142286 -31.591)
(199.542 1.62203 4.04298)
(200.248 0.775996 2.61473)
(200.689 0.0589941 1.09684)
(201.015 -0.54218 -0.499028)
(201.155 -1.0557 -2.34681)
(201.087 -1.48952 -4.66234)
(200.499 -1.80409 -7.67684)
(198.844 -1.97246 -12.3893)
(193.384 -1.74367 -18.719)
(181.267 -0.735561 -33.9395)
(199.188 2.58299 3.35926)
(199.766 1.65912 1.94949)
(200.08 0.950886 0.5317)
(200.193 0.350505 -0.992481)
(200.051 -0.113724 -2.7285)
(199.642 -0.458297 -4.90569)
(198.71 -0.618113 -7.74652)
(196.828 -0.501742 -12.2079)
(191.58 0.201754 -18.6543)
(179.725 2.26992 -34.4819)
(192.243 1.35747 1.54233)
(192.84 0.981745 0.855357)
(193.084 0.615777 0.0376108)
(193.079 0.304531 -0.796591)
(192.833 0.039185 -1.65661)
(192.317 -0.169408 -2.46269)
(191.491 -0.329282 -3.15219)
(190.296 -0.460039 -3.59065)
(188.614 -0.612178 -3.55515)
(186.238 -0.811616 -2.81195)
(192.694 2.30154 1.5127)
(193.535 1.95215 0.564935)
(193.948 1.57439 -0.426506)
(193.974 1.20845 -1.43463)
(193.646 0.843791 -2.46393)
(192.928 0.478509 -3.48278)
(191.687 0.102232 -4.42239)
(189.66 -0.302423 -5.14665)
(186.482 -0.793724 -5.21991)
(182.613 -1.34709 -4.60831)
(194.248 1.8265 2.39379)
(195.125 1.32528 1.21468)
(195.549 0.826184 -0.0439508)
(195.558 0.386075 -1.32703)
(195.173 -0.0325016 -2.65713)
(194.339 -0.438482 -4.01387)
(192.865 -0.851298 -5.33851)
(190.4 -1.28324 -6.54711)
(186.355 -1.82691 -7.02266)
(181.227 -2.40077 -6.91548)
(195.351 2.34062 2.62695)
(196.27 1.85433 1.31085)
(196.69 1.36205 -0.0743224)
(196.716 0.930456 -1.49114)
(196.358 0.515517 -2.98688)
(195.552 0.109869 -4.57742)
(194.062 -0.317798 -6.22967)
(191.455 -0.777772 -7.95377)
(186.784 -1.39789 -8.92822)
(180.463 -2.00388 -9.57231)
(196.452 1.79682 3.31008)
(197.387 1.21602 1.90904)
(197.81 0.661159 0.38963)
(197.886 0.199749 -1.16698)
(197.598 -0.229984 -2.849)
(196.88 -0.632947 -4.70465)
(195.448 -1.04623 -6.72721)
(192.804 -1.47703 -9.04503)
(187.621 -2.09908 -10.6801)
(180.185 -2.65858 -12.4057)
(197.045 2.53583 3.2101)
(197.967 1.96192 1.78403)
(198.398 1.41498 0.273141)
(198.528 0.96044 -1.29473)
(198.319 0.544644 -3.01316)
(197.71 0.160686 -4.98035)
(196.372 -0.230354 -7.21108)
(193.761 -0.633307 -9.97954)
(188.178 -1.23769 -12.2017)
(179.751 -1.74475 -15.1635)
(197.656 1.77631 3.77168)
(198.565 1.10126 2.33236)
(199.012 0.488772 0.76392)
(199.205 -0.0112088 -0.862969)
(199.081 -0.453528 -2.68178)
(198.588 -0.841953 -4.81559)
(197.364 -1.20364 -7.31471)
(194.833 -1.54078 -10.5775)
(188.969 -2.03489 -13.515)
(179.651 -2.38635 -17.9351)
(197.932 2.70895 3.29039)
(198.795 2.02977 1.89608)
(199.234 1.4335 0.433438)
(199.44 0.944863 -1.11617)
(199.35 0.53774 -2.85914)
(198.918 0.193892 -4.96069)
(197.788 -0.104982 -7.49602)
(195.378 -0.376498 -11.0038)
(189.415 -0.697749 -14.4673)
(179.398 -0.988148 -20.2749)
(198.578 1.47323 3.76429)
(199.337 0.682382 2.40741)
(199.763 0.012067 0.956514)
(200.001 -0.543913 -0.570334)
(199.972 -1.01221 -2.32067)
(199.618 -1.39697 -4.46145)
(198.585 -1.67238 -7.14602)
(196.343 -1.84124 -10.99)
(190.51 -1.80541 -15.3228)
(179.798 -1.77756 -22.2701)
(198.292 2.48759 3.06943)
(198.926 1.63021 1.75661)
(199.259 0.979681 0.4249)
(199.346 0.43425 -1.01272)
(199.122 0.0230936 -2.64228)
(198.538 -0.267934 -4.64899)
(197.279 -0.387163 -7.18234)
(194.866 -0.271639 -10.8384)
(189.144 0.233175 -15.4032)
(178.325 1.21254 -22.8075)
(191.964 0.876148 1.03819)
(192.446 0.634675 0.584983)
(192.628 0.384259 0.0144208)
(192.611 0.165981 -0.553526)
(192.413 -0.0281024 -1.12648)
(192.029 -0.186575 -1.62388)
(191.456 -0.316478 -1.99883)
(190.693 -0.430827 -2.15995)
(189.686 -0.550297 -2.00838)
(188.173 -0.690482 -1.43627)
(192.059 1.70932 1.05052)
(192.834 1.49215 0.35392)
(193.205 1.22876 -0.385224)
(193.221 0.955911 -1.1276)
(192.931 0.670823 -1.85783)
(192.331 0.37404 -2.52966)
(191.35 0.0601293 -3.07342)
(189.832 -0.278623 -3.36735)
(187.555 -0.662752 -3.18691)
(184.852 -1.10952 -2.39324)
(193.317 1.28498 1.94297)
(194.169 0.918156 1.01108)
(194.571 0.527152 -0.00645118)
(194.572 0.166535 -1.03684)
(194.211 -0.191311 -2.07878)
(193.463 -0.552705 -3.08986)
(192.207 -0.931941 -3.98963)
(190.226 -1.33426 -4.63995)
(187.197 -1.80365 -4.64276)
(183.577 -2.32251 -3.83345)
(194.347 1.90425 2.17598)
(195.259 1.54239 1.08162)
(195.661 1.14257 -0.086399)
(195.664 0.771625 -1.27492)
(195.291 0.39889 -2.50271)
(194.502 0.0191687 -3.75166)
(193.134 -0.394629 -4.94913)
(190.91 -0.853224 -5.98506)
(187.28 -1.4355 -6.24904)
(182.712 -2.05488 -5.58359)
(195.408 1.42922 2.88513)
(196.347 0.960467 1.67016)
(196.753 0.48542 0.336371)
(196.789 0.0718848 -1.02351)
(196.449 -0.327575 -2.46579)
(195.679 -0.71643 -3.99597)
(194.267 -1.12815 -5.55667)
(191.882 -1.57631 -7.09715)
(187.691 -2.19318 -7.79955)
(182.164 -2.84978 -7.55231)
(195.999 2.2435 2.80507)
(196.938 1.76504 1.53681)
(197.353 1.28465 0.184208)
(197.429 0.869177 -1.21526)
(197.139 0.477212 -2.72355)
(196.42 0.102284 -4.38883)
(195.009 -0.294683 -6.16907)
(192.525 -0.73154 -8.10863)
(187.823 -1.37163 -9.20877)
(181.368 -2.06966 -9.50636)
(196.625 1.52774 3.39292)
(197.557 0.937092 2.08403)
(197.986 0.384497 0.649016)
(198.115 -0.0784974 -0.836081)
(197.888 -0.49629 -2.47138)
(197.24 -0.872499 -4.32853)
(195.864 -1.23708 -6.39745)
(193.332 -1.6071 -8.80873)
(188.196 -2.16357 -10.4653)
(180.85 -2.80034 -11.5449)
(196.934 2.52398 2.92483)
(197.826 1.92165 1.64775)
(198.25 1.37876 0.304562)
(198.392 0.925621 -1.11928)
(198.191 0.541863 -2.69946)
(197.583 0.2127 -4.54883)
(196.243 -0.0862387 -6.67872)
(193.723 -0.39059 -9.33914)
(188.313 -0.817964 -11.4158)
(180.204 -1.47262 -13.2828)
(197.617 1.28881 3.44848)
(198.407 0.569533 2.1911)
(198.815 -0.0457781 0.832697)
(198.981 -0.553121 -0.595731)
(198.825 -0.976424 -2.212)
(198.274 -1.31714 -4.12714)
(196.988 -1.56158 -6.41462)
(194.519 -1.7332 -9.37268)
(189.072 -1.82224 -12.2074)
(180.235 -2.24385 -14.7986)
(197.393 2.36912 2.74325)
(198.059 1.59024 1.54714)
(198.401 1.00223 0.319517)
(198.463 0.512691 -1.00957)
(198.175 0.152112 -2.50323)
(197.468 -0.0909978 -4.29652)
(196.031 -0.178848 -6.46439)
(193.42 -0.0724629 -9.2984)
(187.97 0.280404 -12.3376)
(178.841 0.671427 -15.1498)
(191.907 0.502693 0.687228)
(192.286 0.351407 0.404623)
(192.416 0.184808 0.0209108)
(192.401 0.0371504 -0.347985)
(192.259 -0.100781 -0.716764)
(191.999 -0.217506 -1.0153)
(191.629 -0.317722 -1.21739)
(191.161 -0.408099 -1.26747)
(190.546 -0.493489 -1.12759)
(189.44 -0.58167 -0.753865)
(191.654 1.21313 0.682117)
(192.35 1.09411 0.194298)
(192.68 0.92334 -0.328614)
(192.701 0.730269 -0.846934)
(192.475 0.516938 -1.33814)
(192.017 0.286038 -1.75716)
(191.29 0.0377586 -2.0488)
(190.182 -0.226813 -2.12646)
(188.511 -0.506075 -1.89447)
(186.414 -0.832091 -1.24045)
(192.607 0.796862 1.54344)
(193.402 0.541809 0.835481)
(193.773 0.247237 0.0430866)
(193.779 -0.0380314 -0.753588)
(193.472 -0.333171 -1.53787)
(192.854 -0.640647 -2.25899)
(191.857 -0.968504 -2.84201)
(190.342 -1.315 -3.16501)
(188.103 -1.69024 -3.00931)
(185.396 -2.09916 -2.19029)
(193.525 1.48836 1.74405)
(194.389 1.23956 0.866825)
(194.762 0.929304 -0.0833779)
(194.755 0.621907 -1.04436)
(194.407 0.299089 -2.012)
(193.701 -0.0405196 -2.94711)
(192.543 -0.416656 -3.76857)
(190.767 -0.836889 -4.34402)
(188.053 -1.33831 -4.29514)
(184.69 -1.87084 -3.36218)
(194.504 1.06254 2.45658)
(195.406 0.703339 1.4364)
(195.782 0.310871 0.300193)
(195.79 -0.0486641 -0.851652)
(195.441 -0.408537 -2.04609)
(194.7 -0.769463 -3.25662)
(193.428 -1.15843 -4.40369)
(191.431 -1.58889 -5.36943)
(188.225 -2.14533 -5.59563)
(184.151 -2.75123 -4.74617)
(195.061 1.93578 2.38465)
(195.974 1.55647 1.29082)
(196.361 1.14872 0.11426)
(196.397 0.77972 -1.09841)
(196.068 0.420813 -2.3781)
(195.324 0.06751 -3.73061)
(193.98 -0.314739 -5.08068)
(191.801 -0.748557 -6.35853)
(188.097 -1.35408 -6.82632)
(183.282 -2.05071 -6.12331)
(195.674 1.25717 2.99126)
(196.59 0.759197 1.83381)
(196.992 0.274274 0.552815)
(197.069 -0.144249 -0.767931)
(196.777 -0.529824 -2.19542)
(196.06 -0.884815 -3.75339)
(194.68 -1.23838 -5.38864)
(192.363 -1.6144 -7.07673)
(188.189 -2.16168 -7.95591)
(182.616 -2.8488 -7.60283)
(195.995 2.31398 2.53418)
(196.88 1.79881 1.39575)
(197.281 1.3179 0.192229)
(197.369 0.907863 -1.08305)
(197.092 0.554861 -2.47457)
(196.388 0.24779 -4.04431)
(194.992 -0.0395663 -5.75106)
(192.596 -0.350528 -7.65477)
(188.076 -0.8058 -8.82872)
(181.815 -1.55472 -8.8455)
(196.697 1.07545 3.10724)
(197.487 0.439365 1.97137)
(197.87 -0.114279 0.727001)
(197.976 -0.570033 -0.578462)
(197.73 -0.948263 -2.03305)
(197.06 -1.24821 -3.6952)
(195.676 -1.46535 -5.57453)
(193.247 -1.63326 -7.74188)
(188.587 -1.78767 -9.49511)
(181.705 -2.34899 -9.92485)
(196.521 2.23275 2.38991)
(197.192 1.54149 1.32608)
(197.531 1.02005 0.218307)
(197.566 0.587288 -0.983378)
(197.232 0.27522 -2.3179)
(196.456 0.0746988 -3.87188)
(194.964 0.0109711 -5.65683)
(192.401 0.104873 -7.7528)
(187.663 0.345635 -9.64676)
(180.491 0.453483 -10.1316)
(191.961 0.227269 0.465443)
(192.262 0.131262 0.2979)
(192.355 0.020399 0.0432252)
(192.344 -0.0775736 -0.18945)
(192.252 -0.173964 -0.424355)
(192.087 -0.25767 -0.603667)
(191.86 -0.331462 -0.717304)
(191.58 -0.397564 -0.732965)
(191.189 -0.453743 -0.638762)
(190.296 -0.502952 -0.417519)
(191.408 0.828851 0.411453)
(192.034 0.775785 0.0835182)
(192.329 0.674136 -0.269338)
(192.362 0.544644 -0.61402)
(192.202 0.391844 -0.928884)
(191.874 0.219555 -1.17754)
(191.355 0.0321937 -1.32206)
(190.544 -0.163897 -1.3081)
(189.251 -0.357432 -1.10454)
(187.467 -0.58312 -0.642034)
(192.082 0.391221 1.21507)
(192.81 0.220377 0.69406)
(193.147 0.0050884 0.0956553)
(193.165 -0.213922 -0.502019)
(192.926 -0.449665 -1.0758)
(192.447 -0.701285 -1.57716)
(191.693 -0.971025 -1.94618)
(190.557 -1.25157 -2.09482)
(188.864 -1.53468 -1.91665)
(186.681 -1.831 -1.28699)
(192.876 1.12292 1.35659)
(193.671 0.967403 0.676)
(194.007 0.736995 -0.0715559)
(194 0.490815 -0.822876)
(193.701 0.220525 -1.55979)
(193.114 -0.0714111 -2.23536)
(192.189 -0.396289 -2.77621)
(190.826 -0.756893 -3.06873)
(188.807 -1.16303 -2.90381)
(186.202 -1.58167 -2.08073)
(193.747 0.72349 2.04925)
(194.582 0.462031 1.21755)
(194.92 0.148421 0.276907)
(194.915 -0.155227 -0.671085)
(194.589 -0.469836 -1.63127)
(193.929 -0.793015 -2.55963)
(192.858 -1.14383 -3.3742)
(191.267 -1.53153 -3.94993)
(188.872 -2.00269 -3.94717)
(185.783 -2.50692 -3.0672)
(194.246 1.63412 1.97107)
(195.1 1.34886 1.05536)
(195.451 1.01427 0.0612062)
(195.46 0.695824 -0.959294)
(195.129 0.376503 -2.01166)
(194.426 0.0545036 -3.07327)
(193.235 -0.296924 -4.05664)
(191.428 -0.698614 -4.85015)
(188.611 -1.22968 -4.96953)
(184.982 -1.84361 -4.03492)
(194.824 0.981486 2.58531)
(195.693 0.576683 1.58964)
(196.059 0.16276 0.474587)
(196.097 -0.206436 -0.66997)
(195.779 -0.553867 -1.88204)
(195.062 -0.87998 -3.14953)
(193.785 -1.20998 -4.39631)
(191.79 -1.56758 -5.52149)
(188.542 -2.06252 -5.93213)
(184.33 -2.69044 -5.10373)
(195.136 2.09155 2.13391)
(195.983 1.66719 1.14699)
(196.352 1.25314 0.0966104)
(196.398 0.891479 -1.01549)
(196.083 0.574796 -2.20581)
(195.353 0.295609 -3.49539)
(194.017 0.0293251 -4.81004)
(191.885 -0.265082 -6.09897)
(188.291 -0.692343 -6.68506)
(183.531 -1.39163 -5.96793)
(195.839 0.842426 2.75359)
(196.6 0.295456 1.75369)
(196.952 -0.19237 0.639219)
(197.011 -0.59475 -0.525741)
(196.714 -0.928169 -1.80209)
(195.996 -1.18999 -3.20495)
(194.639 -1.3818 -4.70051)
(192.42 -1.5389 -6.22648)
(188.65 -1.71194 -7.22889)
(183.453 -2.24623 -6.71597)
(195.696 2.08572 2.02043)
(196.345 1.48736 1.09875)
(196.667 1.03513 0.122784)
(196.679 0.659477 -0.937549)
(196.323 0.393885 -2.09805)
(195.531 0.230991 -3.40409)
(194.088 0.185672 -4.82006)
(191.74 0.265874 -6.30204)
(187.848 0.426138 -7.38061)
(182.468 0.419248 -6.83947)
(192.049 0.028466 0.338218)
(192.294 -0.0355537 0.244152)
(192.362 -0.11164 0.0725684)
(192.357 -0.176621 -0.0731173)
(192.299 -0.243835 -0.225548)
(192.199 -0.302808 -0.337051)
(192.064 -0.355295 -0.40759)
(191.896 -0.401084 -0.418272)
(191.631 -0.435523 -0.366083)
(190.852 -0.458454 -0.242734)
(191.257 0.551871 0.225632)
(191.829 0.540022 0.0127675)
(192.099 0.486814 -0.21523)
(192.144 0.405021 -0.434204)
(192.04 0.300304 -0.626832)
(191.815 0.1768 -0.766763)
(191.449 0.0410607 -0.830191)
(190.836 -0.0982511 -0.784996)
(189.768 -0.227495 -0.627583)
(188.132 -0.38105 -0.310464)
(191.698 0.0782993 0.961095)
(192.361 -0.0339292 0.586651)
(192.668 -0.188198 0.144871)
(192.7 -0.352474 -0.294131)
(192.526 -0.535662 -0.70683)
(192.174 -0.735009 -1.05254)
(191.62 -0.948472 -1.2874)
(190.768 -1.16553 -1.35326)
(189.432 -1.37063 -1.20265)
(187.536 -1.57662 -0.75798)
(192.378 0.825891 1.02682)
(193.093 0.741089 0.513778)
(193.391 0.57706 -0.0565145)
(193.39 0.386033 -0.626302)
(193.151 0.166796 -1.17132)
(192.69 -0.0752438 -1.6466)
(191.984 -0.344557 -1.99284)
(190.961 -0.6393 -2.12509)
(189.431 -0.954666 -1.93659)
(187.287 -1.26895 -1.2969)
(193.131 0.432176 1.6809)
(193.881 0.251306 1.02033)
(194.178 0.00811654 0.261967)
(194.168 -0.241503 -0.498073)
(193.885 -0.508703 -1.2506)
(193.334 -0.788573 -1.94664)
(192.478 -1.0926 -2.51318)
(191.255 -1.42454 -2.84416)
(189.471 -1.80585 -2.74669)
(187.028 -2.20282 -2.01388)
(193.558 1.35731 1.58314)
(194.332 1.15438 0.838094)
(194.639 0.888642 0.0220114)
(194.634 0.621516 -0.812437)
(194.327 0.345522 -1.65296)
(193.706 0.0614696 -2.46248)
(192.71 -0.248779 -3.15634)
(191.274 -0.600765 -3.62261)
(189.169 -1.0411 -3.56327)
(186.364 -1.54584 -2.69605)
(194.087 0.717441 2.19262)
(194.882 0.399562 1.35864)
(195.206 0.0555886 0.412248)
(195.218 -0.262252 -0.554687)
(194.905 -0.567703 -1.55739)
(194.242 -0.859187 -2.56215)
(193.13 -1.15631 -3.48701)
(191.49 -1.47807 -4.20835)
(189.032 -1.89917 -4.34797)
(185.811 -2.4251 -3.4709)
(194.37 1.8703 1.73995)
(195.153 1.53401 0.908302)
(195.482 1.18785 0.0168587)
(195.498 0.877197 -0.926414)
(195.176 0.600434 -1.91528)
(194.479 0.353302 -2.94276)
(193.28 0.114881 -3.92041)
(191.478 -0.148323 -4.75059)
(188.716 -0.51654 -4.96726)
(185.103 -1.10097 -4.06087)
(195.058 0.600516 2.40189)
(195.767 0.142783 1.54412)
(196.082 -0.277976 0.568706)
(196.107 -0.626786 -0.446417)
(195.791 -0.916206 -1.5391)
(195.086 -1.14216 -2.69331)
(193.841 -1.30958 -3.85076)
(191.926 -1.45068 -4.89057)
(188.996 -1.61427 -5.40558)
(185.146 -2.05358 -4.58832)
(194.931 1.93683 1.64724)
(195.535 1.43244 0.871136)
(195.832 1.05005 0.0339133)
(195.826 0.730863 -0.877159)
(195.47 0.509374 -1.85782)
(194.708 0.379467 -2.92216)
(193.389 0.348185 -4.00474)
(191.351 0.415076 -5.00598)
(188.287 0.518706 -5.53621)
(184.397 0.476581 -4.6501)
(192.12 -0.115634 0.274888)
(192.327 -0.161751 0.225446)
(192.379 -0.217227 0.103997)
(192.378 -0.261342 0.0103635)
(192.343 -0.30903 -0.0942302)
(192.284 -0.350517 -0.169486)
(192.205 -0.387204 -0.22085)
(192.102 -0.417838 -0.236949)
(191.908 -0.437476 -0.216537)
(191.2 -0.443669 -0.154939)
(191.152 0.367527 0.105253)
(191.689 0.380182 -0.0289199)
(191.94 0.359336 -0.170457)
(191.995 0.311551 -0.303607)
(191.933 0.24307 -0.415948)
(191.783 0.157754 -0.489693)
(191.521 0.0626729 -0.510779)
(191.036 -0.0330319 -0.460514)
(190.099 -0.11638 -0.345082)
(188.529 -0.219157 -0.128303)
(191.412 -0.145121 0.774508)
(192.022 -0.219132 0.509003)
(192.301 -0.32897 0.186791)
(192.345 -0.450476 -0.13268)
(192.227 -0.589916 -0.428532)
(191.978 -0.74379 -0.669578)
(191.578 -0.907716 -0.825362)
(190.928 -1.07024 -0.859362)
(189.82 -1.21469 -0.751343)
(188.078 -1.35468 -0.45251)
(191.998 0.603705 0.757799)
(192.637 0.568457 0.380573)
(192.898 0.456296 -0.0426586)
(192.905 0.312164 -0.463385)
(192.724 0.139547 -0.856828)
(192.379 -0.0545535 -1.18498)
(191.86 -0.270133 -1.40347)
(191.099 -0.502369 -1.45354)
(189.903 -0.7407 -1.28403)
(188.035 -0.972207 -0.812638)
(192.636 0.200644 1.36144)
(193.298 0.0816269 0.848248)
(193.551 -0.102249 0.251115)
(193.542 -0.30259 -0.344481)
(193.312 -0.523405 -0.922147)
(192.875 -0.75829 -1.43625)
(192.22 -1.01262 -1.8275)
(191.305 -1.28559 -2.01626)
(189.963 -1.5845 -1.8975)
(187.934 -1.8878 -1.33989)
(192.988 1.11905 1.23456)
(193.67 0.982976 0.644504)
(193.932 0.778249 -0.00661816)
(193.92 0.560231 -0.670181)
(193.654 0.328531 -1.32342)
(193.136 0.0860365 -1.92563)
(192.341 -0.177822 -2.40318)
(191.24 -0.47277 -2.66337)
(189.676 -0.823183 -2.52879)
(187.431 -1.22046 -1.81788)
(193.462 0.479397 1.82772)
(194.168 0.237412 1.14655)
(194.446 -0.0413739 0.362955)
(194.443 -0.30857 -0.434096)
(194.157 -0.570473 -1.2438)
(193.579 -0.823797 -2.02309)
(192.658 -1.08237 -2.69546)
(191.363 -1.35882 -3.14597)
(189.533 -1.70133 -3.14492)
(187.021 -2.11739 -2.38099)
(193.701 1.66298 1.36685)
(194.4 1.40683 0.685886)
(194.686 1.12594 -0.0486607)
(194.683 0.866318 -0.826048)
(194.379 0.631018 -1.62361)
(193.752 0.418432 -2.41858)
(192.731 0.212213 -3.12187)
(191.272 -0.0125995 -3.6314)
(189.201 -0.312607 -3.6351)
(186.439 -0.768679 -2.77945)
(194.365 0.360533 2.06606)
(195.002 -0.0130247 1.3486)
(195.276 -0.368476 0.514217)
(195.278 -0.665248 -0.349932)
(194.97 -0.912273 -1.26368)
(194.321 -1.10452 -2.19203)
(193.238 -1.24804 -3.06709)
(191.661 -1.36977 -3.75761)
(189.451 -1.51009 -3.98001)
(186.631 -1.8435 -3.16631)
(194.237 1.79546 1.28274)
(194.777 1.382 0.649205)
(195.041 1.06781 -0.0480129)
(195.023 0.803222 -0.808437)
(194.686 0.622934 -1.61216)
(193.991 0.521689 -2.4525)
(192.84 0.501106 -3.24933)
(191.15 0.556074 -3.8928)
(188.819 0.620924 -4.07763)
(186.089 0.577727 -3.17246)
(192.145 -0.223683 0.25253)
(192.327 -0.259756 0.228695)
(192.367 -0.303566 0.135344)
(192.369 -0.335091 0.0705646)
(192.349 -0.370352 -0.00821559)
(192.315 -0.40022 -0.0659311)
(192.268 -0.426062 -0.110548)
(192.203 -0.44636 -0.134958)
(192.052 -0.456702 -0.137115)
(191.396 -0.452846 -0.11476)
(191.061 0.257922 0.0308297)
(191.576 0.285096 -0.0519437)
(191.813 0.285161 -0.136621)
(191.876 0.260607 -0.214184)
(191.844 0.218104 -0.276366)
(191.743 0.161007 -0.311654)
(191.549 0.0959798 -0.311972)
(191.144 0.0316777 -0.266021)
(190.285 -0.0203499 -0.181805)
(188.738 -0.0876805 -0.0292894)
(191.188 -0.290077 0.643523)
(191.755 -0.340587 0.45516)
(192.011 -0.419616 0.219669)
(192.064 -0.509413 -0.0143473)
(191.989 -0.614356 -0.229504)
(191.818 -0.730994 -0.403294)
(191.529 -0.854226 -0.515058)
(191.019 -0.973317 -0.542105)
(190.058 -1.07345 -0.474649)
(188.396 -1.16809 -0.279434)
(191.707 0.45379 0.545595)
(192.276 0.450631 0.273869)
(192.503 0.376707 -0.0329477)
(192.519 0.270424 -0.336895)
(192.389 0.138087 -0.615743)
(192.141 -0.0129517 -0.839953)
(191.768 -0.18028 -0.978007)
(191.203 -0.358047 -0.990971)
(190.233 -0.535426 -0.855506)
(188.527 -0.706734 -0.51438)
(192.24 0.0332318 1.09381)
(192.815 -0.0414978 0.701861)
(193.028 -0.177958 0.240834)
(193.023 -0.335608 -0.217431)
(192.845 -0.513616 -0.654173)
(192.514 -0.705058 -1.03134)
(192.03 -0.911136 -1.30368)
(191.359 -1.12818 -1.41616)
(190.33 -1.35746 -1.31293)
(188.566 -1.58712 -0.908573)
(192.521 0.926874 0.933448)
(193.108 0.841199 0.477725)
(193.326 0.687586 -0.0277181)
(193.312 0.514123 -0.541616)
(193.095 0.325152 -1.03676)
(192.683 0.124893 -1.47557)
(192.074 -0.0915628 -1.7984)
(191.253 -0.329106 -1.93735)
(190.089 -0.599341 -1.78806)
(188.224 -0.90472 -1.23957)
(192.941 0.27787 1.5009)
(193.55 0.0982318 0.957227)
(193.782 -0.122786 0.323583)
(193.772 -0.342408 -0.318461)
(193.526 -0.561416 -0.958203)
(193.047 -0.775424 -1.55214)
(192.317 -0.99314 -2.03484)
(191.329 -1.22119 -2.31404)
(189.979 -1.49058 -2.25584)
(187.968 -1.80768 -1.648)
(193.123 1.4799 1.02639)
(193.73 1.29245 0.484721)
(193.97 1.07126 -0.101983)
(193.956 0.860319 -0.723817)
(193.686 0.666016 -1.34799)
(193.152 0.488736 -1.94568)
(192.32 0.316804 -2.43543)
(191.184 0.132785 -2.73268)
(189.658 -0.101768 -2.6301)
(187.517 -0.443798 -1.91398)
(193.758 0.13192 1.75819)
(194.312 -0.166517 1.17239)
(194.544 -0.461122 0.474171)
(194.533 -0.709075 -0.245305)
(194.252 -0.916231 -0.993127)
(193.686 -1.07709 -1.72566)
(192.786 -1.19738 -2.37571)
(191.537 -1.29792 -2.82744)
(189.913 -1.4094 -2.89182)
(187.853 -1.64918 -2.20529)
(193.616 1.67067 0.937937)
(194.079 1.34161 0.438252)
(194.306 1.09177 -0.123311)
(194.281 0.878582 -0.73796)
(193.978 0.736012 -1.37511)
(193.373 0.659382 -2.01664)
(192.411 0.646992 -2.57948)
(191.064 0.691868 -2.96862)
(189.341 0.730897 -2.95295)
(187.474 0.699255 -2.1625)
(192.11 -0.310206 0.256087)
(192.274 -0.340424 0.24561)
(192.307 -0.377999 0.166251)
(192.311 -0.402404 0.115483)
(192.299 -0.430233 0.048963)
(192.28 -0.452934 -0.00219685)
(192.251 -0.47196 -0.0466493)
(192.207 -0.485847 -0.0797821)
(192.084 -0.490988 -0.0981129)
(191.475 -0.481792 -0.10164)
(190.963 0.206229 -0.0138589)
(191.466 0.242538 -0.0645598)
(191.692 0.255851 -0.113746)
(191.759 0.246556 -0.157167)
(191.745 0.221768 -0.189673)
(191.677 0.184394 -0.203885)
(191.526 0.140269 -0.195151)
(191.173 0.0971912 -0.155902)
(190.362 0.0654754 -0.0928068)
(188.817 0.0228348 0.0204551)
(190.997 -0.370895 0.555451)
(191.532 -0.407724 0.419037)
(191.767 -0.466443 0.243359)
(191.825 -0.533932 0.0672922)
(191.782 -0.613057 -0.0949174)
(191.666 -0.700839 -0.227666)
(191.456 -0.79246 -0.316826)
(191.042 -0.878828 -0.34779)
(190.178 -0.948124 -0.313022)
(188.556 -1.0131 -0.187732)
(191.475 0.367629 0.382377)
(191.984 0.383302 0.189634)
(192.182 0.335971 -0.0288881)
(192.203 0.258778 -0.245162)
(192.114 0.159516 -0.440734)
(191.942 0.0450577 -0.593982)
(191.679 -0.0813261 -0.683216)
(191.255 -0.214201 -0.682826)
(190.44 -0.345335 -0.581914)
(188.831 -0.47516 -0.333009)
(191.917 -0.0719707 0.875618)