/*--------------------------------*- C++ -*----------------------------------*\
| =========                 |                                                 |
| \\      /  F ield         | foam-extend: Open Source CFD                    |
|  \\    /   O peration     | Version:     4.0                                |
|   \\  /    A nd           | Web:         http://www.foam-extend.org         |
|    \\/     M anipulation  |                                                 |
\*---------------------------------------------------------------------------*/
FoamFile
{
    version     2.0;
    format      ascii;
    class       volScalarField;
    location    "3600";
    object      divFlux;
}
// * * * * * * * * * * * * * * * * * * * * * * * * * * * * * * * * * * * * * //

dimensions      [1 -3 -1 0 0 0 0];

internalField   nonuniform List<scalar> 
34480
(
0.0688231
0.0219601
0.0224696
0.020764
0.0188724
0.0170654
0.0153748
0.0138406
0.0125145
0.0113949
0.0175822
0.00890146
0.00898088
0.00869945
0.00843304
0.00810483
0.00764949
0.00709254
0.00650527
0.00594751
0.004069
0.00268401
0.00274492
0.0027933
0.00288018
0.0029509
0.00293515
0.00281286
0.0026168
0.00238933
0.00112377
0.000843613
0.000868245
0.000898577
0.000946118
0.000994424
0.00101397
0.000988142
0.000922546
0.000832485
0.000306385
0.000252015
0.000262996
0.000276057
0.000294229
0.000313102
0.00032247
0.000314965
0.000290477
0.000254244
6.57795e-05
6.06052e-05
6.6651e-05
7.2712e-05
7.93934e-05
8.53825e-05
8.75319e-05
8.35444e-05
7.32004e-05
5.95074e-05
4.50266e-06
3.06149e-07
4.20909e-06
7.45053e-06
9.92584e-06
1.12037e-05
1.06017e-05
7.82885e-06
3.11441e-06
2.28541e-06
2.46223e-05
1.81784e-05
1.50933e-05
1.28653e-05
1.17695e-05
1.19337e-05
1.32247e-05
1.52972e-05
1.76626e-05
2.0026e-05
3.57793e-05
2.79852e-05
2.44186e-05
2.17387e-05
2.02063e-05
1.98384e-05
2.03997e-05
2.15877e-05
2.28727e-05
2.41873e-05
3.82946e-05
3.08215e-05
2.72988e-05
2.45194e-05
2.25912e-05
2.155e-05
2.13802e-05
2.19893e-05
2.2988e-05
2.42959e-05
0.0891139
0.0254683
0.0260086
0.0243439
0.0224745
0.0208174
0.0194117
0.0183152
0.0176349
0.0186033
0.0248058
0.0114386
0.0115558
0.0112203
0.0108789
0.0106037
0.0103569
0.0101069
0.00988747
0.010561
0.00617911
0.00380302
0.00389411
0.00396262
0.00408502
0.00420903
0.00430084
0.00432981
0.00428788
0.00457567
0.00186869
0.00133057
0.00136578
0.00140638
0.00147778
0.00155404
0.00161433
0.00164081
0.00161949
0.00170104
0.000551032
0.000435732
0.000451168
0.000469202
0.000495657
0.000525091
0.000546426
0.000551834
0.000533185
0.00053982
0.000121382
0.000109999
0.000119684
0.000128546
0.00013739
0.000145174
0.000147909
0.000142895
0.000127656
0.000114669
1.91367e-05
6.3201e-06
1.20986e-06
6.49429e-06
9.08255e-06
8.60037e-06
4.51826e-06
3.56722e-06
1.48168e-05
2.91684e-05
6.74851e-05
4.92201e-05
4.21369e-05
3.78343e-05
3.69901e-05
3.9945e-05
4.58778e-05
5.427e-05
6.24426e-05
7.44265e-05
0.00010612
8.15091e-05
7.19206e-05
6.52554e-05
6.19821e-05
6.25668e-05
6.63963e-05
7.29875e-05
7.89027e-05
8.90763e-05
0.000120853
9.54817e-05
8.54518e-05
7.79545e-05
7.31423e-05
7.17124e-05
7.33945e-05
7.79136e-05
8.29277e-05
9.31832e-05
0.089831
0.0219818
0.0228646
0.0216802
0.0203734
0.01928
0.0184613
0.0179924
0.0180758
0.0207878
0.0241905
0.00945839
0.00965882
0.00931247
0.00900742
0.0088586
0.00884663
0.00895575
0.00927499
0.00562699
0.0056893
0.00300245
0.00306548
0.00306624
0.00310401
0.00319907
0.00335039
0.00353425
0.00376581
0.000939186
0.00164006
0.00101264
0.00103107
0.00104079
0.00106943
0.00111612
0.00118617
0.00126991
0.0013647
0.00157672
0.000466893
0.000323786
0.000331477
0.000336778
0.000348201
0.000364757
0.000388135
0.000415377
0.000442212
0.000499672
0.000105863
8.40116e-05
8.94498e-05
9.35279e-05
9.8035e-05
0.000102922
0.000108163
0.000112543
0.000113086
0.000114374
4.33934e-06
2.86243e-06
7.50332e-06
1.10545e-05
1.33215e-05
1.41728e-05
1.32751e-05
9.79043e-06
2.01137e-06
1.34356e-05
3.75018e-05
2.40838e-05
1.977e-05
1.63876e-05
1.46633e-05
1.49264e-05
1.7538e-05
2.32799e-05
3.30948e-05
5.23869e-05
5.47413e-05
3.76789e-05
3.30922e-05
2.93055e-05
2.70578e-05
2.67424e-05
2.87964e-05
3.41378e-05
4.38749e-05
6.48628e-05
5.3732e-05
3.74906e-05
3.36282e-05
3.0468e-05
2.86187e-05
2.83418e-05
2.9808e-05
3.39551e-05
4.30105e-05
6.70443e-05
0.0908757
0.0199801
0.020988
0.0201547
0.0191801
0.0183802
0.0178211
0.016271
0.00746316
0.00970548
0.0249572
0.00895718
0.00917393
0.00882275
0.00848988
0.00828761
0.00823413
0.00833969
0.00756025
0.0044022
0.00591755
0.00291369
0.00296957
0.00293563
0.00292665
0.00297159
0.00307928
0.00324737
0.00347695
0.00116739
0.00173185
0.00101048
0.00102652
0.00102584
0.0010363
0.00106423
0.00111638
0.00119189
0.0012884
0.000417531
0.000501595
0.000332031
0.000339124
0.000341653
0.000348338
0.000358942
0.000376869
0.000401786
0.000431255
0.000527611
0.000117326
8.91353e-05
9.44573e-05
9.79787e-05
0.00010153
0.000105113
0.000109324
0.000113741
0.000116475
0.000232863
1.63828e-06
4.8226e-06
9.48277e-06
1.3031e-05
1.5331e-05
1.62868e-05
1.56525e-05
1.27602e-05
6.30272e-06
5.57306e-06
3.76267e-05
2.37088e-05
1.93968e-05
1.59458e-05
1.402e-05
1.38642e-05
1.59704e-05
2.1179e-05
3.04363e-05
4.64847e-05
5.46879e-05
3.73655e-05
3.29871e-05
2.93559e-05
2.71434e-05
2.66441e-05
2.84429e-05
3.35534e-05
4.32812e-05
6.18002e-05
5.32681e-05
3.70115e-05
3.33752e-05
3.04304e-05
2.87625e-05
2.85507e-05
3.01534e-05
3.45274e-05
4.38025e-05
6.55998e-05
0.0899139
0.01779
0.0188804
0.018318
0.0175745
0.0169488
0.0145962
0.010916
0.00626866
0.00204206
0.0251902
0.00829805
0.00855265
0.00824528
0.00792134
0.00768052
0.00754564
0.0075332
0.0050587
0.00143831
0.0060862
0.00278636
0.00284103
0.0027853
0.00274269
0.0027397
0.00278459
0.00288256
0.00291934
9.3447e-05
0.00181253
0.000994746
0.00101033
0.0010011
0.000997934
0.00100775
0.00103574
0.00108423
0.00115111
0.000648364
0.000533497
0.000335668
0.000342647
0.000343411
0.000345626
0.000350741
0.000361205
0.000377895
0.000399688
0.000641046
0.00012785
9.28826e-05
9.82238e-05
0.000101299
0.000103974
0.000106259
0.000108867
0.000111848
0.000114346
0.000457274
7.54275e-07
6.59343e-06
1.12193e-05
1.47071e-05
1.69657e-05
1.79467e-05
1.75189e-05
1.52918e-05
1.05299e-05
0.000243978
3.77353e-05
2.305e-05
1.88611e-05
1.5473e-05
1.34718e-05
1.30048e-05
1.44872e-05
1.8571e-05
2.59813e-05
0.000114793
5.44314e-05
3.64786e-05
3.23853e-05
2.8997e-05
2.69177e-05
2.63359e-05
2.77653e-05
3.20638e-05
4.03582e-05
1.13746e-05
5.27069e-05
3.59647e-05
3.2587e-05
2.98664e-05
2.83444e-05
2.81699e-05
2.97493e-05
3.39165e-05
4.22817e-05
6.07434e-05
0.08704
0.0154961
0.0166021
0.0162378
0.0155163
0.0138486
0.0119211
0.00999207
0.00774621
0.00411926
0.0247614
0.00749204
0.00777863
0.00753353
0.00725067
0.00701701
0.00684886
0.006339
0.00454002
0.0011069
0.00617626
0.00261997
0.00267635
0.00260962
0.00254661
0.00251017
0.0025057
0.00253713
0.00248232
0.000822918
0.00187599
0.000965029
0.00098077
0.000965206
0.000951912
0.000947434
0.000955161
0.000977004
0.0010402
0.000848188
0.000561107
0.000334445
0.000341677
0.0003405
0.000339325
0.000339914
0.000343937
0.000352247
0.000363838
0.000658255
0.000137483
9.53215e-05
0.000100684
0.000103377
0.00010516
0.000106344
0.000107513
0.000108871
0.000110012
0.00047704
3.19255e-06
8.28445e-06
1.28249e-05
1.61991e-05
1.83702e-05
1.93386e-05
1.90778e-05
1.74294e-05
1.40912e-05
0.000304046
3.75253e-05
2.20679e-05
1.80651e-05
1.4797e-05
1.27724e-05
1.20774e-05
1.30033e-05
1.59546e-05
2.13186e-05
0.000216385
5.38343e-05
3.51655e-05
3.13707e-05
2.82275e-05
2.62788e-05
2.56593e-05
2.67648e-05
3.01915e-05
3.6691e-05
0.000132882
5.19508e-05
3.45513e-05
3.14356e-05
2.89225e-05
2.75086e-05
2.73322e-05
2.87775e-05
3.24872e-05
3.95334e-05
9.72874e-05
0.0821545
0.0127887
0.0137705
0.0132988
0.0123558
0.0114431
0.010331
0.00936531
0.00816761
0.00654593
0.0237062
0.00659162
0.0068927
0.00670773
0.00647495
0.00627287
0.00609494
0.00557691
0.00445414
0.00259788
0.00615827
0.00241598
0.00247696
0.00241041
0.00234091
0.00228817
0.00225567
0.00224539
0.00219419
0.00122506
0.00191282
0.000919972
0.000936922
0.000918342
0.000899379
0.000885917
0.000880067
0.000882872
0.00101175
0.000877445
0.000581609
0.000327545
0.000335158
0.000332722
0.00032935
0.000326808
0.000326222
0.000328164
0.00033139
0.000599175
0.000145711
9.61735e-05
0.000101556
0.000103864
0.000104985
0.000105372
0.000105468
0.000105502
0.000105183
0.000423275
5.81129e-06
9.894e-06
1.42897e-05
1.75084e-05
1.95659e-05
2.05089e-05
2.03782e-05
1.91632e-05
1.67934e-05
0.000274706
3.6759e-05
2.06956e-05
1.69265e-05
1.38187e-05
1.18178e-05
1.09699e-05
1.14633e-05
1.34941e-05
1.71855e-05
0.00021018
5.27045e-05
3.34045e-05
2.99136e-05
2.69999e-05
2.51673e-05
2.45256e-05
2.53636e-05
2.80452e-05
3.29673e-05
0.000148503
5.08306e-05
3.27701e-05
2.99153e-05
2.75904e-05
2.62554e-05
2.60411e-05
2.72738e-05
3.04075e-05
3.60978e-05
0.000121448
0.0756177
0.00986858
0.0109055
0.0107897
0.0102348
0.00973013
0.00905028
0.00857377
0.00784223
0.0071499
0.0221644
0.0056635
0.00596026
0.00582392
0.00563532
0.0054666
0.00529051
0.00493706
0.00428642
0.0033006
0.0059952
0.00217635
0.00224198
0.00218353
0.0021182
0.00206373
0.00202266
0.0020321
0.00195994
0.00137732
0.00191009
0.000857954
0.000876747
0.000858377
0.000838156
0.000821331
0.000809191
0.000802237
0.000929303
0.000824127
0.000591443
0.0003141
0.00032218
0.000319292
0.000315012
0.000310967
0.000307891
0.000306114
0.000345732
0.000512036
0.000151745
9.51014e-05
0.000100441
0.000102452
0.000103201
0.000103148
0.000102628
0.000101833
0.000104862
0.000349718
8.59693e-06
1.1348e-05
1.55277e-05
1.85484e-05
2.04801e-05
2.14009e-05
2.13803e-05
2.04775e-05
1.87074e-05
0.000221144
3.52832e-05
1.8919e-05
1.54256e-05
1.252e-05
1.05843e-05
9.66053e-06
9.84376e-06
1.12008e-05
1.37044e-05
0.000172987
5.08945e-05
3.11768e-05
2.79902e-05
2.52983e-05
2.35731e-05
2.2912e-05
2.35172e-05
2.55913e-05
2.93048e-05
0.000119054
4.91999e-05
3.05989e-05
2.80034e-05
2.58535e-05
2.45809e-05
2.43087e-05
2.52854e-05
2.78129e-05
3.22748e-05
9.72482e-05
0.0693459
0.00791612
0.00886544
0.00891071
0.00855858
0.00826496
0.00780894
0.00757155
0.00705693
0.00678952
0.0202976
0.00476451
0.00504231
0.00494303
0.0047905
0.00466253
0.00450632
0.00426671
0.00388726
0.00334834
0.00568239
0.00191015
0.00197726
0.00192908
0.00187215
0.00182292
0.00178369
0.00180511
0.00173087
0.00138646
0.00185934
0.000779538
0.000799605
0.000783105
0.000764171
0.000747591
0.000734249
0.000724402
0.000818035
0.000742872
0.000587675
0.000293809
0.000302148
0.000299289
0.000294958
0.000290634
0.000286793
0.00028362
0.000330409
0.000424356
0.000154772
9.18681e-05
9.70303e-05
9.87885e-05
9.93482e-05
9.91511e-05
9.84344e-05
9.73409e-05
0.000132859
0.000278753
1.14261e-05
1.25273e-05
1.64142e-05
1.91849e-05
2.0971e-05
2.18654e-05
2.19448e-05
2.12888e-05
1.99205e-05
0.000168072
3.30448e-05
1.67862e-05
1.36036e-05
1.0931e-05
9.11061e-06
8.17403e-06
8.15238e-06
9.04535e-06
7.64414e-06
0.000133007
4.83201e-05
2.85053e-05
2.56263e-05
2.31596e-05
2.15365e-05
2.08591e-05
2.12511e-05
2.28192e-05
2.56184e-05
8.04124e-05
4.69569e-05
2.80408e-05
2.57051e-05
2.37291e-05
2.25146e-05
2.21787e-05
2.28921e-05
2.48426e-05
2.82517e-05
6.58537e-05
0.0630763
0.0064394
0.00724503
0.00735502
0.00711263
0.00693085
0.00659676
0.00647997
0.00608081
0.00600841
0.01824
0.00393205
0.00418088
0.00410919
0.00400186
0.00389517
0.00376102
0.00359555
0.00336584
0.0030517
0.00524965
0.00163369
0.0016981
0.00165907
0.0016105
0.00156761
0.0015327
0.00155077
0.00148858
0.00128446
0.0017622
0.000688878
0.000708932
0.000694569
0.000677575
0.00066241
0.000649793
0.000639891
0.000696408
0.000647831
0.000569306
0.000267433
0.000275599
0.000272863
0.000268747
0.000264609
0.00026079
0.0002574
0.000289958
0.000344202
0.000154207
8.64568e-05
9.12672e-05
9.27342e-05
9.31414e-05
9.29005e-05
9.2189e-05
9.11074e-05
0.000130201
0.000215543
1.40937e-05
1.33087e-05
1.68257e-05
1.92884e-05
2.08904e-05
2.1729e-05
2.18809e-05
2.14214e-05
2.03533e-05
0.000120285
3.00857e-05
1.44002e-05
1.15574e-05
9.14828e-06
7.48388e-06
6.5791e-06
6.43233e-06
7.01063e-06
7.73737e-06
9.65733e-05
4.49656e-05
2.54591e-05
2.28933e-05
2.06535e-05
1.91489e-05
1.84628e-05
1.86633e-05
1.97998e-05
2.18766e-05
4.70102e-05
4.40507e-05
2.51404e-05
2.30644e-05
2.12641e-05
2.01201e-05
1.97313e-05
2.02011e-05
2.16411e-05
2.36975e-05
3.90519e-05
0.0567632
0.00521697
0.00586653
0.00599553
0.0058184
0.00570054
0.00544013
0.00539032
0.00506189
0.0050796
0.0160846
0.00323289
0.00340858
0.00337047
0.00328234
0.00318108
0.00307348
0.00295757
0.00281339
0.00261581
0.00473397
0.0013628
0.00142112
0.00138962
0.0013485
0.00131149
0.00130851
0.00129366
0.0012431
0.00111509
0.00162648
0.000591907
0.000610714
0.000598292
0.000583182
0.000569522
0.000557965
0.000548639
0.000577347
0.000545556
0.00053709
0.000236551
0.000244108
0.000241451
0.000237537
0.000233626
0.000229978
0.000226672
0.000244122
0.000274629
0.000149763
7.9092e-05
8.33874e-05
8.45097e-05
8.47252e-05
8.44162e-05
8.3719e-05
8.27094e-05
0.000115459
0.000163474
1.63509e-05
1.35894e-05
1.66709e-05
1.87819e-05
2.01556e-05
2.08942e-05
2.10681e-05
2.07429e-05
1.98989e-05
8.10147e-05
2.65352e-05
1.1899e-05
9.41971e-06
7.29966e-06
5.82082e-06
4.98157e-06
4.76351e-06
5.12466e-06
1.29019e-05
6.69122e-05
4.08842e-05
2.21452e-05
1.98992e-05
1.78996e-05
1.65328e-05
1.58546e-05
1.58952e-05
1.66727e-05
1.81628e-05
2.29926e-05
4.04842e-05
2.19761e-05
2.01629e-05
1.85487e-05
1.74953e-05
1.70714e-05
1.73365e-05
1.83511e-05
1.68146e-05
1.98409e-05
0.0504974
0.0041837
0.00468391
0.00480825
0.00467182
0.00459057
0.00437621
0.00436472
0.0040779
0.00413198
0.0138887
0.00260368
0.00273604
0.00269553
0.00261852
0.00253492
0.0024532
0.00237247
0.00228027
0.00214726
0.00416484
0.00110842
0.00115837
0.00113301
0.00110051
0.00109194
0.00107666
0.00105017
0.00100894
0.000922144
0.00146105
0.000494072
0.000510738
0.000500091
0.000486817
0.000474679
0.000464285
0.000455734
0.000465982
0.000444014
0.00049267
0.000202974
0.000209614
0.000207028
0.000203321
0.000199633
0.000196182
0.000193024
0.000200385
0.000215669
0.000141401
7.01495e-05
7.38227e-05
7.45845e-05
7.45871e-05
7.4176e-05
7.34607e-05
7.25005e-05
9.79697e-05
0.000122877
1.79386e-05
1.3307e-05
1.5914e-05
1.76477e-05
1.8768e-05
1.93714e-05
1.95209e-05
1.92731e-05
1.85898e-05
5.1753e-05
2.25939e-05
9.43399e-06
7.33105e-06
5.51975e-06
4.2447e-06
3.49806e-06
3.24987e-06
3.45794e-06
1.41648e-05
4.53656e-05
3.6192e-05
1.86991e-05
1.67781e-05
1.5035e-05
1.38238e-05
1.31759e-05
1.31012e-05
1.35931e-05
1.46188e-05
7.3193e-06
3.63165e-05
1.86607e-05
1.71123e-05
1.56982e-05
1.47529e-05
1.43212e-05
1.44291e-05
1.51067e-05
1.29088e-05
7.6714e-06
0.0437951
0.00326834
0.00363608
0.00375267
0.0036553
0.00360962
0.00344263
0.00347354
0.00322799
0.00331331
0.0116809
0.00200088
0.00210966
0.00207894
0.00202218
0.00196034
0.00190218
0.00184752
0.00178845
0.00169353
0.00359485
0.000913043
0.000953465
0.000933934
0.000908382
0.000883135
0.000857326
0.000828818
0.000794799
0.000731305
0.00127391
0.000399548
0.000413519
0.000404555
0.00039316
0.000382644
0.000373556
0.000365979
0.000364534
0.000348894
0.000438035
0.000168415
0.000173959
0.000171509
0.000168077
0.000164678
0.000161497
0.000158572
0.0001608
0.000166181
0.000129281
6.00915e-05
6.30939e-05
6.35283e-05
6.33415e-05
6.28385e-05
6.21067e-05
6.36364e-05
8.08293e-05
9.16492e-05
1.86257e-05
1.24495e-05
1.45712e-05
1.59324e-05
1.67957e-05
1.72512e-05
1.73513e-05
1.71442e-05
1.65804e-05
3.12297e-05
1.84968e-05
7.14595e-06
5.4195e-06
3.92385e-06
2.86499e-06
2.22793e-06
1.98148e-06
2.55541e-06
1.42146e-05
3.09177e-05
3.10634e-05
1.52681e-05
1.36718e-05
1.21962e-05
1.11558e-05
1.05659e-05
1.04191e-05
1.07023e-05
1.13737e-05
2.02314e-06
3.16631e-05
1.53241e-05
1.40387e-05
1.28371e-05
1.20169e-05
1.1603e-05
1.16042e-05
1.203e-05
1.01504e-05
9.45571e-07
0.0374964
0.00251563
0.00274275
0.00280729
0.00269651
0.00263095
0.00245979
0.00248806
0.00223602
0.00231473
0.009481
0.00149489
0.00159277
0.00156793
0.00152048
0.00147383
0.00143371
0.00140075
0.00136948
0.00130633
0.00295585
0.000718323
0.0007575
0.000741301
0.000714886
0.000687563
0.000660734
0.000634013
0.000605507
0.000555929
0.00107239
0.000311434
0.000322459
0.000315119
0.000305669
0.000296884
0.00028924
0.000282801
0.000275592
0.000263314
0.000375458
0.000134405
0.000138791
0.000136571
0.000133521
0.000130513
0.0001277
0.000125109
0.000125882
0.000124972
0.00011378
4.94264e-05
5.17645e-05
5.19394e-05
5.16199e-05
5.1068e-05
5.03527e-05
5.89701e-05
6.4985e-05
6.7504e-05
1.82503e-05
1.10662e-05
1.27197e-05
1.37352e-05
1.43623e-05
1.46762e-05
1.47233e-05
1.45385e-05
1.40711e-05
1.73541e-05
1.44943e-05
5.14539e-06
3.7821e-06
2.59553e-06
1.75219e-06
1.2351e-06
3.03719e-06
9.20106e-06
1.40085e-05
2.16909e-05
2.57166e-05
1.19965e-05
1.07149e-05
9.51221e-06
8.65242e-06
8.14115e-06
7.96464e-06
8.10432e-06
8.52014e-06
6.89213e-06
2.6687e-05
1.21019e-05
1.10716e-05
1.00894e-05
9.40628e-06
9.03551e-06
8.9744e-06
9.22201e-06
7.86183e-06
2.11275e-06
0.0304184
0.00206965
0.00231256
0.00246747
0.00246592
0.00247399
0.00236689
0.00243599
0.00219054
0.00227089
0.00731188
0.00109548
0.00115101
0.00111883
0.0010725
0.00102883
0.000991738
0.000961333
0.000934051
0.0008934
0.00228798
0.000517278
0.000565579
0.000559385
0.000539158
0.000515468
0.000491404
0.000467965
0.000444207
0.000404536
0.000863902
0.000232009
0.000240088
0.00023431
0.000226839
0.000219858
0.000213751
0.00020856
0.000202693
0.000188988
0.000307628
0.0001023
0.000105559
0.000103666
0.000101103
9.85829e-05
9.62282e-05
9.40549e-05
9.55672e-05
9.10104e-05
9.55488e-05
3.87004e-05
4.04211e-05
4.04195e-05
4.00405e-05
4.14405e-05
4.78079e-05
5.03285e-05
5.06181e-05
4.86588e-05
1.67667e-05
9.26871e-06
1.04926e-05
1.12094e-05
1.16333e-05
1.18293e-05
1.18306e-05
1.16661e-05
1.12827e-05
1.00904e-05
0.000195316
6.728e-05
2.22967e-05
1.31766e-05
1.18888e-05
1.23422e-05
1.31887e-05
1.31393e-05
1.38878e-05
1.60721e-05
2.03921e-05
9.00998e-06
8.0252e-06
7.08705e-06
6.40951e-06
5.99253e-06
5.81855e-06
5.86983e-06
6.11106e-06
6.51852e-06
2.15904e-05
9.1222e-06
8.33118e-06
7.5648e-06
7.02501e-06
6.71555e-06
6.6292e-06
6.76042e-06
5.93168e-06
3.11749e-06
0.0175267
5.85447e-05
7.05113e-05
3.78984e-05
3.30972e-05
2.97203e-05
3.87666e-05
0.000203627
0.000127842
0.000366087
0.00531464
0.000839959
0.00089335
0.000885464
0.000865087
0.000842293
0.000819588
0.000797635
0.000774711
0.000749985
0.00163453
0.000328765
0.000396033
0.000401988
0.000389564
0.000370352
0.000349018
0.000327732
0.000306305
0.000272526
0.000657631
0.00016331
0.00016863
0.000164248
0.000158644
0.000153407
0.000148825
0.000144918
0.000140457
0.000128379
0.000237856
7.33304e-05
7.55659e-05
7.40677e-05
7.20618e-05
7.0753e-05
7.15003e-05
7.10039e-05
6.94386e-05
6.33507e-05
0.000143523
6.6413e-05
5.1031e-05
4.55689e-05
4.36922e-05
4.27245e-05
4.16225e-05
3.96811e-05
3.75265e-05
3.3742e-05
1.42777e-05
7.22062e-06
8.07284e-06
8.54615e-06
8.81191e-06
8.91786e-06
8.88996e-06
8.74876e-06
8.4442e-06
7.45278e-06
0.000627361
0.000274281
0.000120965
6.22127e-05
3.72938e-05
2.55712e-05
1.95921e-05
1.56079e-05
1.39422e-05
1.28622e-05
1.53305e-05
6.40407e-06
5.68714e-06
4.99703e-06
4.4943e-06
4.17673e-06
4.02794e-06
4.03222e-06
4.16239e-06
4.35913e-06
1.65926e-05
6.48909e-06
5.91421e-06
5.35275e-06
4.95236e-06
4.71427e-06
4.62919e-06
4.71882e-06
4.39563e-06
3.29288e-06
0.0631957
0.00434113
0.00471666
0.00450725
0.00412291
0.00368951
0.00326
0.00285799
0.00237658
0.00217509
0.00270832
0.000238426
0.00023079
0.000202677
0.000185055
0.000181673
0.000190105
0.000206908
0.000228259
0.000246672
0.000972776
0.00014479
0.000253788
0.000280042
0.000279977
0.000267431
0.000249589
0.000230311
0.000210335
0.000180342
0.000461186
0.000106125
0.000109171
0.000106133
0.000102306
9.87143e-05
9.55359e-05
9.27892e-05
8.96118e-05
8.09316e-05
0.000184111
6.26448e-05
6.23331e-05
5.96032e-05
5.68844e-05
5.43839e-05
5.19864e-05
4.95247e-05
4.688e-05
4.10853e-05
0.00014939
7.93345e-05
5.70866e-05
4.54984e-05
3.87618e-05
3.4278e-05
3.09036e-05
2.7929e-05
2.54156e-05
2.17173e-05
1.10532e-05
5.1262e-06
5.67042e-06
5.95979e-06
6.10979e-06
6.15742e-06
6.11784e-06
6.00484e-06
5.7756e-06
5.0067e-06
0.00106871
0.000468703
0.000204551
9.95168e-05
5.45453e-05
3.36012e-05
2.30077e-05
1.67472e-05
1.37143e-05
1.09103e-05
1.07457e-05
4.23633e-06
3.75178e-06
3.28091e-06
2.93697e-06
2.7151e-06
2.60417e-06
2.59058e-06
2.65417e-06
2.72872e-06
1.19121e-05
4.27394e-06
3.88651e-06
3.50788e-06
3.23656e-06
3.07157e-06
3.00452e-06
3.0286e-06
3.10921e-06
3.06507e-06
0.116642
0.00596533
0.00583333
0.00487245
0.00386686
0.0029834
0.00224371
0.00163104
0.00122734
0.00068955
0.00310866
0.000986307
0.000981912
0.000918684
0.000832052
0.000737451
0.000642902
0.000551969
0.000464135
0.0003837
0.000492768
5.23636e-05
0.000103814
0.000146873
0.000158906
0.000155634
0.000145869
0.000134306
0.000122333
0.000104885
0.000289596
6.18152e-05
6.3198e-05
6.11963e-05
5.87472e-05
5.64379e-05
5.43634e-05
5.2496e-05
5.02342e-05
4.43075e-05
0.000123199
4.34144e-05
4.27264e-05
3.98714e-05
3.69373e-05
3.42777e-05
3.19086e-05
2.97592e-05
2.76248e-05
2.34865e-05
9.91148e-05
5.42686e-05
3.85777e-05
2.98523e-05
2.44931e-05
2.08951e-05
1.82896e-05
1.62193e-05
1.45509e-05
1.20974e-05
7.50093e-06
3.18798e-06
3.49548e-06
3.65283e-06
3.72771e-06
3.74191e-06
3.70526e-06
3.62476e-06
3.46886e-06
2.93157e-06
0.00131197
0.000567839
0.000239248
0.000110949
5.72849e-05
3.31178e-05
2.13099e-05
1.48372e-05
1.16068e-05
8.59317e-06
6.80496e-06
2.52509e-06
2.2293e-06
1.9441e-06
1.73484e-06
1.59996e-06
1.52861e-06
1.51362e-06
1.54117e-06
1.55548e-06
7.74108e-06
2.51102e-06
2.27662e-06
2.05195e-06
1.89145e-06
1.7932e-06
1.75075e-06
1.84004e-06
1.75607e-06
1.80705e-06
0.264264
0.0020675
0.0021059
0.00190419
0.00164524
0.00138067
0.00113358
0.000934017
0.000552089
0.000496613
0.00142377
0.00102863
0.00085198
0.000666098
0.000498958
0.000355451
0.000233254
0.000127837
3.41419e-05
4.48048e-05
0.00015612
0.000122224
4.57274e-05
8.97097e-05
0.000101812
9.74325e-05
8.55494e-05
7.06349e-05
5.39363e-05
3.33759e-05
0.000145588
2.87107e-05
2.90293e-05
2.82285e-05
2.73736e-05
2.66612e-05
2.6124e-05
2.57631e-05
2.5256e-05
2.2644e-05
6.30181e-05
1.99033e-05
1.95601e-05
1.82506e-05
1.68822e-05
1.56257e-05
1.45043e-05
1.34967e-05
1.24493e-05
1.03307e-05
3.87502e-05
2.04444e-05
1.49997e-05
1.18728e-05
9.88011e-06
8.52698e-06
7.55215e-06
6.79847e-06
6.1713e-06
5.10571e-06
4.09802e-06
1.5789e-06
1.7128e-06
1.78177e-06
1.81091e-06
1.81182e-06
1.78668e-06
1.74098e-06
1.6507e-06
1.33584e-06
0.000861079
0.000388057
0.00015794
7.07214e-05
3.49957e-05
1.93643e-05
1.19717e-05
8.13237e-06
6.22213e-06
4.55824e-06
3.61484e-06
1.24727e-06
1.09921e-06
9.59367e-07
8.58074e-07
7.92684e-07
7.58444e-07
7.50153e-07
7.60522e-07
7.50918e-07
9.16857e-05
8.79082e-05
5.91946e-05
3.43926e-05
1.89069e-05
9.95254e-06
4.93094e-06
2.11e-06
3.51318e-07
8.82483e-07
0.042814
0.00264814
0.00218443
0.00173674
0.00135097
0.00103082
0.000765484
0.000549798
0.000374372
0.000252827
0.000352438
0.000246883
0.000218498
0.000182109
0.000145986
0.000112284
8.11108e-05
5.17802e-05
2.3049e-05
5.14065e-06
0.000172865
4.01126e-05
9.49551e-06
1.95667e-05
2.39075e-05
2.52889e-05
2.56449e-05
2.58737e-05
2.61311e-05
2.48381e-05
4.40948e-05
9.29922e-06
9.10572e-06
8.61618e-06
8.09457e-06
7.59116e-06
7.10699e-06
6.62951e-06
6.04012e-06
4.76663e-06
1.79314e-05
5.12232e-06
5.06424e-06
4.84099e-06
4.59927e-06
4.37072e-06
4.15978e-06
3.96344e-06
3.71877e-06
3.05889e-06
6.84553e-06
3.0693e-06
2.6191e-06
2.33601e-06
2.12976e-06
1.97415e-06
1.84875e-06
1.74245e-06
1.62512e-06
1.3297e-06
1.27407e-06
4.99533e-07
5.37473e-07
5.57376e-07
5.6534e-07
5.64044e-07
5.53739e-07
5.36282e-07
5.01965e-07
3.80425e-07
7.46549e-05
5.74823e-05
2.35817e-05
1.07592e-05
5.32326e-06
2.92686e-06
1.7986e-06
1.22572e-06
9.42363e-07
7.49333e-07
1.18816e-06
4.33527e-07
3.79485e-07
3.34071e-07
3.02014e-07
2.81289e-07
2.71216e-07
2.69895e-07
2.72206e-07
2.59482e-07
0.000204468
0.000118791
7.02104e-05
3.90865e-05
2.06941e-05
1.03211e-05
4.60518e-06
1.42736e-06
4.86081e-07
1.90691e-06
1.24597
1.26071
1.4535
1.88217
0.945571
0.99961
1.19559
1.76516
0.52324
0.506686
0.706491
1.16536
0.220177
0.186774
0.331304
0.586841
0.0633996
0.0486831
0.108065
0.19811
0.00152757
0.00056117
0.00291056
0.00574621
0.0245848
0.0138505
0.0347974
0.0771512
0.030993
0.0169555
0.0453647
0.107166
0.0317432
0.0165789
0.0482188
0.120591
0.0288648
0.0142294
0.0472182
0.124608
0.105929
0.0230075
0.0235226
0.0621769
0.119935
0.0321518
0.0211992
0.0447237
0.0826903
0.0231189
0.0113127
0.0271096
0.0424709
0.0112971
0.00151967
0.0211972
0.0144157
0.00302333
0.0011255
0.00995022
0.001194
0.00016725
0.000199041
0.000141789
0.00848405
0.000382311
0.000176414
6.68521e-05
0.0115814
0.000250091
0.000319107
0.000318732
0.0133095
0.000346427
0.000394359
0.00039193
0.0136118
0.000429953
0.000509582
0.000502634
0.107417
0.1028
0.0994413
0.129178
0.0909981
0.0824818
0.0789556
0.112998
0.0562061
0.0486963
0.048977
0.0709523
0.026594
0.0221794
0.0248355
0.0366275
0.00831532
0.00707417
0.00915899
0.0142461
0.0012748
2.4019e-05
0.000707192
0.0016717
0.006114
0.00333525
0.00353788
0.00497891
0.00846019
0.00480432
0.00520282
0.00758707
0.0101784
0.00557308
0.00590508
0.00867611
0.0120488
0.00626467
0.0065614
0.00860319
0.0196196
0.0264028
0.0284615
0.0318628
0.0196748
0.0217952
0.0239963
0.0314138
0.0140124
0.0142698
0.0165406
0.022808
0.00706128
0.00705242
0.00856411
0.0127939
0.00209238
0.00235522
0.00304901
0.00514736
0.000891124
0.0001079
0.000226186
0.000731977
0.00255125
0.00128034
0.000964968
0.00138989
0.00345743
0.00177302
0.00128105
0.00219155
0.00405994
0.00184515
0.00107862
0.00231569
0.00417275
0.00138264
0.000403416
0.00180663
0.00290189
0.00822981
0.00942605
0.0111122
0.00518368
0.00898201
0.0114121
0.0154414
0.0040485
0.00632847
0.00824842
0.0114698
0.00191512
0.00327392
0.00438742
0.00643118
0.000329018
0.00109366
0.00160593
0.00261626
0.000694384
0.000132715
0.000144494
0.000468486
0.00134803
0.00081356
0.000575962
0.00067587
0.00177735
0.00117044
0.00084745
0.00118112
0.00212924
0.00132774
0.000821663
0.00132949
0.00226421
0.00125744
0.000600647
0.00124084
0.00602503
0.00250708
0.00169742
0.000668476
0.00112093
0.00219947
0.00385693
0.00599829
0.000265175
0.00226426
0.00352011
0.00529684
2.51597e-05
0.00126413
0.00203275
0.00313005
0.000278178
0.000395856
0.000767177
0.00131348
0.000531216
0.000137392
6.24498e-05
0.000262889
0.000732626
0.000463192
0.000307791
0.000318765
0.000898022
0.000652595
0.000456323
0.00058487
0.00104457
0.000744371
0.000428642
0.000656685
0.000995905
0.000664437
0.000285207
0.000645268
0.00875085
0.00630099
0.00579741
0.00516343
0.00381931
0.00105868
0.000136947
0.000957342
0.00108487
0.000510822
0.00125956
0.00220394
0.000600517
0.000381886
0.000875769
0.0014391
0.000446085
8.72061e-05
0.000344353
0.000629206
0.000422092
0.000129422
1.55731e-05
0.00013503
0.000454298
0.000289373
0.000186865
0.000167081
0.000511962
0.000398346
0.000283596
0.000319205
0.00056536
0.00045673
0.00027064
0.000360493
0.000467721
0.000392142
0.000196074
0.000383231
0.00914326
0.00732802
0.00703618
0.0066663
0.00489023
0.00266961
0.00219729
0.00168172
0.00168135
0.000394348
1.96927e-05
0.000499172
0.00084131
6.6981e-05
0.000225575
0.00049667
0.000483406
6.71543e-05
9.74683e-05
0.000240104
0.000341455
0.000118768
1.88989e-05
4.91773e-05
0.000298398
0.000184109
0.000115714
9.23375e-05
0.000304287
0.000241463
0.000172007
0.00017329
0.000304393
0.000269275
0.000159374
0.000192802
0.000200398
0.000213698
0.000119497
0.000222479
0.00844526
0.00704067
0.00687671
0.00666156
0.00488023
0.00308809
0.00284952
0.00264071
0.00186854
0.000810755
0.000592193
0.000364856
0.000917066
0.000288344
0.000123834
8.44567e-06
0.000476266
0.000142118
4.20917e-05
2.54777e-05
0.000282952
0.00010831
4.12862e-05
3.40688e-06
0.000206005
0.000122178
7.5743e-05
5.65736e-05
0.000187661
0.000149594
0.000105545
9.66737e-05
0.000156685
0.000152592
8.71123e-05
9.84533e-05
6.86097e-05
0.00010877
6.53687e-05
0.000125067
0.00733047
0.0062194
0.00612772
0.00600085
0.00436536
0.00291629
0.00279603
0.00274545
0.00178412
0.000919025
0.000807325
0.000710578
0.000884699
0.000372824
0.000285324
0.000251707
0.000441742
0.000171321
0.00011414
8.76817e-05
0.000235663
9.70697e-05
5.3972e-05
3.45322e-05
0.000144912
8.25082e-05
5.13662e-05
3.7949e-05
0.000115313
9.20092e-05
6.30787e-05
5.31885e-05
7.12259e-05
7.94213e-05
3.96925e-05
4.24779e-05
2.53256e-06
4.70201e-05
2.74213e-05
6.39502e-05
0.00611162
0.00522767
0.00517789
0.00510403
0.00367406
0.00251268
0.0024537
0.00248352
0.00155189
0.000852963
0.000795617
0.000759721
0.00078186
0.000369393
0.000324605
0.000329534
0.000385625
0.000168667
0.00013758
0.000132215
0.000193008
8.36388e-05
5.70843e-05
4.87152e-05
0.000101833
5.56273e-05
3.56434e-05
2.73141e-05
6.89227e-05
5.50235e-05
3.61685e-05
2.80088e-05
2.46372e-05
3.66894e-05
1.22856e-05
1.17097e-05
2.80511e-05
1.27393e-05
3.86758e-06
2.68836e-05
0.00491354
0.00420876
0.00417772
0.00413681
0.00296438
0.00205074
0.00202483
0.00209456
0.00126816
0.000715108
0.000685168
0.000675317
0.000647911
0.000321662
0.000299657
0.000319854
0.000318938
0.0001476
0.000131342
0.000135136
0.000153837
6.86951e-05
5.28716e-05
5.04974e-05
7.09765e-05
3.72274e-05
2.51601e-05
2.06728e-05
3.99702e-05
3.1893e-05
2.00396e-05
1.41572e-05
9.28217e-07
1.31177e-05
1.84949e-06
3.54889e-06
3.8892e-05
4.50366e-06
8.61979e-06
5.94635e-06
0.00393158
0.0033729
0.00335647
0.00334183
0.00229717
0.00159743
0.00158966
0.0016797
0.00098485
0.000560071
0.000543955
0.000543453
0.000509075
0.00025823
0.000248339
0.000272556
0.0002512
0.000119124
0.000110958
0.000117584
0.000118742
5.37996e-05
4.46114e-05
4.50053e-05
4.88228e-05
2.46954e-05
1.79453e-05
1.60485e-05
2.27378e-05
1.81609e-05
1.10507e-05
7.30006e-06
9.74165e-06
9.99014e-07
8.02633e-06
9.85885e-06
3.88627e-05
1.14818e-05
1.34754e-05
4.41057e-06
0.00270983
0.00231156
0.00230974
0.00232866
0.00171873
0.00122851
0.00122914
0.00125064
0.00072748
0.000413527
0.000404375
0.000405901
0.000379718
0.000194331