/*--------------------------------*- C++ -*----------------------------------*\
| =========                 |                                                 |
| \\      /  F ield         | foam-extend: Open Source CFD                    |
|  \\    /   O peration     | Version:     4.0                                |
|   \\  /    A nd           | Web:         http://www.foam-extend.org         |
|    \\/     M anipulation  |                                                 |
\*---------------------------------------------------------------------------*/
FoamFile
{
    version     2.0;
    format      ascii;
    class       volVectorField;
    location    "3600";
    object      U;
}
// * * * * * * * * * * * * * * * * * * * * * * * * * * * * * * * * * * * * * //

dimensions      [0 1 -1 0 0 0 0];

internalField   nonuniform List<vector> 
34480
(
(212.108 7.06715 2.31122)
(213.718 5.25291 -1.77426)
(215.134 3.65266 -6.5831)
(216.365 2.27174 -12.4001)
(217.388 1.11896 -19.6242)
(217.969 0.21199 -28.7399)
(217.244 -0.417081 -40.0992)
(212.898 -0.831901 -54.2075)
(200.036 -1.35748 -73.6026)
(167.926 -1.95278 -94.2177)
(214.236 10.7565 2.60326)
(216.151 9.67249 -0.763866)
(217.837 8.58592 -4.59186)
(219.285 7.52478 -9.15576)
(220.575 6.48134 -14.9272)
(221.678 5.4298 -22.6041)
(222.075 4.36753 -32.9815)
(219.995 3.28201 -46.906)
(210.885 1.85386 -68.0985)
(180.445 -0.146058 -96.48)
(215.43 10.1987 4.88032)
(217.613 9.4234 1.93883)
(219.616 8.56656 -1.37496)
(221.442 7.65621 -5.33061)
(223.166 6.69763 -10.3665)
(224.866 5.65246 -17.2922)
(226.23 4.50105 -27.1982)
(225.772 3.25623 -41.2474)
(219.385 1.62633 -63.8803)
(190.571 -0.71076 -98.7023)
(215.715 10.4739 6.6862)
(218.375 9.77504 3.88913)
(220.888 8.96846 0.717914)
(223.264 8.09093 -3.06329)
(225.528 7.14162 -7.84756)
(227.77 6.08097 -14.4354)
(229.811 4.87803 -24.0682)
(230.446 3.5402 -38.2464)
(225.991 1.7592 -61.9536)
(198.232 -0.88516 -101.554)
(215.911 9.77385 8.56633)
(218.996 8.96244 5.85271)
(221.951 8.03241 2.69768)
(224.804 7.04571 -1.04793)
(227.556 5.97887 -5.77895)
(230.279 4.79114 -12.2435)
(232.869 3.43774 -21.7628)
(234.357 1.91972 -36.1656)
(231.394 -0.0953778 -60.8965)
(204.232 -3.1445 -104.296)
(215.744 10.05 9.3962)
(219.155 9.14479 6.78592)
(222.436 8.10911 3.69549)
(225.642 7.03696 0.020732)
(228.769 5.89986 -4.64451)
(231.873 4.66778 -10.9961)
(234.888 3.29226 -20.3886)
(237.045 1.75783 -34.9622)
(235.24 -0.335312 -60.6295)
(208.282 -3.68798 -107.231)
(215.73 9.02062 10.4293)
(219.354 7.9218 7.88988)
(222.824 6.71047 4.81079)
(226.233 5.4934 1.15969)
(229.583 4.2257 -3.4826)
(232.931 2.89055 -9.7554)
(236.256 1.45529 -19.0207)
(239.006 -0.0664731 -33.7158)
(238.291 -2.04171 -60.2258)
(211.651 -5.24467 -109.576)
(215.476 9.25067 10.1763)
(219.187 8.03854 7.79753)
(222.714 6.74224 4.86329)
(226.176 5.46345 1.34931)
(229.58 4.16377 -3.14222)
(232.989 2.84961 -9.18831)
(236.449 1.53321 -18.1087)
(239.672 0.264893 -32.5623)
(240.104 -1.30798 -59.4565)
(214.22 -4.0324 -110.932)
(215.497 7.32583 10.6415)
(219.218 5.95792 8.42368)
(222.747 4.58612 5.58611)
(226.226 3.26168 2.11949)
(229.659 1.92605 -2.37767)
(233.089 0.597869 -8.39257)
(236.581 -0.656305 -17.1366)
(240.123 -1.68577 -31.3075)
(241.632 -2.5857 -58.4555)
(216.607 -4.10194 -111.349)
(214.42 6.91307 10.0464)
(218.152 5.46745 8.17787)
(221.7 4.02069 5.64269)
(225.185 2.63644 2.42421)
(228.559 1.3155 -1.85762)
(231.836 0.107916 -7.65824)
(235.117 -0.87735 -16.0752)
(238.699 -1.43155 -29.5098)
(241.417 -1.58217 -56.0888)
(218.284 -1.87044 -109.223)
(204.292 6.142 1.56048)
(205.221 4.59768 -1.8699)
(205.648 3.24362 -5.77716)
(205.459 2.10562 -10.2266)
(204.467 1.18212 -15.3699)
(202.342 0.483645 -21.3321)
(198.58 0.00792936 -28.1627)
(192.523 -0.272227 -35.6723)
(182.726 -0.419353 -42.8908)
(164.057 -0.559851 -45.4033)
(208.278 9.6309 1.58826)
(209.657 8.68348 -1.42742)
(210.613 7.71607 -4.82996)
(210.995 6.78513 -8.67528)
(210.664 5.89252 -13.1618)
(209.336 5.02103 -18.5796)
(206.398 4.15049 -25.3175)
(200.929 3.27404 -33.6396)
(191.477 2.35875 -43.4764)
(171.619 1.28206 -50.4694)
(210.608 9.17351 3.66742)
(212.337 8.46412 0.90575)
(213.714 7.67674 -2.18071)
(214.64 6.838 -5.75967)
(214.979 5.97594 -9.99481)
(214.505 5.06922 -15.2715)
(212.632 4.09068 -22.1939)
(208.216 3.02144 -31.43)
(199.593 1.82904 -43.7748)
(178.842 0.42457 -55.8127)
(211.63 9.51186 5.41661)
(213.849 8.86826 2.74343)
(215.772 8.12486 -0.265739)
(217.326 7.30196 -3.81391)
(218.348 6.42648 -8.06059)
(218.624 5.48115 -13.4049)
(217.604 4.43955 -20.5573)
(214.081 3.27305 -30.5177)
(206.241 1.91608 -44.9319)
(184.755 0.280363 -61.8756)
(212.308 8.86358 7.33336)
(214.963 8.11927 4.71271)
(217.363 7.26697 1.68074)
(219.45 6.3476 -1.90397)
(221.068 5.36339 -6.25751)
(221.991 4.29948 -11.7497)
(221.703 3.11864 -19.1587)
(218.993 1.78944 -29.7745)
(211.912 0.233077 -45.9999)
(189.781 -1.60923 -67.6745)
(212.488 9.22605 8.23337)
(215.495 8.40139 5.70225)
(218.262 7.45349 2.7154)
(220.759 6.45554 -0.832026)
(222.848 5.40143 -5.21122)
(224.298 4.29091 -10.7679)
(224.619 3.08621 -18.3215)
(222.631 1.75191 -29.4114)
(216.246 0.166045 -47.0616)
(193.41 -1.76347 -72.9481)
(212.719 8.2468 9.38468)
(215.97 7.24604 6.91883)
(218.979 6.1411 3.93148)
(221.746 5.02123 0.386902)
(224.161 3.85948 -4.03251)
(226.004 2.66648 -9.64803)
(226.831 1.407 -17.3024)
(225.541 0.0625723 -28.7714)
(219.925 -1.45633 -47.6565)
(196.593 -3.27684 -77.5008)
(212.63 8.55069 9.26086)
(216.008 7.44527 6.95797)
(219.138 6.26285 4.12037)
(222.045 5.09416 0.713191)
(224.643 3.91375 -3.58674)
(226.734 2.74646 -9.08119)
(227.94 1.58632 -16.6054)
(227.299 0.444925 -28.1101)
(222.614 -0.766518 -47.7912)
(199.275 -2.38974 -81.1483)
(212.673 6.69726 9.83857)
(216.083 5.4214 7.71163)
(219.255 4.15464 4.9996)
(222.248 2.94471 1.68624)
(224.999 1.74726 -2.59812)
(227.322 0.586559 -8.13164)
(228.856 -0.513866 -15.7036)
(228.782 -1.48026 -27.2281)
(225.074 -2.19524 -47.6309)
(201.922 -3.22077 -84.0151)
(211.706 6.48513 9.27338)
(215.128 5.09088 7.43975)
(218.343 3.73909 5.04426)
(221.38 2.44978 2.0238)
(224.164 1.23646 -1.96981)
(226.526 0.14502 -7.25187)
(228.179 -0.756307 -14.6349)
(228.481 -1.31582 -25.767)
(225.915 -1.36175 -46.3575)
(203.739 -1.22796 -84.6922)
(198.507 4.90343 0.455474)
(199 3.7268 -2.21871)
(198.968 2.70218 -5.15303)
(198.332 1.84197 -8.36229)
(196.96 1.16302 -11.8023)
(194.675 0.673324 -15.3722)
(191.256 0.357849 -18.8724)
(186.47 0.163108 -21.9778)
(179.963 0.00976286 -23.948)
(171.056 -0.20884 -23.0072)
(203.364 8.23799 0.412966)
(204.291 7.46152 -2.14169)
(204.737 6.65365 -4.96482)
(204.574 5.86228 -8.06815)
(203.629 5.09827 -11.4891)
(201.64 4.35909 -15.2146)
(198.228 3.63395 -19.1713)
(192.883 2.90696 -23.1371)
(184.902 2.16282 -26.4407)
(173.288 1.36553 -27.0816)
(206.389 7.99834 2.32912)
(207.697 7.37326 -0.151695)
(208.574 6.66373 -2.91343)
(208.898 5.90416 -6.03168)
(208.508 5.11616 -9.57188)
(207.11 4.28858 -13.6386)
(204.195 3.40786 -18.3059)
(198.994 2.4602 -23.4949)
(190.415 1.43336 -28.674)
(176.488 0.301734 -31.7283)
(207.991 8.44906 3.9466)
(209.774 7.86901 1.47298)
(211.169 7.18582 -1.30478)
(212.073 6.41909 -4.54102)
(212.29 5.59927 -8.29056)
(211.509 4.71106 -12.7329)
(209.134 3.74125 -18.0523)
(204.175 2.67376 -24.3473)
(195.18 1.48646 -31.3292)
(179.139 0.154739 -37.1169)
(209.103 7.86148 5.83535)
(211.315 7.18299 3.3599)
(213.177 6.39913 0.50393)
(214.601 5.53895 -2.86892)
(215.374 4.61647 -6.85716)
(215.176 3.61328 -11.6682)
(213.352 2.50578 -17.5868)
(208.735 1.27223 -24.9158)
(199.529 -0.111681 -33.6544)
(181.636 -1.63682 -42.4727)
(209.622 8.30848 6.75503)
(212.191 7.55739 4.33598)
(214.435 6.68792 1.48946)
(216.277 5.75456 -1.90581)
(217.518 4.76575 -6.01095)
(217.825 3.71432 -11.047)
(216.51 2.57401 -17.3866)
(212.279 1.31649 -25.5499)
(203.005 -0.111163 -35.8339)
(183.512 -1.72511 -47.7098)
(210.105 7.36071 7.99169)
(212.936 6.4469 5.61583)
(215.448 5.43651 2.74394)
(217.592 4.39737 -0.688512)
(219.187 3.31859 -4.90267)
(219.905 2.20074 -10.1259)
(219.057 1.01682 -16.8079)
(215.281 -0.257477 -25.7044)
(206.138 -1.65691 -37.4526)
(185.362 -3.20634 -52.4992)
(210.207 7.72698 7.96372)
(213.192 6.7156 5.73836)
(215.862 5.63441 3.00657)
(218.194 4.55595 -0.304614)
(220.033 3.4714 -4.44083)
(221.065 2.39106 -9.63981)
(220.631 1.30633 -16.4026)
(217.369 0.210837 -25.7032)
(208.601 -0.932701 -38.586)
(186.943 -2.37348 -56.596)
(210.363 5.90717 8.62491)
(213.394 4.72085 6.55288)
(216.126 3.54758 3.93438)
(218.562 2.42411 0.721662)
(220.589 1.33011 -3.39244)
(221.911 0.278798 -8.6656)
(221.891 -0.709595 -15.6277)
(219.188 -1.60188 -25.3125)
(210.935 -2.29132 -39.2979)
(188.494 -3.29447 -59.8484)
(209.572 5.86757 8.11112)
(212.612 4.54722 6.28539)
(215.391 3.28895 3.95985)
(217.876 2.0854 1.02315)
(219.946 0.970561 -2.80701)
(221.33 -0.0152637 -7.81157)
(221.53 -0.80403 -14.6004)
(219.33 -1.28859 -24.1871)
(211.839 -1.30418 -38.8532)
(189.045 -1.19847 -60.8216)
(194.404 3.82626 -0.0960296)
(194.636 3.0083 -1.97593)
(194.426 2.2913 -3.97612)
(193.731 1.68772 -6.06949)
(192.493 1.21281 -8.16665)
(190.656 0.868771 -10.1444)
(188.195 0.640228 -11.8176)
(185.172 0.477051 -12.9432)
(181.725 0.299185 -13.1122)
(177.802 0.0197838 -11.7335)
(199.38 6.84121 -0.297204)
(199.959 6.26027 -2.29992)
(200.077 5.6366 -4.44082)
(199.646 5.00642 -6.7234)
(198.548 4.38945 -9.10109)
(196.639 3.78968 -11.4634)
(193.753 3.20094 -13.6255)
(189.75 2.61151 -15.2887)
(184.543 2.01667 -15.8845)
(178.272 1.42748 -14.6616)
(202.712 6.79129 1.32536)
(203.65 6.27421 -0.775298)
(204.138 5.66877 -3.08188)
(204.066 5.01342 -5.60405)
(203.298 4.32629 -8.342)
(201.623 3.60528 -11.2512)
(198.752 2.84318 -14.1975)
(194.348 2.03062 -16.8715)
(188.081 1.16269 -18.5552)
(179.826 0.253086 -18.1477)
(204.686 7.3649 2.70956)
(206.058 6.86751 0.525187)
(206.999 6.26306 -1.90761)
(207.396 5.57743 -4.67205)
(207.07 4.83714 -7.76858)
(205.754 4.03553 -11.2182)
(203.04 3.16855 -14.9395)
(198.378 2.22727 -18.6539)
(191.167 1.20129 -21.5541)
(180.893 0.103938 -22.3268)
(206.127 6.8423 4.49039)
(207.903 6.24227 2.23761)
(209.272 5.53852 -0.342099)
(210.126 4.75673 -3.35099)
(210.25 3.91535 -6.80117)
(209.338 2.99852 -10.7703)
(206.877 1.99624 -15.2419)
(202.114 0.895427 -20.0155)
(194.137 -0.316481 -24.2503)
(181.958 -1.6013 -26.6177)
(206.926 7.37366 5.36725)
(209.055 6.70507 3.12483)
(210.791 5.92297 0.506493)
(212.037 5.07028 -2.60168)
(212.567 4.16433 -6.26111)
(212.043 3.19495 -10.5851)
(209.868 2.14932 -15.6318)
(205.104 1.00915 -21.3135)
(196.505 -0.257544 -26.8023)
(182.557 -1.63577 -30.9313)
(207.632 6.45867 6.64276)
(210.029 5.63568 4.41)
(212.041 4.72374 1.72926)
(213.588 3.7744 -1.47334)
(214.452 2.78927 -5.32032)
(214.277 1.7622 -9.95056)
(212.409 0.67784 -15.5033)
(207.761 -0.482427 -22.0422)
(198.743 -1.74537 -28.8219)
(183.243 -3.09551 -34.9914)
(207.909 6.90424 6.67498)
(210.477 5.98956 4.57075)
(212.669 5.01022 2.00786)
(214.426 4.02414 -1.10686)
(215.546 3.03702 -4.93105)
(215.673 2.04959 -9.63369)
(214.131 1.05702 -15.4258)
(209.725 0.0493009 -22.5454)
(200.548 -1.00682 -30.4239)
(183.794 -2.29541 -38.6407)
(208.161 5.13113 7.44366)
(210.792 4.04289 5.46595)
(213.061 2.9662 2.98971)
(214.933 1.92999 -0.0443295)
(216.24 0.933375 -3.85767)
(216.646 -0.0162458 -8.66128)
(215.475 -0.894231 -14.7456)
(211.453 -1.68549 -22.4626)
(202.35 -2.32847 -31.5362)
(184.418 -3.25678 -41.6448)
(207.487 5.2631 6.98286)
(210.138 4.03829 5.21718)
(212.467 2.88426 3.00777)
(214.403 1.77834 0.223463)
(215.783 0.770764 -3.33203)
(216.281 -0.105386 -7.88427)
(215.312 -0.777887 -13.812)
(211.669 -1.16513 -21.5964)
(202.975 -1.1409 -31.5521)
(184.16 -1.05134 -42.6975)
(191.878 2.90996 -0.317718)
(191.99 2.3784 -1.54437)
(191.783 1.90335 -2.8211)
(191.243 1.49821 -4.10488)
(190.357 1.17344 -5.31849)
(189.124 0.929303 -6.36976)
(187.583 0.755124 -7.1379)
(185.869 0.610936 -7.50637)
(184.266 0.428858 -7.30409)
(182.95 0.127505 -6.34014)
(196.415 5.53582 -0.659672)
(196.769 5.13888 -2.1295)
(196.741 4.6888 -3.64625)
(196.282 4.21454 -5.20764)
(195.332 3.73948 -6.74541)
(193.834 3.27133 -8.1499)
(191.745 2.80997 -9.26258)
(189.074 2.34984 -9.87515)
(185.933 1.89392 -9.68244)
(182.653 1.46628 -8.45878)
(199.668 5.61463 0.643404)
(200.326 5.21073 -1.04256)
(200.572 4.71918 -2.85851)
(200.328 4.17743 -4.7798)
(199.503 3.60289 -6.76832)
(197.977 2.99925 -8.72622)
(195.626 2.36385 -10.4867)
(192.357 1.69254 -11.7754)
(188.185 0.987036 -12.1176)
(183.474 0.274744 -11.0367)
(201.774 6.3 1.74574)
(202.806 5.89476 -0.0983618)
(203.415 5.38257 -2.12448)
(203.504 4.79236 -4.36209)
(202.937 4.14875 -6.77328)
(201.532 3.45236 -9.29365)
(199.059 2.70449 -11.7555)
(195.283 1.90241 -13.8371)
(190.068 1.04393 -14.8835)
(183.754 0.160497 -14.1809)
(203.395 5.83751 3.36338)
(204.793 5.32487 1.38967)
(205.768 4.71049 -0.849902)
(206.218 4.02196 -3.40421)
(205.964 3.27605 -6.24087)
(204.768 2.46456 -9.33635)
(202.296 1.58533 -12.542)
(198.146 0.631849 -15.5252)
(191.973 -0.402356 -17.4641)
(184.024 -1.467 -17.4864)
(204.38 6.4484 4.14724)
(206.111 5.87025 2.13587)
(207.419 5.18284 -0.189403)
(208.205 4.42392 -2.91383)
(208.261 3.61456 -6.02597)
(207.305 2.74663 -9.54539)
(204.903 1.81623 -13.3599)
(200.482 0.811459 -17.1609)
(193.442 -0.290245 -19.9887)
(183.878 -1.45818 -20.8987)
(205.246 5.56645 5.4182)
(207.241 4.8403 3.37818)
(208.815 4.03073 0.949574)
(209.879 3.17988 -1.92839)
(210.212 2.29719 -5.29543)
(209.5 1.37566 -9.20271)
(207.228 0.408163 -13.5947)
(202.661 -0.619867 -18.2271)
(194.905 -1.73321 -22.0552)
(183.827 -2.89663 -24.1546)
(205.662 6.09942 5.47464)
(207.838 5.28847 3.5342)
(209.598 4.41527 1.19291)
(210.868 3.52884 -1.63971)
(211.435 2.64444 -5.03983)
(210.964 1.76035 -9.09696)
(208.884 0.874637 -13.8184)
(204.319 -0.0268547 -19.0629)
(196.064 -0.979323 -23.7816)
(183.655 -2.10559 -27.1463)
(206.006 4.37194 6.33837)
(208.261 3.3922 4.49327)
(210.11 2.41963 2.20251)
(211.497 1.48077 -0.584059)
(212.231 0.586881 -4.00424)
(211.987 -0.255371 -8.19328)
(210.168 -1.02271 -13.2542)
(205.778 -1.71371 -19.154)
(197.266 -2.29623 -24.949)
(183.595 -3.1054 -29.6308)
(205.432 4.67552 5.90434)
(207.715 3.56389 4.24375)
(209.633 2.52406 2.19108)
(211.093 1.52904 -0.378863)
(211.91 0.638039 -3.58419)
(211.76 -0.119944 -7.57613)
(210.09 -0.676368 -12.5313)
(205.896 -0.968864 -18.5396)
(197.465 -0.913993 -25.121)
(182.773 -0.833273 -30.4953)
(190.517 2.15599 -0.357234)
(190.577 1.82875 -1.11093)
(190.427 1.52754 -1.88509)
(190.066 1.26498 -2.63764)
(189.499 1.0469 -3.31721)
(188.744 0.873368 -3.86663)
(187.849 0.739026 -4.2148)
(186.941 0.614282 -4.31966)
(186.313 0.444454 -4.10335)
(186.254 0.142339 -3.5316)
(194.354 4.38332 -0.792014)
(194.568 4.13913 -1.81213)
(194.495 3.83621 -2.827)
(194.111 3.49754 -3.83429)
(193.395 3.14625 -4.77384)
(192.338 2.79207 -5.56592)
(190.949 2.44004 -6.1068)
(189.28 2.09051 -6.27876)
(187.449 1.75154 -5.93519)
(185.689 1.44617 -5.04339)
(197.275 4.51715 0.221249)
(197.725 4.21919 -1.06634)
(197.833 3.83851 -2.42394)
(197.549 3.40798 -3.81715)
(196.823 2.94423 -5.19581)
(195.605 2.45396 -6.46222)
(193.86 1.93837 -7.47916)
(191.606 1.39823 -8.06112)
(188.957 0.840802 -7.95009)
(186.237 0.29359 -6.9713)
(199.322 5.28916 1.03418)
(200.077 4.97694 -0.456344)
(200.454 4.56223 -2.06583)
(200.377 4.07316 -3.79401)
(199.759 3.53314 -5.58463)
(198.495 2.94747 -7.34543)
(196.482 2.32078 -8.9106)
(193.665 1.65575 -10.0259)
(190.108 0.958149 -10.2797)
(186.23 0.263307 -9.32746)
(200.987 4.87449 2.45861)
(202.06 4.45224 0.79332)
(202.732 3.93292 -1.075)
(202.913 3.34438 -3.15276)
(202.475 2.70175 -5.38532)
(201.26 2.00329 -7.6969)
(199.081 1.2513 -9.90814)
(195.777 0.445066 -11.7142)
(191.311 -0.413914 -12.5292)
(186.169 -1.27389 -11.852)
(202.064 5.5545 3.11409)
(203.44 5.07057 1.37006)
(204.396 4.48227 -0.623749)
(204.841 3.82561 -2.9143)
(204.61 3.12084 -5.45247)
(203.494 2.36443 -8.19287)
(201.22 1.55751 -10.959)
(197.501 0.693571 -13.4196)
(192.147 -0.239479 -14.8158)
(185.679 -1.20344 -14.5097)
(203.028 4.70357 4.34333)
(204.655 4.07796 2.53365)
(205.851 3.37337 0.399622)
(206.531 2.6272 -2.09297)
(206.503 1.85236 -4.92787)
(205.519 1.044 -8.08825)
(203.223 0.20012 -11.4232)
(199.192 -0.689851 -14.6063)
(193.034 -1.64323 -16.729)
(185.251 -2.61256 -17.0497)
(203.539 5.32679 4.38942)
(205.348 4.62477 2.64749)
(206.724 3.86162 0.567655)
(207.59 3.08175 -1.92178)
(207.749 2.30521 -4.8338)
(206.923 1.53128 -8.18841)
(204.686 0.759602 -11.8751)
(200.482 -0.0268157 -15.6103)
(193.679 -0.860248 -18.3867)
(184.675 -1.80716 -19.4003)
(203.96 3.64025 5.32523)
(205.858 2.77603 3.64483)
(207.329 1.91339 1.57472)
(208.308 1.08012 -0.912499)
(208.602 0.293609 -3.88542)
(207.933 -0.438202 -7.40206)
(205.833 -1.09571 -11.4357)
(201.624 -1.68824 -15.778)
(194.384 -2.19898 -19.4231)
(184.212 -2.85856 -21.2822)
(203.457 4.11677 4.89234)
(205.392 3.12987 3.37262)
(206.937 2.21109 1.51101)
(207.991 1.33582 -0.795333)
(208.368 0.566006 -3.60065)
(207.78 -0.0718447 -6.98277)
(205.765 -0.517639 -10.9719)
(201.596 -0.727356 -15.427)
(194.217 -0.654243 -19.645)
(183.073 -0.570722 -21.8916)
(189.943 1.55403 -0.313791)
(189.982 1.36011 -0.755628)
(189.89 1.17482 -1.20899)
(189.673 1.00941 -1.63781)
(189.339 0.866287 -2.01294)
(188.906 0.745958 -2.30197)
(188.413 0.64701 -2.46248)
(187.964 0.546541 -2.48991)
(187.832 0.399005 -2.33371)
(188.413 0.10757 -2.0252)
(193.029 3.41322 -0.792454)
(193.159 3.28331 -1.46857)
(193.091 3.09492 -2.1159)
(192.812 2.86576 -2.73521)
(192.32 2.61665 -3.28277)
(191.625 2.35777 -3.70778)
(190.751 2.09718 -3.95069)
(189.749 1.83939 -3.95268)
(188.7 1.59487 -3.64728)
(187.74 1.38123 -3.05665)
(195.486 3.53431 -0.0132037)
(195.789 3.32634 -0.95371)
(195.827 3.04402 -1.92438)
(195.574 2.71425 -2.89373)
(195.006 2.352 -3.81563)
(194.111 1.96498 -4.61349)
(192.895 1.55703 -5.19196)
(191.409 1.13223 -5.43985)
(189.761 0.700383 -5.22844)
(188.164 0.284486 -4.51104)
(197.336 4.36087 0.532066)
(197.878 4.1348 -0.62407)
(198.102 3.81399 -1.84797)
(197.959 3.4237 -3.12807)
(197.398 2.98583 -4.40647)
(196.37 2.50833 -5.59582)
(194.845 1.99802 -6.56448)
(192.845 1.46136 -7.13952)
(190.486 0.909188 -7.09088)
(188.082 0.373499 -6.27218)
(198.933 3.97725 1.75616)
(199.738 3.64204 0.400804)
(200.186 3.21721 -1.09971)
(200.21 2.7284 -2.72743)
(199.725 2.18978 -4.42088)
(198.638 1.60404 -6.09076)
(196.866 0.9763 -7.57614)
(194.377 0.310391 -8.64521)
(191.255 -0.38569 -8.93391)
(187.921 -1.06576 -8.18734)
(200.017 4.71102 2.26441)
(201.085 4.31967 0.801887)
(201.765 3.83067 -0.849188)
(201.978 3.27819 -2.70288)
(201.606 2.68023 -4.69733)
(200.512 2.0379 -6.75504)
(198.547 1.35516 -8.6973)
(195.6 0.63037 -10.2448)
(191.689 -0.139087 -10.8853)
(187.33 -0.916237 -10.2414)
(201.018 3.88678 3.42392)
(202.316 3.36122 1.86542)
(203.201 2.76122 0.0459167)
(203.596 2.1216 -2.03861)
(203.353 1.45545 -4.34394)
(202.294 0.76155 -6.81128)
(200.2 0.0411182 -9.26292)
(196.867 -0.711801 -11.3917)
(192.195 -1.50518 -12.5388)
(186.776 -2.28893 -12.1978)
(201.578 4.59836 3.43077)
(203.051 4.00637 1.90994)
(204.1 3.35427 0.114534)
(204.65 2.68416 -2.00129)
(204.538 2.01716 -4.40969)
(203.554 1.35492 -7.08192)
(201.414 0.698576 -9.85751)
(197.808 0.0316629 -12.432)
(192.48 -0.673394 -14.0227)
(186.037 -1.445 -14.0109)
(202.054 2.94565 4.41525)
(203.622 2.19945 2.92252)
(204.765 1.44913 1.09661)
(205.416 0.725265 -1.06159)
(205.406 0.0468393 -3.57128)
(204.511 -0.576399 -6.42833)
(202.4 -1.12822 -9.53155)
(198.666 -1.62288 -12.6137)
(192.845 -2.0517 -14.8544)
(185.418 -2.56528 -15.3596)
(201.599 3.59698 3.96)
(203.208 2.74067 2.60703)
(204.425 1.94608 0.961508)
(205.147 1.1943 -1.04938)
(205.208 0.545005 -3.43328)
(204.37 0.0226596 -6.2074)
(202.289 -0.323354 -9.31223)
(198.488 -0.46465 -12.5014)
(192.414 -0.383175 -15.1191)
(184.175 -0.298672 -15.7966)
(189.84 1.08594 -0.241238)
(189.871 0.973388 -0.490291)
(189.821 0.861149 -0.750832)
(189.699 0.759393 -0.991669)
(189.513 0.667914 -1.19913)
(189.276 0.587612 -1.35557)
(189.014 0.519513 -1.43308)
(188.812 0.444552 -1.44488)
(188.924 0.322773 -1.34422)
(189.831 0.0469589 -1.19447)
(192.25 2.62934 -0.728263)
(192.332 2.57772 -1.15924)
(192.283 2.47232 -1.55459)
(192.099 2.32636 -1.91874)
(191.783 2.1577 -2.2236)
(191.35 1.97599 -2.43899)
(190.82 1.79024 -2.53273)
(190.231 1.60671 -2.47701)
(189.635 1.43651 -2.24269)
(189.103 1.29208 -1.85927)
(194.213 2.6881 -0.12174)
(194.416 2.54971 -0.783097)
(194.424 2.34791 -1.45221)
(194.226 2.10362 -2.10377)
(193.815 1.8294 -2.70193)
(193.194 1.5326 -3.19372)
(192.384 1.21821 -3.51923)
(191.433 0.891631 -3.61656)
(190.418 0.562512 -3.4231)
(189.467 0.248523 -2.93724)
(195.792 3.53673 0.194132)
(196.173 3.38413 -0.669294)
(196.303 3.14685 -1.56365)
(196.151 2.84657 -2.47607)
(195.692 2.50317 -3.35642)
(194.911 2.12577 -4.13546)
(193.812 1.72232 -4.72078)
(192.44 1.30126 -5.00452)
(190.899 0.875157 -4.86511)
(189.392 0.470276 -4.24627)
(197.239 3.16591 1.22802)
(197.83 2.90908 0.161244)
(198.122 2.57225 -1.00264)
(198.066 2.17741 -2.23528)
(197.613 1.73788 -3.47875)
(196.716 1.25904 -4.65195)
(195.353 0.747697 -5.63019)
(193.547 0.210637 -6.2544)
(191.409 -0.340845 -6.31295)
(189.235 -0.868888 -5.68714)
(198.259 3.93459 1.58546)
(199.072 3.6292 0.397994)
(199.543 3.235 -0.923333)
(199.611 2.78266 -2.37269)
(199.2 2.28872 -3.88675)
(198.228 1.7574 -5.38305)
(196.63 1.19443 -6.71025)
(194.391 0.601901 -7.65949)
(191.604 -0.0163159 -7.91165)
(188.666 -0.629526 -7.26152)
(199.243 3.13111 2.65731)
(200.257 2.7007 1.35352)
(200.895 2.20143 -0.153006)
(201.094 1.66568 -1.8404)
(200.748 1.10501 -3.6568)
(199.742 0.522196 -5.52457)
(197.957 -0.0795839 -7.27958)
(195.324 -0.701801 -8.6722)
(191.883 -1.34472 -9.26752)
(188.125 -1.96224 -8.74866)
(199.809 3.92499 2.60357)
(200.983 3.43964 1.31309)
(201.763 2.89598 -0.192427)
(202.081 2.33442 -1.9332)
(201.813 1.77466 -3.86097)
(200.814 1.22119 -5.91873)
(198.914 0.676683 -7.94184)
(195.97 0.127869 -9.66236)
(191.938 -0.447495 -10.5326)
(187.369 -1.05952 -10.1316)
(200.316 2.29699 3.61613)
(201.587 1.66675 2.32353)
(202.454 1.02746 0.752466)
(202.856 0.412356 -1.06902)
(202.657 -0.161088 -3.13046)
(201.692 -0.681526 -5.38627)
(199.746 -1.13541 -7.70592)
(196.608 -1.53726 -9.82732)
(192.106 -1.8809 -11.1573)
(186.762 -2.26556 -11.0609)
(199.887 3.12528 3.11762)
(201.199 2.40006 1.94689)
(202.135 1.72884 0.531611)
(202.599 1.09919 -1.17044)
(202.453 0.565097 -3.13723)
(201.517 0.148815 -5.34295)
(199.556 -0.111579 -7.68513)
(196.295 -0.200204 -9.89517)
(191.506 -0.117996 -11.4578)
(185.526 -0.03875 -11.3985)
(189.988 0.728547 -0.165393)
(190.013 0.663001 -0.300891)
(189.99 0.594651 -0.450947)
(189.925 0.533204 -0.586515)
(189.825 0.476332 -0.703887)
(189.699 0.425055 -0.793475)
(189.565 0.381652 -0.834273)
(189.491 0.329181 -0.848354)
(189.714 0.231406 -0.786066)
(190.787 -0.028415 -0.728866)
(191.849 2.0182 -0.64172)
(191.901 2.01605 -0.907234)
(191.871 1.96714 -1.13817)
(191.758 1.88103 -1.3417)
(191.566 1.77274 -1.50173)
(191.306 1.65099 -1.60117)
(190.994 1.52461 -1.62323)
(190.655 1.40002 -1.55486)
(190.318 1.28772 -1.38333)
(190.02 1.19591 -1.1328)
(193.351 1.98505 -0.151946)
(193.485 1.89596 -0.602997)
(193.485 1.75572 -1.05185)
(193.344 1.57993 -1.47896)
(193.063 1.3783 -1.85903)
(192.65 1.15712 -2.15765)
(192.128 0.921309 -2.33918)
(191.531 0.676092 -2.37076)
(190.912 0.429471 -2.22224)
(190.342 0.194055 -1.90547)
(194.637 2.82891 -0.0211127)
(194.9 2.73437 -0.644282)
(194.975 2.56654 -1.27514)
(194.843 2.34355 -1.90347)
(194.495 2.08283 -2.48999)
(193.929 1.79359 -2.98476)
(193.166 1.48396 -3.32765)
(192.247 1.16287 -3.45546)
(191.252 0.842494 -3.30668)
(190.304 0.543202 -2.86217)
(195.885 2.45412 0.843684)
(196.31 2.26376 0.0292237)
(196.497 2.0044 -0.846266)
(196.412 1.69396 -1.75261)
(196.03 1.34458 -2.64047)
(195.333 0.962971 -3.44488)
(194.326 0.556692 -4.07755)
(193.052 0.133862 -4.43693)
(191.609 -0.293638 -4.40526)
(190.189 -0.696687 -3.93196)
(196.793 3.23765 1.0588)
(197.398 3.00801 0.124219)
(197.717 2.69993 -0.899549)
(197.706 2.33969 -1.99735)
(197.317 1.94262 -3.11096)
(196.512 1.51479 -4.16696)
(195.271 1.06296 -5.04997)
(193.623 0.591513 -5.61629)
(191.672 0.107666 -5.67696)
(189.694 -0.366213 -5.12819)
(197.718 2.44868 2.03448)
(198.493 2.10491 0.974033)
(198.943 1.69943 -0.238096)
(199.018 1.26068 -1.56542)
(198.647 0.799316 -2.95582)
(197.765 0.320663 -4.33137)
(196.319 -0.170748 -5.55835)
(194.31 -0.672883 -6.45214)
(191.83 -1.18131 -6.74294)
(189.237 -1.65698 -6.24439)
(198.249 3.31568 1.90686)
(199.165 2.92958 0.843363)
(199.731 2.48829 -0.382166)
(199.89 2.02984 -1.77024)
(199.555 1.57145 -3.26638)
(198.634 1.12012 -4.80191)
(197.038 0.67975 -6.23218)
(194.725 0.241207 -7.34712)
(191.751 -0.212101 -7.78769)
(188.54 -0.684944 -7.29466)
(198.768 1.7017 2.93136)
(199.775 1.1812 1.8406)
(200.418 0.648066 0.522178)
(200.643 0.137041 -0.974183)
(200.347 -0.337735 -2.62458)
(199.419 -0.763829 -4.36129)
(197.736 -1.1301 -6.05531)
(195.21 -1.44919 -7.48188)
(191.828 -1.71372 -8.24128)
(188.033 -1.99241 -7.92705)
(198.345 2.70916 2.37162)
(199.391 2.11071 1.38836)
(200.095 1.55811 0.206101)
(200.368 1.04476 -1.19107)
(200.107 0.616801 -2.76595)
(199.183 0.294111 -4.46705)
(197.454 0.104097 -6.1819)
(194.783 0.0533453 -7.6658)
(191.131 0.130129 -8.55483)
(186.86 0.198038 -8.19698)
(190.244 0.457544 -0.0961055)
(190.265 0.41791 -0.167083)
(190.256 0.37482 -0.256352)
(190.223 0.33809 -0.33469)
(190.171 0.303663 -0.404703)
(190.105 0.272509 -0.460988)
(190.039 0.24746 -0.485698)
(190.027 0.212809 -0.505939)
(190.295 0.135218 -0.467609)
(191.445 -0.110486 -0.464477)
(191.689 1.55689 -0.556248)
(191.723 1.58359 -0.714621)
(191.707 1.57105 -0.842239)
(191.641 1.52598 -0.94774)
(191.529 1.46094 -1.02323)
(191.378 1.38364 -1.05939)
(191.198 1.30219 -1.04772)
(191.005 1.22253 -0.981897)
(190.816 1.15422 -0.856312)
(190.649 1.10218 -0.68788)
(192.795 1.41772 -0.137403)
(192.884 1.36078 -0.437743)
(192.882 1.26507 -0.73321)
(192.789 1.14157 -1.00902)
(192.606 0.997168 -1.24836)
(192.342 0.836729 -1.4296)
(192.013 0.664414 -1.53196)
(191.645 0.484434 -1.53826)
(191.269 0.302565 -1.43357)
(190.926 0.127107 -1.23231)
(193.804 2.23916 -0.148744)
(193.984 2.18747 -0.58443)
(194.028 2.07427 -1.01526)
(193.926 1.91449 -1.43467)
(193.675 1.72286 -1.81408)
(193.283 1.50789 -2.1193)
(192.767 1.27718 -2.31287)
(192.164 1.03909 -2.35905)
(191.527 0.804384 -2.22808)
(190.929 0.588598 -1.91503)
(194.835 1.8479 0.57328)
(195.136 1.71099 -0.0315173)
(195.254 1.51669 -0.672613)
(195.169 1.27895 -1.32273)
(194.869 1.00833 -1.94274)
(194.351 0.711825 -2.48419)
(193.632 0.396945 -2.88782)
(192.754 0.0718743 -3.09181)
(191.791 -0.252526 -3.03276)
(190.864 -0.554775 -2.69244)
(195.604 2.62735 0.662961)
(196.045 2.46132 -0.0505118)
(196.257 2.22805 -0.819638)
(196.21 1.94926 -1.62706)
(195.878 1.63878 -2.42321)
(195.244 1.30355 -3.14865)
(194.315 0.950673 -3.72089)
(193.133 0.585625 -4.04657)
(191.788 0.216706 -4.01823)
(190.462 -0.141555 -3.58762)
(196.443 1.84782 1.54158)
(197.023 1.57981 0.702257)
(197.333 1.25843 -0.246769)
(197.337 0.907365 -1.26407)
(196.992 0.536488 -2.30188)
(196.263 0.152389 -3.29154)
(195.138 -0.239669 -4.1321)
(193.649 -0.635387 -4.69552)
(191.894 -1.02833 -4.82308)
(190.117 -1.38666 -4.40917)
(196.906 2.77698 1.33445)
(197.605 2.47972 0.484085)
(198.007 2.13185 -0.483026)
(198.066 1.76752 -1.55714)
(197.725 1.40196 -2.68419)
(196.932 1.04319 -3.79702)
(195.65 0.696023 -4.77901)
(193.891 0.354832 -5.47802)
(191.744 0.00834888 -5.6688)
(189.509 -0.348292 -5.20692)
(197.422 1.16528 2.36002)
(198.203 0.744868 1.46298)
(198.667 0.309961 0.383933)
(198.773 -0.105236 -0.814371)
(198.448 -0.490048 -2.10425)
(197.623 -0.831941 -3.41181)
(196.238 -1.12204 -4.62607)
(194.276 -1.37076 -5.57053)
(191.797 -1.56847 -5.99011)
(189.134 -1.7658 -5.64325)
(196.989 2.35422 1.72414)
(197.803 1.87418 0.924253)
(198.319 1.43196 -0.0328898)
(198.46 1.02544 -1.14352)
(198.153 0.691988 -2.36638)
(197.313 0.449022 -3.63853)
(195.867 0.314744 -4.85731)
(193.762 0.28959 -5.82136)
(191.052 0.356946 -6.29474)
(188.046 0.410545 -5.85606)
(190.527 0.250245 -0.0352991)
(190.546 0.22431 -0.0706968)
(190.543 0.195117 -0.127928)
(190.527 0.173034 -0.176151)
(190.501 0.152639 -0.222025)
(190.467 0.134817 -0.262261)
(190.435 0.12262 -0.28041)
(190.451 0.10122 -0.306984)
(190.727 0.0399911 -0.283012)
(191.905 -0.193772 -0.312784)
(191.671 1.21935 -0.482987)
(191.694 1.26144 -0.574072)
(191.687 1.2711 -0.638558)
(191.65 1.25299 -0.685489)
(191.587 1.21769 -0.712272)
(191.501 1.17194 -0.714001)
(191.399 1.12298 -0.686533)
(191.29 1.07608 -0.62663)
(191.185 1.04002 -0.531814)
(191.091 1.01738 -0.412623)
(192.455 0.970122 -0.100289)
(192.513 0.932372 -0.296809)
(192.513 0.867333 -0.489231)
(192.454 0.78206 -0.666401)
(192.339 0.680923 -0.817489)
(192.175 0.567302 -0.929212)
(191.973 0.444285 -0.989455)
(191.749 0.314768 -0.989083)
(191.522 0.182265 -0.920118)
(191.316 0.0515133 -0.79599)
(193.226 1.76077 -0.216809)
(193.347 1.73869 -0.511914)
(193.374 1.66644 -0.79674)
(193.301 1.55623 -1.06798)
(193.129 1.42006 -1.30613)
(192.866 1.26529 -1.48866)
(192.526 1.0985 -1.59278)
(192.137 0.926902 -1.59863)
(191.732 0.759516 -1.49238)
(191.355 0.608273 -1.27364)
(194.043 1.34648 0.38934)
(194.252 1.25055 -0.0483955)
(194.327 1.10865 -0.506692)
(194.256 0.931159 -0.963231)
(194.033 0.726838 -1.38871)
(193.663 0.502191 -1.74882)
(193.164 0.264053 -2.00513)
(192.571 0.0198442 -2.12104)
(191.935 -0.221371 -2.06293)
(191.332 -0.444134 -1.82706)
(194.665 2.10532 0.375439)
(194.98 1.99034 -0.15282)
(195.119 1.81946 -0.713379)
(195.063 1.6101 -1.29063)
(194.797 1.37425 -1.84507)
(194.321 1.11885 -2.33159)
(193.648 0.850737 -2.69373)
(192.818 0.575501 -2.87308)
(191.904 0.301156 -2.81006)
(191.02 0.0360588 -2.48549)
(195.405 1.33286 1.16145)
(195.829 1.12863 0.514481)
(196.039 0.879936 -0.209482)
(196.01 0.605623 -0.970726)
(195.715 0.314549 -1.72862)
(195.142 0.0135555 -2.42755)
(194.298 -0.291996 -2.99516)
(193.222 -0.596736 -3.34633)
(191.999 -0.894162 -3.39213)
(190.791 -1.15818 -3.07321)
(195.777 2.31244 0.875862)
(196.298 2.09175 0.217157)