/*--------------------------------*- C++ -*----------------------------------*\
| =========                 |                                                 |
| \\      /  F ield         | foam-extend: Open Source CFD                    |
|  \\    /   O peration     | Version:     4.0                                |
|   \\  /    A nd           | Web:         http://www.foam-extend.org         |
|    \\/     M anipulation  |                                                 |
\*---------------------------------------------------------------------------*/
FoamFile
{
    version     2.0;
    format      ascii;
    class       volScalarField;
    location    "1400";
    object      alphat;
}
// * * * * * * * * * * * * * * * * * * * * * * * * * * * * * * * * * * * * * //

dimensions      [1 -1 -1 0 0 0 0];

internalField   nonuniform List<scalar> 
34480
(
0.00188861
0.00188735
0.00188718
0.00188801
0.00189012
0.00189401
0.00190154
0.00191981
0.00195911
0.00203039
0.015939
0.0151306
0.0148299
0.0145587
0.0129343
0.00824829
0.00340882
0.00134933
0.000985825
0.00145633
0.0442883
0.0426292
0.0409404
0.0374937
0.0286832
0.0146912
0.00512267
0.00182995
0.00124169
0.00181268
0.0484348
0.0462775
0.0443359
0.0402947
0.02972
0.0141692
0.0047969
0.00177669
0.00128789
0.00197797
0.0477502
0.0453322
0.0435675
0.0397245
0.0288557
0.0131937
0.00441081
0.00168539
0.00129933
0.00209675
0.0459955
0.0435136
0.0418533
0.0380646
0.0268362
0.0116163
0.00385902
0.00155396
0.00130589
0.00222452
0.0438622
0.0415416
0.0400818
0.0364652
0.0252658
0.0105499
0.00349421
0.00146162
0.00131356
0.00233441
0.0364098
0.0347189
0.0336889
0.0309387
0.02142
0.008636
0.00281203
0.00124028
0.00123704
0.00234189
0.0124291
0.0121092
0.0120057
0.0117287
0.00992954
0.00512418
0.00167723
0.000737123
0.000835153
0.00178778
0.0018011
0.00180098
0.00180262
0.00180587
0.00181063
0.00181674
0.00182477
0.00183601
0.00185256
0.00181381
0.00188861
0.00188675
0.00188615
0.00188667
0.00188852
0.00189195
0.00189745
0.00190691
0.00192462
0.0019655
0.0149721
0.0143371
0.0141443
0.0143268
0.0147367
0.0147821
0.0129504
0.00764629
0.00249634
0.00204774
0.0407635
0.0395349
0.0388678
0.0383286
0.0367133
0.0319993
0.0230141
0.0112995
0.00328299
0.00280427
0.0448374
0.0431689
0.0423654
0.0417915
0.0399472
0.0344461
0.0242163
0.0114434
0.00330164
0.00317022
0.0446651
0.0427098
0.0419649
0.0416063
0.0401224
0.0348498
0.024462
0.0112871
0.00323864
0.00345074
0.0434456
0.0413804
0.0406537
0.0404296
0.0392148
0.0342186
0.0239636
0.0108509
0.00316622
0.00378206
0.0418379
0.0398554
0.0392189
0.0390788
0.0381022
0.0334711
0.0235415
0.0105538
0.00312989
0.00409913
0.0351462
0.0336745
0.0332056
0.033188
0.0326794
0.0293639
0.0210969
0.00938443
0.00285571
0.00417304
0.0123676
0.0120603
0.0119989
0.0120568
0.0121873
0.0120306
0.0106128
0.00545471
0.00170784
0.00280393
0.00179657
0.00179408
0.00179356
0.00179473
0.00179751
0.0018016
0.00180777
0.00181759
0.00184184
0.0018891
0.00188409
0.00188249
0.00188196
0.00188242
0.001884
0.00188676
0.00189073
0.00189673
0.00190567
0.00191922
0.0140748
0.0136589
0.0135243
0.0136741
0.0141119
0.014749
0.0151469
0.0142177
0.0101123
0.00584079
0.0372297
0.0362622
0.0359233
0.0360685
0.0363841
0.0359618
0.033024
0.0253682
0.0133454
0.00710314
0.0410978
0.0397945
0.0393645
0.0395899
0.0400863
0.0397323
0.0362082
0.0266231
0.0125406
0.00720492
0.0413212
0.0398071
0.0393919
0.039732
0.0405368
0.0406668
0.0373721
0.026697
0.0114193
0.00717491
0.0405757
0.0389694
0.0385343
0.0389387
0.0399687
0.0405883
0.0377067
0.0261788
0.0103042
0.00724599
0.0394667
0.0379014
0.0375091
0.0379179
0.0390509
0.0400311
0.037659
0.0255306
0.00937995
0.00733028
0.0336249
0.032462
0.0321527
0.0324703
0.0334129
0.0345764
0.0334215
0.0226393
0.00796871
0.00704364
0.0122607
0.0120053
0.0119608
0.0120214
0.0122178
0.0124502
0.012607
0.010647
0.0044886
0.00445909
0.00178928
0.00178635
0.00178546
0.00178633
0.00178901
0.00179335
0.00180037
0.00181218
0.00183889
0.00189235
0.0018759
0.00187477
0.0018744
0.00187475
0.0018759
0.00187776
0.00188007
0.00188315
0.0018871
0.00189179
0.0134822
0.0132356
0.0131446
0.0132398
0.0135296
0.013982
0.0144529
0.0148682
0.0145972
0.0128647
0.0340545
0.0333714
0.0331756
0.0333772
0.0339425
0.0346196
0.0346426
0.0324171
0.025688
0.0173863
0.0376581
0.0367175
0.0364494
0.0367404
0.0375489
0.0385547
0.0386111
0.0353004
0.0257929
0.0167228
0.0382006
0.0371094
0.0368416
0.0371986
0.0382123
0.0395935
0.0399868
0.0361511
0.0246331
0.0158778
0.037876
0.0367011
0.0364
0.0367965
0.0379574
0.0397024
0.0405509
0.0363563
0.0231406
0.0153293
0.0372134
0.0360392
0.0357586
0.0361478
0.0373523
0.0392942
0.0405279
0.0360644
0.0215211
0.0148403
0.0322092
0.0313279
0.0310978
0.0313854
0.0322946
0.033928
0.0354169
0.0320028
0.0185254
0.0137201
0.0121948
0.0119844
0.0119517
0.011998
0.0121476
0.0123377
0.012546
0.0126751
0.00958742
0.00831973
0.00178039
0.00177733
0.00177631
0.0017771
0.00177979
0.00178444
0.00179203
0.00180472
0.00183084
0.00187816
0.00186482
0.00186414
0.00186391
0.00186415
0.0018649
0.001866
0.00186718
0.0018686
0.00187018
0.00187165
0.0131975
0.0130622
0.0130024
0.0130612
0.0132393
0.0134956
0.0137247
0.0140138
0.0142955
0.0144184
0.0315182
0.0311178
0.0310112
0.0311356
0.0315185
0.0321316
0.0328173
0.0330977
0.0316433
0.0274648
0.0347837
0.0341822
0.0340132
0.0342086
0.0348041
0.0357889
0.0368892
0.0371176
0.0340983
0.0274709
0.0355233
0.0348009
0.034625
0.0348659
0.0356101
0.0368769
0.0383377
0.0385913
0.0342345
0.0263025
0.0355191
0.0347096
0.0344949
0.0347713
0.0356326
0.0371744
0.0390592
0.0394653
0.0338283
0.02539
0.0352078
0.034365
0.0341574
0.0344343
0.0353388
0.0370122
0.0391651
0.0396475
0.0328208
0.0244365
0.0309649
0.0303177
0.0301423
0.0303505
0.0310216
0.0323289
0.0342032
0.0350367
0.0289276
0.0222878
0.0121765
0.0120031
0.0119793
0.0120109
0.0121128
0.0122301
0.012302
0.0126987
0.0125755
0.0122108
0.00177008
0.001767
0.00176591
0.00176665
0.00176931
0.00177404
0.00178167
0.00179403
0.00181672
0.00185333
0.0018514
0.00185106
0.00185095
0.00185109
0.00185152
0.00185208
0.0018526
0.00185318
0.00185376
0.00185415
0.013153
0.0130893
0.0130523
0.0130903
0.0132005
0.013334
0.0134257
0.0135411
0.0136612
0.0137536
0.0297566
0.0295639
0.0295162
0.0295757
0.0297685
0.0300962
0.030551
0.0311017
0.031424
0.0310629
0.0326144
0.0322744
0.0321757
0.0322827
0.0326283
0.0332511
0.0341614
0.0352011
0.0354848
0.0339492
0.0333949
0.0329583
0.032851
0.03299
0.0334448
0.0342777
0.0355204
0.0369147
0.0369252
0.0340662
0.0335793
0.0330569
0.0329111
0.033083
0.0336385
0.034693
0.0363174
0.0381603
0.0378621
0.033847
0.0335028
0.0329281
0.0327815
0.0329605
0.0335672
0.0347395
0.0365865
0.0386996
0.0379531
0.0330971
0.0299121
0.0294572
0.0293295
0.0294702
0.0299247
0.0308216
0.0322821
0.0342251
0.0337697
0.0299502
0.0122095
0.0120673
0.0120521
0.0120721
0.0121359
0.0121879
0.0121412
0.0123372
0.012749
0.013639
0.00175817
0.00175519
0.0017541
0.00175478
0.00175733
0.00176192
0.00176916
0.00178041
0.00179887
0.00182533
0.00183601
0.0018359
0.00183587
0.00183595
0.00183617
0.00183638
0.00183657
0.00183677
0.00183694
0.00183698
0.0132726
0.0132571
0.0132373
0.0132628
0.0133304
0.01339
0.0134296
0.0134723
0.0135033
0.0134935
0.0286927
0.0286165
0.0286014
0.0286262
0.0287079
0.0288413
0.0290335
0.0292983
0.0295792
0.0297974
0.031135
0.0309585
0.0309044
0.0309569
0.0311349
0.0314595
0.0319603
0.0326569
0.0333551
0.0337501
0.031832
0.031587
0.0315265
0.0315992
0.0318498
0.0323134
0.0330495
0.034108
0.035101
0.0353937
0.032086
0.031767
0.0316727
0.0317722
0.0321031
0.0327356
0.0337717
0.0353126
0.0366684
0.0367255
0.0321363
0.0317618
0.0316633
0.0317713
0.0321523
0.032889
0.0341141
0.0359817
0.0374881
0.0371064
0.029078
0.0287714
0.028683
0.0287728
0.029062
0.0296233
0.0305485
0.0321227
0.0335638
0.0335481
0.0123022
0.012185
0.0121773
0.0121885
0.012223
0.0122208
0.0121003
0.0121044
0.0122917
0.0129863
0.00174453
0.00174176
0.00174072
0.00174134
0.0017437
0.00174794
0.00175447
0.00176419
0.00177859
0.00179714
0.00181888
0.00181892
0.00181894
0.00181898
0.00181907
0.00181911
0.00181914
0.00181917
0.00181919
0.00181911
0.0134985
0.0135182
0.0135124
0.0135296
0.013568
0.0135911
0.0136104
0.0136271
0.013628
0.0135859
0.028133
0.028112
0.0281122
0.0281221
0.0281525
0.0281971
0.0282622
0.0283508
0.0284477
0.028532
0.0302086
0.0301204
0.0300915
0.0301163
0.030204
0.0303615
0.0305996
0.0309299
0.0313036
0.0316359
0.0307629
0.0306326
0.0306008
0.0306365
0.0307669
0.031004
0.0313755
0.0319232
0.0325643
0.0331345
0.0310064
0.0308199
0.0307615
0.0308165
0.0310044
0.0313579
0.0319309
0.032821
0.0338905
0.0348269
0.0311031
0.0308682
0.0308048
0.0308667
0.0310957
0.0315305
0.0322443
0.0333976
0.0347836
0.0359176
0.028467
0.0282688
0.0282107
0.0282649
0.0284385
0.028764
0.0292796
0.0302137
0.0314719
0.0327052
0.0124608
0.0123628
0.0123614
0.0123663
0.012379
0.012335
0.0121785
0.012072
0.0120522
0.0123143
0.00172904
0.00172655
0.0017256
0.00172616
0.00172827
0.00173201
0.00173764
0.00174566
0.00175653
0.00176932
0.00180013
0.00180024
0.00180029
0.00180031
0.00180032
0.0018003
0.00180028
0.00180025
0.0018002
0.00180009
0.013799
0.0138443
0.0138502
0.0138616
0.0138779
0.0138887
0.0138997
0.0139064
0.0138965
0.0138436
0.027892
0.0278947
0.0279014
0.0279057
0.0279146
0.0279269
0.0279453
0.0279691
0.0279919
0.0280062
0.0296699
0.0296253
0.0296096
0.0296215
0.0296654
0.0297426
0.0298546
0.0300009
0.0301602
0.0302948
0.0300773
0.0300096
0.0299937
0.0300108
0.0300772
0.0301954
0.0303736
0.0306235
0.030916
0.0311822
0.030272
0.0301661
0.030131
0.0301607
0.0302649
0.0304564
0.0307563
0.0312037
0.0317629
0.0323147
0.0303673
0.0302236
0.0301843
0.0302185
0.0303526
0.030601
0.0309944
0.0316097
0.0324008
0.0331965
0.0280655
0.027942
0.0279059
0.027937
0.0280347
0.0282081
0.0284676
0.0289398
0.0296433
0.0305004
0.0126902
0.0126062
0.0126101
0.0126106
0.0126073
0.0125342
0.0123681
0.0122145
0.0120883
0.0121466
0.0017116
0.00170946
0.00170863
0.00170911
0.00171093
0.00171409
0.00171875
0.00172511
0.00173308
0.00174174
0.0017798
0.00177993
0.00177999
0.00178
0.00177998
0.00177995
0.00177991
0.00177986
0.00177981
0.00177968
0.0141704
0.0142237
0.0142403
0.0142473
0.0142536
0.0142607
0.0142676
0.0142696
0.0142548
0.0141965
0.0278395
0.0278493
0.0278584
0.0278607
0.0278624
0.0278649
0.0278688
0.027873
0.0278741
0.0278693
0.0293784
0.0293545
0.0293455
0.0293516
0.0293748
0.029415
0.029471
0.0295395
0.029609
0.029661
0.0296632
0.0296277
0.0296198
0.029628
0.0296626
0.0297226
0.0298095
0.0299232
0.0300487
0.0301525
0.0298015
0.0297421
0.0297213
0.0297373
0.0297948
0.0298981
0.030054
0.0302721
0.0305358
0.0307825
0.0298748
0.0297877
0.0297638
0.0297825
0.0298604
0.0300009
0.0302151
0.0305302
0.0309242
0.0312991
0.0278461
0.0277716
0.0277508
0.0277675
0.0278179
0.0278989
0.0280155
0.0282285
0.0285573
0.0289741
0.0129946
0.0129204
0.0129289
0.0129264
0.0129112
0.0128216
0.0126627
0.0125009
0.0123355
0.0123337
0.00169217
0.00169039
0.00168969
0.00169009
0.0016916
0.00169417
0.00169788
0.00170273
0.00170842
0.00171419
0.00175786
0.00175798
0.00175804
0.00175804
0.00175803
0.001758
0.00175796
0.00175791
0.00175786
0.00175774
0.0146089
0.0146661
0.0146843
0.0146911
0.0146961
0.0147012
0.0147055
0.0147047
0.014687
0.0146245
0.0278922
0.0279033
0.0279117
0.0279139
0.0279143
0.0279144
0.0279144
0.0279134
0.0279093
0.0279
0.0292331
0.0292191
0.0292136
0.0292171
0.0292303
0.0292529
0.0292833
0.0293185
0.0293522
0.0293745
0.0294275
0.0294079
0.0294035
0.0294078
0.0294268
0.0294591
0.0295042
0.0295594
0.029616
0.0296589
0.0295175
0.029484
0.0294717
0.0294805
0.0295127
0.0295692
0.0296515
0.0297597
0.0298841
0.0299949
0.0295662
0.0295129
0.0294983
0.0295088
0.0295547
0.0296351
0.0297534
0.0299167
0.0301097
0.0302782
0.0277743
0.0277306
0.0277197
0.027728
0.0277505
0.0277794
0.0278227
0.0279062
0.0280413
0.0282349
0.0133789
0.0133114
0.013324
0.0133193
0.0132947
0.013201
0.0130592
0.0129104
0.012743
0.0127416
0.00167069
0.00166928
0.00166872
0.00166904
0.00167023
0.00167224
0.00167509
0.00167866
0.00168263
0.0016864
0.00173424
0.00173435
0.00173441
0.00173441
0.0017344
0.00173437
0.00173434
0.0017343
0.00173426
0.00173414
0.0151192
0.01518
0.0151996
0.0152064
0.0152104
0.0152141
0.0152167
0.015214
0.015194
0.0151276
0.0280017
0.0280128
0.0280202
0.0280224
0.0280228
0.0280224
0.0280218
0.0280199
0.0280148
0.0280047
0.0291685
0.0291599
0.0291564
0.0291585
0.0291664
0.0291797
0.0291973
0.029217
0.0292351
0.0292459
0.0293012
0.0292894
0.0292865
0.0292891
0.0293004
0.0293194
0.0293449
0.0293745
0.0294029
0.0294232
0.0293563
0.029337
0.0293296
0.0293347
0.0293532
0.0293849
0.0294296
0.0294851
0.029546
0.0295997
0.0293866
0.0293531
0.029344
0.0293503
0.0293782
0.0294256
0.0294933
0.0295814
0.0296791
0.0297601
0.0278141
0.0277892
0.0277846
0.0277882
0.0277948
0.0277985
0.0278073
0.0278313
0.0278767
0.0279745
0.0138496
0.0137866
0.0138033
0.0137969
0.0137641
0.0136787
0.0135591
0.0134332
0.0132817
0.0133033
0.00164715
0.00164607
0.00164564
0.00164589
0.00164679
0.00164831
0.00165042
0.00165296
0.00165566
0.00165809
0.00170887
0.00170898
0.00170902
0.00170902
0.00170902
0.001709
0.00170897
0.00170894
0.00170891
0.0017088
0.0157127
0.0157773
0.015798
0.0158047
0.0158082
0.0158108
0.0158121
0.015808
0.0157863
0.015716
0.0281419
0.0281525
0.028159
0.0281611
0.0281616
0.0281614
0.0281609
0.0281591
0.0281543
0.0281441
0.0291456
0.0291402
0.0291381
0.0291393
0.0291441
0.029152
0.0291623
0.0291738
0.0291843
0.0291899
0.0292379
0.0292301
0.0292279
0.0292296
0.0292368
0.029249
0.0292649
0.0292825
0.0292986
0.0293098
0.0292703
0.029259
0.0292544
0.0292574
0.0292683
0.0292867
0.0293118
0.0293415
0.0293727
0.0294012
0.0292908
0.0292689
0.0292631
0.0292672
0.0292849
0.0293143
0.0293548
0.0294052
0.0294578
0.0295015
0.0279341
0.0279195
0.0279186
0.0279196
0.0279178
0.0279126
0.0279076
0.0279073
0.0279149
0.0279729
0.0144183
0.0143574
0.0143785
0.0143705
0.0143328
0.0142654
0.0141698
0.0140696
0.0139409
0.0139915
0.00162154
0.00162075
0.00162043
0.00162061
0.00162127
0.00162238
0.00162388
0.00162564
0.00162742
0.00162897
0.00168167
0.00168176
0.0016818
0.0016818
0.0016818
0.00168179
0.00168177
0.00168175
0.00168172
0.00168161
0.0164072
0.016476
0.0164977
0.0165044
0.0165073
0.0165091
0.0165095
0.0165045
0.0164815
0.0164069
0.0282986
0.0283085
0.0283141
0.0283162
0.0283167
0.0283168
0.0283165
0.0283151
0.0283109
0.028301
0.0291425
0.0291393
0.0291381
0.0291388
0.0291415
0.029146
0.029152
0.0291586
0.0291648
0.0291679
0.0292085
0.029203
0.0292012
0.0292023
0.0292072
0.0292155
0.029226
0.0292375
0.0292476
0.0292545
0.0292274
0.0292204
0.0292175
0.0292193
0.0292259
0.0292369
0.0292513
0.0292679
0.0292848
0.029301
0.0292453
0.0292303
0.0292264
0.0292294
0.029241
0.0292602
0.0292857
0.0293163
0.0293469
0.0293739
0.0281086
0.028097
0.0280983
0.0280979
0.0280939
0.0280873
0.0280787
0.0280708
0.0280647
0.0281061
0.0151141
0.0150444
0.015067
0.0150573
0.0150284
0.0149783
0.014906
0.0148306
0.0147255
0.0148037
0.00159385
0.00159329
0.00159307
0.00159319
0.00159366
0.00159444
0.00159547
0.00159664
0.00159779
0.00159876
0.00165255
0.00165264
0.00165267
0.00165267
0.00165267
0.00165266
0.00165265
0.00165263
0.00165261
0.00165251
0.0172288
0.017302
0.0173246
0.0173311
0.0173337
0.0173348
0.0173346
0.0173292
0.0173052
0.017226
0.0284635
0.0284727
0.0284774
0.0284792
0.0284799
0.0284801
0.0284801
0.0284791
0.0284757
0.0284663
0.0291478
0.0291461
0.0291455
0.0291458
0.0291472
0.0291495
0.0291527
0.0291563
0.0291599
0.0291617
0.029196
0.029192
0.0291904
0.0291912
0.0291946
0.0292003
0.0292075
0.0292152
0.029222
0.0292266
0.0292068
0.0292023
0.0292004
0.0292015
0.0292056
0.0292123
0.0292209
0.0292304
0.0292399
0.0292498
0.0292266
0.029216
0.0292134
0.0292156
0.0292236
0.0292365
0.0292532
0.0292727
0.0292917
0.0293107
0.028315
0.0283041
0.0283051
0.0283049
0.0283018
0.0282965
0.0282889
0.0282805
0.0282712
0.028305
0.0159633
0.015886
0.0159029
0.0158967
0.0158774
0.0158431
0.0157925
0.0157389
0.0156557
0.0157568
0.00156409
0.00156371
0.00156355
0.00156364
0.00156396
0.00156448
0.00156517
0.00156592
0.00156664
0.00156724
0.00162149
0.00162156
0.00162159
0.00162159
0.00162159
0.00162158
0.00162157
0.00162156
0.00162154
0.00162145
0.0182142
0.0182926
0.0183157
0.0183219
0.0183241
0.0183249
0.0183243
0.0183187
0.0182943
0.0182099
0.0286307
0.028639
0.0286428
0.0286443
0.0286449
0.0286454
0.0286456
0.0286451
0.0286426
0.0286341
0.0291555
0.0291547
0.0291545
0.0291546
0.0291552
0.0291562
0.0291576
0.0291593
0.0291613
0.0291627
0.0291906
0.0291877
0.0291864
0.0291868
0.0291891
0.029193
0.029198
0.0292033
0.0292079
0.0292111
0.0291966
0.0291936
0.0291923
0.0291929
0.0291954
0.0291995
0.0292047
0.0292104
0.0292159
0.0292221
0.0292197
0.0292121
0.0292103
0.029212
0.0292176
0.0292263
0.0292374
0.0292501
0.0292624
0.0292767
0.0285342
0.0285238
0.0285245
0.0285244
0.0285228
0.0285196
0.0285145
0.0285082
0.0284997
0.0285289
0.0170043
0.0169215
0.0169323
0.0169294
0.0169186
0.0168987
0.0168678
0.0168323
0.0167688
0.0168864
0.00153228
0.00153202
0.00153192
0.00153198
0.00153219
0.00153252
0.00153296
0.00153343
0.00153386
0.00153422
0.00158853
0.0015886
0.00158862
0.00158862
0.00158862
0.00158862
0.00158861
0.00158859
0.00158857
0.00158849
0.0194177
0.0195017
0.0195247
0.0195304
0.0195325
0.0195329
0.0195321
0.0195268
0.0195027
0.0194127
0.0287941
0.0288012
0.028804
0.028805
0.0288056
0.0288061
0.0288066
0.0288066
0.0288051
0.0287981
0.0291626
0.0291623
0.0291623
0.0291623
0.0291625
0.0291627
0.0291631
0.0291638
0.0291648
0.029166
0.0291872
0.029185
0.0291839
0.0291841
0.0291856
0.0291882
0.0291914
0.029195
0.0291982
0.0292005
0.0291899
0.0291879
0.029187
0.0291873
0.0291888
0.0291912
0.0291943
0.0291977
0.029201
0.0292049
0.0292147
0.0292094
0.0292081
0.0292094
0.0292131
0.0292189
0.0292261
0.0292343
0.0292421
0.0292532
0.0287485
0.028739
0.0287393
0.0287395
0.028739
0.0287377
0.0287351
0.0287315
0.028725
0.0287502
0.0182941
0.0182082
0.0182129
0.0182127
0.0182096
0.0182026
0.0181901
0.0181695
0.0181244
0.0182501
0.00149849
0.00149833
0.00149826
0.0014983
0.00149843
0.00149864
0.00149891
0.00149919
0.00149945
0.00149966
0.00155391
0.00155396
0.00155398
0.00155398
0.00155398
0.00155398
0.00155397
0.00155396
0.00155393
0.00155386
0.0209219
0.0210113
0.0210338
0.0210389
0.0210399
0.02104
0.0210392
0.0210345
0.0210118
0.0209163
0.0289451
0.0289503
0.0289519
0.0289525
0.0289529
0.0289535
0.0289542
0.0289547
0.0289542
0.0289497
0.0291672
0.0291671
0.0291673
0.0291673
0.0291672
0.0291671
0.0291671
0.0291672
0.0291676
0.0291687
0.029183
0.0291814
0.0291806
0.0291806
0.0291815
0.0291831
0.0291851
0.0291873
0.0291895
0.0291913
0.0291836
0.0291822
0.0291816
0.0291817
0.0291826
0.029184
0.0291857
0.0291876
0.0291895
0.0291919
0.0292053
0.0292019
0.029201
0.0292018
0.0292042
0.0292078
0.0292121
0.0292169
0.0292217
0.0292298
0.0289386
0.0289305
0.0289306
0.0289309
0.0289311
0.0289309
0.0289301
0.0289285
0.0289243
0.0289449
0.0199161
0.0198307
0.0198281
0.0198301
0.0198342
0.0198396
0.0198451
0.0198377
0.0198123
0.0199348
0.00146293
0.00146284
0.00146279
0.00146281
0.00146289
0.00146302
0.00146318
0.00146335
0.00146351
0.00146362
0.00151782
0.00151785
0.00151786
0.00151786
0.00151786
0.00151785
0.00151785
0.00151785
0.00151783
0.00151779
0.0228596
0.0229515
0.0229713
0.0229754
0.0229762
0.022976
0.0229751
0.0229712
0.0229512
0.0228529
0.0290713
0.029074
0.0290744
0.0290743
0.0290746
0.0290751
0.029076
0.0290769
0.0290776
0.0290762
0.0291687
0.0291686
0.0291688
0.0291688
0.0291687
0.0291686
0.0291685
0.0291684
0.0291685
0.0291694
0.0291779
0.0291768
0.0291762
0.0291762
0.0291767
0.0291776
0.0291787
0.0291801
0.0291815
0.0291828
0.0291773
0.0291765
0.0291761
0.0291761
0.0291766
0.0291773
0.0291782
0.0291792
0.0291802
0.0291815
0.0291901
0.0291881
0.0291875
0.029188
0.0291893
0.0291912
0.0291936
0.0291961
0.0291987
0.0292038
0.0290831
0.029077
0.029077
0.0290772
0.0290774
0.0290776
0.0290774
0.029077
0.0290749
0.0290903
0.0220157
0.0219373
0.0219352
0.021937
0.0219401
0.0219443
0.0219485
0.0219515
0.0219525
0.0220558
0.00142573
0.00142567
0.00142564
0.00142565
0.0014257
0.00142578
0.00142588
0.00142598
0.0014261
0.00142616
0.0014794
0.00147939
0.00147938
0.00147937
0.00147937
0.00147937
0.00147938
0.0014794
0.00147942
0.00147944
0.0254683
0.0255488
0.0255626
0.0255654
0.025566
0.0255657
0.0255646
0.0255613
0.0255466
0.0254582
0.0291593
0.0291591
0.0291585
0.029158
0.029158
0.0291585
0.0291593
0.0291606
0.0291621
0.0291637
0.0291679
0.0291679
0.029168
0.029168
0.029168
0.029168
0.029168
0.029168
0.029168
0.0291683
0.0291736
0.029173
0.0291726
0.0291726
0.0291729
0.0291734
0.0291741
0.0291749
0.0291757
0.0291765
0.0291731
0.0291726
0.0291723
0.0291724
0.0291727
0.0291731
0.0291737
0.0291742
0.0291748
0.0291754
0.0291754
0.0291744
0.0291741
0.0291744
0.0291751
0.0291762
0.0291774
0.0291787
0.02918
0.0291823
0.0291702
0.0291665
0.0291661
0.029166
0.029166
0.029166
0.0291659
0.029166
0.0291661
0.0291758
0.0249103
0.0248515
0.0248504
0.0248515
0.0248536
0.0248563
0.0248592
0.024861
0.0248613
0.0249384
0.00138612
0.00138607
0.00138604
0.00138606
0.00138609
0.00138616
0.00138623
0.00138631
0.00138639
0.00138644
0.00234427
0.00236512
0.0023549
0.002321
0.00141082
0.00143375
0.00143108
0.00142626
0.00188707
0.00192905
0.00191987
0.0018952
0.00227387
0.00233192
0.00231235
0.00226612
0.0026213
0.00269234
0.00266029
0.00259578
0.0029628
0.003045
0.00300478
0.00293129
0.00324496
0.00333534
0.00329308
0.00321974
0.00341285
0.0035096
0.00346965
0.00340096
0.00304494
0.00313444
0.0030957
0.00303992
0.00237473
0.00239139
0.00235655
0.00227532
0.00202767
0.00203337
0.00203447
0.00203146
0.00235463
0.00243451
0.0023342
0.00214225
0.00330836
0.00342237
0.00329162
0.00305369
0.0040714
0.00423941
0.00408055
0.00378253
0.00485326
0.00508887
0.00489413
0.00451831
0.00582895
0.00615468
0.00591299
0.0054281
0.00679609
0.00720952
0.00690777
0.00630951
0.00749532
0.00799311
0.00763481
0.00693939
0.00592072
0.00635718
0.00600401
0.00540665
0.00218167
0.00221402
0.00220716
0.00217138
0.00193327
0.00193532
0.00193547
0.00193421
0.00406853
0.00404335
0.00405316
0.00414398
0.00499238
0.00497295
0.00499249
0.00509664
0.00549588
0.00551506
0.00553449
0.00558424
0.00601028
0.00606415
0.00606712
0.00602555
0.00675375
0.00685047
0.00681032
0.0066323
0.00751274
0.00763625
0.00752206
0.00718398
0.00805296
0.00821352
0.00802546
0.00752631
0.00612807
0.00626776
0.00609077
0.00560921
0.00204805
0.00206515
0.00206323
0.00204547
0.00189451
0.00189474
0.00189486
0.00189489
0.0102434
0.00996395
0.0100992
0.0106135
0.0119505
0.0116152
0.0119172
0.0128105
0.0114411
0.0112594
0.0116311
0.0125261
0.0110893
0.011028
0.0114248
0.0122556
0.011207
0.0112499
0.01164
0.0123674
0.0114039
0.0115061
0.0118446
0.0124238
0.0113562
0.011534
0.0118038
0.0121754
0.00802105
0.00820599
0.00832848
0.0083698
0.00195686
0.00196731
0.00196828
0.00196029
0.00187258
0.00187262
0.00187266
0.00187267
0.0144921
0.0144315
0.0144591
0.0145682
0.0238459
0.0235214
0.0237085
0.0243351
0.0222481
0.0219556
0.0223078
0.0232347
0.0203813
0.020202
0.020682
0.0217901
0.0193302
0.0193006
0.0198721
0.0210714
0.0185176
0.0185938
0.0191874
0.0203803
0.0173328
0.0175463
0.0181021
0.0191158
0.0108827
0.0111188
0.0113602
0.0116741
0.00189367
0.00190016
0.00190162
0.00189822
0.00185456
0.00185453
0.00185452
0.00185452
0.0140875
0.0140134
0.0140036
0.0140583
0.0304074
0.0302998
0.0303252
0.0304719
0.031801
0.031562
0.0316522
0.0320291
0.0304343
0.0301474
0.0303681
0.0310272
0.0290264
0.0288095
0.0291995
0.03013
0.0274504
0.0273242
0.0278403
0.0289698
0.0247783
0.0248455
0.0254041
0.0264825
0.0131764
0.0134096
0.0135855
0.0137462
0.00184579
0.00184971
0.00185099
0.00184964
0.00183728
0.00183724
0.00183721
0.00183721
0.0137856
0.0136947
0.0136768
0.0137311
0.0299195
0.029922
0.0299358
0.0299611
0.0336796
0.0336827
0.0337149
0.0337736
0.0348289
0.0347828
0.0348439
0.0350003
0.0353504
0.0352663
0.0354033
0.0357312
0.0347125
0.0346004
0.0348337
0.0353687
0.0311049
0.0311386
0.0314519
0.0320174
0.0133193
0.0135974
0.0136588
0.0135507
0.00180749
0.00180988
0.00181083
0.00181032
0.00181938
0.00181932
0.00181929
0.00181929
0.0138651
0.0137677
0.0137475
0.013803
0.0286283
0.0286212
0.0286239
0.0286366
0.0317638
0.0317898
0.031807
0.0318157
0.033322
0.0333675
0.0334004
0.033422
0.035059
0.0351327
0.0351944
0.0352459
0.0359265
0.0359919
0.0360785
0.036187
0.03263
0.0327897
0.032917
0.0330154
0.0123955
0.0126527
0.0126933
0.012554
0.00177469
0.0017762
0.00177684
0.00177661
0.00180035
0.00180029
0.00180026
0.00180025
0.0141243
0.0140237
0.0140026
0.0140593
0.0280705
0.0280576
0.028056
0.0280662
0.0303456
0.0303535
0.0303585
0.0303608
0.0312856
0.031307
0.0313199
0.0313247
0.0325646
0.0326219
0.0326536
0.0326611
0.0335017
0.0335811
0.0336251
0.0336385
0.0307828
0.0309519
0.0310209
0.0309974
0.0119598
0.0121851
0.012227
0.0121048
0.00174463
0.00174566
0.00174607
0.00174589
0.00177995
0.00177988
0.00177985
0.00177985
0.0144825
0.0143791
0.0143573
0.0144154
0.0279235
0.0279098
0.0279075
0.0279168
0.0296782
0.0296792
0.0296801
0.0296811
0.0301839
0.0301892
0.0301926
0.0301942
0.0308877
0.0309109
0.0309234
0.0309255
0.0314218
0.0314555
0.0314739
0.0314784
0.0290497
0.0291609
0.0292013
0.0291722
0.0120343
0.0122542
0.012296
0.0121733
0.00171579
0.00171653
0.00171679
0.00171661
0.00175801
0.00175794
0.00175791
0.00175791
0.0149179
0.0148113
0.0147886
0.0148483
0.0279498
0.0279367
0.0279344
0.0279431
0.0293818
0.0293813
0.0293813
0.029382
0.0296679
0.0296688
0.0296695
0.02967
0.0300382
0.0300474
0.0300522
0.0300528
0.0303071
0.0303181
0.0303246
0.0303269
0.0281918
0.0282675
0.0282923
0.0282657
0.0123992
0.0126303
0.0126732
0.0125412
0.0016873
0.00168787
0.00168804
0.00168785
0.00173443
0.00173435
0.00173431
0.00173432
0.01543
0.0153197
0.0152961
0.0153575
0.0280508
0.0280384
0.0280362
0.0280442
0.0292499
0.0292491
0.029249
0.0292497
0.0294263
0.0294263
0.0294264
0.0294266
0.0296212
0.0296256
0.0296279
0.0296279
0.0297609
0.0297648
0.0297672
0.0297682
0.0278946
0.0279542
0.0279719
0.0279471
0.0129405
0.0131905
0.013236
0.0130918
0.00165858
0.00165906
0.00165916
0.00165896
0.00170909
0.00170901
0.00170897
0.00170898
0.016029
0.0159142
0.0158895
0.0159531
0.0281864
0.0281747
0.0281725
0.0281799
0.0291925
0.0291917
0.0291916
0.0291922
0.0293112
0.0293111
0.029311
0.0293111
0.029414
0.0294166
0.0294179
0.0294178
0.0294966
0.0294987
0.0294998
0.0295002
0.0278875
0.0279389
0.0279533
0.0279304
0.013614
0.0138868
0.0139361
0.0137784
0.00162922
0.00162963
0.0016297
0.0016295
0.00168192
0.00168183
0.00168179
0.00168181
0.0167325
0.0166125
0.0165863
0.0166524
0.0283389
0.028328
0.0283258
0.0283325
0.0291696
0.0291689
0.0291688
0.0291694
0.0292553
0.0292551
0.0292551
0.0292552
0.0293096
0.0293114
0.0293122
0.029312
0.0293698
0.0293715
0.0293723
0.0293723
0.0280262
0.0280719
0.0280844
0.0280634
0.0144118
0.0147104
0.014764
0.0145914
0.00159888
0.00159924
0.00159928
0.00159908
0.00165283
0.00165273
0.00165269
0.00165271
0.0175666
0.0174399
0.017412
0.0174811
0.0284995
0.0284895
0.0284874
0.0284933
0.0291629
0.0291623
0.0291623
0.0291628
0.0292271
0.029227
0.0292269
0.029227
0.0292559
0.0292571
0.0292576
0.0292575
0.029309
0.0293106
0.0293113
0.029311
0.028235
0.0282761
0.028287
0.0282677
0.0153485
0.0156759
0.0157342
0.0155448
0.00156727
0.00156759
0.00156762
0.00156743
0.00162179
0.00162168
0.00162164
0.00162167
0.0185684
0.0184333
0.0184031
0.018476
0.0286621
0.0286531
0.0286511
0.0286563
0.0291635
0.0291631
0.0291631
0.0291635
0.0292114
0.0292114
0.0292113
0.0292114
0.0292266
0.0292274
0.0292278
0.0292276
0.0292774
0.029279
0.0292796
0.0292792
0.0284718
0.0285084
0.0285178
0.0285002
0.0164578
0.0168171
0.0168801
0.016672
0.00153421
0.00153449
0.00153451
0.00153434
0.00158885
0.00158873
0.00158869
0.00158873
0.0197924
0.0196463
0.0196129
0.0196905
0.0288204
0.0288125
0.0288107
0.0288152
0.0291665
0.0291663
0.0291663
0.0291666
0.0292009
0.0292008
0.0292008
0.0292009
0.0292082
0.0292088
0.029209
0.0292088
0.0292556
0.0292572
0.0292577
0.0292571
0.0287085
0.0287407
0.0287485
0.0287323
0.0177941
0.0181875
0.0182549
0.0180265
0.00149962
0.00149986
0.00149988
0.00149973
0.00155424
0.00155412
0.00155408
0.00155412
0.0213191
0.0211574
0.0211197
0.0212038
0.0289677
0.0289616
0.0289601
0.0289635
0.0291692
0.0291691
0.0291691
0.0291692
0.0291918
0.0291918
0.0291919
0.029192
0.0291941
0.0291946
0.0291947
0.0291945
0.0292331
0.0292344
0.0292348
0.0292342
0.0289202
0.0289478
0.0289539
0.0289391
0.0194371
0.0198603
0.0199304
0.0196841
0.0014636
0.00146379
0.00146381
0.00146369
0.00151821
0.00151809
0.00151805
0.0015181
0.0232738
0.0230895
0.0230461
0.0231399
0.0290911
0.0290872
0.0290862
0.0290884
0.0291695
0.0291695
0.0291695
0.0291695
0.0291834
0.0291835
0.0291836
0.0291837
0.0291828
0.0291831
0.0291831
0.029183
0.0292069
0.0292079
0.0292081
0.0292076
0.0290821
0.0291039
0.029108
0.0290953
0.0215262
0.0219787
0.0220458
0.021778
0.00142625
0.00142641
0.00142642
0.00142633
0.0014799
0.0014798
0.00147979
0.00147985
0.0258505
0.0256416
0.025596
0.0257033
0.0291738
0.0291721
0.0291717
0.0291726
0.0291679
0.0291678
0.0291677
0.0291677
0.0291771
0.0291772
0.0291773
0.0291774
0.0291759
0.029176
0.029176
0.029176
0.0291837
0.0291842
0.0291843
0.0291841
0.029178
0.0291904
0.0291923
0.0291845
0.0244757
0.0249008
0.0249504
0.0246907
0.00138681
0.00138694
0.00138694
0.00138684
0.00215566
0.00203909
0.00197466
0.00194212
0.00192299
0.00191059
0.00190241
0.00189721
0.00189387
0.0018916
0.00174769
0.00158367
0.00476611
0.00942558
0.0139376
0.0171265
0.0186381
0.0187909
0.0181617
0.0172237
0.00236343
0.00257495
0.00732585
0.0155558
0.0249632
0.0330874
0.0390759
0.0428827
0.0447618
0.0451501
0.00276798
0.0036001
0.00829105
0.0178451
0.0291733
0.0385275
0.045005
0.0487378
0.0501769
0.0499698
0.00307655
0.00394247
0.00872049
0.0193521
0.0320893
0.0419698
0.048155
0.0510091
0.0513249
0.0501145
0.0033887
0.00407211
0.00894374
0.0204252
0.0342699
0.0443117
0.0498897
0.0516805
0.0509057
0.0488679
0.00363131
0.00408627
0.00897583
0.0211779
0.0358979
0.045753
0.0504317
0.0510623
0.0493382