/*--------------------------------*- C++ -*----------------------------------*\
| =========                 |                                                 |
| \\      /  F ield         | foam-extend: Open Source CFD                    |
|  \\    /   O peration     | Version:     4.0                                |
|   \\  /    A nd           | Web:         http://www.foam-extend.org         |
|    \\/     M anipulation  |                                                 |
\*---------------------------------------------------------------------------*/
FoamFile
{
    version     2.0;
    format      ascii;
    class       volScalarField;
    location    "1400";
    object      divFlux;
}
// * * * * * * * * * * * * * * * * * * * * * * * * * * * * * * * * * * * * * //

dimensions      [1 -3 -1 0 0 0 0];

internalField   nonuniform List<scalar> 
34480
(
8.90793e-05
2.54329e-05
2.63467e-05
2.59956e-05
2.48574e-05
2.35921e-05
2.25321e-05
0.00268265
0.0972131
2.01626e-05
2.29192e-05
1.28855e-05
1.20609e-05
1.166e-05
1.10349e-05
1.07667e-05
1.07868e-05
1.08211e-05
0.0532025
1.04224e-05
1.06644e-05
2.84625e-06
4.69323e-06
4.07329e-06
4.02504e-06
4.19732e-06
4.43659e-06
4.58065e-06
0.0149792
4.50844e-06
3.90395e-06
1.23315e-06
1.95412e-06
1.58268e-06
1.68546e-06
1.74892e-06
1.86481e-06
1.92899e-06
0.000747976
1.90391e-06
1.6763e-06
5.17824e-07
8.70174e-07
6.61369e-07
7.4692e-07
7.50128e-07
8.07598e-07
8.29657e-07
8.43468e-07
8.21278e-07
5.63563e-07
3.62717e-07
3.32419e-07
3.24802e-07
3.30987e-07
3.42041e-07
3.61743e-07
3.74573e-07
3.7841e-07
3.68044e-07
3.94441e-07
1.11799e-07
1.85619e-07
1.4372e-07
1.58891e-07
1.60368e-07
1.70346e-07
1.75386e-07
1.78288e-07
1.75692e-07
1.87441e-07
4.60942e-08
1.0236e-07
7.19821e-08
8.1146e-08
8.09627e-08
8.55447e-08
8.88895e-08
9.07222e-08
9.08139e-08
1.22171e-07
3.92796e-08
6.93121e-08
4.06959e-08
5.00264e-08
4.72772e-08
4.84019e-08
5.15676e-08
5.08178e-08
5.32754e-08
1.65599e-07
7.88474e-08
4.71939e-08
2.34442e-08
3.99773e-08
2.94771e-08
3.65027e-08
3.12335e-08
3.887e-08
3.79918e-08
5.73273e-05
4.46796e-05
3.83836e-05
3.48156e-05
3.29841e-05
3.16862e-05
3.07692e-05
3.02406e-05
3.0142e-05
0.0100902
3.63193e-05
2.00271e-05
1.7607e-05
1.73224e-05
1.6693e-05
1.63612e-05
1.63918e-05
1.66942e-05
1.72218e-05
0.0152779
2.0164e-05
4.37423e-06
7.51397e-06
7.06302e-06
6.86708e-06
7.18646e-06
7.56317e-06
7.97315e-06
8.40264e-06
0.00693297
7.0694e-06
1.92097e-06
3.58574e-06
3.20693e-06
3.14598e-06
3.43005e-06
3.56898e-06
3.80124e-06
4.01851e-06
0.000891045
2.70624e-06
9.88331e-07
1.23617e-06
1.8835e-06
1.37936e-06
1.69833e-06
1.71884e-06
1.84048e-06
1.9539e-06
1.98338e-06
4.81832e-07
1.41949e-06
9.15798e-09
1.24447e-06
6.38503e-07
8.83692e-07
8.87632e-07
9.37362e-07
9.99231e-07
9.61168e-07
5.39887e-08
1.38146e-06
7.83847e-07
1.09546e-06
3.00486e-07
4.94247e-07
5.11664e-07
5.28181e-07
5.4839e-07
4.93697e-07
1.949e-06
8.04496e-07
3.80589e-07
6.26747e-07
2.67328e-07
3.1742e-07
3.42381e-07
3.32882e-07
3.40975e-07
2.97491e-07
7.41569e-07
1.04777e-06
2.2316e-07
3.46144e-07
2.74972e-07
2.16268e-07
2.50809e-07
2.21689e-07
2.41089e-07
2.34768e-07
1.53612e-05
1.43212e-06
6.2434e-07
1.73292e-07
2.14645e-07
1.26543e-07
1.05423e-07
1.67683e-07
1.55757e-07
1.89221e-07
5.40834e-05
3.77359e-05
3.18114e-05
2.81005e-05
2.63514e-05
2.54092e-05
2.4945e-05
2.49198e-05
0.00180979
0.00814839
2.91224e-05
1.64348e-05
1.30392e-05
1.27857e-05
1.23009e-05
1.1851e-05
1.17017e-05
1.19524e-05
0.0010888
0.00520476
1.63946e-05
2.88674e-06
5.23181e-06
5.00931e-06
4.62909e-06
4.56067e-06
4.66053e-06
4.93732e-06
0.000108154
0.00123954
6.01502e-06
1.07076e-06
2.55869e-06
1.96185e-06
1.95525e-06
1.94103e-06
1.97683e-06
2.11612e-06
2.37667e-06
2.96748e-06
2.64258e-06
4.3637e-07
1.16079e-06
8.44174e-07
8.63973e-07
8.5034e-07
8.63916e-07
9.24728e-07
1.06202e-06
1.35801e-06
3.87361e-07
6.22333e-07
3.72222e-07
4.36568e-07
3.76577e-07
3.86823e-07
3.81329e-07
4.17215e-07
4.96312e-07
6.50868e-07
2.91792e-07
2.30813e-07
1.60372e-07
2.25753e-07
1.59624e-07
1.75067e-07
1.75111e-07
1.93678e-07
2.36708e-07
3.32063e-07
5.18357e-07
3.16784e-08
1.21091e-07
9.4283e-08
7.95525e-08
8.54922e-08
8.22848e-08
9.74508e-08
1.2121e-07
1.86438e-07
6.53665e-07
2.0735e-08
7.53443e-08
5.32774e-08
5.61932e-08
5.14415e-08
5.27734e-08
6.48328e-08
6.92606e-08
1.1573e-07
1.52445e-06
4.24326e-07
1.45028e-07
2.29009e-08
6.70527e-08
2.91706e-08
4.90026e-08
3.62322e-08
5.44143e-08
8.1242e-08
5.3266e-05
3.3687e-05
3.01937e-05
2.68172e-05
2.48294e-05
2.37396e-05
2.32638e-05
2.32832e-05
0.000234779
0.00315008
2.44984e-05
1.72025e-05
1.26929e-05
1.20853e-05
1.16609e-05
1.12357e-05
1.10018e-05
1.10675e-05
0.000489149
0.0031932
1.55757e-05
3.2744e-06
4.73638e-06
4.90137e-06
4.49567e-06
4.33444e-06
4.33532e-06
4.47808e-06
0.000349774
8.60434e-06
6.17879e-06
9.55664e-07
2.51703e-06
1.97342e-06
1.91418e-06
1.86433e-06
1.86341e-06
1.93602e-06
0.0014319
0.00569879
2.86995e-06
3.39299e-07
1.21e-06
8.22164e-07
8.64287e-07
8.2695e-07
8.30052e-07
8.58923e-07
0.00115755
0.00984565
5.23994e-07
5.90092e-07
3.89468e-07
4.24255e-07
3.90527e-07
3.84775e-07
3.77412e-07
3.91263e-07
0.000441201
0.0115973
4.47345e-07
1.88926e-07
1.88353e-07
2.19153e-07
1.79314e-07
1.80296e-07
1.79846e-07
1.88353e-07
2.18866e-07
0.00782026
4.67634e-07
9.86555e-09
1.33774e-07
1.01969e-07
9.18453e-08
9.52688e-08
9.06305e-08
9.82506e-08
1.16656e-07
0.00428674
6.34111e-07
5.99362e-08
1.03876e-07
5.41467e-08
6.23457e-08
6.32158e-08
5.30089e-08
7.10467e-08
7.4092e-08
8.66247e-08
6.2447e-07
1.23595e-07
1.64487e-07
1.28534e-08
6.56169e-08
2.88052e-08
5.47575e-08
3.65357e-08
5.57391e-08
7.55906e-08
5.7444e-05
2.71865e-05
2.6683e-05
2.47727e-05
2.31862e-05
2.21118e-05
2.1556e-05
2.14882e-05
9.80526e-05
0.000800218
1.81972e-05
1.74894e-05
1.23472e-05
1.13013e-05
1.08794e-05
1.05353e-05
1.03006e-05
1.02407e-05
0.000137534
0.000228364
1.49719e-05
4.05699e-06
4.23532e-06
4.71086e-06
4.36324e-06
4.14857e-06
4.08262e-06
4.10819e-06
0.000880204
0.00205922
6.40266e-06
7.71581e-07
2.38858e-06
1.96169e-06
1.86276e-06
1.79649e-06
1.77182e-06
1.78802e-06
0.00201095
0.00646995
2.96815e-06
2.16231e-07
1.22997e-06
8.08752e-07
8.44733e-07
8.06943e-07
7.9741e-07
8.03081e-07
0.00225995
0.0105789
5.01144e-07
5.93529e-07
4.00263e-07
4.06338e-07
3.90596e-07
3.75752e-07
3.69464e-07
3.71303e-07
0.00279146
0.0143365
4.72607e-07
2.04454e-07
1.82743e-07
2.10538e-07
1.86127e-07
1.78712e-07
1.7856e-07
1.80575e-07
0.000507328
0.014409
4.19836e-07
2.0088e-08
1.22479e-07
1.05334e-07
9.59229e-08
9.62993e-08
9.40065e-08
9.58202e-08
0.00101848
0.0154293
5.67375e-07
6.65142e-08
1.10847e-07
5.47855e-08
6.17543e-08
6.82252e-08
5.27633e-08
6.99985e-08
7.51318e-08
0.0112934
5.40869e-08
5.15604e-08
1.62723e-07
2.56661e-10
6.06861e-08
3.00864e-08
5.30718e-08
3.90695e-08
5.36422e-08
0.0160391
7.82397e-05
2.13399e-05
2.20235e-05
2.13068e-05
2.04717e-05
1.97652e-05
1.932e-05
1.92086e-05
1.94747e-05
5.72783e-05
1.10818e-05
1.70171e-05
1.1918e-05
1.04586e-05
9.93556e-06
9.6463e-06
9.46301e-06
9.3929e-06
0.000381928
0.000894319
1.31913e-05
5.24961e-06
3.77146e-06
4.41438e-06
4.17988e-06
3.94818e-06
3.84393e-06
3.80525e-06
0.00109102
0.00253372
7.03174e-06
6.77071e-07
2.21716e-06
1.93699e-06
1.81279e-06
1.72999e-06
1.68922e-06
1.67193e-06
0.00225831
0.00581205
3.22838e-06
3.8767e-08
1.22991e-06
8.13063e-07
8.19153e-07
7.85839e-07
7.67887e-07
7.58162e-07
0.0028226
0.00917483
4.30835e-07
5.86482e-07
4.25784e-07
3.92937e-07
3.85341e-07
3.68639e-07
3.5989e-07
3.53925e-07
0.00396251
0.0131022
4.14145e-07
2.50302e-07
1.81973e-07
2.02157e-07
1.87063e-07
1.76848e-07
1.74798e-07
1.73242e-07
0.00272617
0.0145447
3.62751e-07
6.57904e-08
1.09979e-07
1.05525e-07
9.69676e-08
9.38817e-08
9.37863e-08
9.38181e-08
0.00419655
0.0176286
4.9538e-07
5.53266e-08
1.10422e-07
5.54423e-08
5.94913e-08
6.90932e-08
5.31864e-08
6.61432e-08
0.00140058
0.0172738
2.84666e-07
1.34518e-07
1.48198e-07
1.14794e-08
5.5276e-08
3.06205e-08
5.00268e-08
3.93162e-08
0.00377088
0.0213581
9.93032e-05
1.98179e-05
1.97762e-05
1.87682e-05
1.79744e-05
1.73917e-05
1.70175e-05
1.68567e-05
1.68799e-05
5.80311e-05
5.07145e-06
1.55723e-05
1.13545e-05
9.71822e-06
8.99955e-06
8.66628e-06
8.49408e-06
8.43659e-06
0.000250527
0.000834233
8.54891e-06
6.55405e-06
3.23766e-06
3.89325e-06
3.83481e-06
3.63947e-06
3.53181e-06
3.48204e-06
0.000875582
0.00207514
7.3477e-06
6.11043e-07
1.93083e-06
1.81442e-06
1.70882e-06
1.62438e-06
1.57989e-06
1.5519e-06
0.00195233
0.00447901
3.66263e-06
2.11334e-07
1.15376e-06
7.96158e-07
7.73512e-07
7.48162e-07
7.2784e-07
7.13348e-07
0.00262907
0.00700692
3.69564e-07
5.12386e-07
4.33236e-07
3.75011e-07
3.69465e-07
3.53938e-07
3.44733e-07
3.3745e-07
0.00405152
0.0104088
2.9501e-07
2.7278e-07
1.81196e-07
1.92106e-07
1.82379e-07
1.71502e-07
1.69136e-07
1.66146e-07
0.00340473
0.0119806
2.72852e-07
1.04784e-07
1.03453e-07
1.00111e-07
9.7834e-08
9.02924e-08
9.13571e-08
9.02037e-08
0.0052795
0.0155399
4.2116e-07
4.18083e-08
1.07787e-07
5.51708e-08
5.69453e-08
6.6006e-08
5.29392e-08
6.24838e-08
0.00331638
0.0161678
4.5588e-07
1.59138e-07
1.23697e-07
2.23784e-08
4.87248e-08
3.3469e-08
4.54222e-08
4.06656e-08
0.00519885
0.0192365
8.76157e-05
1.80568e-05
1.795e-05
1.67169e-05
1.58073e-05
1.52136e-05
1.48783e-05
1.47767e-05
1.48701e-05
1.56456e-05
2.22744e-06
1.26805e-05
1.01163e-05
8.85851e-06
8.07909e-06
7.66778e-06
7.46715e-06
7.38047e-06
1.54255e-05
0.000443987
2.35893e-06
8.43445e-06
3.03855e-06
3.39773e-06
3.46561e-06
3.30334e-06
3.19015e-06
3.13579e-06
0.000490694
0.00129325
7.23095e-06
7.02447e-07
1.64592e-06
1.64139e-06
1.57391e-06
1.49329e-06
1.44533e-06
1.41612e-06
0.00132113
0.00295079
4.23043e-06
4.40885e-07
1.03028e-06
7.57654e-07
7.15e-07
6.92651e-07
6.74426e-07
6.58598e-07
0.00192556
0.00474559
4.02257e-07
4.02374e-07
4.16602e-07
3.49929e-07
3.43124e-07
3.31096e-07
3.22538e-07
3.14806e-07
0.00336696
0.00751034
1.85986e-07
2.58962e-07
1.71868e-07
1.77794e-07
1.71134e-07
1.6255e-07
1.59587e-07
1.5583e-07
0.00300141
0.0088107
1.62752e-07
1.20149e-07
9.67512e-08
9.0565e-08
9.34519e-08
8.59735e-08
8.57811e-08
8.59461e-08
0.00499264
0.0121494
3.5068e-07
4.13159e-08
1.03152e-07
5.28633e-08
5.39631e-08
6.13615e-08
5.23635e-08
5.76873e-08
0.00344022
0.0123618
5.07944e-07
1.4904e-07
9.76035e-08
2.93956e-08
4.27531e-08
3.39321e-08
4.05765e-08
3.80562e-08
0.0050863
0.0148815
6.97783e-05
1.50064e-05
1.52753e-05
1.42722e-05
1.34483e-05
1.28984e-05
1.25828e-05
1.25002e-05
1.26848e-05
1.36164e-05
7.10764e-06
9.14906e-06
8.22822e-06
7.7463e-06
7.14268e-06
6.71578e-06
6.48683e-06
6.37367e-06
6.30594e-06
0.000111099
6.95937e-06
1.04101e-05
3.03415e-06
2.87696e-06
3.03635e-06
2.93401e-06
2.82257e-06
2.75895e-06
0.000199864
0.000673591
6.71829e-06
9.7494e-07
1.4261e-06
1.44951e-06
1.42544e-06
1.35477e-06
1.30199e-06
1.269e-06
0.000746986
0.00170813
4.842e-06
5.98015e-07
9.04326e-07
7.17779e-07
6.58956e-07
6.34419e-07
6.14118e-07
5.98015e-07
0.00118831
0.00285925
5.55809e-07
3.16904e-07
4.01569e-07
3.31984e-07
3.1783e-07
3.06265e-07
2.97287e-07
0.000287497
0.00244816
0.00493069
1.69474e-07
2.46591e-07
1.66732e-07
1.65795e-07
1.60058e-07
1.52248e-07
1.48159e-07
1.44836e-07
0.00212286
0.00576345
1.01739e-07
1.25777e-07
9.59242e-08
8.37068e-08
8.74129e-08
8.11509e-08
8.00774e-08
0.000500012
0.00404888
0.00859873
3.24706e-07
4.64948e-08
9.91005e-08
5.18622e-08
5.03519e-08
5.57426e-08
5.03054e-08
5.32564e-08
0.00279575
0.00837362
4.97942e-07
1.19064e-07
7.47611e-08
3.36531e-08
3.78491e-08
3.36744e-08
3.65925e-08
0.000360673
0.00424079
0.0104461
6.45415e-05
1.23736e-05
1.27526e-05
1.19192e-05
1.11719e-05
1.06694e-05
1.03473e-05
1.01559e-05
1.00885e-05
1.05221e-05
1.81044e-05
5.93413e-06
5.98022e-06
6.29577e-06
6.06624e-06
5.74582e-06
5.54377e-06
5.4628e-06
5.43948e-06
5.11488e-06
1.91256e-05
1.23201e-05
3.25571e-06
2.36323e-06
2.53082e-06
2.50839e-06
2.42313e-06
2.35484e-06
3.87534e-05
0.000292797
5.39226e-06
1.27325e-06
1.23256e-06
1.20353e-06
1.22606e-06
1.18557e-06
1.1391e-06
1.10761e-06
0.000343115
0.000883732
5.25933e-06
7.65371e-07
7.27897e-07
6.39371e-07
5.85739e-07
5.62216e-07
5.44022e-07
5.28815e-07
0.000642247
0.00157109
6.31962e-07
2.03155e-07
3.57809e-07
3.01407e-07
2.83824e-07
2.74171e-07
2.65587e-07
0.00042586
0.00165717
0.00302657
1.50026e-07
2.23959e-07
1.53601e-07
1.48875e-07
1.4539e-07
1.37998e-07
1.34222e-07
1.30975e-07
0.00126495
0.00337972
6.74892e-08
1.18923e-07
9.39029e-08
7.57972e-08
7.95751e-08
7.53219e-08
7.30171e-08
0.000910837
0.00302359
0.00566115
3.31239e-07
5.90349e-08
9.04209e-08
5.16259e-08
4.73921e-08
5.0589e-08
4.64417e-08
4.79321e-08
0.00193159
0.0051822
4.4219e-07
8.46481e-08
5.41946e-08
3.55819e-08
3.30276e-08
3.18792e-08
3.25128e-08
0.000733832
0.00318455
0.00681932
5.86929e-05
1.07126e-05
1.10838e-05
1.02441e-05
9.4358e-06
8.8954e-06
8.59615e-06
8.46001e-06
8.39987e-06
8.59349e-06
3.02216e-05
4.03369e-06
4.08712e-06
4.77416e-06
4.87666e-06
4.70337e-06
4.53282e-06
4.44722e-06
4.42817e-06
4.18275e-06
3.29844e-05
1.40297e-05
3.85441e-06
2.06037e-06
2.07689e-06
2.09684e-06
2.04716e-06
1.99264e-06
1.92571e-06
0.000101365
3.63122e-06
1.63799e-06
1.18559e-06
9.9831e-07
1.01992e-06
1.00716e-06
9.73091e-07
9.41246e-07
9.46216e-05
0.000393818
5.72426e-06
8.42314e-07
5.67023e-07
5.53265e-07
5.0773e-07
4.87692e-07
4.69642e-07
4.55853e-07
0.000298416
0.000792572
7.37445e-07
1.03349e-07
3.05683e-07
2.68298e-07
2.4908e-07
2.38892e-07
2.31713e-07
0.000402493
0.0010754
0.00178201
1.09949e-07
1.95143e-07
1.39528e-07
1.29908e-07
1.26913e-07
1.22103e-07
1.18127e-07
1.15157e-07
0.000607371
0.00177717
3.00167e-08
9.79865e-08
8.62131e-08
6.63552e-08
6.92709e-08
6.64435e-08
1.21283e-05
0.000954613
0.00215567
0.0035682
3.49829e-07
7.40582e-08
7.27931e-08
4.70896e-08
4.21296e-08
4.36959e-08
4.16075e-08
4.25513e-08
0.00112316
0.00290552
3.58962e-07
5.15961e-08
3.74776e-08
3.17344e-08
2.91942e-08
2.85868e-08
2.85868e-08
0.000743304
0.00220224
0.00418537
3.70774e-05
8.03037e-06
8.82797e-06
8.48208e-06
7.89737e-06
7.41573e-06
7.13223e-06
7.04816e-06
7.14539e-06
7.54989e-06
3.68309e-05
3.40347e-06
2.96564e-06
3.55991e-06
3.82032e-06
3.78099e-06
3.66331e-06
3.56466e-06
3.49359e-06
3.19337e-06
4.79223e-05
1.47634e-05
4.48497e-06
1.90102e-06
1.65838e-06
1.67378e-06
1.65633e-06
1.63296e-06
1.61029e-06
2.92323e-05
1.463e-06
1.80625e-06
1.22219e-06
8.5224e-07
8.19076e-07
8.2255e-07
8.02751e-07
7.77699e-07
7.48694e-07
0.000127514
6.0113e-06
8.66827e-07
4.18672e-07
4.61531e-07
4.25273e-07
4.09197e-07
3.95556e-07
3.82971e-07
0.000112285
0.000360953
8.64919e-07
2.35635e-08
2.48084e-07
2.32889e-07
2.14664e-07
2.045e-07
1.0018e-05
0.000327921
0.000677431
0.00101401
8.47155e-08
1.65099e-07
1.27041e-07
1.13374e-07
1.09404e-07
1.04886e-07
1.01282e-07
9.85435e-08
0.000167504
0.000794333
2.90318e-08
8.18717e-08
8.05985e-08
5.97969e-08
5.88113e-08
5.81131e-08
0.000309318
0.000844835
0.00149346
0.00218643
3.98472e-07
6.70923e-08
5.61716e-08
4.39255e-08
3.83251e-08
3.79518e-08
3.68317e-08
3.63463e-08
0.000492374
0.00141504
2.71588e-07
1.71122e-08
2.92106e-08
2.91934e-08
2.60961e-08
2.54116e-08
2.52405e-08
0.000604357
0.00141673
0.00242356
2.84198e-05
3.60387e-06
4.60723e-06
4.83176e-06
4.62124e-06
4.30881e-06
4.02706e-06
3.8277e-06
3.7046e-06
3.75208e-06
3.64713e-05
3.03964e-06
2.28705e-06
2.61086e-06
2.85867e-06
2.88706e-06
2.83678e-06
2.78825e-06
2.75794e-06
2.52374e-06
6.0099e-05
1.42455e-05
4.97311e-06
1.92119e-06
1.36572e-06
1.30148e-06
1.28264e-06
1.2574e-06
2.31243e-05
1.82402e-05
2.87814e-07
1.56985e-06
1.24936e-06
7.79387e-07
6.56337e-07
6.45424e-07
6.37741e-07
6.22039e-07
6.00086e-07
8.56819e-07
6.09623e-06
8.5113e-07
2.95018e-07
3.7465e-07
3.42552e-07
3.28616e-07
3.18362e-07
3.07754e-07
3.30526e-05
0.000146864
9.3121e-07
4.02316e-08
1.81233e-07
1.89728e-07
1.76055e-07
1.67847e-07
9.48814e-05
0.000247924
0.000416642
0.000557481
5.03373e-08
1.18441e-07
1.0756e-07
9.43882e-08
9.03157e-08
8.72613e-08
8.43767e-08
8.15344e-08
7.8374e-08
0.000245307
3.31444e-05
5.82619e-08
7.00212e-08
5.33749e-08
4.96524e-08
0.00016339
0.000416896
0.000686377
0.00101409
0.00131055
3.85279e-07
5.36595e-08
3.752e-08
3.71729e-08
3.32509e-08
3.19666e-08
3.09427e-08
3.11683e-08
7.08937e-05
0.000522716
1.60968e-07
1.01812e-09
2.16191e-08
2.33531e-08
2.1635e-08
2.10464e-08
4.29771e-05
0.000432021
0.000848751
0.00131839
7.401e-05
7.05616e-06
8.63771e-06
9.24742e-06
9.30657e-06
9.14856e-06
8.89063e-06
8.55229e-06
8.1533e-06
7.7652e-06
3.22961e-05
1.82769e-06
1.49951e-06
1.85926e-06
2.1542e-06
2.24345e-06
2.2263e-06
2.18122e-06
2.13089e-06
1.90195e-06
0.000143832
1.96487e-06
1.24995e-05
1.54572e-05
1.89719e-05
2.46065e-05
3.23764e-05
3.41712e-05
4.8186e-05
2.53481e-05
3.8366e-07
7.89719e-07
1.11432e-06
7.38121e-07
5.47968e-07
4.99253e-07
4.88887e-07
4.8198e-07
4.68611e-07
4.01697e-07
5.97504e-06
8.28736e-07
1.8682e-07
3.00955e-07
2.72713e-07
2.56107e-07
2.47741e-07
2.42012e-07
1.38174e-05
5.65129e-05
2.49366e-05
5.57462e-08
1.2793e-07
1.48871e-07
1.39332e-07
4.55947e-05
0.00011237
0.000174323
0.000245863
0.000291026
7.85229e-08
7.7355e-08
8.73522e-08
7.9248e-08
7.26818e-08
6.98621e-08
6.71015e-08
6.56029e-08
6.29804e-08
5.58847e-08
0.000146805
0.000189537
0.000154549
0.000165697
0.000212719
0.000291279
0.000407407
0.000519504
0.000668666
0.000762877
3.42222e-07
2.65068e-08
2.43127e-08
2.85719e-08
2.63939e-08
2.57002e-08
2.50064e-08
2.5313e-08
2.60874e-08
5.5814e-05
9.70003e-08
1.1269e-08
1.84268e-08
1.995e-08
1.85599e-08
1.73472e-08
9.10227e-05
0.000272639
0.000463423
0.000657383
7.83367e-05
1.84198e-05
1.90736e-05
1.68617e-05
1.57355e-05
1.42498e-05
1.22758e-05
9.92562e-06
7.33085e-06
4.47152e-06
3.90907e-05
9.35692e-07
8.90261e-07
1.18534e-06
1.41075e-06
1.50371e-06
1.52336e-06
1.50957e-06
1.45502e-06
1.21244e-06
0.000303631
0.000156203
0.000103025
7.607e-05
5.97703e-05
5.11215e-05
4.66357e-05
4.05756e-05
4.10749e-05
2.01564e-05
2.35222e-06
4.27017e-07
6.95794e-07
6.31796e-07
4.61608e-07
3.84742e-07
3.56434e-07
3.44432e-07
3.34314e-07
2.7889e-07
5.70448e-06
8.18337e-07
7.13175e-08
2.28706e-07
2.14919e-07
1.95428e-07
1.85341e-07
2.51169e-06
1.41563e-05
2.3084e-05
8.50916e-05
6.10447e-05
4.47422e-05
4.27434e-05
5.15701e-05
6.65879e-05
8.61737e-05
0.000102783
0.000124312
0.000129479
1.02145e-07
3.49203e-08
5.77422e-08
6.06018e-08
5.70456e-08
5.35628e-08
5.11248e-08
4.98966e-08
4.9255e-08
4.44562e-08
6.98466e-06
0.000240661
0.00026235
0.000259093
0.000262961
0.000281034
0.000317397
0.000346805
0.000399964
0.000405096
2.47652e-07
3.14958e-10
2.17921e-08
2.28119e-08
2.11471e-08
2.00673e-08
1.97373e-08
1.93624e-08
1.92574e-08
2.61656e-08
3.56098e-08
6.2829e-09
8.8813e-09
1.25658e-08
1.37894e-08
8.71289e-07
6.92409e-05
0.000135651
0.000207466
0.000270877
0.00051959
5.63344e-05
6.37567e-05
6.09303e-05
5.3206e-05
4.37359e-05
3.42647e-05
2.546e-05
1.73269e-05
9.4716e-06
3.03035e-05
3.34843e-06
1.8647e-06
8.14333e-07
2.18724e-07
1.37304e-07
4.35396e-07
8.00338e-07
1.35459e-06
2.05668e-06
0.000388017
0.000230958
0.000107172
5.12835e-05
2.06208e-05
3.95591e-06
6.14728e-06
1.34362e-05
2.36544e-05
2.3961e-05
8.07055e-06
1.62307e-06
6.28174e-08
3.93647e-07
3.46474e-07
2.87043e-07
2.55372e-07
2.37735e-07
2.24417e-07
1.88914e-07
1.90577e-05
2.20613e-06
9.06477e-07
1.42081e-06
2.77787e-06
3.89875e-06
4.35323e-06
3.73443e-06
2.321e-06
1.5696e-07
5.52682e-05
5.94269e-05
4.82849e-05
3.91584e-05
3.36174e-05
3.02876e-05
2.81317e-05
2.51842e-05
2.22741e-05
1.6695e-05
1.66824e-07
2.68396e-08
3.40309e-08
4.06769e-08
4.09836e-08
3.84616e-08
3.66552e-08
3.44058e-08
3.26506e-08
3.35009e-08
0.000388855
8.20992e-05
0.000178835
0.000179049
0.000163334
0.000150654
0.000145072
0.000137681
0.000138776
0.000121504
1.11257e-07
2.27265e-09
1.74283e-08
1.72749e-08
1.54624e-08
1.41518e-08
1.34825e-08
1.32734e-08
1.12099e-08
3.17503e-09
6.13658e-08
2.89484e-08
1.32664e-08
1.02502e-08
9.66226e-09
1.43621e-06
1.89818e-05
3.15438e-05
4.68826e-05
5.56868e-05
0.00147154
0.000179182
0.000163628
0.000123207
8.80121e-05
6.07362e-05
3.98961e-05
2.34575e-05
9.46238e-06
3.80996e-06
7.51228e-05
4.91079e-06
5.03198e-06
4.90277e-06
4.28388e-06
3.29413e-06
2.02071e-06
4.57032e-07
1.52813e-06
4.01682e-06
0.000387575
0.000212903
6.9077e-06
7.96217e-05
0.000122258
0.000143678
0.000155938
0.000162125
0.000183094
0.000143688
1.46803e-05
2.16023e-06
4.57792e-07
1.16438e-07
2.09743e-07
2.00393e-07
1.82951e-07
1.71057e-07
1.57097e-07
1.12039e-07
3.51965e-05
1.78901e-05
1.89047e-06
6.57031e-06
1.24886e-05
1.7716e-05
2.29747e-05
2.7825e-05
3.44232e-05
3.54583e-05
1.68695e-05
4.83565e-06
9.74007e-06
1.80725e-05
2.65895e-05
3.52229e-05
4.4518e-05
5.38023e-05
6.73792e-05
7.18198e-05
1.16058e-07
3.66582e-08
2.24639e-08
2.38579e-08
2.67887e-08
2.66778e-08
2.54738e-08
2.53788e-08
2.27649e-08
1.85566e-08
0.00101006
0.000292681
0.000107405
8.97363e-05
0.000108472
0.000132572
0.000156634
0.00017684
0.000207574
0.000205951
7.21371e-08
1.4154e-08
7.31033e-09
1.26764e-08
1.2469e-08
1.16525e-08
1.07711e-08
1.04341e-08
1.2145e-08
1.64797e-08
5.91912e-08
1.30102e-08
7.67542e-09
6.89124e-09
7.98433e-09
8.31701e-09
8.11503e-09
3.88652e-06
1.39142e-05
1.99361e-05
0.00480958
0.000123608
0.000109911
8.04736e-05
5.52817e-05
3.58407e-05
2.07443e-05
8.27221e-06
3.2138e-06
1.49979e-05
2.28528e-06
2.3771e-05
1.73269e-05
1.19722e-05
7.60715e-06
3.94901e-06
6.78266e-07
2.55706e-06
6.15822e-06
1.00109e-05
0.000205073
5.59362e-05
0.000220317
0.000325066
0.000372149
0.00039387
0.000406048
0.000413178
0.000445057
0.000359953
1.80683e-05
1.82955e-06
6.36989e-07
1.01088e-07
6.31798e-08
1.0397e-07
1.12785e-07
1.14453e-07
1.18396e-07
1.16905e-07
1.3054e-05
2.40066e-05
3.77588e-05
4.53408e-05
5.08218e-05
5.59305e-05
6.1287e-05
6.63311e-05
7.45918e-05
7.30472e-05
7.6638e-05
6.74543e-05
6.77183e-05
7.19153e-05
7.76755e-05
8.45482e-05
9.28122e-05
0.00010157
0.000117024
0.000120758
1.09028e-08
4.56838e-08
2.27094e-08
1.5331e-08
1.39025e-08
1.40498e-08
1.38141e-08
1.33281e-08
1.36227e-08
1.10406e-08
0.00168886
0.000836629
0.000590038
0.000551026
0.000561156
0.000582471
0.000608376
0.000630193
0.000682665
0.00064603
1.70311e-07
1.08687e-08
6.84414e-09
1.1929e-09
4.59088e-09
5.51869e-09
5.3982e-09
5.1813e-09
4.59088e-09
7.63535e-09
1.41217e-06
1.72149e-06
9.04619e-09
3.77753e-09
2.21444e-06
8.75317e-06
2.19067e-05
2.58666e-05
5.66331e-05
5.24256e-05
0.00374701
0.000359717
0.000127971
4.09955e-05
0.000158296
0.000243672
0.00030832
0.000372244
0.00038149
0.000355181
3.33548e-05
1.59269e-05
1.1372e-05
7.17631e-06
3.78164e-06
1.01193e-06
1.45117e-06
3.90623e-06
6.61417e-06
9.12013e-06
0.000271274
0.00021793
0.000454992
0.00052942
0.000560005
0.000572534
0.000580081
0.00058869
0.000623636
0.000543581
1.52028e-05
8.53534e-07
3.5032e-07
1.08165e-07
2.44794e-08
2.11525e-09
1.1295e-09
7.91679e-09
1.57822e-08
3.60408e-08
5.11756e-05
5.1645e-05
5.59969e-05
5.84057e-05
6.0292e-05
6.24202e-05
6.51098e-05
6.81835e-05
7.48396e-05
7.57997e-05
7.52237e-05
7.02569e-05
6.91158e-05
6.99754e-05
7.18812e-05
7.45534e-05
7.81801e-05
8.25661e-05
9.26363e-05
9.87875e-05
9.87559e-08
2.32061e-08
1.50463e-08
1.14867e-08
8.87173e-09
8.02289e-09
7.33835e-09
6.83178e-09
6.59904e-09
6.99446e-09
0.00166266
0.00112545
0.000943609
0.00090728
0.000906852
0.000915568
0.000929222
0.000942855
0.000995855
0.000951642
1.62306e-07
4.05389e-08
1.25235e-08
4.80552e-09
3.85338e-09
3.04686e-09
3.53973e-09
3.40531e-09
1.69145e-09
3.92418e-09
0.000548449
0.000512808
0.000544501
0.000580429
0.000602396
0.000617055
0.000631983
0.00063412
0.000689085
0.000649688
0.00126326
0.00133627
0.00151528
0.00163511
0.00172503
0.00179406
0.00184832
0.00189391
0.00191542
0.00203084
1.0607e-06
4.10541e-07
6.77338e-07
9.14883e-07
1.16229e-06
1.47902e-06
1.89179e-06
2.4061e-06
2.9934e-06
3.1925e-06
0.000495439
0.000287541
0.000348826
0.000357774
0.000360423
0.000360107
0.000359623
0.000361115
0.00037222
0.000367121
5.56197e-06
2.78276e-07
8.96817e-08
1.30967e-08
1.39463e-08
2.30815e-08
2.56397e-08
2.65561e-08
2.78257e-08
2.7988e-08
3.34673e-05
2.86582e-05
2.80425e-05
2.76158e-05
2.73873e-05
2.73926e-05
2.77155e-05
2.84196e-05
3.0994e-05
3.46078e-05
2.84628e-05
2.55073e-05
2.49296e-05
2.48147e-05
2.4809e-05
2.48729e-05
2.51351e-05
2.57285e-05
2.8728e-05
3.35189e-05
4.86292e-08
6.49107e-10
1.08184e-09
1.99823e-09
2.13823e-09
1.96005e-09
2.10005e-09
2.38006e-09
1.7055e-09
6.49107e-10
0.000619898
0.000593233
0.00056236
0.000554935
0.000553188
0.000552918
0.000554033
0.000556041
0.000578136
0.000575645
1.70903e-07
4.13415e-09
4.06126e-10
9.05973e-10
8.85146e-10
7.91424e-10
7.60184e-10
5.20674e-10
1.27044e-09
4.634e-09
0.00261471
0.00272993
0.00278887
0.00282776
0.00284632
0.0028527
0.00285333
0.00284563
0.00287136
0.00273365
2.85462
1.99932
2.30882
3.70974
2.28492
1.91548
2.14986
3.11826
1.35863
1.21444
1.40852
2.16269
0.143954
0.184215
0.264492
0.510378
0.787311
0.661644
0.67854
0.937826
1.41725
1.24091
1.44628
2.28158
1.7525
1.50513
1.92382
3.26925
1.85208
1.55773
2.16892
3.88688
1.70998
1.44379
2.16112
4.01172
1.48289
1.27917
2.08109
3.93553
0.195995
0.00877684
5.81754e-05
0.0763383
0.243315
0.0186995
4.55121e-05
0.104144
0.191675
0.0208478
2.57671e-05
0.0939282
0.001461
0.0023657
1.3873e-05
0.020207
0.223272
0.0285576
7.37197e-06
0.057244
0.443072
0.0646187
3.73078e-06
0.136168
0.614656
0.0938538
1.80736e-06
0.215273
0.725708
0.117605
8.9145e-07
0.282225
0.755195
0.138474
0.0190448
0.320246
0.736566
0.188169
0.0835593
0.32842
0.09256
0.0639516
0.060109
0.0764646
0.105099
0.0664875
0.0605048
0.0886238
0.0779775
0.0510952
0.0518683
0.0840643
0.0298948
0.00962697
0.003026
0.00428016
0.16214
0.075618
0.0664554
0.0967358
0.29971
0.13868
0.131636
0.212068
0.414048
0.184704
0.183581
0.316838
0.495797
0.213731
0.220769
0.402279
0.523951
0.210734
0.229208
0.441893
0.518426
0.202075
0.235065
0.448993
0.00907879
0.00568799
0.00488946
0.00648181
0.0121998
0.00770407
0.00663924
0.0102683
0.00817459
0.00659681
0.00704401
0.0119975
0.0200353
0.00914368
0.00580948
0.00525275
0.0647829
0.0331263
0.0274659
0.0339757
0.122585
0.0631474
0.0570285
0.074557
0.180297
0.0907805
0.0863686
0.117622
0.232396
0.115049
0.114407
0.161051
0.257736
0.119587
0.127294
0.186815
0.264084
0.122538
0.143693
0.205987
0.0019065
0.0015102
0.00143772
0.0018036
0.00172625
0.00173577
0.00207594
0.00310263
0.00134841
0.000189558
0.0014744
0.00320182
0.0136959
0.00887538
0.0066131
0.00620138
0.0328122
0.021986
0.0183525
0.0198133
0.0594934
0.0393604
0.034667
0.0391907
0.0879644
0.0561628
0.0512606
0.0595085
0.117693
0.072971
0.0692032
0.0821213
0.137053
0.0799233
0.0813052
0.0981939
0.149922
0.0889772
0.0998385
0.116275
4.9669e-05
3.43682e-05
5.37234e-05
8.82552e-05
0.000776029
0.000392158
0.000160103
3.94193e-05
0.00253853
0.00142584
0.00066959
1.16565e-05
0.00846467
0.0062014
0.00505055
0.00482479
0.0170561
0.0130016
0.0112496
0.0115856
0.0296114
0.0226641
0.0203159
0.0216899
0.0431636
0.0323751
0.0296028
0.0320561
0.0593257
0.0434191
0.0407549
0.0447169
0.072198
0.0501223
0.0500692
0.054821
0.0808906
0.0567044
0.0619566
0.0652633
7.25471e-05
3.16162e-05
2.30278e-06
3.73754e-05
0.000938089
0.000588244
0.000464594
0.000490858
0.00205948
0.00132132
0.000921922
0.000671621
0.00542963
0.00414647
0.00355011
0.00347527
0.00988034
0.00796048
0.00709508
0.00719928
0.0164865
0.0136052
0.0124767
0.0130111
0.0231578
0.0191629
0.0178211
0.0187088
0.0321086
0.0262497
0.0248483
0.0263957
0.0397756
0.0314405
0.0312657
0.0326991
0.0444687
0.0356328
0.0380167
0.0384252
5.384e-05
1.91498e-05
1.84729e-05
1.89762e-05
0.00056185
0.000315436
0.000259016
0.000334247
0.00125766
0.00081011
0.000623801
0.000557731
0.00326385
0.00249917
0.00219033
0.00219839
0.00576031
0.00469528
0.00424414
0.00431576
0.00965902
0.00815996
0.00757652
0.00786123
0.0131997
0.0114022
0.0107318
0.0111161
0.0185
0.0160198
0.0153059
0.0160403
0.0220789
0.0189933
0.0188164
0.0192736
0.024867
0.0219955
0.0230437
0.022955
4.75653e-05
1.62631e-05
1.55949e-05
1.60586e-05
0.000222375
5.9542e-05
3.33645e-05
0.000100519
0.000649756
0.000386291
0.000307485
0.000312886
0.00184047
0.00138882
0.00123009
0.00126254
0.00324141
0.00264018
0.00240128
0.00245675
0.00565996
0.00481298
0.00449076
0.00466759
0.00758565
0.00668948
0.00632794
0.00650896
0.0109248
0.00973979
0.00934808
0.00974793
0.0121659
0.0110427
0.0108764
0.0110499
0.0141456
0.0133775
0.0138094
0.0136952
3.74153e-05
1.24997e-05
1.19796e-05
1.24669e-05
2.22228e-06
4.37091e-06
4.24826e-06
4.70729e-06
0.000266025
0.000116799
9.08946e-05
0.000119653
0.000964394
0.000701526
0.000621681
0.00065261
0.00172527
0.00138626
0.00126242
0.00130241
0.00322529
0.00272996
0.00254905
0.00266362
0.00419287
0.00374042
0.0035413
0.00362022
0.00637027
0.00575363
0.00552848
0.00576692
0.00664772
0.00622102
0.00609122
0.00616899
0.00807002
0.00794217
0.00810603
0.00802676
2.73172e-05
8.77879e-06
8.44321e-06
8.8149e-06
9.85595e-06
3.43167e-06
3.33945e-06
3.71424e-06
6.43667e-05
1.49708e-06
1.46015e-06
1.41908e-05
0.000461799
0.000314298
0.000275281
0.000296146
0.000862173
0.000673413
0.000611702
0.00063898
0.00179505
0.00149626
0.00139435
0.00147039
0.00220064
0.00197526
0.00186737
0.00189241
0.00365772
0.00330313
0.00317217
0.00332488
0.00353259
0.00335186
0.00326242
0.00329488
0.00453741
0.00455848
0.00461921
0.00456408
2.55356e-05
7.96145e-06
7.58323e-06
7.79865e-06
7.29441e-06
2.49246e-06
2.43935e-06
2.73972e-06
2.79683e-06
9.76214e-07
9.4226e-07
1.07269e-06
0.00019146
0.000115553
9.75954e-05
0.000107496
0.000391296
0.000290921
0.000262454
0.000279706
0.000967887
0.000786435
0.000729487
0.000779721
0.00106401
0.000960991
0.000905488
0.000902803
0.00206329
0.00184117
0.00176537
0.00186868
0.00175127
0.0016668
0.00161092
0.00161817
0.00246612
0.00249816
0.00252413
0.00248187
9.95802e-06
3.31897e-06
3.48649e-06
3.97699e-06
5.09635e-06
1.66209e-06
1.63349e-06
1.83428e-06
2.27955e-06
8.03437e-07
7.72272e-07
8.6653e-07
6.01941e-05
2.75521e-05
2.03119e-05
2.21183e-05
0.000154434
0.000105175
9.36581e-05
0.000103671
0.00049879
0.000391305
0.000360032
0.000391618
0.000439452
0.000404555
0.000379056
0.00036374
0.00113042
0.0009849
0.000941712
0.00101331
0.000752014
0.000715556
0.000683926
0.00067694
0.00126508
0.00128196
0.00129792
0.00126431
2.67704e-05
6.06536e-06
5.01856e-06
4.48825e-06
4.21808e-06