/*--------------------------------*- C++ -*----------------------------------*\
| =========                 |                                                 |
| \\      /  F ield         | foam-extend: Open Source CFD                    |
|  \\    /   O peration     | Version:     4.0                                |
|   \\  /    A nd           | Web:         http://www.foam-extend.org         |
|    \\/     M anipulation  |                                                 |
\*---------------------------------------------------------------------------*/
FoamFile
{
    version     2.0;
    format      ascii;
    class       volScalarField;
    location    "1400";
    object      epsilon;
}
// * * * * * * * * * * * * * * * * * * * * * * * * * * * * * * * * * * * * * //

dimensions      [0 2 -3 0 0 0 0];

internalField   nonuniform List<scalar> 
34480
(
4929.92
4927.89
4927.77
4929.27
4932.48
4937.62
4950.24
5004.02
5194.12
5725.82
655.962
602.514
601.577
653.59
839.283
1577.09
5102.42
22860.9
103754
382519
619.373
523.706
510.071
569.77
810.767
1830.5
7044.78
35127.3
172552
699208
525.13
439.784
427.785
485.564
734.497
1884.73
8222.68
44420.6
232220
1.0108e+06
456.748
384.968
377.589
433.439
685.358
1928.83
9182.1
52604.4
289201
1.3334e+06
392.454
332.882
326.705
378.653
628.771
1957.51
10126.4
61064.9
350677
1.69852e+06
353.132
302.747
298.402
346.486
591.746
1963.85
10730.7
67220.3
400401
2.02253e+06
321.256
282.077
277.711
317.545
534.385
1821.38
10354.8
67002.7
412699
2.1674e+06
460.001
435.965
433.377
458.804
597.216
1410.69
6843.82
43710
276038
1.49851e+06
5708.9
5709.04
5714.41
5726.31
5743.1
5763.16
5787.35
5823.3
5889.74
5958.47
4855.34
4852.84
4852.35
4853.84
4857.84
4864.81
4875.92
4902.08
4964.83
5185.76
512.478
479.47
473.808
487.942
532.403
649.002
1003.74
2356.69
11812.8
103742
447.587
384.475
370.765
390.187
459.051
646.513
1230.92
3569.77
21368.9
197707
399.971
339.053
325.608
345.345
416.897
620.855
1295.71
4292.35
30244.6
294778
365.995
311.324
300.819
320.069
391.108
599.465
1323
4815.38
38731.5
396521
326.352
279.044
269.271
286.595
352.451
554.546
1295.14
5184.01
47372.1
508619
302.463
260.846
252.701
267.994
329.042
521.708
1256.94
5364.54
54246.6
607901
283.037
249.949
242.294
253.931
301.618
456.792
1075.19
4831.13
55027.4
652159
432.811
410.956
405.869
413.339
443.474
531.77
848.412
2982.55
36426.9
467710
5591.49
5587.1
5587.54
5594.14
5605.78
5620.34
5639.67
5672.66
5740.3
5913.27
4770.23
4767.86
4767.11
4767.93
4770.54
4774.63
4779.4
4790.23
4814.34
4869.53
400.137
386.593
383.91
388.676
403.841
439.3
527.539
759.344
1518.87
5768.08
308.548
277.281
270.435
279.616
310.054
379.742
551.027
1031.16
2862.13
15001.1
290.546
256.73
249.061
259.65
294.847
378.857
597.859
1280.89
4411.92
28930
280.99
248.067
241.638
252.617
289.774
380.664
629.633
1482.56
6144.11
47820.9
261.368
231.161
224.691
235.113
270.853
361.918
625.755
1626.98
8156.8
73176.6
250.502
222.533
216.963
226.473
260.597
349.337
617.588
1725.89
10173.9
101642
243.019
220.091
214.692
222.33
249.688
322.269
550.226
1595.72
11054.4
122970
402.688
386.371
382.631
388.284
408.721
461.684
607.283
1236.31
7689.91
92176.4
5481.88
5474.72
5472.37
5475.91
5484.68
5496.63
5513.1
5543.85
5616.28
5801.68
4674.25
4672.79
4672.37
4673
4674.78
4677.01
4677.96
4680.78
4688.2
4704.36
328.586
324.392
323.558
324.659
328.762
339.191
365.301
421.925
541.784
942.031
219.584
206.307
203.45
207.49
220.891
249.206
309.399
445.662
772.832
2088.11
214.639
197.923
193.992
199.518
217.49
257.017
345.884
566.001
1170.2
4143.47
217.672
199.658
196.083
202.294
222.922
269.518
379.862
676.504
1612.03
7156.83
210.741
192.826
188.801
195.206
216.458
266.591
392.393
762.266
2119.03
11603.2
208.48
190.734
187.102
193.267
214.685
266.263
401.31
828.004
2635.51
17131.1
209.941
194.691
190.979
196.281
214.366
258.954
379.967
795.768
2863.57
21865.7
375.665
363.696
360.87
365.066
380.032
417.056
508.865
783.035
2183.25
16562.4
5359.93
5352.81
5350.2
5353.22
5361.46
5373.8
5390.9
5421.73
5488.49
5631.67
4568.9
4568.26
4568.13
4568.52
4569.47
4570.11
4568.76
4567.64
4567.58
4569.34
285.563
284.761
284.649
284.426
284.442
286.257
293.543
307.542
329.936
376.369
168.072
163.043
161.998
163.414
168.446
178.673
198.473
237.632
308.354
484.718
166.602
158.883
156.924
159.422
167.681
184.927
219.752
294.43
443.341
890.101
173.986
164.696
162.77
165.866
176.325
198.685
246.213
356.718
601.662
1498.16
173.638
163.467
160.983
164.536
176.285
202.54
261.623
411.2
784.261
2435.31
176.074
165.198
162.835
166.468
179.115
207.948
275.496
457.868
967.08
3641.73
183.322
173.461
170.898
174.284
185.621
212.215
276.786
463.873
1059.43
4749.27
351.348
342.757
340.577
343.469
354.015
379.313
438.269
581.732
1010.08
3817.7
5230.3
5223.33
5220.58
5223.12
5230.72
5242.76
5259.39
5287.74
5343.38
5445.69
4455.14
4455.13
4455.23
4455.44
4455.79
4455.37
4453.35
4451.26
4449.47
4448.39
259.822
259.845
259.914
259.406
258.436
258.129
260.032
263.397
268.148
275.477
139.544
137.893
137.623
138.005
139.618
142.862
148.77
159.29
175.286
203.202
137.62
134.247
133.325
134.369
137.92
144.989
157.937
182.478
222.595
303.101
145.091
140.574
139.629
141.059
146.032
156.094
175.422
215.304
286.438
458.068
147.375
141.871
140.424
142.291
148.457
161.5
187.957
247.428
364.198
701.843
151.769
145.387
143.944
145.975
153.111
168.492
200.89
278.466
444.379
1014.23
162.247
156.158
154.486
156.569
163.405
178.684
212.201
297.618
500.726
1321.1
329.484
323.592
321.986
323.94
331.285
348.606
387.133
467.744
640.219
1291.29
5092.38
5085.82
5083.09
5085.26
5092.15
5103.4
5118.86
5143.74
5186.77
5254
4333.68
4334.1
4334.35
4334.44
4334.4
4333.38
4331.51
4329.5
4327.67
4326.32
243.82
243.713
243.722
243.263
242.359
241.981
242.347
243.085
244.197
246.021
124.042
123.628
123.636
123.673
124.057
124.906
126.451
129.036
132.552
137.26
120.717
119.289
118.867
119.28
120.751
123.572
128.327
136.326
147.603
163.788
126.693
124.603
124.184
124.797
127.052
131.394
139.019
153.011
174.432
210.573
129.514
126.649
125.841
126.776
129.887
136.152
147.712
170.78
209.356
285.826
134.264
130.649
129.814
130.888
134.767
142.715
157.887
190.132
247.944
381.593
146.151
142.559
141.518
142.747
146.715
155.238
172.394
211.024
287.096
490.051
310.166
306.318
305.158
306.451
311.538
323.565
349.217
396.44
480.138
667.746
4945.93
4939.98
4937.41
4939.26
4945.36
4955.36
4969.09
4990.06
5022.49
5066.31
4205.05
4205.72
4206.06
4206.07
4205.81
4204.7
4203.2
4201.61
4200.17
4199.08
232.951
232.458
232.336
232.003
231.439
231.291
231.312
231.467
231.86
232.859
115.633
115.612
115.692
115.641
115.647
115.761
116.034
116.54
117.225
118.017
111.082
110.484
110.293
110.451
111.056
112.188
113.979
116.696
120.105
123.82
115.306
114.389
114.23
114.474
115.46
117.287
120.284
125.227
131.961
140.378
117.756
116.319
115.887
116.338
117.864
120.819
125.882
134.895
148.282
167.572
122.078
120.095
119.637
120.178
122.232
126.269
133.387
146.828
167.997
202.443
134.215
132.203
131.587
132.288
134.517
139.17
147.974
165.557
195.947
252.245
293.201
290.837
290.003
290.859
294.419
303.024
320.432
349.102
394.243
462.736
4790.81
4785.62
4783.32
4784.87
4790.09
4798.58
4810.25
4827.22
4851.08
4879.98
4069.59
4070.38
4070.77
4070.74
4070.34
4069.46
4068.36
4067.19
4066.16
4065.35
224.535
223.701
223.446
223.231
223.016
222.965
222.947
223.015
223.304
224.199
111.023
111.088
111.165
111.109
111.034
110.96
110.91
110.913
110.973
111.077
105.719
105.463
105.373
105.434
105.689
106.159
106.869
107.86
108.997
109.993
108.452
108.073
108.028
108.116
108.536
109.293
110.477
112.268
114.504
116.716
110.26
109.567
109.345
109.556
110.288
111.666
113.908
117.535
122.486
128.106
113.874
112.813
112.576
112.837
113.907
115.942
119.332
125.099
133.336
143.399
125.591
124.535
124.191
124.58
125.795
128.296
132.845
141.014
153.865
171.884
278.242
276.914
276.301
276.883
279.448
285.837
297.838
315.804
341.638
371.408
4626.99
4622.65
4620.69
4621.96
4626.28
4633.15
4642.66
4655.87
4672.94
4691.91
3927.68
3928.34
3928.76
3928.71
3928.35
3927.73
3926.97
3926.16
3925.46
3924.87
216.953
216.06
215.69
215.565
215.512
215.49
215.493
215.573
215.872
216.764
108.4
108.466
108.519
108.478
108.406
108.312
108.214
108.131
108.086
108.086
102.818
102.698
102.652
102.677
102.792
103.002
103.307
103.706
104.131
104.444
104.451
104.303
104.3
104.329
104.506
104.82
105.296
105.966
106.744
107.397
105.645
105.325
105.214
105.312
105.657
106.292
107.293
108.795
110.729
112.643
108.533
107.974
107.858
107.981
108.536
109.567
111.213
113.784
117.187
120.58
119.486
118.981
118.802
119.015
119.661
120.993
123.342
127.208
132.858
139.545
264.845
264.212
263.735
264.157
266.094
270.981
279.342
290.882
306.251
320.389
4454.6
4451.15
4449.56
4450.56
4453.98
4459.31
4466.75
4476.64
4488.53
4500.77
3779.43
3779.95
3780.28
3780.26
3780.02
3779.61
3779.09
3778.56
3778.09
3777.65
209.506
208.627
208.286
208.179
208.144
208.14
208.163
208.26
208.573
209.461
106.796
106.841
106.876
106.848
106.794
106.722
106.644
106.575
106.537
106.54
101.299
101.235
101.209
101.22
101.278
101.38
101.526
101.707
101.891
102.006
102.197
102.139
102.146
102.154
102.233
102.371
102.574
102.842
103.127
103.343
102.912
102.771
102.718
102.763
102.923
103.214
103.662
104.297
105.078
105.82
105.176
104.881
104.827
104.886
105.179
105.712
106.534
107.731
109.209
110.504
115.21
115.006
114.922
115.039
115.377
116.084
117.281
119.121
121.627
124.407
252.527
252.342
251.941
252.273
253.827
257.592
263.438
270.966
280.379
287.177
4273.94
4271.33
4270.11
4270.87
4273.45
4277.42
4283.02
4290.14
4298.18
4305.92
3624.97
3625.39
3625.65
3625.64
3625.5
3625.23
3624.89
3624.54
3624.24
3623.89
201.845
200.993
200.681
200.587
200.562
200.567
200.599
200.701
201.017
201.888
105.698
105.724
105.743
105.725
105.69
105.643
105.594
105.551
105.536
105.553
100.532
100.493
100.478
100.484
100.515
100.569
100.645
100.737
100.83
100.879
100.978
100.951
100.955
100.958
100.998
101.068
101.169
101.293
101.412
101.497
101.365
101.305
101.28
101.301
101.376
101.509
101.71
101.982
102.303
102.625
103.14
102.978
102.953
102.984
103.147
103.436
103.866
104.456
105.134
105.687
112.201
112.147
112.116
112.183
112.36
112.73
113.323
114.187
115.264
116.516
240.824
240.913
240.545
240.831
242.16
244.973
249.039
253.975
259.865
262.901
4085.43
4083.56
4082.69
4083.24
4085.07
4087.95
4091.98
4096.93
4102.19
4107
3464.51
3464.86
3465.06
3465.06
3464.98
3464.81
3464.59
3464.37
3464.17
3463.88
193.792
192.974
192.689
192.606
192.586
192.593
192.626
192.725
193.034
193.876
104.847
104.857
104.865
104.854
104.834
104.807
104.779
104.758
104.762
104.789
100.161
100.136
100.128
100.131
100.148
100.176
100.217
100.265
100.317
100.342
100.35
100.33
100.329
100.331
100.357
100.402
100.463
100.535
100.598
100.643
100.532
100.508
100.496
100.507
100.542
100.604
100.695
100.813
100.947
101.102
101.944
101.848
101.835
101.856
101.954
102.123
102.363
102.677
103.014
103.286
110.016
110.034
110.03
110.07
110.166
110.351
110.627
111.016
111.432
112.037
229.298
229.563
229.197
229.462
230.608
232.581
235.37
238.59
242.322
243.347
3889.63
3888.37
3887.8
3888.18
3889.4
3891.44
3894.24
3897.53
3900.87
3903.79
3298.35
3298.64
3298.8
3298.8
3298.75
3298.65
3298.51
3298.37
3298.24
3297.99
185.236
184.457
184.199
184.127
184.109
184.115
184.144
184.234
184.528
185.337
104.113
104.114
104.115
104.109
104.097
104.084
104.072
104.064
104.08
104.113
99.9911
99.9772
99.9735
99.9751
99.9827
99.9961
100.015
100.04
100.069
100.083
100.046
100.028
100.022
100.024
100.044
100.077
100.122
100.173
100.215
100.246
100.112
100.102
100.096
100.101
100.119
100.148
100.191
100.244
100.301
100.385
101.256
101.193
101.185
101.201
101.266
101.373
101.519
101.702
101.888
102.049
108.329
108.383
108.393
108.419
108.469
108.552
108.666
108.823
108.935
109.253
217.41
217.922
217.595
217.853
218.666
220.015
221.881
223.953
226.32
226.267
3687.31
3686.46
3686.11
3686.34
3687.17
3688.56
3690.41
3692.51
3694.53
3696.28
3126.88
3127.13
3127.24
3127.25
3127.23
3127.16
3127.08
3126.99
3126.9
3126.67
176.095
175.359
175.127
175.066
175.05
175.053
175.076
175.154
175.43
176.2
103.438
103.433
103.43
103.426
103.421
103.417
103.414
103.415
103.437
103.474
99.9233
99.9169
99.9165
99.917
99.919
99.9226
99.9288
99.9384
99.9547
99.9642
99.913
99.8956
99.8878
99.8894
99.9046
99.9316
99.9669
100.005
100.038
100.064
99.9192
99.9134
99.9096
99.9121
99.9215
99.9372
99.9582
99.9836
100.009
100.059
100.858
100.812
100.806
100.82
100.866
100.938
101.033
101.15
101.263
101.378
106.921
106.989
107.009
107.025
107.047
107.079
107.113
107.16
107.136
107.325
204.923
205.575
205.375
205.556
206.1
206.987
208.187
209.49
210.97
210.371
3479.22
3478.67
3478.45
3478.6
3479.15
3480.03
3481.2
3482.47
3483.62
3484.65
2950.63
2950.84
2950.93
2950.94
2950.93
2950.89
2950.83
2950.77
2950.71
2950.51
166.287
165.598
165.395
165.345
165.33
165.331
165.347
165.411
165.665
166.395
102.798
102.789
102.783
102.781
102.78
102.781
102.784
102.791
102.815
102.855
99.9067
99.9052
99.9067
99.9064
99.9051
99.9031
99.9018
99.9031
99.911
99.9195
99.867
99.8511
99.8428
99.8438
99.8555
99.8763
99.9034
99.9329
99.9587
99.9802
99.8456
99.8408
99.8377
99.8389
99.8444
99.8536
99.8652
99.8784
99.8903
99.9222
100.612
100.577
100.572
100.583
100.616
100.667
100.732
100.81
100.884
100.975
105.657
105.722
105.745
105.756
105.764
105.772
105.77
105.77
105.692
105.822
191.667
192.369
192.272
192.394
192.738
193.286
194.01
194.801
195.687
194.863
3266.23
3265.9
3265.77
3265.87
3266.2
3266.74
3267.43
3268.14
3268.75
3269.34
2770.34
2770.51
2770.58
2770.59
2770.58
2770.56
2770.52
2770.48
2770.44
2770.25
155.718
155.08
154.908
154.871
154.858
154.856
154.865
154.914
155.141
155.829
102.186
102.175
102.168
102.166
102.167
102.171
102.177
102.187
102.212
102.254
99.9159
99.9163
99.9183
99.9177
99.915
99.9106
99.9061
99.9034
99.9065
99.9158
99.8635
99.85
99.8426
99.843
99.8512
99.8661
99.8854
99.9068
99.9264
99.9442
99.8335
99.829
99.8263
99.8267
99.83
99.8355
99.8422
99.8495
99.8555
99.8758
100.436
100.409
100.404
100.412
100.435
100.47
100.513
100.564
100.614
100.689
104.457
104.51
104.532
104.54
104.542
104.54
104.526
104.509
104.419
104.518
177.498
178.179
178.163
178.24
178.437
178.74
179.121
179.57
180.047
179.204
3049.44
3049.25
3049.18
3049.24
3049.42
3049.72
3050.1
3050.46
3050.75
3051.07
2587
2587.14
2587.18
2587.2
2587.19
2587.18
2587.15
2587.12
2587.08
2586.92
144.252
143.676
143.536
143.511
143.506
143.504
143.506
143.539
143.728
144.37
101.61
101.598
101.59
101.588
101.59
101.595
101.603
101.613
101.634
101.676
99.9347
99.9346
99.9359
99.9351
99.9323
99.9281
99.9234
99.9201
99.9211
99.9318
99.8807
99.8704
99.8648
99.8647
99.8698
99.8792
99.8916
99.9057
99.9195
99.9334
99.8534
99.8497
99.8476
99.8474
99.8491
99.8519
99.8553
99.8588
99.8617
99.8733
100.278
100.258
100.254
100.258
100.273
100.294
100.321
100.351
100.384
100.442
103.29
103.327
103.345
103.35
103.349
103.343
103.326
103.305
103.226
103.303
162.256
162.863
162.91
162.957
163.044
163.166
163.297
163.509
163.686
162.963
2830.13
2830.04
2830
2830.03
2830.12
2830.27
2830.45
2830.61
2830.72
2830.88
2401.74
2401.85
2401.88
2401.89
2401.89
2401.88
2401.87
2401.84
2401.81
2401.69
131.663
131.171
131.079
131.069
131.067
131.063
131.059
131.073
131.205
131.782
101.089
101.074
101.067
101.065
101.066
101.071
101.078
101.087
101.103
101.142
99.9511
99.9491
99.9492
99.9483
99.9463
99.9436
99.9406
99.9387
99.9393
99.9503
99.9102
99.9033
99.8997
99.8995
99.9022
99.9073
99.9143
99.9224
99.9311
99.9407
99.8911
99.8888
99.8875
99.8871
99.8875
99.8884
99.8893
99.8902
99.891
99.8961
100.122
100.11
100.107
100.109
100.116
100.127
100.14
100.155
100.173
100.213
102.168
102.187
102.198
102.2
102.196
102.187
102.17
102.151
102.097
102.154
145.49
145.965
145.999
146.035
146.095
146.175
146.257
146.318
146.251
145.735
2609.74
2609.69
2609.68
2609.7
2609.72
2609.77
2609.82
2609.87
2609.9
2609.98
2215.03
2215.09
2215.1
2215.1
2215.1
2215.1
2215.1
2215.09
2215.09
2215.03
117.399
117.061
117.03
117.035
117.036
117.032
117.022
117.015
117.06
117.488
100.627
100.611
100.603
100.6
100.601
100.604
100.61
100.619
100.632
100.661
99.9667
99.9643
99.9637
99.963
99.962
99.9609
99.9599
99.9594
99.9602
99.9679
99.9517
99.948
99.9462
99.946
99.9473
99.9496
99.9529
99.9568
99.9613
99.9666
99.9411
99.9401
99.9395
99.9392
99.9391
99.939
99.9388
99.9384
99.938
99.9391
100.011
100.005
100.004
100.005
100.007
100.011
100.016
100.021
100.028
100.047
101.123
101.126
101.128
101.127
101.121
101.112
101.099
101.087
101.068
101.108
125.785
126.067
126.084
126.105
126.137
126.18
126.223
126.247
126.198
125.86
2389
2388.98
2388.98
2388.98
2388.98
2388.99
2388.98
2388.98
2388.96
2389
7183.31
7293.46
7249.71
7043.48
658849
683682
689205
697160
1.4968e+06
1.58325e+06
1.59065e+06
1.57082e+06
2.52412e+06
2.702e+06
2.69927e+06
2.61771e+06
3.75945e+06
4.05396e+06
4.02736e+06
3.86551e+06
5.30619e+06
5.74866e+06
5.69697e+06
5.48393e+06
6.8661e+06
7.46401e+06
7.40015e+06
7.20291e+06
7.88014e+06
8.60694e+06
8.55237e+06
8.42343e+06
5.61847e+06
6.17727e+06
6.11358e+06
6.07898e+06
7902.6
8150.25
7988.01
7569.16
5748.9
5801.53
5803.99
5764.91
308544
324542
345183
377201
689086
780380
824360
861267
1.17748e+06
1.40197e+06
1.46503e+06
1.49093e+06
1.76288e+06
2.17624e+06
2.24993e+06
2.26328e+06
2.4579e+06
3.11039e+06
3.20973e+06
3.24574e+06
3.13053e+06
4.03759e+06
4.19866e+06
4.31744e+06
3.57193e+06
4.70094e+06
4.94276e+06
5.17734e+06
2.80596e+06
3.81634e+06
4.00584e+06
4.31857e+06
7126.05
7357.61
7286.8
7066.26
4937.29
4948.19
4947.31
4937.58
21662.3
25950.1
24584
19958.5
61549.3
73360
68622.6
55686.8
128692
152729
140766
113927
228267
270356
246074
199254
372263
441686
401158
326178
545190
648211
591329
485094
702682
839030
769293
636494
584451
696644
629249
524454
6343.91
6431.21
6408.85
6313.45
4715.32
4717.43
4717.97
4717.15
1595.03
1711.1
1679.24
1544.56
4697.42
5169.25
5008.38
4431
11226.4
12496
11915.6
10203.9
22546.4
25237.4
23680.1
19727.4
41682.2
46901.1
43502
35510.2
68287.2
76957.9
70762.8
57090.4
97164.4
109890
100412
80385.1
83381.1
93761.7
84189.2
67239.4
5903.58
5945.28
5942.38
5904.45
4567.34
4568.25
4568.45
4567.9
423.497
436.293
438.459
431.541
710.113
756.76
761.096
730.909
1594.56
1735.8
1727.97
1608.96
3202.6
3527.4
3456.1
3116.16
6139.1
6821.04
6579.93
5754.69
10497.8
11691.3
11105.3
9467.66
15694.8
17555.2
16461.1
13719.5
13866.2
15400
14114.4
11583.7
5578.36
5600.39
5601.87
5586.27
4444.34
4445.1
4445.17
4444.53
275.706
278.54
279.223
277.955
226.423
231.471
233.258
232.202
385.571
402.984
407.158
400.362
673.964
717.672
721.835
695.795
1215.14
1316.34
1312.37
1233.15
2023.83
2211.49
2175.57
1991.02
3047.95
3361.29
3262.4
2904.53
2930.54
3184.65
3024.35
2664.47
5317.89
5328.67
5330.81
5325.26
4322.07
4322.79
4322.84
4322.2
241.853
243.744
244.131
243.068
140.174
140.913
141.253
141.232
175.89
178.573
179.685
179.42
243.217
250.233
252.453
250.739
369.03
386.658
390.374
383.211
549.367
582.854
585.484
565.924
795.918
855.443
852.574
807.482
985.179
1030.29
1010.76
962.872
5095.57
5100.45
5102.31
5101.07
4195.03
4195.73
4195.78
4195.17
228.151
229.863
230.196
229.182
118.211
118.342
118.392
118.366
125.87
126.315
126.535
126.559
146.048
147.278
147.819
147.795
183.45
186.971
188.242
187.677
233.868
240.446
242.212
240.42
314.794
327.416
329.372
323.8
543.241
548.96
546.452
542.732
4893.53
4895.53
4896.83
4897.03
4061.56
4062.21
4062.26
4061.7
219.535
221.186
221.511
220.534
110.899
110.953
110.96
110.92
110.358
110.429
110.465
110.473
117.778
117.99
118.101
118.133
131.741
132.559
132.917
132.885
149.925
151.297
151.846
151.807
187.457
190.427
191.287
190.625
400.306
397.361
396.628
399.283
4698.38
4699.07
4699.84
4700.34
3921.33
3921.94
3921.98
3921.47
212.232
213.829
214.148
213.208
107.873
107.92
107.924
107.883
104.491
104.497
104.5
104.5
107.582
107.605
107.62
107.634
113.677
113.903
114.007
114
121.99
122.251
122.397
122.476
144.64
145.361
145.635
145.573
335.415
330.348
329.579
332.999
4503.79
4503.88
4504.31
4504.78
3774.38
3774.93
3774.97
3774.51
205.087
206.625
206.936
206.034
106.339
106.386
106.391
106.353
101.993
101.99
101.988
101.987
103.362
103.355
103.353
103.357
106.213
106.296
106.331
106.319
110.785
110.803
110.834
110.888
126.77
126.912
126.972
126.966
297.658
292.153
291.255
294.579
4307.12
4306.98
4307.21
4307.56
3620.89
3621.38
3621.41
3621
197.686
199.163
199.463
198.6
105.37
105.416
105.421
105.386
100.856
100.853
100.852
100.852
101.491
101.483
101.48
101.48
102.828
102.87
102.885
102.872
105.727
105.701
105.702
105.734
118.027
118.012
117.999
117.987
271.486
266.031
265.083
268.208
4107.16
4106.97
4107.09
4107.32
3461.16
3461.58
3461.61
3461.25
189.86
191.272
191.561
190.739
104.622
104.665
104.671
104.638
100.32
100.319
100.318
100.318
100.637
100.633
100.63
100.629
101.231
101.259
101.267
101.256
103.296
103.271
103.266
103.283
113.213
113.159
113.122
113.1
250.874
245.622
244.679
247.613
3903.32
3903.19
3903.24
3903.36
3295.56
3295.92
3295.93
3295.62
181.519
182.864
183.142
182.363
103.964
104.004
104.01
103.979
100.066
100.066
100.066
100.066
100.245
100.243
100.241
100.24
100.475
100.495
100.5
100.49
102.076
102.061
102.056
102.064
110.256
110.199
110.156
110.125
233.039
228.044
227.136
229.891
3695.41
3695.38
3695.4
3695.41
3124.56
3124.85
3124.85
3124.58
172.596
173.873
174.139
173.404
103.347
103.384
103.389
103.361
99.9529
99.9538
99.9539
99.9534
100.064
100.063
100.062
100.061
100.124
100.138
100.141
100.133
101.428
101.423
101.42
101.42
108.212
108.165
108.122
108.082
216.515
211.808
210.952
213.533
3483.53
3483.61
3483.62
3483.54
2948.73
2948.95
2948.94
2948.72
163.02
164.229
164.486
163.797
102.755
102.79
102.795
102.769
99.915
99.9169
99.9172
99.916
99.9824
99.9822
99.9816
99.981
99.9681
99.9779
99.9795
99.9731
101.043
101.046
101.045
101.04
106.613
106.584
106.545
106.494
200.448
196.06
195.273
197.671
3268.07
3268.26
3268.27
3268.11
2768.84
2768.99
2768.96
2768.79
152.708
153.852
154.101
153.46
102.189
102.222
102.227
102.202
99.9184
99.9213
99.9217
99.9196
99.9476
99.9479
99.9477
99.9474
99.9063
99.9127
99.9134
99.9084
100.764
100.774
100.774
100.765
105.213
105.206
105.173
105.113
184.276
180.265
179.562
181.753
3049.72
3049.99
3050
3049.8
2585.93
2586
2585.95
2585.83
141.556
142.646
142.89
142.294
101.647
101.679
101.683
101.66
99.9404
99.9441
99.9444
99.9415
99.9377
99.9385
99.9387
99.9387
99.891
99.8947
99.8948
99.8916
100.515
100.527
100.528
100.518
103.878
103.894
103.87
103.803
167.569
164.053
163.459
165.382
2829.52
2829.84
2829.86
2829.63
2401.17
2401.14
2401.09
2401.02
129.382
130.433
130.673
130.112
101.139
101.167
101.171
101.149
99.9614
99.9654
99.9656
99.9624
99.9452
99.9462
99.9468
99.947
99.9039
99.9054
99.9053
99.904
100.271
100.283
100.284
100.275
102.553
102.58
102.565
102.506
149.656
146.71
146.268
147.905
2608.77
2609.14
2609.16
2608.92
2215.02
2214.87
2214.81
2214.85
115.757
116.736
116.942
116.41
100.665
100.682
100.683
100.669
99.9752
99.9775
99.9775
99.9754
99.9701
99.971
99.9716
99.9719
99.941
99.9413
99.9413
99.9411
100.079
100.086
100.087
100.082
101.285
101.293
101.287
101.262
128.359
126.339
126.102
127.259
2388.22
2388.61
2388.61
2388.35
6105.83
5442.63
5172.7
5076.5
5021.62
4983.03
4957.36
4942.9
4934.94
4930.22
798307
193171
33389.9
11729.3
5300.32
2836.73
1749.98
1213.23
929.036
765.812
1.42334e+06
246739
44217.5
15119.5
6772.96
3635.98
2199.93
1460.34
1048.47
803.451
1.99402e+06
239082
46716.9
15004
6477.83
3388.6
1999.24
1296.89
912.713
688.667
2.45611e+06
252268
48876.4
14544.4
6091.57
3098.81
1790.22
1143.47
795.003
596.534
2.92744e+06
276028
51078.9
13956.7
5630.94
2764.68
1559.47
980.089
676.79
507.998
3.30881e+06
294544
51929.5
13142.7
5150.12
2463.53
1373.52
860.333
594.965
450.049
3.39227e+06
286948
47630.5
10984.9
4156.62
1943.13
1091.24
699.397
502.452
394.539
2.3387e+06
181872
27329.2
5702.45
2271.88
1236.53
857.375
671.298
568.028
506.459
6016.73
5992.99
5847.23
5822.73
5779.31
5755
5735.71
5725.44
5718.49
5712.52
5442.79
5174.56
5044.58
4971.99
4926.42
4896.38
4876.9
4865.31
4859.11
4855.22
180211
44888.5
13611.8
5322.44
2635.77
1567.7
1065.69
803.069
656.825
572.845
375422
86343.9
23450.5
8285.9
3887.47
2187.26
1383.8
956.383
711.134
566.218
594468
126105
30669.4
9642.98
4225.05
2260.28
1372.03
915.659
661.618
515.684
829562
164796
36382
10406.6
4313.61
2218.04
1309.37
857.129
610.167
471.96
1.1087e+06
206953
41701.8
10852.1
4242.6
2089.15
1197.52
768.244
541.732
418.318
1.38747e+06
244126
45294.8
10837.2
4050.52
1936.58
1094.27
698.817
492.794
382.709
1.56264e+06
258326
43937
9540.78
3391.02
1583.04
899.573
587.196
429.606
345.631
1.18113e+06
178493
26814.6
5242.95
1964.63
1090.52
771.255
615.016
526.516
476.2
6252.67
5952.77
5792.71
5733.86
5682.99
5652.22
5629.93
5616.31
5606.71
5598.41
4903.28
4868.42
4840.93
4818.12
4800.29
4787.36
4778.73
4773.57
4770.74
4768.74
9200.13
4176.09
2298.85
1432.86
985.616
736.158
591.565
505.351
452.615
420.783
23982.6
9558.28
4647.15
2545.49
1541.55
1010.13
712.771
538.565
431.42
365.13
45392.5
15945.3
6931.53
3408.49
1897.22
1158.57
771.372
555.702
428.645
352.938
73507
22874.9
9002.56
4052.67
2118.18
1231.57
791.392
556.465
421.469
343.305
111928
31006.6
11030.4
4544.71
2233.5
1236.04
766.634
525.986
393.348
318.915
155877
38825.2
12565.7
4790.85
2249.6
1204.77
734.065
500.185
373.226
303.392
191308
42825
12510.2
4381.75
1972.95
1035.67
635.69
442.743
341.572
286.059
141537
27726.8
7297.67
2545.23
1306.93
842.547
642.53
536.492
472.968
436.229
6018
5835.65
5711.09
5637.26
5584.19
5551.08
5528.07
5512.4
5500.8
5490.84
4712.22
4703.84
4694.66
4686.42
4680.17
4675.91
4673.25
4671.9
4671.6
4671.27
1208.22
906.604
708.905
570.539
479.377
420.932
383.387
358.709
342.019
331.718
3026.98
1918.31
1269.6
860.364
612.255
460.967
367.284
307.78
268.385
242.559
6215.12
3477.79
2055.73
1251.36
812.545
564.586
420.247
333.207
278.451
244.142
10735.3
5345.55
2875.84
1609.51
978.354
644.026
460.134
354.554
289.915
250.499
17328.6
7659.66
3758.91
1938.05
1104.67
688.828
472.447
353.662
284.37
243.592
25196.3
9939.22
4494.05
2164.69
1178.15
709.224
476.103
352.679
281.806
240.858
32074.1
11234.2
4656.9
2094.1
1100.02
652.368
441.36
332.851
272.687
238.02
23524.7
7362.41
2960.24
1442.75
905.831
663.454
542.571
472.659
427.915
401.408
5788.74
5660.32
5561.64
5497.78
5453.72
5424.87
5404.16
5389.3
5378.09
5368.63
4566.84
4565.6
4564.36
4563.4
4562.82
4562.58
4562.6
4562.98
4563.9
4564.8
412.781
383.007
356.701
334.936
318.532
306.508
297.68
291.073
286.01
282.718
637.45
512.283
411.534
334.425
279.752
242.004
216.157
198.286
185.374
176.34
1286.24
925.299
665.817
486.098
369.784
294.97
246.677
215.006
193.553
179.376
2274.09
1480.47
972.807
652.652
462.758
348.787
279.616
236.708
208.366
190.015
3811.3
2239.5
1346.38
830.465
548.75
390.179
299.381
245.664
212.096
191.23
5699.46
3042.71
1695.82
978.115
614.62
420.679
314.848
254.701
217.615
194.89
7456.1
3598.59
1860.92
1012.21
616.629
416.957
313.307
255.864
221.729
200.966
5659.65
2636.37
1435.93
904.034
665.85
539.386
466.885
421.243
390.001
371.082
5535.41
5459.44
5394.22
5347.86
5313.98
5289.75
5271.5
5257.8
5247.22
5238.42
4444.12
4444.23
4444.53
4445.01
4445.61
4446.25
4446.9
4447.71
4448.93
4450.41
277.934
274.926
271.453
268.037
265.029
262.478
260.334
258.5
256.887
255.556
225.882
210.826
194.926
180.648
169.169
160.419
153.908
149.034
145.119
142.17
372.949
321.663
273.147
233.321
203.651
182.312
167.141
156.294
148.337
142.822
612.848
487.785
381.977
302.899
248.827
212.629
188.498
172.265
160.553
152.48
1012.7
737.523
529.272
386.642
296.673
240.229
204.682
181.85
166.42
156.302
1521.6
1022.53
681.358
466.001
339.934
265.182
220.334
192.745
174.251
162.207
2045.17
1267.05
790.378
514.406
364.97
280.922
232.628
203.511
184.855
172.924
1814.29
1182.45
824.999
628.813
519.883
452.764
409.193
379.58
357.986
344.657
5303.13
5261.54
5221.75
5189.89
5164.49
5144.78
5129.22
5117.07
5107.46
5099.61
4321.93
4322.2
4322.66
4323.27
4323.95
4324.64
4325.3
4326.06
4327.21
4328.67
244.217
244.05
243.703
243.238
242.727
242.196
241.651
241.073
240.438
239.683
140.67
138.598
136.043
133.48
131.227
129.38
127.92
126.742
125.633
124.709
176.528
168.245
158.707
149.734
142.206
136.192
131.476
127.788
124.861
122.768
241.535
220.09
197.61
178.288
163.355
152.256
144.123
138.177
133.448
129.986
355.616
303.69
254.65
215.872
188.049
168.599
155.068
145.582
138.635
133.879
503.892
404.433
318.242
255.446
213.503
185.794
167.414
155.115
146.098
139.88
681.325
513.607
382.729
294.971
240.215
205.682
183.607
169.097
159.101
152.449
826.863
675.383
559.294
481.335
428.848
392.053
365.537
346.273
331.395
322.047
5091.63
5069.8
5046.03
5024.48
5005.8
4990.29
4977.49
4967.15
4958.76
4952.01
4194.92
4195.14
4195.48
4195.94
4196.46
4196.96
4197.43
4197.99
4198.93
4200.2
230.478
230.702
230.807
230.821
230.764
230.64
230.447
230.163
229.763
229.13
118.345
118.076
117.716
117.321
116.956
116.655
116.427
116.231
115.952
115.667
126.161
124.618
122.578
120.415
118.392
116.607
115.073
113.773
112.672
111.88
146.611
142.565
137.568
132.709
128.507
125.059
122.303
120.135
118.226
116.747
183.606
172.831
160.813
149.975
141.196
134.366
129.134
125.154
122.025
119.828
231.659
210.595
188.425
169.957
155.949
145.622
138.064
132.595
128.219
125.046
303.036
264.135
227.387
198.963
178.602
164.201
154.024
146.792
141.492
137.876
515.67
472.769
430.38
396.288
369.459
348.569
332.172
319.56
309.31
302.785
4892.45
4880.72
4866.37
4851.93
4838.53
4826.74
4816.62
4808.17
4801.14
4795.57
4061.46
4061.62
4061.84
4062.14
4062.48
4062.8
4063.07
4063.42
4064.13
4065.19
221.822
222.086
222.235
222.305
222.311
222.253
222.122
221.893
221.529
220.899
110.955
110.945
110.936
110.925
110.923
110.941
110.982
111.017
110.964
110.869
110.395
110.057
109.561
108.974
108.37
107.791
107.255
106.769
106.338
106.033
117.95
117.098
115.899
114.594
113.348
112.238
111.289
110.5
109.722
109.08
132.063
129.468
126.237
122.951
119.986
117.453
115.352
113.643
112.222
111.219
150.487
145.595
139.5
133.741
128.827
124.827
121.644
119.187
117.054
115.435
186.221
175.977