/*--------------------------------*- C++ -*----------------------------------*\
| =========                 |                                                 |
| \\      /  F ield         | foam-extend: Open Source CFD                    |
|  \\    /   O peration     | Version:     4.0                                |
|   \\  /    A nd           | Web:         http://www.foam-extend.org         |
|    \\/     M anipulation  |                                                 |
\*---------------------------------------------------------------------------*/
FoamFile
{
    version     2.0;
    format      ascii;
    class       volScalarField;
    location    "1400";
    object      k;
}
// * * * * * * * * * * * * * * * * * * * * * * * * * * * * * * * * * * * * * //

dimensions      [0 2 -2 0 0 0 0];

internalField   nonuniform List<scalar> 
34480
(
8.76639
8.764
8.76386
8.76563
8.76943
8.7755
8.79045
8.85401
9.07687
9.68619
9.28665
8.67375
8.58062
8.8602
9.45953
10.3467
11.946
15.8611
28.7574
67.0672
15.0491
13.5798
13.1336
13.2819
13.8526
14.8859
17.2199
22.9163
41.6507
101.428
14.4972
12.9708
12.5212
12.7158
13.4268
14.842
18.015
25.4163
49.2595
127.78
13.4298
12.0159
11.6659
11.9336
12.7858
14.4969
18.2679
26.9654
55.2801
151.568
12.2184
10.947
10.6356
10.9182
11.8104
13.7048
17.9484
27.912
61.0764
176.661
11.3236
10.2055
9.95191
10.2275
11.1229
13.0892
17.5933
28.4283
65.5391
198.032
9.83741
9.00264
8.79839
9.01436
9.727
11.3977
15.4941
26.1334
64.5722
205.634
6.88165
6.61347
6.56493
6.67503
7.00461
7.7296
9.73163
16.28
43.4366
149.725
9.2382
9.23836
9.24416
9.25699
9.27507
9.29665
9.32265
9.36123
9.4323
9.50557
8.67775
8.67477
8.6742
8.67596
8.68072
8.68901
8.70222
8.73333
8.8077
9.0671
7.93625
7.51532
7.42158
7.5792
8.02637
8.86893
10.3107
12.1144
15.4393
41.2178
12.2449
11.182
10.8895
11.0927
11.7715
13.033
15.2313
18.1323
23.7996
66.4471
12.1458
10.9783
10.6598
10.9033
11.709
13.2604
16.0421
20.0241
28.3991
86.1921
11.6013
10.4688
10.2027
10.4794
11.3731
13.1158
16.3062
21.0846
31.8505
104.298
10.8052
9.7565
9.50191
9.77643
10.6757
12.5039
15.9756
21.4643
34.8491
123.714
10.2129
9.2625
9.04607
9.30025
10.1745
12.0041
15.6132
21.5586
37.1234
140.982
9.05257
8.33185
8.14816
8.34005
9.01836
10.517
13.6659
19.2906
35.7226
147.422
6.64423
6.39717
6.34305
6.41731
6.68226
7.26781
8.61573
11.565
22.5062
102.49
9.11111
9.10634
9.10683
9.11399
9.12663
9.14242
9.16338
9.19908
9.27206
9.45741
8.57602
8.57319
8.57229
8.57327
8.57639
8.58128
8.587
8.59995
8.62879
8.69461
6.78746
6.57513
6.52082
6.59662
6.82807
7.27512
8.06991
9.36473
11.1428
16.4558
9.6996
9.07913
8.92562
9.09311
9.61288
10.5681
12.1833
14.5777
17.5557
29.1986
9.89496
9.1574
8.97222
9.18628
9.84607
11.1025
13.2957
16.65
21.12
40.77
9.76232
9.00812
8.84581
9.083
9.82226
11.2671
13.8717
17.9487
23.7838
52.2528
9.33152
8.60527
8.43832
8.67676
9.43195
10.9791
13.8957
18.6264
26.031
64.9022
9.01486
8.33169
8.18601
8.4091
9.15137
10.7208
13.8078
18.9628
27.7561
76.9335
8.19408
7.66657
7.53763
7.70832
8.28391
9.56746
12.2752
17.168
26.663
82.9067
6.37299
6.18097
6.14119
6.20222
6.41339
6.87661
7.92651
10.3714
16.707
57.1465
8.99165
8.98383
8.98125
8.98512
8.99471
9.00777
9.02576
9.05929
9.13802
9.33803
8.46058
8.45882
8.45832
8.45908
8.46122
8.4639
8.46504
8.46844
8.4774
8.49686
6.01192
5.9207
5.89345
5.92418
6.02434
6.21687
6.55373
7.13567
8.00054
9.89039
7.81492
7.50199
7.42898
7.52429
7.82577
8.38868
9.33986
10.8267
12.6632
17.0842
8.12954
7.71238
7.60874
7.74627
8.1726
8.99528
10.4294
12.7325
15.602
23.5585
8.24981
7.79191
7.69539
7.85348
8.35219
9.34053
11.1284
14.0907
17.8879
30.1238
8.08455
7.61695
7.5077
7.675
8.20515
9.30529
11.3928
15.0014
19.8683
37.6327
7.97517
7.51174
7.41264
7.57449
8.11202
9.2587
11.527
15.5826
21.3726
44.9584
7.44437
7.07466
6.98283
7.1115
7.53586
8.4828
10.483
14.3869
20.6588
48.7767
6.13109
5.98427
5.95439
6.00044
6.15804
6.49641
7.22582
8.98771
12.9853
33.054
8.85781
8.84995
8.84708
8.85041
8.85949
8.87307
8.89189
8.92576
8.99888
9.1547
8.33296
8.33219
8.33203
8.33251
8.33366
8.33442
8.33279
8.33142
8.33134
8.33349
5.53969
5.50504
5.49186
5.50165
5.53774
5.60639
5.72173
5.91345
6.18107
6.62527
6.57032
6.43249
6.40162
6.44176
6.57804
6.83631
7.27538
7.98589
8.88262
10.3621
6.87553
6.65913
6.60258
6.6733
6.90055
7.34331
8.11827
9.41221
11.0477
14.0219
7.10391
6.84472
6.7886
6.87604
7.16177
7.73032
8.76324
10.5642
12.8879
17.775
7.09789
6.8119
6.74042
6.84111
7.16525
7.83832
9.11911
11.4688
14.6163
22.2317
7.12039
6.81825
6.75038
6.85255
7.19783
7.93052
9.37638
12.1357
15.9858
26.6457
6.81271
6.56151
6.49555
6.58179
6.86423
7.48618
8.78075
11.4786
15.6959
29.0157
5.918
5.80722
5.78447
5.81635
5.92751
6.16012
6.63097
7.74298
10.1082
19.2462
8.71441
8.70667
8.7036
8.70643
8.71487
8.72823
8.74668
8.77809
8.83956
8.95203
8.19405
8.19405
8.19417
8.19443
8.19485
8.19433
8.19185
8.18928
8.1871
8.18577
5.27155
5.26006
5.25367
5.25586
5.26709
5.28888
5.32438
5.37914
5.44882
5.53928
5.81216
5.76069
5.75096
5.76427
5.81517
5.91195
6.07455
6.33719
6.67646
7.14191
6.04536
5.94191
5.91319
5.94562
6.05379
6.26227
6.61911
7.21437
7.98953
9.10813
6.28359
6.1474
6.11772
6.16141
6.30975
6.5997
7.11462
8.02399
9.23948
11.2028
6.3515
6.1864
6.14236
6.19866
6.38187
6.75472
7.4467
8.74355
10.5416
13.8028
6.44185
6.25437
6.21074
6.27101
6.4786
6.90837
7.73109
9.34379
11.6558
16.3929
6.29262
6.13003
6.0853
6.14038
6.31841
6.69984
7.46163
9.07996
11.6604
17.7697
5.7326
5.65152
5.63529
5.65666
5.73304
5.88855
6.18447
6.83731
8.10227
11.8478
8.56053
8.55317
8.55011
8.55255
8.56027
8.57286
8.59017
8.61799
8.66599
8.7407
8.04444
8.04496
8.04527
8.04538
8.04532
8.04406
8.04174
8.03925
8.03699
8.03532
5.12727
5.12382
5.12034
5.12024
5.12308
5.12947
5.13961
5.1541
5.17037
5.18667
5.37756
5.36266
5.36181
5.3646
5.37954
5.40868
5.45773
5.53547
5.63424
5.7521
5.52803
5.48135
5.46747
5.4812
5.52923
5.61996
5.76875
6.00558
6.31001
6.68133
5.728
5.66096
5.6468
5.6668
5.73853
5.87473
6.10614
6.50097
7.03264
7.75035
5.8153
5.72462
5.69884
5.72847
5.82632
6.01966
6.36207
6.98594
7.86878
9.18687
5.92877
5.81737
5.79087
5.82427
5.94295
6.18084
6.61353
7.44191
8.65628
10.6616
5.88309
5.78285
5.75405
5.78753
5.89436
6.1166
6.53738
7.40381
8.80545
11.4714
5.57791
5.51999
5.509
5.52277
5.57391
5.67534
5.85908
6.23165
6.89146
8.32632
8.39561
8.38887
8.38597
8.38806
8.39495
8.40627
8.42179
8.44547
8.48202
8.53128
7.88445
7.88529
7.88572
7.88574
7.8854
7.88401
7.88214
7.88014
7.87834
7.87698
5.05233
5.0511
5.04884
5.0483
5.04891
5.05095
5.05395
5.05787
5.06151
5.06398
5.13874
5.13718
5.13925
5.13882
5.14102
5.14646
5.15695
5.17455
5.19692
5.22085
5.22048
5.20006
5.19351
5.19907
5.21981
5.2582
5.31829
5.40734
5.51568
5.62744
5.36854
5.33756
5.33167
5.34012
5.37308
5.43381
5.53215
5.68934
5.89366
6.12728
5.44717
5.39962
5.38525
5.40015
5.45031
5.54654
5.70848
5.98509
6.36901
6.85639
5.55757
5.49393
5.47874
5.49624
5.56161
5.68851
5.90689
6.29946
6.86631
7.64844
5.57386
5.51533
5.49784
5.5173
5.57851
5.70258
5.92633
6.35866
7.04727
8.13617
5.45372
5.41316
5.40615
5.41476
5.44843
5.51358
5.62719
5.83844
6.18625
6.75908
8.21913
8.2132
8.21056
8.21233
8.21831
8.22802
8.24135
8.26073
8.28791
8.3208
7.7142
7.7152
7.71569
7.71565
7.71515
7.71403
7.71264
7.71117
7.70987
7.70885
5.0138
5.01293
5.01125
5.01082
5.01111
5.0121
5.01338
5.01485
5.01585
5.016
5.01185
5.01412
5.01664
5.01562
5.01427
5.01295
5.01251
5.01366
5.01607
5.01897
5.04523
5.03621
5.03304
5.0353
5.04437
5.06091
5.08573
5.11988
5.15858
5.19218
5.14563
5.13214
5.13016
5.13346
5.14808
5.17437
5.21524
5.27604
5.35069
5.42281
5.20531
5.18145
5.17378
5.18101
5.20596
5.25262
5.32791
5.44725
5.60587
5.77866
5.30051
5.2653
5.25708
5.26582
5.3009
5.36712
5.47582
5.65662
5.90621
6.19381
5.35021
5.31814
5.3082
5.31907
5.35252
5.41895
5.53468
5.74299
6.06339
6.4925
5.35791
5.32984
5.32566
5.33097
5.35303
5.39473
5.46499
5.58524
5.77014
6.02131
8.03068
8.02566
8.02339
8.02486
8.02986
8.03781
8.04881
8.06406
8.08376
8.10562
7.53381
7.53465
7.53519
7.53512
7.53467
7.53387
7.53289
7.53187
7.53097
7.53021
4.99328
4.99252
4.9912
4.99094
4.99128
4.99204
4.99298
4.99397
4.99459
4.99446
4.94629
4.94903
4.95117
4.95034
4.94856
4.94615
4.94365
4.9415
4.93996
4.93914
4.94953
4.94523
4.94359
4.94457
4.94878
4.95637
4.96736
4.9815
4.99643
5.00744
5.01304
5.00743
5.00702
5.00821
5.01465
5.026
5.0431
5.06686
5.09418
5.11705
5.0533
5.04182
5.03787
5.04131
5.05346
5.07573
5.11054
5.16209
5.22753
5.29142
5.13015
5.11107
5.10684
5.11108
5.12969
5.16399
5.21821
5.30194
5.41123
5.51863
5.1954
5.17922
5.17406
5.17992
5.19726
5.23121
5.28917
5.38726
5.53236
5.70631
5.28683
5.26744
5.26516
5.2685
5.28311
5.31007
5.35378
5.42294
5.52128
5.64088
7.82996
7.82591
7.82405
7.82522
7.82923
7.83547
7.84419
7.85575
7.86965
7.88395
7.34302
7.34369
7.34413
7.34409
7.34379
7.34325
7.34258
7.34189
7.34129
7.34072
4.98139
4.98073
4.97979
4.97963
4.97997
4.98065
4.98149
4.98234
4.98293
4.98278
4.91314
4.91541
4.91701
4.9165
4.91512
4.91317
4.91101
4.90895
4.90735
4.90638
4.89957
4.89726
4.89632
4.8968
4.89895
4.90278
4.90815
4.9147
4.92126
4.92536
4.93751
4.93513
4.93517
4.9356
4.93856
4.94374
4.9513
4.96114
4.97159
4.97945
4.9621
4.95678
4.9548
4.95644
4.9623
4.97285
4.98894
5.01145
5.03882
5.0645
5.02224
5.01187
5.00977
5.01186
5.02184
5.03984
5.06735
5.10716
5.15601
5.19878
5.09292
5.08573
5.08342
5.0865
5.09492
5.11127
5.13891
5.18364
5.2471
5.32208
5.23601
5.22248
5.22139
5.22362
5.2336
5.25145
5.27902
5.31948
5.37167
5.43228
7.6168
7.61369
7.61224
7.61315
7.61621
7.62093
7.62757
7.63603
7.64556
7.65475
7.14157
7.14212
7.14246
7.14245
7.14226
7.1419
7.14146
7.14101
7.14061
7.14015
4.97352
4.97303
4.97239
4.97231
4.97262
4.97319
4.97391
4.97464
4.9752
4.97499
4.89659
4.89829
4.89942
4.89917
4.89827
4.89698
4.89555
4.89418
4.89319
4.89258
4.8748
4.87341
4.87285
4.87312
4.8743
4.87638
4.87924
4.88262
4.88593
4.88769
4.89639
4.89519
4.89523
4.89541
4.89697
4.89968
4.9035
4.90816
4.91266
4.91584
4.91002
4.90761
4.90663
4.90743
4.91027
4.9153
4.92279
4.93278
4.94443
4.95578
4.95693
4.95109
4.95005
4.95118
4.95677
4.9666
4.9811
5.00096
5.02374
5.0424
5.02797
5.02551
5.0248
5.0264
5.03013
5.03735
5.04946
5.06866
5.09439
5.12911
5.20076
5.19113
5.19074
5.19241
5.19955
5.21175
5.22954
5.25379
5.28146
5.31408
7.39115
7.38889
7.38784
7.38851
7.39071
7.39418
7.39905
7.40501
7.41135
7.41714
6.92924
6.9297
6.92997
6.92997
6.92985
6.92963
6.92934
6.92904
6.92878
6.9284
4.96754
4.96724
4.96686
4.96683
4.96708
4.96753
4.96809
4.96868
4.96919
4.96887
4.88833
4.88958
4.89036
4.89027
4.88976
4.88901
4.88818
4.88741
4.88696
4.88665
4.8633
4.86245
4.86214
4.86228
4.86294
4.86407
4.86563
4.86746
4.86931
4.87015
4.87508
4.87426
4.87417
4.87429
4.87527
4.87699
4.87933
4.88201
4.8844
4.88607
4.88182
4.88073
4.88023
4.88064
4.88205
4.8845
4.88804
4.89258
4.89766
4.90323
4.91912
4.91557
4.91502
4.91575
4.91912
4.92487
4.93302
4.94367
4.95509
4.9644
4.98828
4.98808
4.98821
4.98905
4.99046
4.99316
4.99762
5.00486
5.01343
5.03109
5.17671
5.1697
5.16971
5.1711
5.17647
5.18512
5.19696
5.21197
5.22659
5.24553
7.15307
7.15152
7.15082
7.15129
7.15278
7.15529
7.15872
7.16275
7.16683
7.17042
6.70587
6.70627
6.70648
6.70649
6.70642
6.70627
6.70609
6.7059
6.70572
6.70539
4.96248
4.9624
4.96221
4.96223
4.96241
4.96273
4.96314
4.96357
4.96404
4.9636
4.88415
4.88508
4.88561
4.88561
4.88535
4.88498
4.88459
4.88423
4.88416
4.88407
4.85853
4.85805
4.8579
4.85798
4.85831
4.85887
4.85965
4.8606
4.86166
4.86211
4.86467
4.86397
4.86376
4.86386
4.86458
4.86584
4.8675
4.86935
4.87092
4.87206
4.86745
4.86691
4.86664
4.86685
4.86759
4.86884
4.87058
4.87272
4.87501
4.87804
4.89799
4.89563
4.89529
4.89585
4.89806
4.90172
4.90668
4.91291
4.91924
4.92483
4.96437
4.96509
4.96562
4.96608
4.96643
4.96705
4.96799
4.96987
4.97089
4.98115
5.16011
5.15496
5.1552
5.15647
5.16061
5.167
5.17519
5.18485
5.19244
5.20457
6.90282
6.90175
6.90132
6.90161
6.90265
6.90437
6.90669
6.90931
6.91182
6.914
6.4714
6.47174
6.4719
6.47191
6.47188
6.47179
6.47167
6.47155
6.47143
6.47112
4.95792
4.95805
4.95802
4.95808
4.95821
4.9584
4.95866
4.95896
4.95941
4.95886
4.88194
4.88264
4.88298
4.88303
4.88294
4.88282
4.88271
4.88263
4.88282
4.88289
4.85706
4.85683
4.85681
4.85684
4.85695
4.85714
4.85744
4.85786
4.85845
4.85873
4.85998
4.85935
4.85908
4.85915
4.85971
4.86068
4.86195
4.86333
4.8645
4.86539
4.86066
4.86034
4.86017
4.86028
4.86069
4.86138
4.86228
4.86336
4.86444
4.86626
4.88631
4.8846
4.88435
4.88482
4.88637
4.88885
4.8921
4.89607
4.89996
4.90395
4.94936
4.9503
4.95099
4.95127
4.95121
4.95101
4.95052
4.95023
4.94821
4.95515
5.14804
5.14423
5.14462
5.14581
5.14911
5.15402
5.15993
5.16641
5.17011
5.17873
6.64061
6.63991
6.63962
6.63983
6.64052
6.64164
6.64313
6.64474
6.64621
6.64752
6.22589
6.22618
6.2263
6.22631
6.22629
6.22624
6.22616
6.22608
6.226
6.22571
4.95367
4.95403
4.95411
4.9542
4.95428
4.95438
4.95451
4.95469
4.95518
4.95457
4.88062
4.88114
4.88133
4.88139
4.8814
4.88143
4.88151
4.88161
4.88197
4.88222
4.85713
4.85708
4.85712
4.85712
4.8571
4.85708
4.8571
4.8572
4.8575
4.85775
4.85816
4.85761
4.85732
4.85737
4.85779
4.85852
4.85947
4.86051
4.86141
4.86214
4.85782
4.85758
4.85745
4.85751
4.85775
4.85815
4.85866
4.85924
4.85979
4.86095
4.87946
4.87816
4.87795
4.87833
4.87944
4.88118
4.8834
4.88604
4.88861
4.89179
4.93848
4.9393
4.93999
4.9402
4.94006
4.93965
4.93876
4.93781
4.93484
4.94018
5.1383
5.13549
5.13596
5.13709
5.13979
5.14368
5.1481
5.1526
5.15407
5.16076
6.36676
6.36633
6.36616
6.36629
6.36672
6.36741
6.36831
6.36924
6.37003
6.3708
5.96962
5.96987
5.96995
5.96997
5.96996
5.96993
5.96988
5.96982
5.96975
5.96949
4.94962
4.95017
4.95032
4.95046
4.95051
4.95053
4.95056
4.95064
4.95118
4.95063
4.87959
4.87993
4.88
4.88004
4.8801
4.88023
4.88041
4.88063
4.88108
4.88153
4.85786
4.85788
4.85794
4.85792
4.85784
4.85773
4.85761
4.85756
4.85769
4.85797
4.85768
4.85723
4.85698
4.85699
4.85728
4.8578
4.85847
4.8592
4.85988
4.86047
4.85695
4.85675
4.85665
4.85667
4.85681
4.85705
4.85734
4.85767
4.85796
4.85869
4.87457
4.87358
4.87339
4.87367
4.87444
4.87563
4.87711
4.87885
4.88058
4.88317
4.92848
4.92903
4.92965
4.92983
4.92972
4.92935
4.92853
4.92757
4.92462
4.92899
5.12889
5.1269
5.12738
5.12844
5.13067
5.13379
5.13718
5.14037
5.1405
5.14591
6.08182
6.08157
6.08148
6.08156
6.0818
6.08219
6.0827
6.08318
6.08356
6.08399
5.70324
5.70345
5.70351
5.70353
5.70353
5.70351
5.70347
5.70343
5.70337
5.70313
4.94547
4.94614
4.94636
4.94654
4.94658
4.94654
4.94647
4.94646
4.94703
4.94673
4.87844
4.87858
4.87855
4.87855
4.87863
4.87879
4.87902
4.87929
4.87974
4.88041
4.85868
4.85868
4.85872
4.85869
4.85861
4.85848
4.85834
4.85826
4.85831
4.85864
4.8578
4.85745
4.85726
4.85726
4.85744
4.85776
4.85818
4.85866
4.85914
4.85959
4.85705
4.8569
4.85682
4.85682
4.85689
4.85701
4.85716
4.85732
4.85746
4.85788
4.8699
4.86918
4.86902
4.86919
4.86967
4.8704
4.8713
4.87234
4.87345
4.87547
4.91721
4.9175
4.91798
4.91812
4.91804
4.91774
4.91709
4.9163
4.91385
4.91736
5.11705
5.11575
5.11619
5.11716
5.11896
5.12141
5.12398
5.12615
5.12547
5.12972
5.78662
5.78649
5.78644
5.78648
5.78661
5.7868
5.78706
5.78727
5.78743
5.78764
5.42761
5.42778
5.42782
5.42783
5.42783
5.42782
5.4278
5.42776
5.42771
5.42753
4.93978
4.94043
4.9408
4.94103
4.94108
4.94099
4.94082
4.94066
4.94102
4.94124
4.87684
4.87674
4.87663
4.8766
4.87665
4.8768
4.87702
4.8773
4.87769
4.87848
4.85918
4.85911
4.85911
4.85908
4.85902
4.85893
4.85884
4.85879
4.85882
4.85918
4.85823
4.858
4.85788
4.85787
4.85796
4.85813
4.85837
4.85864
4.85894
4.85925
4.85766
4.85757
4.85753
4.85751
4.85754
4.85757
4.85762
4.85766
4.85771
4.8579
4.86487
4.86442
4.8643
4.86438
4.86462
4.86499
4.86543
4.86594
4.86654
4.86792
4.9035
4.90355
4.90384
4.9039
4.90377
4.90347
4.90294
4.90231
4.90069
4.90325
5.0957
5.09497
5.09534
5.09614
5.09748
5.09926
5.10106
5.10233
5.10121
5.10408
5.48216
5.4821
5.48209
5.4821
5.48214
5.4822
5.48228
5.48234
5.48239
5.4825
5.14254
5.14264
5.14265
5.14265
5.14265
5.14265
5.14264
5.14264
5.14263
5.14254
4.92488
4.92544
4.92605
4.92637
4.92645
4.92633
4.92605
4.92564
4.92525
4.92584
4.87373
4.87339
4.8732
4.8731
4.87312
4.87323
4.87342
4.8737
4.87408
4.87485
4.85941
4.85933
4.85931
4.85929
4.85926
4.85922
4.85919
4.85917
4.85921
4.85945
4.859
4.85888
4.85882
4.85881
4.85885
4.85893
4.85904
4.85917
4.85932
4.85949
4.85866
4.85863
4.8586
4.85859
4.85859
4.85859
4.85858
4.85857
4.85856
4.8586
4.8609
4.86071
4.86065
4.86068
4.86077
4.8609
4.86105
4.86123
4.86147
4.86211
4.88682
4.88666
4.88673
4.88668
4.88649
4.88619
4.88577
4.88535
4.88478
4.88642
5.04136
5.04105
5.04129
5.04179
5.04259
5.04362
5.04465
5.04522
5.04424
5.04535
5.1685
5.16847
5.16847
5.16848
5.16848
5.16848
5.16848
5.16847
5.16845
5.16851
11.2684
11.3833
11.3377
11.1216
82.8059
84.8735
85.3296
85.9841
143.098
148.556
149.018
147.776
202.734
212.149
212.006
207.714
264.404
278.038
276.82
269.354
332.693
350.94
348.833
340.083
395.064
417.679
415.294
407.884
433.072
459.308
457.365
452.76
345.642
368.197
365.661
364.282
11.476
11.7145
11.5585
11.1508
9.71333
9.77252
9.77528
9.73134
76.0915
79.313
80.0647
80.1902
133.863
144.75
145.839
143.676
192.853
214.441
214.961
209.062
256.078
290.867
289.903
279.943
329.456
380.145
378.373
365.497
399.553
466.485
465.534
452.492
446.067
527.458
528.533
517.314
350.567
422.852
420.991
416.12
10.7112
10.942
10.8717
10.6512
8.77613
8.78905
8.788
8.77647
26.5455
28.9539
28.2127
25.705
49.3525
53.7445
52.0744
47.4029
74.5626
81.305
78.1786
70.6649
103.426
112.947
107.76
96.6773
139.414
152.754
145.123
129.225
177.29
194.627
184.465
163.43
207.536
228.68
216.419
190.863
164.771
181.636
170.152
149.292
9.91235
10.0031
9.97987
9.88058
8.51106
8.5136
8.51425
8.51326
11.4768
11.7228
11.6912
11.4945
21.213
21.9341
21.8674
21.3257
31.9908
33.4705
33.215
31.8995
44.4988
46.9248
46.2567
43.7341
60.622
64.3824
63.0582
58.7404
78.0464
83.1499
80.8778
74.4299
92.5805
99.1202
95.8267
87.1275
71.9552
77.0853
73.5668
65.9566
9.44818
9.49262
9.48953
9.44911
8.33204
8.33314
8.33339
8.33272
7.04367
7.13393
7.15829
7.12834
11.6785
11.9723
12.0537
11.9674
16.8688
17.4805
17.5791
17.3121
22.8319
23.8491
23.8831
23.2786
30.7083
32.3308
32.2162
31.0265
39.2197
41.4519
41.0321
39.0511
46.2653
49.1986
48.3791
45.3959
34.4107
36.6266
35.4334
32.5494
9.09792
9.12185
9.12347
9.10652
8.18177
8.1827
8.18278
8.182
5.60784
5.62165
5.6265
5.62464
7.45706
7.52604
7.55802
7.55906
9.9373
10.12
10.1864
10.1609
12.8325
13.1775
13.263
13.162
16.7952
17.4112
17.5005
17.2322
21.0457
21.9423
21.9651
21.4352
24.4823
25.7344
25.6322
24.6947
17.4863
18.3802
18.0247
17.0193
8.81246
8.82437
8.82674
8.82061
8.03101
8.0319
8.03197
8.03117
5.19759
5.20058
5.20128
5.20022
5.824
5.83945
5.84777
5.84978
6.91479
6.96733
6.99215
6.993
8.25918
8.37124
8.41532
8.40537
10.2343
10.4621
10.5319
10.4829
12.3601
12.7083
12.7786
12.6593
14.0569
14.5774
14.6242
14.3594
10.2249
10.5617
10.483
10.1911
8.56512
8.57059
8.57267
8.57128
7.87286
7.87373
7.87379
7.87303
5.06361
5.06467
5.0646
5.06361
5.23361
5.23583
5.23713
5.23769
5.68453
5.69676
5.70317
5.70445
6.26606
6.29641
6.31092
6.31237
7.1951
7.27092
7.30168
7.29595
8.21723
8.33869
8.3788
8.36011
9.07178
9.27312
9.31806
9.2525
7.3407
7.454
7.44805
7.38167
8.33719
8.33947
8.34093
8.34117
7.70497
7.70579
7.70586
7.70515
5.01352
5.01439
5.01428
5.01332
5.02053
5.02057
5.02056
5.02056
5.20474
5.20702
5.20825
5.20859
5.45574
5.46238
5.46599
5.46711
5.88142
5.9046
5.91528
5.91518
6.36027
6.39647
6.41203
6.41237
6.80863
6.88056
6.90341
6.88871
6.19959
6.23392
6.23842
6.22781
8.11404
8.11483
8.11572
8.1163
7.52659
7.52736
7.52742
7.52677
4.99147
4.99228
4.9922
4.99129
4.93896
4.93882
4.93869
4.93858
5.00979
5.00999
5.01009
5.01015
5.12374
5.12466
5.12526
5.12568
5.32403
5.33118
5.3346
5.33458
5.56067
5.56937
5.57418
5.57631
5.81566
5.84096
5.8503
5.84606
5.69936
5.70717
5.70998
5.71074
7.88842
7.88853
7.88904
7.88958
7.33736
7.33807
7.33812
7.33752
4.97967
4.98042
4.98034
4.97948
4.90606
4.906
4.90591
4.90579
4.9255
4.92537
4.92531
4.92533
4.98045
4.98032
4.98028
4.9804
5.07716
5.07982
5.081
5.08074
5.20728
5.20854
5.20974
5.21117
5.36745
5.37747
5.38098
5.37829
5.45466
5.45386
5.45454
5.45688
7.65708
7.65691
7.65718
7.6576
7.13707
7.13771
7.13775
7.13721
4.97189
4.97255
4.97246
4.97165
4.8923
4.89229
4.89223
4.8921
4.88738
4.88724
4.88718
4.88721
4.91582
4.91562
4.91551
4.91552
4.96221
4.96354
4.96406
4.96374
5.04308
5.04271
5.04289
5.04369
5.15437
5.15944
5.16071
5.15814
5.32534
5.32209
5.32167
5.32367
7.41822
7.418
7.41813
7.41841
6.9256
6.92617
6.9262
6.92571
4.96585
4.96641
4.9663
4.96553
4.88639
4.8864
4.88635
4.88622
4.86978
4.86968
4.86965
4.86969
4.88598
4.88585
4.88577
4.88575
4.90725
4.90809
4.90838
4.90809
4.96402
4.96354
4.96349
4.96391
5.04939
5.05275
5.05318
5.0506
5.25329
5.24974
5.24889
5.25028
7.1707
7.17054
7.1706
7.17074
6.7029
6.70338
6.70341
6.70298
4.96071
4.96116
4.96102
4.9603
4.88382
4.88384
4.88378
4.88365
4.8618
4.86173
4.86172
4.86175
4.87203
4.87196
4.8719
4.87188
4.88083
4.88142
4.8816
4.88136
4.92502
4.92476
4.9247
4.92486
4.99662
4.99935
4.99945
4.99687
5.21123
5.20815
5.2072
5.20795
6.91376
6.91371
6.91374
6.91375
6.46897
6.46938
6.46938
6.46901
4.95616
4.9565
4.95632
4.95566
4.88271
4.88274
4.88268
4.88254
4.85854
4.85851
4.8585
4.85853
4.86541
4.86537
4.86534
4.86532
4.86825
4.86868
4.86878
4.86858
4.90496
4.90496
4.90493
4.9049
4.96927
4.97177
4.97173
4.96911
5.18514
5.18282
5.18193
5.18204
6.6469
6.647
6.64701
6.6469
6.22396
6.22427
6.22425
6.22394
4.95211
4.95233
4.95213
4.95152
4.88221
4.88227
4.88222
4.88205
4.8577
4.85771
4.85772
4.85772
4.86218
4.86217
4.86215
4.86214
4.86236
4.86265
4.86271
4.86254
4.89347
4.89368
4.89369
4.89351
4.95353
4.956
4.9559
4.9532
5.16725
5.16583
5.16508
5.16456
6.36991
6.37015
6.37016
6.36996
5.96819
5.9684
5.96836
5.96811
4.94851
4.94866
4.94845
4.9479
4.88183
4.88196
4.88193
4.88172
4.8581
4.85815
4.85816
4.85813
4.86055
4.86055
4.86054
4.86054
4.85963
4.85983
4.85985
4.85972
4.88524
4.88559
4.88563
4.88537
4.94164
4.94422
4.94412
4.94131
5.15257
5.15219
5.15164
5.15045
6.08292
6.08328
6.0833
6.08302
5.70236
5.70246
5.7024
5.70221
4.94524
4.94539
4.9452
4.94468
4.88115
4.88139
4.88137
4.88111
4.85893
4.85901
4.85902
4.85896
4.8597
4.85972
4.85973
4.85974
4.85844
4.85855
4.85856
4.85847
4.87757
4.878
4.87805
4.87775
4.92875
4.93144
4.93138
4.92854
5.13637
5.13722
5.13694
5.13504
5.78647
5.78692
5.78694
5.78663
5.42739
5.42736
5.42727
5.42718
4.94101
4.94136
4.94125
4.94066
4.87954
4.87988
4.87987
4.87954
4.85952
4.85962
4.85963
4.85955
4.85938
4.85941
4.85943
4.85944
4.85814
4.85819
4.85819
4.85815
4.86968
4.87006
4.87012
4.86986
4.91186
4.91429
4.91428
4.9118
5.10994
5.11233
5.1124
5.10961
5.48146
5.48198
5.482
5.48167
5.14314
5.1429
5.14281
5.14288
4.92732
4.92818
4.92815
4.92722
4.87559
4.87582
4.8758
4.87555
4.85967
4.85973
4.85974
4.85968
4.8596
4.85963
4.85965
4.85966
4.85867
4.85867
4.85867
4.85867
4.8631
4.86331
4.86335
4.86322
4.89057
4.89175
4.89173
4.89052
5.04823
5.05177
5.05208
5.04864
5.16799
5.16855
5.16856
5.16819
10.1126
9.36642
9.05411
8.9415
8.87694
8.8314
8.80104
8.78392
8.77449
8.7689
103.674
49.1106
35.7418
29.9511
24.5571
19.9518
16.3673
13.6949
11.7881
10.4266
160.897
70.8263
51.0742
43.7308
37.1842
31.4216
26.5918
22.7141
19.6732
17.3013
206.326
82.5523
55.9582
46.7102
39.3477
32.7558
27.2215
22.8315
19.4431
16.8586
241.91
88.8961
58.8039
47.9442
40.0562
32.7181
26.6631
21.9451
18.3621
15.7203
277.884
94.6397
60.9543
48.2778
39.8174
31.7623
25.3337
20.4517
16.8732
14.3259
306.925
98.1122
61.6729
47.752
39.0102
30.4886
23.9202
19.058
15.5837
13.2037
315.042
93.7162
56.6162
42.2009
33.8831
25.7588
19.9045
15.7841
13.0379
11.2242
224.367
56.1132
30.5355
21.103
16.2696
12.215
9.94962
8.6097
7.80196
7.2786
9.56966
9.54448
9.38909
9.36285
9.31625
9.29011
9.26935
9.25829
9.25081
9.24438
9.36656
9.05627
8.90397
8.81834
8.76437
8.7287
8.70553
8.69174
8.68436
8.67972
53.1037
28.6707
22.5559
19.4498
16.6707
14.2011
12.1674
10.6058
9.46697
8.67547
89.9606
46.255
35.7884
31.0134
27.1779
23.5085
20.2923
17.6357
15.5098
13.8929
122.19
58.5769
42.846
35.6219
30.5421
25.7613
21.6935
18.4229
15.8749
13.9907
152.456
68.7252
47.8372
38.5067
32.372
26.6677
21.9697
18.2933
15.483
13.4753
186.328
78.8343
52.1292
40.4615
33.2414
26.6544
21.4424
17.4878
14.586
12.5885
217.085
86.4355
54.7006
41.2336
33.3315
26.1574
20.6825
16.6501
13.7634
11.8487
233.086
86.7201
51.9111
37.4699
29.5571
22.559
17.5609
14.0747
11.7578
10.2796
167.351
54.7394
29.0569
19.3714
14.6858
11.2203
9.27065
8.12706
7.43192
7.00167
9.81828
9.50175
9.33065
9.26735
9.21246
9.17919
9.15504
9.14028
9.12987
9.12087
8.7369
8.69544
8.66268
8.63543
8.61411
8.59864
8.58831
8.58212
8.57872
8.57633
19.9499
16.5772
14.5027
12.685
11.1163
9.81409
8.80056
8.05245
7.51442
7.14238
35.9086
28.7023
24.9172
21.6845
18.9119
16.5061
14.5129
12.9103
11.6366
10.6763
51.0094
37.9161
31.5268
26.3416
22.2544
18.8375
16.0963
13.9488
12.2909
11.0786
66.0868
45.6677
36.615
29.5838
24.3716
20.1197
16.8096
14.2883
12.3782
11.0266
83.1784
53.3209
41.132
32.0747
25.7258
20.6531
16.8356
14.0157
11.9712
10.5792
99.0732
59.1712
44.1404
33.4471
26.3235
20.6936
16.5885
13.6477
11.5658
10.1962
108.378
59.7474
42.5944
30.9909
23.7524
18.2074
14.4168
11.8516
10.1667
9.09505
75.9242
36.6442
23.8639
16.2668
12.2203
9.67881
8.28732
7.46985
6.96143
6.64236
9.57105
9.37671
9.24281
9.16298
9.10538
9.06937
9.04429
9.02719
9.01453
9.00366
8.50842
8.49833
8.48727
8.47733
8.46979
8.46465
8.46145
8.45981
8.45945
8.45906
10.9421
10.1339
9.28428
8.44017
7.73358
7.19141
6.79312
6.50564
6.29762
6.15298
19.862
18.023
16.1719
14.3009
12.6872
11.3606
10.3005
9.46599
8.80792
8.31446
28.4641
24.6211
21.1815
17.9834
15.3981
13.3277
11.7055
10.4537
9.49614
8.80201
37.2229
30.6517
25.4218
20.8579
17.3637
14.6374
12.5617
11.0088
9.84181
9.01846
47.447
36.9574
29.5172
23.355
18.8604
15.4359
12.9123
11.0842
9.7729
8.88287
57.0441
42.0655
32.5471
25.0077
19.7534
15.8255
13.022
11.0577
9.67805
8.76729
62.7797
43.2601
32.0862
23.7079
18.2298
14.3013
11.6758
9.93816
8.80051
8.06796
42.7362
26.2016
17.9696
12.7884
10.021
8.38949
7.47177
6.91737
6.5587
6.32821
9.32642
9.18796
9.08086
9.01122
8.96301
8.93137
8.90864
8.89231
8.87997
8.86956
8.3325
8.331
8.32948
8.32831
8.32761
8.32731
8.32734
8.3278
8.32892
8.33003
6.99891
6.75865
6.5056
6.26745
6.06945
5.91334
5.79327
5.70197
5.63298
5.58529
11.6082
10.9222
10.1489
9.37243
8.68688
8.11558
7.65717
7.29634
7.00857
6.79135
16.4334
14.951
13.3711
11.8573
10.5713
9.52192
8.69443
8.05687
7.56913
7.21698
21.527
18.927
16.3537
14.0097
12.112
10.6141
9.4723
8.62384
7.98397
7.53001
27.758
23.4377
19.5059
16.0859
13.4426
11.4208
9.93231
8.86271
8.0951
7.57149
33.726
27.3782
22.0641
17.6407
14.3773
11.9528
10.2284
9.03213
8.1865
7.62011
37.3886
28.7902
22.263
17.1538
13.6347
11.1569
9.50714
8.42018
7.69884
7.22389
24.5259
17.334
12.8085
9.95615
8.36272
7.40415
6.82936
6.46644
6.21989
6.05813
9.05229
8.96928
8.8977
8.84666
8.80925
8.78245
8.76225
8.74706
8.73532
8.72557
8.18254
8.18268
8.18305
8.18364
8.18437
8.18516
8.18596
8.18695
8.18845
8.19026
5.60822
5.56489
5.51352
5.46148
5.41443
5.37409
5.34073
5.31396
5.29361
5.2808
7.50366
7.31235
7.06419
6.80548
6.57089
6.37319
6.2135
6.08606
5.97982
5.89727
9.97513
9.46931
8.84908
8.22701
7.67895
7.225
6.86331
6.58122
6.36155
6.20217
12.7326
11.7713
10.6603
9.59958
8.70725
7.9959
7.45082
7.04343
6.72851
6.50083
16.3243
14.608
12.7537
11.0618
9.69899
8.64844
7.87072
7.30837
6.89741
6.61317
19.8626
17.246
14.5847
12.269
10.4876
9.16038
8.21141
7.5495
7.06907
6.73914
22.1192
18.4223
15.0004
12.2259
10.2389
8.84211
7.90131
7.27151
6.84089
6.54973
14.3946
11.5391
9.42838
8.05213
7.21588
6.67987
6.33262
6.10257
5.93811
5.82873
8.79726
8.7512
8.70702
8.67158
8.64327
8.62126
8.60387
8.59028
8.57953
8.57073
8.03186
8.03219
8.03276
8.03351
8.03437
8.03522
8.03603
8.03698
8.0384
8.04021
5.19687
5.18865
5.179
5.1684
5.15782
5.14783
5.13897
5.13167
5.12672
5.12494
5.8386
5.79252
5.7303
5.66352
5.60143
5.5481
5.50424
5.46798
5.43432
5.40635
6.9494
6.79137
6.58414
6.36856
6.17196
6.00396
5.86536
5.75298
5.66199
5.59531
8.29716
7.96277
7.54481
7.1329
6.77605
6.48549
6.25734
6.0819
5.93899
5.83219
10.2208
9.5544
8.77107
8.03336
7.42058
6.93942
6.57467
6.30321
6.09722
5.95203
12.1915
11.1277
9.92752
8.8514
7.99678
7.35029
6.87735
6.53864
6.28081
6.09777
13.5226
11.9537
10.3431
9.00163
8.0061
7.29277
6.79625
6.45176
6.20638
6.03622
9.4277
8.38752
7.50828
6.88542
6.46233
6.16859
5.96323
5.8208
5.71364
5.642
8.56178
8.53729
8.51059
8.48633
8.46529
8.44779
8.43335
8.42166
8.41218
8.40455
7.87372
7.87399
7.87442
7.87499
7.87564
7.87628
7.87686
7.87757
7.87873
7.88033
5.06307
5.06127
5.05931
5.05699
5.05437
5.05162
5.04904
5.04702
5.04633
5.0473
5.23566
5.22717
5.21556
5.2026
5.19031
5.17986
5.17157
5.16448
5.15559
5.14695
5.69446
5.65157
5.59188
5.5261
5.46252
5.40502
5.35478
5.31171
5.2752
5.24838
6.28759
6.18786
6.05462
5.91689
5.79173
5.68504
5.59734
5.52679
5.46488
5.41657
7.22227
6.98989
6.70158
6.41843
6.17259
5.9711
5.81098
5.68605
5.58662
5.5155
8.23102
7.83886
7.36378
6.92179
6.55564
6.26764
6.04719
5.88231
5.74879
5.65047
8.98834
8.37204
7.69913
7.11625
6.66185
6.32141
6.07203
5.89073
5.7559
5.6607
7.18751
6.82478
6.47026
6.1891
5.97598
5.81607
5.69631
5.60976
5.54124
5.49557
8.33701
8.32368
8.30736
8.29092
8.27565
8.2622
8.25065
8.241
8.23297
8.2266
7.70583
7.70602
7.7063
7.70668
7.70711
7.70751
7.70786
7.7083
7.7092
7.71054
5.01334
5.01257
5.01184
5.01101
5.01001
5.00889
5.00784
5.00715
5.00741
5.0087
5.02004
5.01898
5.01795
5.01686
5.0161
5.01603
5.0167
5.01735
5.01583
5.01334
5.20603
5.19482
5.17819
5.15835
5.13774
5.11782
5.09931
5.0825
5.06768
5.05689
5.46174
5.43519
5.39682
5.35417
5.31272
5.27525
5.24283
5.2155
5.18914
5.16742
5.8937
5.8193
5.72255
5.62099
5.52691
5.44497
5.37602
5.31935
5.27215
5.23827
6.38221
6.25452
6.08599
5.91913
5.77166
5.64852
5.54875
5.47044
5.40256
5.35059
6.80678
6.5836
6.32673
6.08944
5.89169
5.73438
5.61254
5.51973
5.44797
5.39691
6.17928
6.04794
5.90196
5.77255
5.6647
5.57782
5.50862
5.45677
5.41351
5.38503
8.11407
8.10658
8.09654
8.08558
8.07478
8.06481