/*--------------------------------*- C++ -*----------------------------------*\
| =========                 |                                                 |
| \\      /  F ield         | foam-extend: Open Source CFD                    |
|  \\    /   O peration     | Version:     4.0                                |
|   \\  /    A nd           | Web:         http://www.foam-extend.org         |
|    \\/     M anipulation  |                                                 |
\*---------------------------------------------------------------------------*/
FoamFile
{
    version     2.0;
    format      ascii;
    class       volScalarField;
    location    "1400";
    object      MaU;
}
// * * * * * * * * * * * * * * * * * * * * * * * * * * * * * * * * * * * * * //

dimensions      [0 0 0 0 0 0 0];

internalField   nonuniform List<scalar> 
34480
(
0.623697
0.624697
0.625234
0.625349
0.625045
0.624248
0.622818
0.620074
0.613978
0.608174
0.627101
0.627935
0.628399
0.628433
0.627875
0.626582
0.624578
0.621613
0.614588
0.609023
0.629266
0.630033
0.630411
0.630321
0.629587
0.628242
0.626469
0.624178
0.617142
0.612021
0.629237
0.630026
0.630474
0.630518
0.630012
0.629073
0.627804
0.626229
0.619587
0.614951
0.629667
0.630563
0.631154
0.631421
0.631241
0.630782
0.630062
0.629261
0.623409
0.619269
0.629231
0.630189
0.630868
0.631268
0.631328
0.631277
0.631094
0.631118
0.626452
0.623141
0.629408
0.630511
0.631301
0.631843
0.632115
0.632407
0.63272
0.633563
0.630349
0.627848
0.628801
0.629948
0.630697
0.631126
0.631282
0.631528
0.631993
0.633376
0.63168
0.630373
0.628547
0.629852
0.630714
0.631276
0.631607
0.63201
0.632723
0.634602
0.63418
0.632786
0.624745
0.625794
0.62585
0.624987
0.623376
0.621397
0.619506
0.618975
0.618201
0.619042
0.6138
0.615264
0.615839
0.615592
0.614449
0.612135
0.608023
0.600755
0.590045
0.576184
0.618395
0.61971
0.620239
0.619979
0.618738
0.616144
0.611603
0.603754
0.591091
0.574922
0.621443
0.622674
0.623151
0.622859
0.621545
0.618907
0.614438
0.606754
0.593251
0.575912
0.622227
0.623471
0.624015
0.623859
0.622755
0.620463
0.616396
0.609144
0.595256
0.577506
0.623339
0.62466
0.625324
0.625376
0.624576
0.622739
0.619196
0.612591
0.598802
0.581217
0.623443
0.624811
0.625558
0.625749
0.625187
0.623767
0.620772
0.614956
0.601722
0.584935
0.624069
0.625547
0.626392
0.62673
0.626387
0.62534
0.622882
0.617923
0.60562
0.589915
0.623785
0.625294
0.626109
0.626365
0.625967
0.624983
0.622817
0.618576
0.607464
0.593455
0.623776
0.625392
0.626299
0.626669
0.626448
0.625696
0.623921
0.620427
0.610576
0.597374
0.620164
0.621598
0.621948
0.621299
0.619706
0.61732
0.613871
0.609078
0.599703
0.589629
0.606168
0.607737
0.608302
0.607983
0.606742
0.604424
0.60073
0.595164
0.58709
0.576894
0.611047
0.612587
0.613148
0.612773
0.611343
0.608594
0.604019
0.596759
0.585364
0.570192
0.614368
0.615908
0.616464
0.616087
0.614594
0.611667
0.606685
0.598522
0.584502
0.564673
0.615646
0.617248
0.617883
0.617621
0.616258
0.613474
0.60849
0.599903
0.583737
0.55981
0.617237
0.618929
0.619676
0.619597
0.618467
0.615992
0.611249
0.602646
0.584984
0.557778
0.617762
0.619513
0.620348
0.620404
0.619479
0.617328
0.61293
0.604608
0.586063
0.556495
0.618751
0.620599
0.621527
0.62173
0.621008
0.619184
0.615196
0.607352
0.588498
0.557272
0.618767
0.620642
0.621556
0.621705
0.620956
0.619219
0.615502
0.608188
0.589551
0.55749
0.619015
0.620955
0.621939
0.622177
0.621558
0.620013
0.616658
0.610008
0.592018
0.558561
0.615643
0.617414
0.617986
0.617466
0.615837
0.613102
0.6086
0.601181
0.583748
0.550709
0.600601
0.601976
0.602448
0.602141
0.60105
0.599119
0.59625
0.592346
0.587385
0.58185
0.605214
0.606684
0.607197
0.60679
0.605391
0.602855
0.598931
0.593275
0.585442
0.576501
0.608384
0.609975
0.610523
0.610086
0.608537
0.605649
0.600998
0.593955
0.583358
0.570409
0.609862
0.61159
0.612229
0.611857
0.610316
0.607332
0.602286
0.594244
0.580991
0.563773
0.611722
0.613579
0.614323
0.614088
0.612672
0.609791
0.604639
0.596009
0.580508
0.5593
0.612539
0.614482
0.615314
0.61519
0.613906
0.611194
0.6061
0.597213
0.57992
0.55524
0.613803
0.615843
0.616761
0.616766
0.615639
0.61315
0.60824
0.599356
0.580787
0.553167
0.614076
0.616144
0.617059
0.617029
0.615882
0.613444
0.608669
0.599956
0.580698
0.550825
0.614545
0.61665
0.617617
0.617662
0.616622
0.614319
0.609732
0.601354
0.582072
0.549666
0.61142
0.613371
0.614051
0.613555
0.61181
0.608693
0.603339
0.594357
0.57527
0.541667
0.596727
0.59781
0.598171
0.597935
0.59712
0.595737
0.593802
0.591381
0.588627
0.585904
0.600786
0.602031
0.602465
0.60211
0.600936
0.598892
0.595906
0.591957
0.587102
0.582299
0.603504
0.604982
0.60549
0.605074
0.60366
0.601125
0.597256
0.591837
0.584586
0.576952
0.604913
0.606612
0.607227
0.606828
0.605303
0.602465
0.597926
0.591228
0.581442
0.570386
0.606816
0.608701
0.609425
0.609111
0.607598
0.604659
0.599715
0.592056
0.579881
0.565242
0.607763
0.609779
0.610597
0.610362
0.608896
0.605953
0.600783
0.592458
0.57814
0.560023
0.609178
0.611313
0.612215
0.612085
0.610714
0.607861
0.602631
0.593906
0.577808
0.556434
0.609627
0.611805
0.612718
0.612563
0.611165
0.608304
0.603034
0.594125
0.576757
0.552542
0.610268
0.612473
0.613426
0.61333
0.612007
0.609234
0.604018
0.595077
0.57708
0.549794
0.607369
0.609434
0.610192
0.609717
0.607907
0.604571
0.598831
0.589367
0.571146
0.541782
0.594071
0.594876
0.595133
0.594971
0.594418
0.593508
0.592288
0.590854
0.589336
0.587882
0.597534
0.598497
0.598836
0.59856
0.597664
0.596151
0.594044
0.591438
0.588536
0.585942
0.599684
0.600941
0.601377
0.601022
0.599839
0.597785
0.594803
0.59091
0.586217
0.581778
0.600857
0.602396
0.602952
0.602573
0.601192
0.598708
0.594938
0.589755
0.582971
0.576124
0.602626
0.604407
0.605077
0.604737
0.603269
0.600524
0.596155
0.58986
0.580936
0.571348
0.603564
0.605523
0.606296
0.605999
0.604492
0.601589
0.596779
0.589575
0.578572
0.566102
0.605014
0.607129
0.607987
0.607765
0.606283
0.603335
0.598254
0.590368
0.577484
0.562109
0.605554
0.607735
0.608619
0.608375
0.606844
0.603815
0.598533
0.590179
0.57579
0.557675
0.606312
0.608525
0.609443
0.609242
0.607753
0.604751
0.599403
0.590751
0.575386
0.554279
0.603606
0.605693
0.606485
0.606024
0.604202
0.600807
0.59507
0.585923
0.570058
0.546738
0.592241
0.592828
0.593004
0.592903
0.592553
0.59199
0.59126
0.590439
0.589607
0.588774
0.595188
0.595882
0.596131
0.595935
0.595299
0.59425
0.592845
0.591195
0.589488
0.588076
0.596772
0.597767
0.598118
0.597839
0.596918
0.595358
0.593187
0.590514
0.58756
0.584984
0.597636
0.598939
0.599414
0.599088
0.597924
0.59589
0.592939
0.589124
0.584586
0.580385
0.599158
0.60074
0.601332
0.601007
0.599687
0.597294
0.593669
0.588762
0.582483
0.576312
0.59998
0.601781
0.602483
0.602168
0.600739
0.598074
0.593883
0.58799
0.579906
0.571535
0.601374
0.603366
0.604157
0.603888
0.602416
0.599593
0.594984
0.588264
0.578441
0.567728
0.60192
0.604006
0.604835
0.604541
0.602994
0.60002
0.595086
0.587727
0.576413
0.563374
0.602743
0.604878
0.605739
0.605475
0.603934
0.600927
0.595829
0.588014
0.575614
0.560029
0.600188
0.602214
0.603
0.602559
0.600788
0.597495
0.592079
0.583785
0.570744
0.55323
0.590946
0.591383
0.591502
0.591443
0.591231
0.590898
0.590474
0.590011
0.589546
0.589013
0.5935
0.593973
0.594147
0.594016
0.59359
0.592898
0.591999
0.590983
0.589984
0.589196
0.594587
0.595329
0.595596
0.595392
0.594715
0.593591
0.59208
0.590303
0.588465
0.586959
0.595143
0.596186
0.596572
0.59631
0.595386
0.593808
0.591605
0.588899
0.58592
0.583347
0.596365
0.597697
0.598198
0.597913
0.596796
0.594826
0.591963
0.588292
0.583983
0.580044
0.597008
0.598583
0.599194
0.598895
0.597623
0.595317
0.591851
0.587237
0.581471
0.575927
0.598284
0.600076
0.60078
0.6005
0.599133
0.59659
0.592629
0.587164
0.579923
0.572595
0.598762
0.600673
0.601426
0.601115
0.599646
0.596899
0.592542
0.586374
0.577805
0.568644
0.599611
0.601593
0.602377
0.602084
0.60059
0.597755
0.593163
0.586472
0.576864
0.565726
0.597164
0.599054
0.599801
0.599388
0.59773
0.594674
0.589803
0.582655
0.572386
0.559754
0.589998
0.590336
0.590417
0.590385
0.590262
0.59007
0.589829
0.58957
0.589303
0.588923
0.592272
0.592583
0.5927
0.592617
0.592343
0.591905
0.591346
0.590733
0.590148
0.589701
0.592956
0.593483
0.593676
0.593533
0.593059
0.592284
0.59127
0.59012
0.588987
0.5881
0.593254
0.594048
0.594347
0.594148
0.593451
0.592282
0.5907
0.588837
0.586905
0.585327
0.594169
0.595238
0.595642
0.595409
0.594512
0.592966
0.590798
0.58814
0.585233
0.58273
0.594608
0.595924
0.596435
0.596171
0.595097
0.5932
0.590455
0.586971
0.582943
0.579306
0.595733
0.597279
0.597882
0.597618
0.596417
0.594241
0.59099
0.586715
0.581505
0.576561
0.596088
0.597768
0.598427
0.598128
0.596806
0.594393
0.590721
0.585765
0.579455
0.57314
0.596937
0.598709
0.599402
0.59911
0.597737
0.595198
0.591252
0.585771
0.578557
0.570795
0.594562
0.596256
0.596938
0.596562
0.595067
0.592348
0.588151
0.582251
0.574435
0.565606
0.589275
0.589552
0.589609
0.589593
0.589522
0.589414
0.589278
0.589133
0.588973
0.588676
0.591363
0.591561
0.591639
0.591588
0.591418
0.591148
0.590809
0.590443
0.590099
0.589838
0.59173
0.592089
0.592222
0.592127
0.591808
0.591293
0.590632
0.589903
0.589211
0.588685
0.591842
0.592422
0.592644
0.592501
0.591997
0.591164
0.590065
0.588813
0.587572
0.586602
0.592474
0.593296
0.593609
0.593427
0.59274
0.591575
0.589991
0.588121
0.586186
0.584601
0.592716
0.593768
0.59418
0.593962
0.593096
0.5916
0.589508
0.586958
0.584191
0.581823
0.593686
0.594967
0.595466
0.595235
0.594229
0.592449
0.589883
0.586649
0.582974
0.579676
0.593878
0.595298
0.595854
0.595584
0.594449
0.592425
0.589454
0.585613
0.581074
0.576791
0.594722
0.596247
0.59684
0.596569
0.595367
0.593194
0.589942
0.585619
0.580342
0.575044
0.592385
0.593845
0.594443
0.594114
0.592815
0.59049
0.587012
0.582325
0.576544
0.570533
0.588706
0.588944
0.588985
0.588979
0.588938
0.588878
0.588801
0.588719
0.588619
0.588369
0.590674
0.590799
0.59085
0.590821
0.590718
0.590555
0.590352
0.590135
0.58993
0.589773
0.590794
0.591029
0.591118
0.591057
0.590849
0.590517
0.590097
0.589644
0.589224
0.588911
0.590799
0.591207
0.591367
0.591269
0.590917
0.590343
0.5896
0.588775
0.587985
0.587388
0.591184
0.591792
0.592025
0.59189
0.591383
0.590537
0.589415
0.588133
0.586862
0.585862
0.591255
0.592065
0.592384
0.592212
0.591543
0.590409
0.588866
0.587051
0.585178
0.583648
0.592088
0.593109
0.593507
0.593316
0.59251
0.591111
0.589157
0.586784
0.584236
0.582059
0.592093
0.593245
0.593699
0.593468
0.592535
0.590904
0.588588
0.585709
0.582511
0.579649
0.592941
0.594207
0.594696
0.594462
0.593454
0.59167
0.589089
0.585795
0.582021
0.578468
0.590618
0.591826
0.59233
0.592052
0.590966
0.589053
0.586274
0.582679
0.578511
0.574511
0.588247
0.588459
0.58849
0.588488
0.588466
0.588432
0.588389
0.588342
0.588276
0.588055
0.590145
0.590224
0.590258
0.590242
0.590181
0.590084
0.589963
0.589834
0.589709
0.58961
0.59006
0.590209
0.590266
0.590227
0.590096
0.589887
0.589627
0.58935
0.589098
0.588913
0.590035
0.590313
0.590425
0.59036
0.590123
0.589739
0.589249
0.588715
0.588215
0.587846
0.590212
0.590645
0.590812
0.590716
0.590355
0.589761
0.588989
0.588128
0.587305
0.586678
0.590149
0.590749
0.590987
0.590857
0.590361
0.58953
0.588427
0.587167
0.585918
0.584937
0.590872
0.591657
0.591965
0.591815
0.591194
0.590135
0.588695
0.587
0.585263
0.583839
0.590677
0.591576
0.591932
0.591745
0.591008
0.589744
0.587999
0.585905
0.583696
0.581811
0.591556
0.59257
0.59296
0.592767
0.591957
0.59055
0.588573
0.586139
0.583497
0.581149
0.589224
0.590183
0.590593
0.590367
0.589493
0.587977
0.585833
0.583163
0.580228
0.577623
0.587872
0.588064
0.588088
0.588089
0.588076
0.588057
0.588033
0.588006
0.58796
0.587761
0.589738
0.58979
0.589813
0.589805
0.589769
0.589711
0.58964
0.589561
0.589482
0.589415
0.589467
0.589558
0.589592
0.589568
0.589486
0.589358
0.589201
0.589035
0.588887
0.588779
0.589481
0.589666
0.589743
0.589702
0.589547
0.589296
0.588979
0.588638
0.588324
0.588096
0.589483
0.58978
0.589896
0.589829
0.58958
0.589176
0.588658
0.588094
0.587568
0.587179
0.589326
0.589754
0.589926
0.589832
0.589476
0.588888
0.588121
0.587267
0.586446
0.585824
0.589972
0.590556
0.590784
0.590672
0.590213
0.589438
0.588409
0.58723
0.586066
0.585142
0.589567
0.590242
0.590511
0.590365
0.589806
0.588862
0.587589
0.58611
0.584613
0.583391
0.590519
0.591305
0.591604
0.591453
0.590827
0.589758
0.588294
0.586549
0.584738
0.583205
0.588157
0.588887
0.589208
0.589031
0.588353
0.587194
0.585596
0.583674
0.581654
0.579995
0.587562
0.587738
0.587756
0.587758
0.587751
0.587741
0.587727
0.58771
0.587677
0.587496
0.589435
0.58947
0.589488
0.589484
0.589463
0.589428
0.589385
0.589336
0.589283
0.589233
0.588969
0.589021
0.58904
0.589024
0.588975
0.588898
0.588805
0.588709
0.588624
0.588564
0.589086
0.589206
0.589259
0.589234
0.589135
0.588975
0.588774
0.588559
0.588362
0.588221
0.588937
0.589134
0.589211
0.589166
0.589
0.588732
0.588395
0.588033
0.587702
0.587465
0.588724
0.58902
0.589141
0.589075
0.588828
0.588424
0.587906
0.58734
0.586808
0.586418
0.589325
0.589743
0.589908
0.589827
0.589499
0.588952
0.588239
0.587439
0.586673
0.58608
0.5887
0.589187
0.589383
0.589274
0.588865
0.588184
0.587284
0.586269
0.585274
0.584496
0.589781
0.59037
0.590591
0.590479
0.590014
0.589231
0.588183
0.586967
0.58575
0.58476
0.587359
0.58789
0.588133
0.587999
0.587492
0.586639
0.585486
0.584145
0.582785
0.581754
0.587298
0.587458
0.587471
0.587474
0.587469
0.587464
0.587456
0.587446
0.587422
0.587259
0.589231
0.589257
0.589271
0.589269
0.589257
0.589236
0.589208
0.589176
0.589137
0.589095
0.588533
0.58856
0.588568
0.588557
0.588527
0.588483
0.58843
0.588377
0.588331
0.588302
0.588814
0.588892
0.588927
0.588913
0.588852
0.588751
0.588626
0.588491
0.588369
0.588281
0.588534
0.588659
0.588709
0.588679
0.588572
0.588399
0.588184
0.587957
0.587754
0.587614
0.588299
0.588497
0.588579
0.588535
0.58837
0.5881
0.587758
0.587391
0.587052
0.586812
0.588873
0.589162
0.589277
0.58922
0.588994
0.588621
0.588141
0.587613
0.58712
0.586743
0.588016
0.588354
0.588492
0.588413
0.588124
0.58765
0.587033
0.586355
0.585706
0.585223
0.589296
0.589723
0.589882
0.589802
0.58947
0.588917
0.588191
0.587367
0.586567
0.585932
0.586763
0.587131
0.587309
0.587211
0.586847
0.586241
0.585436
0.584528
0.583633
0.583012
0.587042
0.587184
0.587192
0.587195
0.587193
0.58719
0.587186
0.58718
0.587163
0.587019
0.58913
0.589152
0.589164
0.589164
0.589156
0.589143
0.589124
0.5891
0.589069
0.589028
0.588138
0.588148
0.588149
0.588141
0.588123
0.588098
0.588069
0.588042
0.588021
0.588013
0.588641
0.58869
0.588713
0.588705
0.588668
0.588607
0.58853
0.588447
0.588372
0.588317
0.588248
0.588325
0.588357
0.588338
0.58827
0.588162
0.588028
0.587888
0.587766
0.587686
0.588021
0.58815
0.588205
0.588177
0.588069
0.587894
0.587674
0.587441
0.587227
0.587081
0.588571
0.588763
0.588839
0.588801
0.588649
0.588403
0.588091
0.587753
0.587444
0.587209
0.587472
0.587697
0.587791
0.587738
0.587541
0.58722
0.586809
0.586367
0.58595
0.585661
0.58903
0.589331
0.589441
0.589385
0.589157
0.588781
0.588294
0.587751
0.587239
0.586832
0.586283
0.586526
0.586652
0.586584
0.586332
0.585916
0.585372
0.584776
0.584197
0.583839
0.586693
0.586815
0.586819
0.586821
0.58682
0.586819
0.586818
0.586815
0.586805
0.586684
0.589158
0.58918
0.589191
0.589192
0.589187
0.589177
0.589163
0.589144
0.589115
0.589071
0.587782
0.587781
0.58778
0.587774
0.587764
0.58775
0.587735
0.587722
0.587714
0.587719
0.588548
0.588578
0.588591
0.588586
0.588564
0.588527
0.588482
0.588433
0.58839
0.588357
0.588072
0.588119
0.588139
0.588128
0.588086
0.58802
0.587938
0.587854
0.58778
0.587736
0.587878
0.587961
0.587997
0.58798
0.587912
0.587801
0.587663
0.587517
0.587383
0.587294
0.588391
0.58851
0.588558
0.588531
0.588433
0.588276
0.58808
0.587871
0.587685
0.587545
0.587064
0.58721
0.587275
0.58724
0.58711
0.5869
0.586632
0.586348
0.58608
0.585912
0.588975
0.589181
0.589255
0.589217
0.589065
0.588818
0.588502
0.588156
0.587837
0.587573
0.585783
0.585936
0.586024
0.585978
0.585809
0.585534
0.585175
0.584795
0.584424
0.584231
0.586031
0.586126
0.586128
0.586129
0.586129
0.586129
0.58613
0.586131
0.586128
0.586034
0.589384
0.589408
0.589415
0.589416
0.589413
0.589405
0.589395
0.589379
0.589353
0.589303
0.58751
0.587509
0.58751
0.587509
0.587503
0.587495
0.587485
0.587476
0.58747
0.587479
0.58852
0.588534
0.588539
0.588534
0.58852
0.588499
0.588474
0.588449
0.588428
0.588413
0.588005
0.588034
0.588048
0.588042
0.588018
0.587977
0.587927
0.587876
0.58783
0.587804
0.587863
0.587917
0.587941
0.587931
0.587888
0.58782
0.587734
0.587643
0.587558
0.587502
0.588316
0.588385
0.588411
0.588393
0.588331
0.588233
0.588112
0.587988
0.587883
0.587806
0.586869
0.586967
0.587013
0.586993
0.58691
0.586774
0.5866
0.586416
0.586236
0.586134
0.589186
0.58932
0.589366
0.58934
0.589241
0.589082
0.588884
0.58867
0.588481
0.588309
0.585033
0.585127
0.585189
0.585159
0.585049
0.58487
0.584638
0.584399
0.584156
0.584062
0.584743
0.584808
0.584811
0.584814
0.584815
0.584815
0.584815
0.584814
0.584814
0.584747
0.589946
0.589962
0.589958
0.589953
0.589948
0.589944
0.589941
0.589938
0.589927
0.58988
0.587437
0.587449
0.587461
0.587466
0.587465
0.587459
0.587447
0.587432
0.587415
0.587408
0.588527
0.588528
0.588525
0.588519
0.588509
0.588497
0.588485
0.588476
0.588472
0.588474
0.588029
0.58805
0.588061
0.588058
0.588043
0.588018
0.587987
0.587953
0.587923
0.587904
0.587947
0.587983
0.587998
0.587992
0.587966
0.587922
0.587868
0.58781
0.587755
0.587716
0.588325
0.588361
0.588375
0.588361
0.588321
0.588259
0.588184
0.588111
0.588054
0.588019
0.587041
0.587117
0.587153
0.587142
0.587088
0.586999
0.586883
0.586758
0.586626
0.586541
0.589787
0.589861
0.589887
0.589866
0.5898
0.589697
0.589571
0.589443
0.589343
0.589247
0.583759
0.583823
0.583867
0.583848
0.583775
0.583656
0.583504
0.583347
0.583177
0.583131
0.582929
0.582969
0.582981
0.582988
0.582991
0.582988
0.582981
0.582969
0.582952
0.582898
0.590878
0.590848
0.590818
0.590799
0.59079
0.590791
0.590802
0.590825
0.590859
0.590872
0.587628
0.587663
0.587686
0.587698
0.5877
0.587693
0.587678
0.587654
0.587619
0.587578
0.588525
0.588516
0.588508
0.588501
0.588493
0.588486
0.588481
0.588479
0.588487
0.588503
0.588094
0.58811
0.588118
0.588117
0.588106
0.588089
0.588066
0.588042
0.588019
0.588002
0.588052
0.588078
0.588089
0.588085
0.588066
0.588034
0.587996
0.587955
0.587916
0.587887
0.588355
0.588377
0.588385
0.588374
0.588344
0.588299
0.588246
0.588195
0.588161
0.588149
0.58757
0.587641
0.587671
0.587665
0.587625
0.587559
0.587474
0.587378
0.58727
0.587173
0.590754
0.590782
0.590793
0.590774
0.590724
0.590648
0.590559
0.590475
0.590429
0.590429
0.582083
0.58214
0.582174
0.582159
0.582104
0.582015
0.581903
0.581787
0.58166
0.581619
0.439116
0.418362
0.425264
0.46622
0.391321
0.36808
0.379112
0.436345
0.348145
0.320995
0.338321
0.417237
0.310089
0.280688
0.305005
0.406324
0.278621
0.248548
0.280092
0.403911
0.251532
0.222
0.261819
0.40101
0.229823
0.202156
0.250758
0.398355
0.20944
0.185294
0.24273
0.396245
0.191499
0.173442
0.239142
0.397863
0.172039
0.16213
0.234827
0.393366
0.499178
0.488976
0.489299
0.499015
0.468662
0.456039
0.457179
0.469857
0.437793
0.421066
0.423269
0.440839
0.408785
0.387813
0.391399
0.414113
0.384132
0.358663
0.363908
0.391962
0.362097
0.33174
0.337756
0.371065
0.344224
0.308878
0.314719
0.353118
0.32779
0.287643
0.293027
0.336413
0.314253
0.27007
0.27499
0.322768
0.298901
0.252292
0.25482
0.305128
0.566562
0.564342
0.563811
0.564947
0.548762
0.545058
0.544361
0.546665
0.528776
0.522874
0.522063
0.526399
0.506547
0.498273
0.497469
0.504302
0.485553
0.474826
0.474193
0.483922
0.464479
0.451166
0.450748
0.463482
0.445544
0.429564
0.429318
0.444994
0.426913
0.408384
0.408279
0.426718
0.410653
0.390441
0.390378
0.410739
0.391745
0.372019
0.371232
0.391117
0.579017
0.57793
0.57758
0.577934
0.569341
0.567922
0.56743
0.567798
0.557476
0.554985
0.554265
0.555168
0.542709
0.538913
0.538005
0.53973
0.528274
0.523029
0.522007
0.52486
0.512707
0.505888
0.504808
0.509049
0.498105
0.489638
0.488539
0.49437
0.482792
0.472753
0.471692
0.479192
0.468566
0.457581
0.456567
0.465365
0.45073
0.44079
0.439516
0.447852
0.585875
0.585281
0.58508
0.585272
0.579997
0.57951
0.579279
0.579293
0.57251
0.571563
0.571138
0.571213
0.56241
0.560768
0.560114
0.560383
0.552451
0.549942
0.549066
0.549698
0.541152
0.537633
0.536562
0.537738
0.530418
0.525801
0.524577
0.526484
0.518634
0.51294
0.511634
0.514417
0.507459
0.501112
0.499803
0.503368
0.492709
0.487502
0.486065
0.489077
0.588442
0.587963
0.587817
0.588005
0.584947
0.584729
0.584619
0.584615
0.579852
0.579424
0.579206
0.579192
0.57263
0.571863
0.571484
0.571479
0.565574
0.564337
0.563767
0.563823
0.557251
0.555421
0.554644
0.55484
0.549419
0.5469
0.54593
0.546374
0.540519
0.537292
0.536181
0.536994
0.532092
0.528417
0.527267
0.528487
0.520178
0.517622
0.516395
0.516947
0.589555
0.58912
0.588997
0.589187
0.587625
0.587526
0.587474
0.587468
0.584078
0.583877
0.583768
0.583752
0.57871
0.578334
0.578131
0.578097
0.573503
0.572878
0.572548
0.572501
0.567147
0.566187
0.565699
0.565658
0.561301
0.559931
0.559275
0.559283
0.554499
0.552689
0.551891
0.552019
0.548335
0.546214
0.545357
0.545674
0.538655
0.537649
0.536745
0.536299
0.589873
0.589455
0.589341
0.589532
0.588957
0.588904
0.588877
0.588875
0.586487
0.586384
0.586328
0.58632
0.582472
0.582276
0.582166
0.582141
0.57857
0.578238
0.578051
0.578006
0.573604
0.573081
0.572791
0.572726
0.569161
0.5684
0.56799
0.567914
0.56388
0.562855
0.562333
0.562282
0.559466
0.558238
0.557651
0.557667
0.551414
0.551319
0.550718
0.549933
0.589816
0.589404
0.589293
0.589485
0.589564
0.589534
0.589518
0.589516
0.587839
0.587783
0.587753
0.587748
0.584842
0.584735
0.584673
0.584658
0.581918
0.581735
0.581629
0.581598
0.578021
0.577729
0.577558
0.577507
0.574652
0.574219
0.573969
0.573899
0.570503
0.569914
0.569588
0.569513
0.567353
0.566638
0.566257
0.566196
0.560521
0.560947
0.560579
0.559721
0.589578
0.589168
0.589059
0.589251
0.589754
0.589734
0.589724
0.589723
0.588533
0.588501
0.588484
0.588482
0.586318
0.586256
0.58622
0.58621
0.584132
0.584027
0.583965
0.583946
0.581082
0.580914
0.580812
0.580778
0.578574
0.578322
0.57817
0.578119
0.575289
0.574946
0.574745
0.574684
0.573077
0.572655
0.572415
0.572353
0.567183
0.567895
0.567686
0.566848
0.589269
0.588859
0.58875
0.588942
0.589718
0.589705
0.589697
0.589696
0.588821
0.588803
0.588793
0.588792
0.587215
0.587178
0.587156
0.587149
0.585582
0.585522
0.585485
0.585472
0.583207
0.583108
0.583046
0.583023
0.581399
0.581248
0.581155
0.58112
0.578769
0.578566
0.578443
0.578399
0.577294
0.577042
0.576893
0.576845
0.57213
0.572983
0.572873
0.572084
0.588944
0.588532
0.588424
0.588617
0.589572
0.589562
0.589556
0.589555
0.588861
0.588851
0.588845
0.588845
0.587739
0.587716
0.587702
0.587697
0.58651
0.586475
0.586453
0.586444
0.584671
0.584611
0.584573
0.584558
0.583433
0.583341
0.583283
0.58326
0.581287
0.581166
0.58109
0.58106
0.580419
0.580265
0.580173
0.580141
0.575819
0.576726
0.576676
0.575942
0.588632
0.588218
0.58811
0.588304
0.589387
0.589379
0.589374
0.589372
0.588751
0.588746
0.588743
0.588743
0.588028
0.588014
0.588005
0.588001
0.587081
0.587061
0.587048
0.587042
0.585663
0.585627
0.585604
0.585593
0.58489
0.584833
0.584797
0.584781
0.583079
0.583007
0.58296
0.582939
0.582734
0.582639
0.582581
0.582561
0.578564
0.57947
0.579453
0.578777
0.588344
0.587928
0.58782
0.588016
0.58921
0.589203
0.589198
0.589195
0.588553
0.588551
0.588551
0.588551
0.588179
0.588169
0.588163
0.58816
0.587412
0.587401
0.587394
0.58739
0.586324
0.586303
0.586289
0.586281
0.585923
0.585888
0.585866
0.585855
0.584315
0.584273
0.584244
0.584229
0.584444
0.584385
0.584349
0.584337
0.58059
0.581456
0.581456
0.580841
0.588075
0.587656
0.587551
0.58775
0.589073
0.589066
0.58906
0.589057
0.588303
0.588304
0.588304
0.588305
0.588255
0.58825
0.588245
0.588242
0.587589
0.587585
0.587581
0.587578
0.58676
0.586748
0.586739
0.586733
0.586649
0.586629
0.586615
0.586607
0.585125
0.585102
0.585084
0.585073
0.585712
0.585673
0.585652
0.585647
0.582056
0.582854
0.582862
0.582314
0.587793
0.587374
0.587273
0.587476
0.589004
0.588996
0.58899
0.588986
0.588022
0.588025
0.588027
0.588028
0.588304
0.5883
0.588297
0.588295
0.58768
0.58768
0.587678
0.587676
0.587055
0.587049
0.587043
0.587038
0.587158
0.587149
0.587141
0.587135
0.585614
0.585602
0.585591
0.585582
0.58667
0.586644
0.586631
0.586631
0.583064
0.58377
0.58378
0.583305
0.587401
0.586986
0.586893
0.587101
0.589041
0.589031
0.589024
0.589019
0.587735
0.58774
0.587742
0.587743
0.588354
0.588353
0.588352
0.588349
0.58774
0.587742
0.587742
0.587739
0.587283
0.58728
0.587276
0.587271
0.587526
0.587524
0.587521
0.587516
0.585892
0.585886
0.585878
0.585869
0.587447
0.587428
0.587421
0.587425
0.583626
0.584218
0.584226
0.583832
0.586673
0.586274
0.586196
0.586404
0.589262
0.58925
0.589242
0.589237
0.587494
0.587498
0.5875
0.587499
0.588422
0.588424
0.588424
0.588423
0.587812
0.587814
0.587814
0.58781
0.587496
0.587495
0.587492
0.587487
0.587813
0.587818
0.587818
0.587814
0.586111
0.586104
0.586096
0.586089
0.588206
0.588191
0.588188
0.588196
0.583618
0.584075
0.584079
0.583775
0.585264
0.584913
0.584857
0.585051
0.589831
0.589817
0.58981
0.58981
0.587405
0.587404
0.587401
0.587397
0.588497
0.588502
0.588505
0.588505
0.587909
0.587911
0.58791
0.587906
0.587711
0.587709
0.587707
0.587703
0.588048
0.588057
0.58806
0.588056
0.586472
0.586455
0.586446
0.586444
0.589185
0.589176
0.589176
0.589188
0.582814
0.583104
0.583102
0.582907
0.583198
0.58298
0.582954
0.583077
0.590856
0.590853
0.590857
0.59087
0.587528
0.587517
0.587508
0.587501
0.588541
0.58855
0.588555
0.588556
0.588
0.588001
0.588
0.587996
0.587878
0.587876
0.587874
0.587872
0.588195
0.588207
0.58821
0.588206
0.587023
0.586989
0.586978
0.586988
0.590511
0.590526
0.590532
0.590534
0.581343
0.581417
0.581413
0.581369
0.59515
0.603608
0.607614
0.610719
0.613845
0.616602
0.618842
0.620591
0.621959
0.623108
0.596035
0.599375
0.606804
0.611858
0.616327
0.619717
0.622185
0.623953
0.625202
0.62615
0.599881
0.59624
0.607229
0.612946
0.618231
0.62183
0.624401
0.626227
0.627485
0.628382
0.603278
0.592348
0.606964
0.612537
0.618397
0.621947
0.624505
0.626286
0.627507
0.628377
0.607738
0.590311
0.607678
0.612977
0.61928
0.622681
0.62521
0.626909
0.628041
0.628831
0.61079
0.587622
0.607384
0.612206
0.61896
0.622175
0.624719
0.62637
0.62751
0.628342
0.614756
0.586328
0.608173
0.612277
0.619433
0.622384
0.624946
0.626541
0.627656
0.628466
0.616296
0.58325
0.607152
0.610485
0.618147
0.620902
0.623627
0.625309
0.626626
0.627676
0.617935
0.581749
0.607583
0.609586
0.617394
0.619685
0.622639
0.62447
0.62599
0.627232
0.602382
0.565885
0.594363
0.596716
0.606397
0.610269
0.614922
0.618043
0.620615
0.622649
0.537746
0.559816
0.576163
0.58779
0.595753
0.601296
0.605303
0.608294
0.610604
0.612524
0.523993
0.55454
0.576628
0.590577
0.599431
0.605423
0.609668
0.612746
0.614992
0.61666
0.51372
0.551396
0.577715
0.59273
0.602182
0.608446
0.612836
0.61598
0.61822
0.61982
0.505326
0.548351
0.577871
0.593204
0.603059
0.609399
0.613798
0.616906
0.6191
0.620657
0.500851
0.547509
0.579106
0.594489
0.604632
0.610922
0.615263
0.618273
0.620365
0.621833
0.497633
0.546409
0.579486
0.594631
0.605013
0.611181
0.615466
0.618391
0.620445
0.621916
0.497211
0.546812
0.580959
0.595577
0.60612
0.612066
0.616275
0.619103
0.621099
0.622532
0.496394
0.54584
0.580887
0.594805
0.605539
0.611271
0.615508
0.618357
0.620477
0.622085
0.496864
0.546142
0.582048
0.594711
0.605244
0.610506
0.61484
0.617808
0.620097
0.621891
0.487771
0.536102
0.57276
0.584939
0.596494
0.602775
0.6083
0.612197
0.615247
0.617526
0.568858
0.575137
0.581216
0.586591
0.591176
0.595008
0.598182
0.600803
0.602996
0.604888
0.555576
0.566977
0.577166
0.585494
0.592163
0.597413
0.601509
0.604693
0.607158
0.609037
0.542483
0.55966
0.574028
0.584915
0.593225
0.599475
0.604183
0.607734
0.610391
0.612341
0.529325
0.552225
0.570573
0.583564
0.593144
0.600055
0.605115
0.608847
0.611599
0.613593
0.519391
0.547351
0.569124
0.583694
0.594191
0.601486
0.606714
0.610494
0.613244
0.61521
0.510528
0.542795
0.567504
0.583197
0.594366
0.601863
0.607172
0.610956
0.61371
0.615699
0.504483
0.540247
0.567405
0.58378
0.595402
0.602933
0.608245
0.611986
0.614714
0.616684
0.498775
0.537192
0.566413
0.583099
0.595037
0.602519
0.607861
0.611631
0.614453
0.616558
0.495051
0.535835
0.566792
0.583146
0.594973
0.602172
0.607574
0.611443
0.614396
0.616651
0.484953
0.526938
0.559102
0.5754
0.587926
0.59585
0.602068
0.6066
0.610086
0.612619
0.578664
0.581078
0.583984
0.586932
0.58971
0.592222
0.594444
0.596386
0.5981
0.59966
0.569842
0.574618
0.580036
0.585181
0.589718
0.593579
0.596802
0.599458
0.601617
0.603325
0.559312
0.567396
0.575807
0.58323
0.58945
0.594519
0.598594
0.601835
0.604372
0.606306
0.546996
0.559097
0.570837
0.580516
0.588269
0.594332
0.599054
0.602712
0.605524
0.60763
0.536294
0.552679
0.567698
0.579381
0.588412
0.595221
0.600382
0.604292
0.607249
0.60943
0.525663
0.54635
0.564486
0.577872
0.587946
0.595299
0.600763
0.604835
0.607898
0.610161
0.517116
0.541921
0.562903
0.577635
0.588509
0.596206
0.60185
0.605999
0.60911
0.611397
0.508727
0.537286
0.560807
0.576522
0.587991
0.595888
0.601669
0.60591
0.609129
0.611537
0.502198
0.534387
0.560108
0.576227
0.587897
0.595776
0.60167
0.60602
0.609345
0.611874
0.491293
0.526079
0.553249
0.569756
0.582066
0.590509
0.596978
0.601799
0.605495
0.60815
0.585148
0.585914
0.58708
0.588446
0.589881
0.591297
0.592643
0.593897
0.595077
0.59623
0.579765
0.581631
0.584153
0.586879
0.589552
0.592035
0.594263
0.596211
0.597869
0.59923
0.572216
0.575626
0.579937
0.584326
0.588417
0.592044
0.595159
0.597774
0.599916
0.601614
0.562399
0.568012
0.574578
0.580834
0.586384
0.591099
0.595009
0.598198
0.600753
0.60274
0.553269
0.561553
0.570606
0.578736
0.585648
0.591298
0.595843
0.599457
0.602303
0.604473
0.54346
0.554742
0.566389
0.576301
0.584436
0.590864
0.595912
0.599851
0.602922
0.605257
0.534998
0.54946
0.563677
0.57518
0.58435
0.591378
0.596793
0.600951
0.604169
0.606592
0.526292
0.543961
0.560623
0.573459
0.583462
0.590927
0.596624
0.60097