/*--------------------------------*- C++ -*----------------------------------*\
| =========                 |                                                 |
| \\      /  F ield         | foam-extend: Open Source CFD                    |
|  \\    /   O peration     | Version:     4.0                                |
|   \\  /    A nd           | Web:         http://www.foam-extend.org         |
|    \\/     M anipulation  |                                                 |
\*---------------------------------------------------------------------------*/
FoamFile
{
    version     2.0;
    format      ascii;
    class       volScalarField;
    location    "1400";
    object      p;
}
// * * * * * * * * * * * * * * * * * * * * * * * * * * * * * * * * * * * * * //

dimensions      [1 -1 -2 0 0 0 0];

internalField   nonuniform List<scalar> 
34480
(
107982
107882
107842
107857
107942
108123
108467
109149
110114
110459
107840
107740
107700
107711
107791
107967
108305
108975
110008
109982
107697
107594
107553
107556
107621
107768
108066
108667
109696
109120
107624
107519
107473
107463
107505
107608
107848
108350
109311
108157
107544
107428
107374
107346
107362
107420
107601
107998
108856
107161
107563
107447
107386
107349
107346
107366
107490
107780
108498
106278
107471
107342
107273
107224
107204
107195
107271
107461
108019
105341
107560
107436
107371
107336
107332
107333
107395
107513
107889
104745
107460
107330
107260
107221
107218
107230
107283
107343
107514
103997
107552
107436
107421
107485
107622
107813
108057
108293
108462
104460
108741
108616
108571
108596
108701
108904
109239
109767
110581
111648
108532
108400
108353
108380
108493
108718
109106
109758
110898
112501
108331
108195
108148
108169
108276
108495
108889
109594
110975
112961
108205
108064
108010
108019
108111
108304
108675
109371
110891
113129
108083
107929
107866
107858
107927
108085
108418
109070
110658
113041
108064
107908
107837
107818
107869
107993
108282
108864
110456
112870
107942
107774
107696
107662
107695
107788
108032
108540
110088
112475
108008
107844
107766
107740
107780
107874
108099
108540
109991
112258
107894
107726
107642
107608
107638
107725
107933
108325
109630
111816
107975
107818
107775
107820
107952
108163
108494
108990
110242
112224
109307
109194
109155
109183
109286
109472
109756
110157
110688
111298
109093
108961
108917
108952
109076
109307
109671
110214
111029
112036
108874
108730
108686
108721
108853
109101
109510
110159
111254
112682
108717
108564
108512
108540
108667
108914
109342
110051
111370
113179
108566
108399
108340
108353
108467
108698
109122
109849
111335
113471
108516
108346
108279
108283
108383
108593
109000
109715
111313
113699
108369
108188
108114
108105
108190
108376
108759
109445
111106
113688
108413
108235
108160
108156
108244
108429
108799
109453
111115
113806
108288
108105
108024
108012
108087
108257
108608
109237
110837
113644
108355
108181
108128
108171
108316
108568
108995
109689
111253
114058
109705
109617
109587
109610
109690
109829
110027
110280
110573
110853
109526
109409
109370
109403
109513
109707
109996
110387
110892
111411
109329
109191
109148
109184
109310
109540
109896
110410
111164
112002
109168
109014
108962
108995
109127
109376
109783
110397
111394
112579
109009
108837
108777
108800
108928
109179
109612
110293
111502
113029
108943
108764
108696
108712
108833
109078
109520
110238
111624
113461
108782
108590
108516
108520
108631
108863
109303
110036
111559
113680
108810
108620
108543
108551
108664
108897
109337
110074
111677
114024
108673
108479
108398
108399
108503
108725
109154
109892
111506
114080
108726
108539
108478
108518
108670
108947
109426
110212
111818
114533
109980
109918
109897
109914
109970
110063
110191
110343
110503
110641
109846
109754
109723
109749
109836
109984
110193
110457
110760
111036
109691
109570
109532
109564
109674
109867
110151
110528
111010
111482
109544
109401
109353
109386
109510
109737
110086
110575
111261
111982
109394
109229
109171
109199
109328
109572
109968
110546
111433
112427
109324
109147
109081
109104
109234
109485
109913
110558
111634
112900
109158
108966
108894
108908
109033
109284
109728
110421
111661
113201
109177
108984
108908
108926
109054
109311
109770
110497
111860
113643
109033
108835
108756
108768
108892
109144
109604
110357
111785
113826
109075
108883
108816
108856
109012
109302
109797
110592
112043
114281
110170
110130
110116
110127
110163
110222
110299
110386
110471
110539
110078
110011
109987
110007
110070
110175
110317
110485
110664
110812
109970
109873
109841
109867
109955
110105
110317
110582
110884
111152
109848
109724
109681
109711
109819
110009
110290
110659
111116
111550
109717
109567
109516
109543
109663
109882
110219
110682
111305
111935
109653
109488
109427
109453
109579
109817
110201
110744
111535
112376
109492
109308
109240
109260
109388
109636
110051
110661
111610
112678
109508
109320
109248
109271
109405
109665
110106
110769
111853
113138
109361
109167
109092
109112
109244
109505
109958
110663
111841
113370
109396
109206
109138
109177
109331
109619
110099
110844
112066
113783
110305
110280
110272
110278
110301
110336
110381
110429
110475
110509
110245
110198
110182
110195
110238
110308
110400
110505
110608
110690
110182
110107
110082
110102
110168
110279
110429
110608
110797
110953
110085
109985
109949
109973
110061
110212
110426
110693
110995
111260
109981
109853
109808
109833
109937
110121
110393
110747
111178
111578
109930
109783
109728
109754
109870
110081
110405
110841
111408
111963
109778
109611
109549
109572
109694
109923
110288
110796
111500
112229
109798
109624
109558
109584
109714
109960
110359
110929
111758
112662
109652
109469
109400
109423
109555
109808
110226
110846
111773
112882
109684
109504
109438
109474
109621
109895
110336
110993
111973
113232
110405
110390
110386
110389
110403
110423
110448
110475
110500
110517
110365
110335
110324
110333
110361
110405
110463
110526
110586
110631
110340
110286
110268
110282
110329
110406
110509
110626
110742
110834
110267
110189
110161
110180
110247
110361
110517
110704
110901
111065
110191
110086
110049
110070
110155
110303
110513
110773
111066
111322
110156
110031
109984
110008
110108
110285
110546
110882
111282
111648
110018
109871
109817
109840
109950
110150
110455
110861
111373
111868
110047
109892
109832
109858
109978
110199
110542
111010
111627
112256
109903
109737
109675
109700
109824
110056
110422
110940
111645
112427
109936
109772
109710
109744
109879
110127
110514
111068
111824
112717
110483
110474
110472
110474
110481
110493
110507
110522
110535
110544
110454
110435
110428
110433
110451
110479
110513
110551
110586
110611
110459
110422
110409
110418
110450
110503
110570
110644
110716
110769
110404
110346
110325
110339
110388
110471
110581
110707
110834
110935
110354
110272
110243
110260
110326
110439
110595
110780
110977
111140
110335
110234
110196
110216
110298
110440
110642
110892
111169
111410
110213
110090
110044
110065
110158
110326
110570
110883
111246
111580
110254
110122
110070
110095
110200
110389
110670
111039
111489
111919
110114
109969
109914
109938
110049
110252
110559
110975
111496
112035
110152
110007
109952
109982
110101
110317
110644
111091
111657
112275
110546
110541
110540
110541
110545
110552
110559
110567
110574
110579
110521
110509
110505
110508
110519
110536
110556
110579
110599
110613
110549
110524
110515
110522
110543
110577
110620
110666
110710
110741
110505
110464
110448
110458
110493
110551
110626
110710
110791
110854
110479
110417
110395
110408
110458
110541
110652
110781
110911
111015
110475
110396
110366
110382
110446
110556
110707
110887
111076
111233
110367
110267
110230
110248
110324
110458
110647
110879
111133
111356
110423
110314
110271
110293
110380
110535
110759
111039
111359
111649
110285
110163
110118
110139
110234
110403
110651
110972
111349
111713
110331
110208
110161
110187
110289
110469
110734
111082
111495
111914
110599
110596
110596
110596
110599
110602
110607
110611
110615
110617
110572
110566
110563
110565
110571
110581
110593
110606
110618
110627
110619
110603
110597
110601
110615
110636
110663
110692
110718
110736
110580
110552
110540
110547
110571
110610
110660
110715
110766
110805
110573
110529
110512
110522
110558
110617
110695
110782
110866
110932
110582
110522
110499
110512
110560
110642
110751
110877
111005
111105
110486
110408
110379
110393
110453
110555
110697
110865
111039
111186
110558
110471
110437
110455
110525
110647
110818
111025
111248
111440
110421
110321
110285
110303
110380
110516
110709
110949
111215
111458
110477
110377
110338
110359
110443
110588
110796
111058
111351
111630
110645
110643
110644
110644
110645
110647
110649
110652
110654
110655
110612
110609
110607
110608
110612
110618
110625
110633
110639
110645
110675
110665
110661
110664
110672
110685
110702
110719
110734
110744
110635
110615
110608
110612
110628
110653
110686
110721
110754
110778
110644
110613
110602
110608
110633
110674
110727
110785
110839
110880
110661
110618
110601
110610
110645
110704
110781
110867
110952
111016
110575
110516
110494
110505
110550
110626
110728
110846
110964
111060
110663
110597
110571
110585
110639
110732
110858
111006
111159
111284
110525
110446
110417
110432
110493
110597
110742
110917
111101
111261
110594
110515
110484
110501
110566
110679
110836
111027
111232
111414
110686
110685
110685
110685
110686
110687
110688
110689
110690
110691
110643
110641
110640
110640
110643
110646
110651
110655
110659
110663
110721
110714
110712
110714
110719
110727
110737
110747
110756
110761
110674
110661
110656
110659
110669
110685
110706
110729
110749
110764
110698
110676
110668
110673
110690
110717
110752
110789
110824
110849
110719
110689
110677
110683
110708
110749
110802
110860
110915
110955
110640
110597
110581
110589
110622
110676
110748
110829
110907
110970
110744
110696
110677
110687
110728
110796
110886
110989
111092
111172
110601
110541
110519
110530
110576
110654
110759
110883
111007
111112
110685
110625
110601
110615
110664
110749
110864
110999
111138
111256
110722
110721
110722
110722
110722
110723
110723
110724
110724
110724
110666
110665
110664
110664
110665
110668
110670
110673
110676
110679
110759
110756
110755
110756
110759
110763
110769
110775
110780
110782
110702
110693
110690
110691
110698
110708
110721
110735
110748
110758
110737
110723
110718
110721
110732
110750
110772
110796
110817
110833
110761
110740
110732
110736
110753
110781
110816
110854
110889
110915
110687
110657
110645
110651
110674
110712
110760
110814
110865
110905
110807
110774
110760
110767
110796
110844
110907
110977
111045
111094
110653
110609
110593
110601
110635
110691
110765
110849
110932
111000
110757
110713
110696
110705
110742
110803
110884
110977
111069
111144
110757
110756
110756
110756
110756
110757
110757
110757
110757
110757
110680
110679
110679
110679
110680
110681
110683
110685
110687
110690
110793
110791
110791
110792
110794
110796
110800
110802
110805
110805
110721
110715
110713
110714
110718
110724
110732
110741
110749
110755
110766
110757
110753
110755
110762
110774
110788
110803
110816
110825
110788
110775
110769
110772
110783
110801
110824
110849
110871
110887
110719
110699
110691
110695
110711
110736
110768
110803
110835
110861
110856
110834
110824
110829
110849
110882
110925
110970
111015
111044
110686
110655
110644
110649
110673
110711
110761
110818
110872
110916
110815
110785
110772
110779
110804
110847
110903
110964
111025
111071
110793
110793
110793
110793
110793
110793
110793
110793
110793
110793
110685
110685
110684
110684
110685
110686
110687
110689
110691
110693
110824
110823
110823
110823
110825
110826
110828
110829
110830
110829
110732
110729
110727
110728
110730
110734
110739
110744
110749
110753
110784
110779
110777
110778
110782
110789
110798
110807
110815
110820
110804
110795
110792
110793
110801
110812
110827
110842
110857
110866
110741
110728
110723
110726
110736
110752
110773
110795
110814
110831
110894
110879
110872
110876
110889
110911
110939
110969
110998
111014
110702
110680
110673
110676
110692
110718
110751
110788
110822
110851
110869
110848
110839
110844
110861
110890
110927
110967
111006
111034
110845
110845
110845
110845
110845
110845
110845
110845
110844
110844
110679
110678
110677
110677
110678
110678
110679
110681
110683
110686
110848
110849
110849
110849
110850
110850
110851
110852
110852
110851
110738
110736
110735
110736
110737
110740
110742
110745
110748
110751
110793
110790
110788
110789
110792
110796
110801
110807
110812
110815
110809
110803
110800
110801
110806
110813
110822
110832
110841
110847
110754
110746
110743
110745
110752
110762
110775
110788
110799
110809
110917
110907
110903
110905
110914
110928
110946
110965
110984
110993
110700
110685
110680
110683
110693
110710
110731
110754
110775
110794
110932
110919
110913
110916
110927
110946
110970
110995
111021
111036
110938
110938
110938
110938
110938
110938
110938
110937
110936
110935
110651
110650
110650
110650
110650
110651
110652
110653
110654
110658
110861
110861
110860
110860
110860
110861
110861
110862
110863
110862
110740
110739
110739
110740
110741
110742
110743
110745
110746
110747
110793
110791
110789
110790
110791
110794
110797
110801
110804
110806
110803
110799
110797
110798
110800
110805
110811
110817
110823
110827
110759
110754
110753
110754
110758
110765
110773
110780
110786
110791
110914
110907
110904
110905
110910
110920
110931
110944
110958
110964
110671
110662
110659
110661
110668
110679
110692
110706
110718
110731
111031
111022
111018
111020
111027
111039
111055
111071
111088
111096
111099
111098
111098
111098
111098
111098
111098
111098
111098
111097
110589
110589
110590
110591
110592
110592
110592
110591
110591
110593
110847
110845
110843
110843
110842
110843
110844
110846
110848
110850
110741
110742
110742
110743
110743
110744
110745
110745
110745
110744
110786
110784
110783
110783
110784
110786
110788
110791
110793
110795
110791
110788
110787
110787
110789
110792
110796
110800
110804
110807
110758
110756
110755
110756
110759
110763
110768
110773
110776
110778
110870
110864
110861
110862
110865
110872
110880
110889
110900
110906
110604
110599
110598
110600
110604
110612
110620
110629
110635
110641
111186
111180
111176
111178
111183
111191
111202
111213
111226
111231
111280
111278
111276
111275
111275
111275
111276
111278
111280
111284
110504
110510
110514
110516
110517
110517
110515
110512
110507
110501
110811
110807
110805
110804
110804
110804
110806
110808
110811
110816
110745
110746
110747
110747
110748
110748
110749
110749
110748
110746
110779
110778
110777
110777
110778
110779
110781
110783
110785
110786
110782
110780
110779
110779
110781
110783
110786
110790
110792
110795
110759
110757
110756
110757
110760
110763
110767
110771
110774
110775
110805
110799
110797
110797
110800
110806
110812
110820
110829
110838
110518
110516
110516
110517
110521
110527
110535
110541
110544
110541
111351
111346
111343
111345
111349
111356
111365
111374
111384
111388
122721
123935
123760
122486
125948
127354
126954
125333
128889
130475
129888
127899
131054
132757
131983
129715
132717
134499
133551
131079
134066
135907
134952
132360
134991
136865
136042
133383
135813
137693
137034
134336
135728
137579
137065
134375
135315
137153
136896
134361
113021
113211
113249
113129
115305
115676
115735
115445
117560
118113
118172
117663
119700
120420
120466
119711
121652
122509
122523
121511
123505
124471
124450
123223
125039
126089
126039
124653
126543
127652
127584
126089
127322
128462
128392
126846
127970
129144
129122
127624
111819
111909
111936
111910
113142
113310
113349
113282
114595
114861
114914
114784
116073
116444
116505
116292
117497
117972
118030
117713
118974
119550
119600
119167
120265
120933
120974
120421
121646
122390
122421
121755
122466
123257
123282
122520
123284
124112
124154
123337
110969
110992
111003
111003
111721
111774
111794
111787
112641
112745
112778
112753
113673
113841
113890
113836
114702
114943
115005
114906
115831
116150
116223
116067
116836
117233
117312
117088
117994
118462
118544
118246
118707
119225
119313
118950
119483
120043
120148
119745
110687
110696
110701
110702
111158
111182
111193
111192
111743
111792
111811
111807
112451
112534
112566
112555
113177
113304
113348
113325
114016
114193
114251
114206
114754
114984
115054
114980
115674
115957
116036
115926
116252
116576
116669
116525
116929
117290
117401
117234
110557
110561
110563
110563
110860
110869
110874
110876
111256
111276
111286
111288
111750
111789
111808
111810
112273
112337
112366
112367
112905
113000
113041
113036
113443
113574
113626
113611
114172
114340
114404
114373
114632
114830
114907
114863
115184
115409
115501
115444
110518
110520
110521
110521
110714
110718
110721
110722
111003
111012
111018
111019
111356
111375
111386
111389
111741
111774
111792
111796
112224
112276
112303
112308
112615
112689
112726
112729
113197
113296
113341
113340
113547
113666
113723
113717
113980
114117
114184
114172
110522
110523
110523
110523
110643
110646
110647
110647
110860
110865
110867
110868
111115
111125
111131
111134
111408
111425
111436
111439
111786
111815
111831
111836
112071
112113
112137
112143
112541
112598
112629
112635
112788
112860
112898
112903
113125
113208
113253
113255
110546
110547
110547
110547
110618
110619
110620
110620
110784
110786
110788
110788
110964
110970
110974
110975
111188
111198
111205
111207
111488
111505
111515
111519
111695
111719
111734
111740
112079
112113
112133
112139
112238
112281
112306
112312
112504
112555
112583
112588
110581
110581
110581
110581
110617
110618
110618
110618
110749
110751
110751
110752
110871
110874
110877
110878
111043
111049
111052
111054
111280
111290
111296
111298
111424
111438
111448
111451
111743
111763
111776
111780
111832
111858
111874
111879
112047
112078
112096
112100
110618
110618
110618
110618
110629
110629
110630
110630
110740
110741
110742
110742
110816
110818
110819
110820
110949
110952
110955
110956
111135
111141
111145
111146
111227
111236
111242
111244
111497
111509
111517
111520
111530
111547
111557
111560
111710
111729
111740
111743
110655
110655
110655
110655
110646
110646
110647
110647
110747
110747
110748
110748
110785
110786
110787
110787
110890
110892
110894
110894
111035
111039
111041
111042
111086
111091
111095
111097
111319
111327
111332
111334
111306
111317
111323
111325
111463
111475
111482
111484
110691
110691
110691
110691
110664
110664
110664
110665
110762
110763
110763
110763
110768
110769
110770
110770
110855
110857
110857
110858
110968
110970
110972
110972
110985
110988
110991
110992
111194
111199
111202
111203
111141
111147
111151
111153
111286
111293
111297
111299
110724
110724
110724
110724
110679
110680
110680
110680
110783
110783
110783
110783
110761
110761
110762
110762
110836
110837
110837
110838
110923
110924
110925
110926
110915
110917
110918
110919
111108
111112
111113
111114
111019
111023
111026
111026
111162
111167
111169
111171
110757
110757
110757
110757
110690
110690
110691
110691
110806
110806
110806
110805
110757
110757
110757
110758
110827
110827
110827
110828
110893
110894
110894
110895
110866
110867
110868
110868
111054
111056
111057
111057
110928
110931
110933
110933
111082
111084
111086
111087
110792
110792
110792
110792
110694
110694
110694
110695
110830
110830
110829
110829
110754
110754
110754
110755
110822
110822
110822
110822
110871
110871
110872
110872
110832
110832
110833
110834
111021
111022
111023
111023
110859
110861
110862
110862
111039
111040
111042
111042
110843
110843
110843
110843
110686
110686
110687
110687
110852
110852
110851
110851
110750
110750
110750
110750
110816
110816
110816
110816
110851
110851
110852
110852
110808
110808
110808
110808
110999
111000
111001
111001
110799
110800
110801
110801
111038
111039
111039
111040
110935
110935
110935
110934
110658
110658
110658
110659
110864
110865
110865
110864
110745
110745
110745
110745
110807
110808
110808
110808
110830
110831
110831
110831
110788
110788
110788
110788
110972
110973
110974
110973
110733
110734
110734
110734
111097
111096
111097
111098
111097
111097
111097
111097
110590
110590
110590
110590
110856
110857
110857
110857
110741
110740
110740
110740
110796
110796
110797
110797
110809
110810
110810
110810
110773
110772
110772
110773
110920
110922
110923
110922
110636
110635
110635
110636
111236
111236
111237
111238
111285
111285
111286
111286
110484
110481
110480
110480
110826
110828
110829
110829
110742
110741
110741
110741
110788
110788
110788
110788
110796
110797
110797
110797
110770
110768
110768
110769
110855
110859
110859
110858
110516
110510
110509
110513
111410
111413
111413
111410
116101
113587
111662
110375
109569
109049
108694
108444
108264
108127
117155
113974
111606
110205
109379
108854
108504
108262
108093
107968
117516
114012
111337
110015
109190
108669
108319
108077
107913
107806
117502
113911
111009
109854
109047
108561
108227
107998
107840
107733
117218
113692
110703
109677
108879
108428
108109
107893
107743
107648
116850
113566
110536
109644
108847
108436
108127
107924
107777
107673
116209
113310
110246
109494
108690
108320
108017
107824
107678
107582
115789
113335
110238
109630
108812
108476
108166
107969
107811
107688
115065
113002
109927
109499
108704
108415
108096
107894
107729
107597
115504
113698
110598
110194
109277
108885
108453
108162
107926
107725
112573
111829
111168
110615
110161
109791
109491
109250
109057
108907
114194
112829
111696
110841
110197
109714
109350
109073
108860
108701
115492
113541
111999
110924
110137
109572
109161
108859
108637
108487
116480
114030
112150
110945
110076
109478
109052
108745
108519
108365
117108
114298
112148
110866
109946
109340
108912
108609
108385
108238
117584
114548
112182
110870
109921
109322
108899
108602
108380
108226
117733
114581
112038
110733
109763
109182
108763
108473
108252
108103
117945
114785
112106
110842
109862
109300
108878
108584
108355
108185
117725
114588
111864
110708
109757
109227
108798
108498
108261
108081
118131
115101
112340
111205
110179
109576
109069
108704
108419
108188
111753
111438
111085
110745
110438
110170
109941
109747
109586
109455
112923
112283
111613
111034
110560
110177
109868
109619
109419
109263
114121
113072
112047
111225
110587
110097
109720
109429
109204
109045
115235
113751
112393
111378
110617
110055
109634
109316
109073
108900
116165
114249
112585
111416
110562
109953
109505
109174
108922
108749
117039
114724
112788
111505
110582
109946
109484
109147
108891
108708
117638
114968
112791
111431
110456
109808
109338
109000
108740
108561
118289
115332
112964
111567
110560
109909
109430
109084
108817
108620
118460
115286
112832
111473
110474
109833
109344
108988
108712
108505
118964
115705
113204
111840
110786
110091
109548
109147
108837
108594
110980
110884
110749
110596
110440
110288
110147
110021
109909
109815
111712
111484
111196
110902
110625
110374
110153
109963
109802
109673
112581
112147
111638
111160
110739
110382
110084
109840
109642
109494
113518
112830
112078
111417
110862
110411
110049
109760
109529
109357
114384
113406
112401
111570
110897
110372
109962
109641
109388
109207
115279
113995
112740
111758
110988
110406
109961
109619
109352
109155
115974
114378
112882
111773
110922
110300
109830
109475
109196
108997
116767
114880
113171
111969
111058
110407
109916
109546
109257
109039
117143
115009
113168
111932
110994
110329
109819
109436
109137
108912
117748
115438
113500
112215
111225
110518
109970
109555
109233
108983
110694
110653
110592
110516
110433
110348
110265
110187
110115
110054
111166
111070
110932
110775
110612
110454
110307
110174
110057
109960
111748
111556
111299
111025
110761
110518
110302
110114
109955
109832
112448
112122
111713
111304
110927
110596
110312
110072
109873
109719
113142
112649
112064
111513
111026
110613
110270
109989
109758
109586
113917
113228
112454
111763
111174
110692
110300
109985
109730
109537
114547
113640
112670
111847
111166
110626
110195
109855
109581
109379
115319
114190
113032
112097
111338
110751
110288
109925
109636
109414
115757
114423
113125
112113
111300
110679
110190
109810
109509
109280
116356
114843
113431
112351
111486
110826
110306
109902
109584
109336
110560
110543
110514
110477
110434
110388
110341
110296
110253
110216
110867
110824
110756
110672
110580
110485
110393
110306
110227
110159
111270
111182
111051
110898
110737
110579
110430
110294
110176
110082
111775
111620
111401
111157
110912
110681
110471
110285
110125
109997
112304
112058
111728
111379
111043
110738
110469
110237
110041
109890
112932
112572
112113
111652
111226
110851
110528
110257
110030
109853
113448
112951
112350
111775
111260
110821
110452
110148
109895
109705
114132
113485
112738
112057
111461
110966
110557
110224
109952
109740
114545
113749
112876
112104
111443
110904
110464
110111
109825
109603
115066
114132
113157
112315
111604
111028
110561
110187
109887
109651
110520
110511
110497
110478
110455
110430
110404
110379
110354
110332
110717
110695
110660
110614
110562
110506
110449
110395
110344
110299
111010
110966
110895
110806
110708
110607
110508
110415
110331
110264
111374
111295
111173
111026
110869
110712
110563
110426
110305
110205
111772
111644
111454
111235
111009
110791
110589
110409
110251
110127
112268
112076
111804
111503
111204
110923
110671
110449
110259
110106
112667
112394
112026
111636
111261
110920
110619
110362
110142
109972
113244
112877
112405
111926
111477
111080
110738
110449
110207
110014
113586
113116
112543
111982
111470
111028
110652
110341
110082
109879
114010
113449
112797
112174
111616
111140
110740
110409
110139
109923
110522
110518
110511
110501
110489
110475
110461
110447
110433
110420
110645
110634
110615
110589
110560
110527
110494
110460
110429
110401
110864
110839
110799
110748
110688
110625
110561
110499
110443
110398
111126
111083
111012
110923
110823
110719
110617
110520
110433
110358
111428
111358
111245
111107
110957
110805
110660
110525
110404
110307
111819
111713
111548
111353
111147
110944
110754
110581
110429
110304
112118
111964
111737
111476
111209
110954
110719
110512
110330
110186
112595
112385
112086
111757
111430
111124
110850
110611
110406
110238
112846
112570
112199
111805
111423
111077
110770
110508
110285
110107
113184
112851
112425
111982
111561
111184
110855
110576
110342
110151
110547
110544
110541
110535
110529
110521
110514
110506
110498
110491
110619
110613
110602
110588
110571
110552
110533
110513
110494
110476
110786
110772
110749
110718
110682
110643
110603
110563
110527
110497
110971
110946
110904
110850
110787
110719
110651
110585
110523
110470
111201
111160
111092
111005
110906
110803
110701
110604
110515
110443
111510
111448
111346
111219
111080
110937
110798
110669
110553
110454
111728
111637
111495
111322
111136
110950
110774
110613
110468
110352
112120
111996
111807
111584
111351
111124
110912
110722
110556
110417
112286
112122
111884
111614
111338
111076
110835
110624
110439
110289
112555
112358
112083
111776
111469
111181
110921
110694
110499
110338
110581
110579
110577
110575
110571
110567
110563
110559
110554
110551
110618
110614
110609
110601
110591
110580
110569
110557
110546
110535
110750
110742
110729
110710
110689
110665
110640
110615
110591
110573
110875
110861
110836
110802
110763
110720
110675
110631
110589
110552
111051
111026
110984
110929
110865
110796
110727
110659
110596
110544
111293
111256
111193
111111
111018
110919
110821
110728
110641
110566
111445
111390
111300
111186
111059
110927
110799
110678
110567
110477
111770
111695
111575
111426
111264
111100
110942
110797
110667
110555
111865
111767
111615
111433
111238
111046
110864
110699
110551
110430
112084
111966
111789
111581
111363
111151
110953
110775
110618
110486
110618
110617
110616
110615
110613
110611
110608
110606
110603
110602
110630
110628
110625
110620
110615
110608
110602
110595
110588
110581
110741
110736
110728
110717
110704
110689
110674
110658
110644
110634
110819
110810
110795
110774
110750
110722
110694
110665
110637
110612
110954
110939
110913
110878
110837
110791
110745
110699
110655
110619
111143
111120
111080
111028
110966
110900
110832
110766
110704
110649
111241
111207
111150
111075
110989
110898
110806
110719
110637
110569
111514
111469
111392
111293
111182
111067
110953
110846
110748
110661
111552
111493
111395
111274
111139
111002
110868
110744
110630
110535
111735
111663
111551
111412
111261
111108
110962
110827
110706
110602
110655
110655
110654
110653
110652
110651
110650
110649
110647
110646
110647
110646
110644
110642
110638
110635
110631
110627
110623
110618
110747
110744
110739
110732
110725
110716
110706
110697
110688
110683
110787
110782
110773
110760
110745
110728
110709
110691
110673
110656
110893
110884
110867
110846
110819
110790
110759
110728
110699
110675
111040
111026
111001
110967
110927
110883
110837
110792
110749
110710
111095
111073
111037
110988
110931
110869
110806
110744
110685
110636
111330
111302
111253
111188
111114
111035
110955
110877
110806
110741
111321
111284
111222
111141
111050
110954
110859
110768
110683
110612
111479
111436
111364
111273
111170
111064
110958
110859
110769
110690
110691
110690
110690
110690
110689
110688
110688
110687
110686
110686
110665
110664
110663
110662
110660
110658
110656
110654
110651
110647
110762
110760
110757
110753
110748
110743
110737
110732
110727
110725
110770
110767
110762
110754
110745
110734
110723
110711
110699
110688
110857
110851
110841
110827
110811
110792
110772
110752
110733
110718
110971
110962
110946
110925
110899
110870
110840
110809
110780
110753
110991
110978
110954
110923
110885
110844
110801
110758
110717
110683
111200
111183
111152
111110
111061
111008
110953
110899
110849
110802
111150
111127
111087
111035
110974
110908
110842
110777
110716
110664
111296
111270
111224
111165
111097
111024
110951
110880
110815
110757
110724
110724
110724
110724
110723
110723
110723
110722
110722
110722
110680
110680
110680
110679
110678
110677
110675
110674
110672
110669
110782
110781
110779
110776
110773
110770
110767
110763
110761
110761
110762
110760
110757
110753
110747
110740
110733
110726
110719
110711
110837
110834
110827
110819
110808
110797
110784
110771
110759
110750
110925
110919
110910
110896
110880
110861
110841
110821
110802
110784
110919
110910
110895