/*--------------------------------*- C++ -*----------------------------------*\
| =========                 |                                                 |
| \\      /  F ield         | foam-extend: Open Source CFD                    |
|  \\    /   O peration     | Version:     4.0                                |
|   \\  /    A nd           | Web:         http://www.foam-extend.org         |
|    \\/     M anipulation  |                                                 |
\*---------------------------------------------------------------------------*/
FoamFile
{
    version     2.0;
    format      ascii;
    class       surfaceScalarField;
    location    "1400";
    object      phi;
}
// * * * * * * * * * * * * * * * * * * * * * * * * * * * * * * * * * * * * * //

dimensions      [1 0 -1 0 0 0 0];

internalField   nonuniform List<scalar> 
97302
(
-0.000109791
9.41494e-07
-0.000869435
0.000878719
-0.000119604
1.13063e-06
-0.000870441
0.000879123
-0.000129526
1.18998e-06
-0.000870968
0.0008797
-0.000140127
1.1284e-06
-0.000871009
0.000880481
-0.000152234
9.36754e-07
-0.000870558
0.000881728
-0.000167328
6.04877e-07
-0.000869392
0.000883881
-0.000188498
1.06265e-07
-0.000866907
0.000887971
-0.00022275
-6.03294e-07
-0.000861281
0.000896136
-0.000271325
-1.64581e-06
-0.000851489
0.00090171
-4.40006e-06
-0.000823978
-0.000352992
0.000910044
-0.000150911
1.57956e-06
-0.00116583
0.00117593
-0.000161179
1.94145e-06
-0.00116679
0.00117625
-0.000171521
2.06091e-06
-0.00116739
0.00117686
-0.000182473
1.97017e-06
-0.00116742
0.00117753
-0.000194832
1.65397e-06
-0.00116662
0.00117826
-0.000210309
1.10091e-06
-0.00116461
0.00117959
-0.000232758
2.53244e-07
-0.00116102
0.00118332
-0.000271555
-9.84071e-07
-0.00115422
0.00119339
-0.000328326
-2.91328e-06
-0.0011419
0.00119994
-7.47204e-06
-0.00110398
-0.00043273
0.00121146
-0.000191208
1.85989e-06
-0.00146109
0.00147195
-0.000201773
2.35629e-06
-0.00146212
0.00147227
-0.000212288
2.5399e-06
-0.00146276
0.00147279
-0.000223262
2.46583e-06
-0.00146256
0.00147304
-0.000235621
2.11557e-06
-0.00146121
0.00147311
-0.000251496
1.4783e-06
-0.00145855
0.00147405
-0.000275372
4.74466e-07
-0.00145467
0.00147833
-0.000318341
-9.94321e-07
-0.0014481
0.00149108
-0.000381667
-3.37897e-06
-0.00143493
0.00149872
-9.15683e-06
-0.00138619
-0.000500652
0.00150686
-0.000231425
2.0392e-06
-0.00175237
0.00176363
-0.000242283
2.6767e-06
-0.00175362
0.00176416
-0.000253094
2.94026e-06
-0.00175451
0.00176492
-0.000264383
2.90799e-06
-0.00175453
0.00176537
-0.000277142
2.55084e-06
-0.00175336
0.00176568
-0.000293691
1.85975e-06
-0.00175094
0.0017671
-0.000318845
7.32052e-07
-0.00174738
0.00177228
-0.000364954
-9.23811e-07
-0.00174116
0.0017872
-0.000432973
-3.71078e-06
-0.00172755
0.0017959
-1.06568e-05
-0.0016677
-0.000560728
0.00179695
-0.000271545
2.26691e-06
-0.00204476
0.0020562
-0.000282573
2.97504e-06
-0.0020464
0.00205713
-0.000293554
3.27715e-06
-0.0020478
0.00205844
-0.000305039
3.26167e-06
-0.00204829
0.00205942
-0.000318088
2.89745e-06
-0.00204766
0.00206036
-0.000335142
2.17514e-06
-0.00204587
0.00206261
-0.000361304
9.77836e-07
-0.00204296
0.00206888
-0.000409953
-7.78342e-07
-0.00203744
0.00208594
-0.000481918
-3.84643e-06
-0.0020242
0.0020963
-1.18923e-05
-0.00195255
-0.000615155
0.00208703
-0.000312239
2.35472e-06
-0.00233573
0.00234747
-0.000323371
3.08918e-06
-0.00233783
0.00234885
-0.000334421
3.37915e-06
-0.00233964
0.00235059
-0.000345965
3.33578e-06
-0.00234055
0.00235202
-0.000359115
2.93705e-06
-0.00234045
0.00235356
-0.000376397
2.18265e-06
-0.00233942
0.00235669
-0.000403188
9.54483e-07
-0.00233744
0.00236426
-0.000453731
-8.13462e-07
-0.00233303
0.00238361
-0.000529005
-3.94011e-06
-0.00232131
0.00239668
-1.28573e-05
-0.00223758
-0.000665775
0.00237531
-0.000352759
2.34413e-06
-0.00262652
0.00263837
-0.000363834
2.98609e-06
-0.00262923
0.00264041
-0.000374809
3.20428e-06
-0.00263161
0.00264276
-0.000386263
3.07384e-06
-0.002633
0.00264472
-0.000399362
2.59992e-06
-0.00263348
0.00264692
-0.000416664
1.77537e-06
-0.00263327
0.00265098
-0.000443792
5.36419e-07
-0.00263243
0.00265998
-0.000495676
-1.13214e-06
-0.00262963
0.00268183
-0.000573735
-3.88082e-06
-0.00262057
0.00269857
-1.30042e-05
-0.00252453
-0.000712515
0.00266346
-0.000394553
2.00107e-06
-0.0029179
0.00293018
-0.000405682
2.45262e-06
-0.00292121
0.00293288
-0.000416656
2.48284e-06
-0.00292371
0.00293541
-0.000428061
2.14491e-06
-0.00292505
0.00293739
-0.000441025
1.4753e-06
-0.00292543
0.00293952
-0.000458051
4.72759e-07
-0.00292538
0.00294371
-0.000484904
-8.33991e-07
-0.00292525
0.00295347
-0.000536977
-2.37382e-06
-0.0029239
0.00297721
-0.000616501
-4.15891e-06
-0.00291821
0.00299801
-1.21447e-05
-0.00281169
-0.000755684
0.00295001
-0.000435748
1.05935e-06
-0.00320565
0.00321806
-0.000446453
1.12807e-06
-0.00320983
0.00322186
-0.000457035
8.378e-07
-0.00321295
0.00322518
-0.00046814
1.04359e-07
-0.0032149
0.00322805
-0.000480933
-9.55283e-07
-0.00321607
0.00323129
-0.0004978
-2.31531e-06
-0.00321702
0.00323668
-0.000524505
-3.78937e-06
-0.00321831
0.00324797
-0.000576301
-5.10219e-06
-0.00321926
0.00327378
-0.000655752
-5.50586e-06
-0.00321597
0.00329676
-1.01914e-05
-0.0030987
-0.00079242
0.00323341
-0.000477163
-0.00347412
0.00348711
-0.000488508
-0.0034778
0.00349028
-0.0004997
-0.00347858
0.00349061
-0.000511416
-0.00347606
0.00348788
-0.000524695
-0.00347093
0.00348326
-0.000541665
-0.00346426
0.00347891
-0.000567557
-0.00345723
0.00347933
-0.000616562
-0.00345134
0.00349524
-0.000689648
-0.00344781
0.00351539
-0.00333896
-0.000818663
0.00345779
1.44019e-05
8.77819e-07
-0.00086097
5.32035e-06
1.10221e-06
-0.000862462
-3.78267e-06
1.18319e-06
-0.000863048
-1.30909e-05
1.12591e-06
-0.000862826
-2.28035e-05
9.20341e-07
-0.000861765
-3.31389e-05
5.48115e-07
-0.000859605
-4.42444e-05
-2.49443e-08
-0.000855776
-5.55389e-05
-8.77605e-07
-0.000849109
-6.62374e-05
-2.20558e-06
-0.000838585
-3.97466e-06
-0.00082232
-6.39205e-05
1.54134e-05
1.48875e-06
-0.00115596
5.39869e-06
1.90441e-06
-0.00115758
-4.60655e-06
2.05901e-06
-0.00115826
-1.49196e-05
1.981e-06
-0.00115796
-2.58053e-05
1.64821e-06
-0.00115646
-3.76263e-05
1.03822e-06
-0.00115328
-5.12193e-05
8.91782e-08
-0.00114754
-6.7628e-05
-1.31511e-06
-0.00113737
-8.82508e-05
-3.56128e-06
-0.00111992
-6.6238e-06
-0.00109094
-9.86425e-05
1.67511e-05
1.78628e-06
-0.00145004
6.02553e-06
2.35022e-06
-0.00145184
-4.60926e-06
2.57577e-06
-0.00145264
-1.54848e-05
2.51588e-06
-0.00145222
-2.69385e-05
2.137e-06
-0.00145025
-3.97041e-05
1.41525e-06
-0.00144616
-5.55277e-05
2.58421e-07
-0.00143902
-7.71388e-05
-1.45547e-06
-0.00142635
-0.000108625
-4.31087e-06
-0.00140269
-8.4195e-06
-0.00135913
-0.000133891
1.79817e-05
1.98408e-06
-0.00174062
6.77255e-06
2.70671e-06
-0.00174277
-4.34857e-06
3.02095e-06
-0.00174384
-1.57762e-05
3.0082e-06
-0.00174359
-2.79657e-05
2.6207e-06
-0.00174165
-4.1909e-05
1.83662e-06
-0.00173741
-5.99168e-05
5.22974e-07
-0.00172964
-8.61132e-05
-1.43387e-06
-0.00171499
-0.00012805
-4.82702e-06
-0.0016851
-9.93496e-06
-0.00162521
-0.000169022
1.91113e-05
2.22515e-06
-0.00203262
7.6151e-06
3.02783e-06
-0.00203522
-3.78788e-06
3.38677e-06
-0.00203676
-1.55528e-05
3.39687e-06
-0.00203691
-2.8273e-05
3.00649e-06
-0.00203533
-4.3126e-05
2.1933e-06
-0.00203137
-6.28884e-05
7.85269e-07
-0.00202346
-9.29804e-05
-1.3216e-06
-0.00200746
-0.000144896
-5.10926e-06
-0.001972
-1.10938e-05
-0.00189486
-0.000201431
1.98289e-05
2.34552e-06
-0.00232318
8.15387e-06
3.18373e-06
-0.00232631
-3.38176e-06
3.53833e-06
-0.00232826
-1.52914e-05
3.53095e-06
-0.00232878
-2.82882e-05
3.11719e-06
-0.00232757
-4.37133e-05
2.28483e-06
-0.00232408
-6.47716e-05
8.42029e-07
-0.00231644
-9.8053e-05
-1.30501e-06
-0.00229977
-0.000159366
-5.2377e-06
-0.00225987
-1.19081e-05
-0.00216528
-0.000230851
2.02513e-05
2.3268e-06
-0.00261372
8.59702e-06
3.07112e-06
-0.00261746
-2.89025e-06
3.35936e-06
-0.00261995
-1.47403e-05
3.2778e-06
-0.0026209
-2.77961e-05
2.82166e-06
-0.00262013
-4.35093e-05
1.96188e-06
-0.00261723
-6.54635e-05
5.2298e-07
-0.00261016
-0.000101289
-1.58849e-06
-0.00259352
-0.000171285
-5.26687e-06
-0.00255055
-1.22644e-05
-0.0024386
-0.00025686
1.99988e-05
2.00825e-06
-0.00290467
8.34042e-06
2.56598e-06
-0.00290905
-3.04222e-06
2.69669e-06
-0.00291167
-1.47265e-05
2.46045e-06
-0.00291255
-2.76104e-05
1.88839e-06
-0.00291161
-4.32194e-05
9.48108e-07
-0.00290876
-6.54372e-05
-4.52355e-07
-0.00290205
-0.000102728
-2.42174e-06
-0.00288577
-0.000180127
-5.23132e-06
-0.00284084
-1.19041e-05
-0.0027127
-0.000279478
1.94705e-05
1.06375e-06
-0.00319214
8.28053e-06
1.21004e-06
-0.00319728
-2.59936e-06
1.05091e-06
-0.00320043
-1.37769e-05
4.66751e-07
-0.00320173
-2.63038e-05
-4.11297e-07
-0.00320124
-4.18158e-05
-1.59221e-06
-0.00319897
-6.44015e-05
-3.01689e-06
-0.00319316
-0.000103015
-4.67968e-06
-0.00317838
-0.000186373
-6.14991e-06
-0.00313169
-1.00724e-05
-0.00298499
-0.000301917
1.83129e-05
-0.00346033
6.87115e-06
-0.00346515
-4.05844e-06
-0.00346659
-1.51611e-05
-0.00346449
-2.73749e-05
-0.00345913
-4.2304e-05
-0.00345092
-6.38702e-05
-0.00343868
-0.000101262
-0.00341863
-0.000186016
-0.00336921
-0.00321499
-0.000320065
1.20306e-05
7.65514e-07
-0.000854288
4.42928e-06
1.00535e-06
-0.000855866
-3.28785e-06
1.09365e-06
-0.000856425
-1.10309e-05
1.02959e-06
-0.000856113
-1.86765e-05
8.06515e-07
-0.000854926
-2.59797e-05
4.08577e-07
-0.00085271
-3.23887e-05
-1.86275e-07
-0.000849181
-3.65994e-05
-1.01591e-06
-0.000843882
-3.67307e-05
-2.16394e-06
-0.00083629
-3.44048e-06
-0.000826634
-2.89766e-05
1.38826e-05
1.33581e-06
-0.00114744
4.86028e-06
1.77539e-06
-0.00114933
-4.22422e-06
1.93935e-06
-0.00115002
-1.34616e-05
1.84986e-06
-0.00114954
-2.28578e-05
1.48512e-06
-0.00114774
-3.2262e-05
8.20432e-07
-0.00114429
-4.12734e-05
-1.97687e-07
-0.00113851
-4.87398e-05
-1.64175e-06
-0.00112928
-5.21969e-05
-3.72639e-06
-0.0011149
-6.14501e-06
-0.00109567
-4.47583e-05
1.59961e-05
1.66892e-06
-0.00143987
5.79825e-06
2.26393e-06
-0.00144213
-4.39607e-06
2.49943e-06
-0.001443
-1.47818e-05
2.42143e-06
-0.0014424
-2.54539e-05
1.99151e-06
-0.00144008
-3.64757e-05
1.17422e-06
-0.00143549
-4.79612e-05
-1.25422e-07
-0.0014276
-5.94425e-05
-2.00535e-06
-0.0014145
-6.851e-05
-4.87498e-06
-0.00139248
-8.39107e-06
-0.00136044
-6.49592e-05
1.76592e-05
1.91752e-06
-0.00172942
6.67216e-06
2.68222e-06
-0.0017322
-4.30926e-06
3.00845e-06
-0.00173337
-1.5595e-05
2.97296e-06
-0.00173286
-2.74307e-05
2.52128e-06
-0.00173035
-4.01459e-05
1.61552e-06
-0.00172514
-5.43019e-05
1.07485e-07
-0.00171571
-7.00918e-05
-2.12365e-06
-0.00169908
-8.5808e-05
-5.7402e-06
-0.00166852
-1.03656e-05
-0.00162078
-8.82637e-05
1.90778e-05
2.20389e-06
-0.00202075
7.58156e-06
3.05537e-06
-0.0020241
-3.8893e-06
3.4303e-06
-0.00202571
-1.57524e-05
3.41888e-06
-0.0020255
-2.84324e-05
2.96196e-06
-0.00202309
-4.25116e-05
2.01748e-06
-0.0020177
-5.90034e-05
3.82056e-07
-0.00200725
-7.88989e-05
-2.09326e-06
-0.00198759
-0.000101952
-6.3365e-06
-0.00194835
-1.20019e-05
-0.00188301
-0.000112166
2.00282e-05
2.37316e-06
-0.00231071
8.19392e-06
3.26457e-06
-0.00231469
-3.56164e-06
3.63983e-06
-0.00231671
-1.57498e-05
3.61847e-06
-0.00231679
-2.89529e-05
3.14399e-06
-0.00231454
-4.40032e-05
2.18307e-06
-0.0023092
-6.24009e-05
5.02284e-07
-0.00229817
-8.60428e-05
-2.07056e-06
-0.00227615
-0.000116894
-6.66867e-06
-0.00222868
-1.32074e-05
-0.00214467
-0.000136295
2.05897e-05
2.3776e-06
-0.00260082
8.6732e-06
3.17509e-06
-0.00260546
-3.12632e-06
3.49006e-06
-0.002608
-1.53657e-05
3.40805e-06
-0.00260845
-2.87936e-05
2.91594e-06
-0.00260647
-4.44521e-05
1.96784e-06
-0.00260136
-6.43263e-05
3.28237e-07
-0.00259011
-9.12503e-05
-2.22542e-06
-0.00256644
-0.000130002
-6.78813e-06
-0.00251168
-1.39673e-05
-0.00240849
-0.000159354
2.0419e-05
2.07012e-06
-0.00289129
8.47013e-06
2.67731e-06
-0.0028966
-3.2474e-06
2.85162e-06
-0.00289931
-1.53532e-05
2.65607e-06
-0.00289969
-2.86906e-05
2.10669e-06
-0.00289746
-4.4491e-05
1.15729e-06
-0.00289215
-6.52084e-05
-3.43766e-07
-0.00288066
-9.45732e-05
-2.66165e-06
-0.00285597
-0.000140711
-6.41347e-06
-0.00279508
-1.37452e-05
-0.00267296
-0.000180665
1.98076e-05
1.13971e-06
-0.00317845
8.31034e-06
1.31847e-06
-0.00318443
-2.90837e-06
1.23933e-06
-0.0031876
-1.44724e-05
7.64708e-07
-0.00318828
-2.73822e-05
1.83022e-08
-0.00318624
-4.31121e-05
-1.02057e-06
-0.00318106
-6.4622e-05
-2.34282e-06
-0.00316965
-9.64292e-05
-4.09471e-06
-0.00314514
-0.000148923
-6.37225e-06
-0.00307924
-1.15112e-05
-0.00293547
-0.00020067
1.86432e-05
-0.00344648
7.06375e-06
-0.00345226
-4.04713e-06
-0.00345424
-1.53965e-05
-0.00345238
-2.78749e-05
-0.00344663
-4.29666e-05
-0.00343685
-6.36721e-05
-0.00342031
-9.53975e-05
-0.003391
-0.000150701
-0.00332028
-0.00316176
-0.000215441
9.33735e-06
5.95882e-07
-0.000849446
3.46825e-06
8.39245e-07
-0.000850836
-2.5826e-06
9.31669e-07
-0.000851306
-8.54188e-06
8.65997e-07
-0.00085102
-1.41028e-05
6.40725e-07
-0.000850006
-1.88427e-05
2.46917e-07
-0.000848218
-2.21191e-05
-3.22414e-07
-0.000845582
-2.28934e-05
-1.0694e-06
-0.000842038
-1.95826e-05
-1.99035e-06
-0.00083761
-2.87246e-06
-0.000832756
-1.05873e-05
1.173e-05
1.08911e-06
-0.0011406
4.11462e-06
1.53896e-06
-0.00114241
-3.63054e-06
1.7081e-06
-0.00114305
-1.13677e-05
1.61109e-06
-0.00114255
-1.88807e-05
1.23044e-06
-0.00114082
-2.57803e-05
5.48011e-07
-0.00113769
-3.1307e-05
-4.6774e-07
-0.00113284
-3.39429e-05
-1.83895e-06
-0.00112587
-3.08488e-05
-3.62511e-06
-0.00111636
-5.43648e-06
-0.0011058
-1.81559e-05
1.44484e-05
1.44775e-06
-0.00143109
5.275e-06
2.05918e-06
-0.00143348
-3.96709e-06
2.29742e-06
-0.00143435
-1.32779e-05
2.19869e-06
-0.00143368
-2.25509e-05
1.72627e-06
-0.00143131
-3.14912e-05
8.45279e-07
-0.00142685
-3.9421e-05
-5.21847e-07
-0.00141962
-4.47309e-05
-2.42791e-06
-0.0014086
-4.34944e-05
-5.06643e-06
-0.00139227
-7.91941e-06
-0.00137273
-2.87221e-05
1.65478e-05
1.74932e-06
-0.00171932
6.25562e-06
2.54295e-06
-0.00172239
-4.10274e-06
2.87275e-06
-0.00172358
-1.46639e-05
2.80652e-06
-0.0017229
-2.54726e-05
2.29025e-06
-0.0017201
-3.64401e-05
1.28175e-06
-0.00171461
-4.70989e-05
-3.55136e-07
-0.00170522
-5.58654e-05
-2.71298e-06
-0.00169003
-5.78882e-05
-6.21369e-06
-0.00166535
-1.02054e-05
-0.00163347
-4.29148e-05
1.83107e-05
2.08687e-06
-0.00200967
7.23269e-06
2.9765e-06
-0.00201345
-3.8813e-06
3.35881e-06
-0.00201509
-1.53066e-05
3.31382e-06
-0.00201458
-2.72797e-05
2.78077e-06
-0.0020116
-3.99623e-05
1.70823e-06
-0.00200544
-5.31916e-05
-1.04666e-07
-0.00199427
-6.56018e-05
-2.80399e-06
-0.00197509
-7.19485e-05
-7.09084e-06
-0.00194113
-1.22257e-05
-0.00189426
-5.86766e-05
1.95546e-05
2.31618e-06
-0.0022988
7.92548e-06
3.2518e-06
-0.00230333
-3.68249e-06
3.63931e-06
-0.00230538
-1.56704e-05
3.59051e-06
-0.00230508
-2.84515e-05
3.04238e-06
-0.00230202
-4.24628e-05
1.94722e-06
-0.00229543
-5.79445e-05
6.06834e-08
-0.00228285
-7.3961e-05
-2.81541e-06
-0.00226012
-8.55559e-05
-7.63883e-06
-0.00221654
-1.37959e-05
-0.00215279
-7.58671e-05
2.03198e-05
2.36421e-06
-0.00258828
8.45391e-06
3.2075e-06
-0.00259355
-3.34493e-06
3.54024e-06
-0.0025961
-1.55558e-05
3.44213e-06
-0.00259609
-2.87796e-05
2.89074e-06
-0.0025931
-4.37133e-05
1.82851e-06
-0.0025863
-6.10584e-05
-4.32298e-09
-0.0025727
-8.0451e-05
-2.89103e-06
-0.00254697
-9.7904e-05
-7.87834e-06
-0.00249398
-1.4917e-05
-0.00241206
-9.32119e-05
2.03049e-05
2.08449e-06
-0.00287817
8.33472e-06
2.73429e-06
-0.00288416
-3.45652e-06
2.93886e-06
-0.00288692
-1.56328e-05
2.76272e-06
-0.00288684
-2.89076e-05
2.20394e-06
-0.0028835
-4.42271e-05
1.20822e-06
-0.00287621
-6.28203e-05
-4.17716e-07
-0.00286166
-8.50391e-05
-3.03478e-06
-0.00283361
-0.000108544
-7.34262e-06
-0.00277211
-1.484e-05
-0.0026714
-0.000110182
1.97589e-05
1.18802e-06
-0.0031649
8.18246e-06
1.39453e-06
-0.00317151
-3.17095e-06
1.3804e-06
-0.00317469
-1.48656e-05
9.90955e-07
-0.00317481
-2.77533e-05
3.38172e-07
-0.00317149
-4.30138e-05
-6.14582e-07
-0.00316398
-6.24987e-05
-1.90092e-06
-0.00314868
-8.76707e-05
-3.75601e-06
-0.00311925
-0.000117091
-6.49719e-06
-0.00305066
-1.22154e-05
-0.00292844
-0.000126747
1.86693e-05
-0.00343283
7.1323e-06
-0.00343932
-4.00221e-06
-0.00344173
-1.5402e-05
-0.00343999
-2.78352e-05
-0.00343386
-4.25212e-05
-0.00342278
-6.14125e-05
-0.00340332
-8.70649e-05
-0.0033691
-0.000119716
-0.00329413
-0.00315418
-0.000139506
6.85232e-06
4.10376e-07
-0.000846088
2.57862e-06
6.40831e-07
-0.000847203
-1.89475e-06
7.31843e-07
-0.000847564
-6.2374e-06
6.69894e-07
-0.000847347
-1.01046e-05
4.5841e-07
-0.000846597
-1.30913e-05
9.64395e-08
-0.000845327
-1.47038e-05
-4.07643e-07
-0.000843562
-1.43379e-05
-1.03248e-06
-0.000841372
-1.13226e-05
-1.73222e-06
-0.000838893
-2.3391e-06
-0.000836372
-5.36799e-06
9.3931e-06
7.94692e-07
-0.00113538
3.30493e-06
1.23385e-06
-0.00113692
-2.96042e-06
1.40137e-06
-0.00113746
-9.12285e-06
1.30327e-06
-0.00113702
-1.48397e-05
9.27831e-07
-0.00113557
-1.96414e-05
2.68237e-07
-0.00113306
-2.28119e-05
-6.80619e-07
-0.0011294
-2.32475e-05
-1.89683e-06
-0.00112457
-1.92846e-05
-3.3367e-06
-0.00111872
-4.65167e-06
-0.001113
-9.76881e-06
1.2471e-05
1.14882e-06
-0.00142391
4.60832e-06
1.75681e-06
-0.00142614
-3.38933e-06
1.99143e-06
-0.00142694
-1.13386e-05
1.87694e-06
-0.0014263
-1.89643e-05
1.38195e-06
-0.00142413
-2.5794e-05
4.81694e-07
-0.00142023
-3.09512e-05
-8.7024e-07
-0.00141427
-3.28569e-05
-2.6761e-06
-0.00140592
-2.86227e-05
-4.95526e-06
-0.00139489
-7.16692e-06
-0.00138343
-1.54003e-05
1.49168e-05
1.48528e-06
-0.00171062
5.66714e-06
2.29169e-06
-0.00171368
-3.72443e-06
2.61954e-06
-0.00171482
-1.3191e-05
2.52468e-06
-0.00171409
-2.25682e-05
1.95805e-06
-0.0017113
-3.14903e-05
8.83949e-07
-0.00170609
-3.90648e-05
-8.00339e-07
-0.00169772
-4.33592e-05
-3.13711e-06
-0.00168527
-4.00513e-05
-6.3059e-06
-0.0016673
-9.56928e-06
-0.00164725
-2.38717e-05
1.70098e-05
1.86603e-06
-0.00199975
6.70548e-06
2.78165e-06
-0.00200364
-3.70755e-06
3.16645e-06
-0.00200522
-1.43057e-05
3.08657e-06
-0.00200454
-2.5095e-05
2.4839e-06
-0.00200134
-3.58981e-05
1.30753e-06
-0.00199506
-4.59367e-05
-6.13529e-07
-0.00198442
-5.30792e-05
-3.38232e-06
-0.0019677
-5.16878e-05
-7.41301e-06
-0.00194141
-1.18042e-05
-0.00191003
-3.36837e-05
1.85631e-05
2.15561e-06
-0.00228783
7.47851e-06
3.12736e-06
-0.00229259
-3.65758e-06
3.52298e-06
-0.0022946
-1.50654e-05
3.44282e-06
-0.00229403
-2.69218e-05
2.82143e-06
-0.00229051
-3.92931e-05
1.60471e-06
-0.00228335
-5.16533e-05
-4.32912e-07
-0.00227067
-6.18843e-05
-3.46433e-06
-0.00224981
-6.34032e-05
-8.15438e-06
-0.00221428
-1.36182e-05
-0.00216931
-4.50683e-05
1.95643e-05
2.26018e-06
-0.00257647
8.06192e-06
3.14543e-06
-0.00258206
-3.44133e-06
3.49307e-06
-0.00258457
-1.52704e-05
3.37438e-06
-0.00258419
-2.77957e-05
2.75912e-06
-0.00258051
-4.13416e-05
1.58088e-06
-0.00257273
-5.57355e-05
-4.15363e-07
-0.00255832
-6.90496e-05
-3.50407e-06
-0.00253362
-7.42568e-05
-8.51062e-06
-0.00248842
-1.49734e-05
-0.00242803
-5.69307e-05
1.97518e-05
2.01896e-06
-0.00286564
8.0402e-06
2.71211e-06
-0.00287202
-3.56439e-06
2.9426e-06
-0.00287477
-1.54992e-05
2.77744e-06
-0.00287431
-2.82601e-05
2.19791e-06
-0.00287018
-4.24259e-05
1.14105e-06
-0.0028616
-5.82982e-05
-6.05119e-07
-0.0028456
-7.44033e-05
-3.42256e-06
-0.00281758
-8.39149e-05
-7.92343e-06
-0.00276319
-1.50187e-05
-0.00268614
-6.91323e-05
1.93307e-05
1.18759e-06
-0.00315183
7.92624e-06
1.42261e-06
-0.00315882
-3.33239e-06
1.46541e-06
-0.00316195
-1.48908e-05
1.14517e-06
-0.00316162
-2.73924e-05
5.62813e-07
-0.00315735
-4.16228e-05
-3.34153e-07
-0.00314827
-5.83817e-05
-1.61232e-06
-0.00313091
-7.73005e-05
-3.54231e-06
-0.00310021
-9.16078e-05
-6.4773e-06
-0.0030378
-1.20789e-05
-0.00294141
-8.1582e-05
1.83502e-05
-0.00341967
7.05925e-06
-0.00342661
-3.91399e-06
-0.00342929
-1.51444e-05
-0.00342761
-2.72249e-05
-0.00342122
-4.10259e-05
-0.00340931
-5.74944e-05
-0.00338847
-7.70998e-05
-0.00335304
-9.41939e-05
-0.00328351
-0.0031695
-9.09518e-05
4.81933e-06
2.37164e-07
-0.000843815
1.84591e-06
4.4175e-07
-0.000844671
-1.31138e-06
5.26432e-07
-0.000844933
-4.34355e-06
4.7226e-07
-0.000844787
-6.94386e-06
2.86541e-07
-0.000844283
-8.78953e-06
-2.57723e-08
-0.000843456
-9.55121e-06
-4.46427e-07
-0.000842354
-8.91417e-06
-9.43382e-07
-0.000841066
-6.64891e-06
-1.46008e-06
-0.000839698
-1.87718e-06
-0.000838294
-2.84951e-06
7.17618e-06
4.93982e-07
-0.00113154
2.52709e-06
9.01741e-07
-0.00113273
-2.31493e-06
1.06054e-06
-0.00113315
-7.01826e-06
9.68207e-07
-0.00113281
-1.12101e-05
6.1864e-07
-0.00113171
-1.44487e-05
1.62126e-08
-0.00112986
-1.61746e-05
-8.22604e-07
-0.0011273
-1.57066e-05
-1.84938e-06
-0.00112413
-1.22632e-05
-2.9751e-06
-0.00112065
-3.92749e-06
-0.00111756
-5.65708e-06
1.03502e-05
8.11038e-07
-0.00141827
3.88556e-06
1.39198e-06
-0.00142017
-2.75914e-06
1.61563e-06
-0.00142085
-9.27832e-06
1.49374e-06
-0.00142031
-1.5298e-05
1.00181e-06
-0.0014185
-2.02978e-05
1.2954e-07
-0.00141535
-2.34802e-05
-1.13531e-06
-0.00141078
-2.36695e-05
-2.75312e-06
-0.00140482
-1.91596e-05
-4.64382e-06
-0.00139773
-6.3394e-06
-0.00139108
-9.10626e-06
1.2979e-05
1.15379e-06
-0.00170345
4.97482e-06
1.95069e-06
-0.00170623
-3.23661e-06
2.2699e-06
-0.00170726
-1.14148e-05
2.15387e-06
-0.00170657
-1.92325e-05
1.56179e-06
-0.00170404
-2.61747e-05
4.71816e-07
-0.00169949
-3.12819e-05
-1.1746e-06
-0.00169257
-3.29003e-05
-3.36665e-06
-0.00168304
-2.80466e-05
-6.11003e-06
-0.00167069
-8.71725e-06
-0.00165834
-1.45741e-05
1.53181e-05
1.55909e-06
-0.00199119
6.05141e-06
2.48138e-06
-0.0019949
-3.39601e-06
2.86249e-06
-0.00199637
-1.2904e-05
2.75261e-06
-0.00199563
-2.22679e-05
2.1004e-06
-0.00199251
-3.10699e-05
8.64553e-07
-0.00198665
-3.82958e-05
-1.07835e-06
-0.00197729
-4.18934e-05
-3.77152e-06
-0.0019637
-3.74291e-05
-7.38229e-06
-0.0019446
-1.10191e-05
-0.00192424
-2.09164e-05
1.71441e-05
1.89883e-06
-0.00227808
6.89215e-06
2.89186e-06
-0.00228275
-3.48956e-06
3.29022e-06
-0.00228465
-1.40208e-05
3.18042e-06
-0.00228392
-2.46391e-05
2.49931e-06
-0.00228029
-3.50984e-05
1.19593e-06
-0.00227322
-4.44679e-05
-9.13024e-07
-0.00226147
-5.0461e-05
-3.94506e-06
-0.00224364
-4.72521e-05
-8.27124e-06
-0.0022166
-1.29391e-05
-0.00218607
-2.85746e-05
1.83754e-05
2.06494e-06
-0.00256571
7.52681e-06
2.98279e-06
-0.00257131
-3.40124e-06
3.34159e-06
-0.00257369
-1.45446e-05
3.20253e-06
-0.00257307
-2.60216e-05
2.53157e-06
-0.00256906
-3.78001e-05
1.26114e-06
-0.00256102
-4.91487e-05
-8.34337e-07
-0.00254705
-5.77072e-05
-3.97626e-06
-0.00252503
-5.64894e-05
-8.71409e-06
-0.00248919
-1.43743e-05
-0.00244653
-3.65554e-05
1.87846e-05
1.86799e-06
-0.00285401
7.6059e-06
2.60126e-06
-0.00286046
-3.55029e-06
2.85305e-06
-0.00286312
-1.49533e-05
2.69358e-06
-0.00286239
-2.68514e-05
2.09096e-06
-0.00285784
-3.94388e-05
9.80529e-07
-0.00284873
-5.23253e-05
-8.4283e-07
-0.0028327
-6.33599e-05
-3.7245e-06
-0.0028068
-6.49101e-05
-8.11169e-06
-0.00276224
-1.4448e-05
-0.00270592
-4.50568e-05
1.85208e-05
1.13165e-06
-0.00313956
7.54429e-06
1.39356e-06
-0.00314663
-3.37706e-06
1.48475e-06
-0.00314966
-1.45285e-05
1.21908e-06
-0.00314899
-2.63197e-05
6.88277e-07
-0.00314416
-3.91366e-05
-1.71377e-07
-0.00313431
-5.29333e-05
-1.444e-06
-0.00311651
-6.6322e-05
-3.38308e-06
-0.00308717
-7.13124e-05
-6.29162e-06
-0.00303463
-1.12899e-05
-0.00296217
-5.37047e-05
1.76779e-05
-0.0034073
6.84438e-06
-0.00341438
-3.76701e-06
-0.0034172
-1.45981e-05
-0.00341556
-2.60371e-05
-0.00340909
-3.85858e-05
-0.00339694
-5.23857e-05
-0.00337611
-6.65816e-05
-0.00334223
-7.3742e-05
-0.00328264
-0.00319487
-5.96681e-05
3.29377e-06
9.32855e-08
-0.000842278
1.29102e-06
2.64983e-07
-0.000842934
-8.63791e-07
3.40161e-07
-0.000843119
-2.91819e-06
2.95816e-07
-0.000843028
-4.6316e-06
1.41881e-07
-0.000842712
-5.77079e-06
-1.13657e-07
-0.000842203
-6.13129e-06
-4.48209e-07
-0.000841545
-5.56165e-06
-8.28452e-07
-0.000840807
-4.01437e-06
-1.20219e-06
-0.000840043
-1.48719e-06
-0.000839172
-1.64904e-06
5.25701e-06
2.18849e-07
-0.00112877
1.83936e-06
5.7961e-07
-0.00112962
-1.75996e-06
7.23836e-07
-0.00112993
-5.22398e-06
6.42626e-07
-0.00112969
-8.21168e-06
3.34355e-07
-0.00112892
-1.03594e-05
-1.88281e-07
-0.00112764
-1.12734e-05
-8.95272e-07
-0.00112593
-1.05708e-05
-1.72685e-06
-0.00112394
-7.95197e-06
-2.58566e-06
-0.00112188
-3.27267e-06
-0.00112018
-3.54272e-06
8.30155e-06
4.71902e-07
-0.00141396
3.17208e-06
1.00321e-06
-0.00141546
-2.15413e-06
1.20849e-06
-0.00141601
-7.32162e-06
1.08795e-06
-0.00141559
-1.19295e-05
6.23799e-07
-0.00141418
-1.54912e-05
-1.80258e-07
-0.00141179
-1.73779e-05
-1.30844e-06
-0.00140848
-1.68312e-05
-2.69262e-06
-0.0014044
-1.29978e-05
-4.2088e-06
-0.00139994
-5.49577e-06
-0.00139606
-5.79348e-06
1.09252e-05
7.89929e-07
-0.00169773
4.23404e-06
1.5519e-06
-0.00170009
-2.70706e-06
1.85461e-06
-0.00170097
-9.5449e-06
1.72724e-06
-0.00170037
-1.58595e-05
1.13865e-06
-0.00169824
-2.10926e-05
8.38219e-08
-0.00169452
-2.43951e-05
-1.45249e-06
-0.00168912
-2.45626e-05
-3.41449e-06
-0.00168215
-1.98393e-05
-5.70355e-06
-0.00167392
-7.7546e-06
-0.00166635
-9.56894e-06
1.33816e-05
1.19461e-06
-0.00198407
5.31262e-06
2.09828e-06
-0.00198738
-2.99499e-06
2.4677e-06
-0.00198867
-1.12651e-05
2.33646e-06
-0.00198797
-1.91417e-05
1.6629e-06
-0.00198516
-2.60761e-05
4.21608e-07
-0.00198005
-3.10547e-05
-1.45739e-06
-0.0019723
-3.24266e-05
-3.95693e-06
-0.00196179
-2.72465e-05
-7.06663e-06
-0.00194842
-1.00155e-05
-0.00193537
-1.3861e-05
1.54003e-05
1.56596e-06
-0.00226969
6.19676e-06
2.55814e-06
-0.00227401
-3.20768e-06
2.95178e-06
-0.00227573
-1.26518e-05
2.81807e-06
-0.00227496
-2.18768e-05
2.10052e-06
-0.0022715
-3.04226e-05
7.59901e-07
-0.00226502
-3.72213e-05
-1.33133e-06
-0.00225479
-4.02678e-05
-4.22345e-06
-0.00224033
-3.52907e-05
-8.04584e-06
-0.0022206
-1.19257e-05
-0.00220024
-1.92082e-05
1.68188e-05
1.79014e-06
-0.00255621
6.86874e-06
2.72391e-06
-0.00256152
-3.23877e-06
3.08782e-06
-0.00256372
-1.34509e-05
2.93177e-06
-0.00256297
-2.366e-05
2.22239e-06
-0.00255898
-3.35534e-05
8.99868e-07
-0.00255127
-4.21119e-05
-1.21395e-06
-0.00253861
-4.7095e-05
-4.26217e-06
-0.00252001
-4.29163e-05
-8.53398e-06
-0.00249289
-1.33042e-05
-0.00246344
-2.46306e-05
1.74427e-05
1.63672e-06
-0.00284352
7.0439e-06
2.40056e-06
-0.00284973
-3.41944e-06
2.66734e-06
-0.00285224
-1.40363e-05
2.5108e-06
-0.00285136
-2.48195e-05
1.89024e-06
-0.00284673
-3.56364e-05
7.47061e-07
-0.00283776
-4.56591e-05
-1.09594e-06
-0.0028228
-5.26416e-05
-3.90436e-06
-0.00280018
-5.0039e-05
-7.93192e-06
-0.00276544
-1.32983e-05
-0.0027254
-3.05655e-05
1.73485e-05
1.02017e-06
-0.00312835
7.0406e-06
1.30366e-06
-0.00313523
-3.30692e-06
1.434e-06
-0.00313808
-1.37999e-05
1.21042e-06
-0.0031372
-2.46192e-05
7.18159e-07
-0.00313217
-3.58021e-05
-1.11154e-07
-0.00312226
-4.67409e-05
-1.36487e-06
-0.00310531
-5.55749e-05
-3.24396e-06
-0.00307899
-5.51685e-05
-5.95875e-06
-0.00303701
-1.01104e-05
-0.00298431
-3.622e-05
1.66638e-05
-0.00339599
6.49172e-06
-0.00340291
-3.55663e-06
-0.00340571
-1.37678e-05
-0.00340414
-2.43211e-05
-0.00339782
-3.53807e-05
-0.00338599
-4.65287e-05
-0.00336633
-5.62008e-05
-0.0033358
-5.74218e-05
-0.00328738
-0.00322263
-3.97661e-05
2.21458e-06
-1.49295e-08
-0.000841222
8.96252e-07
1.2288e-07
-0.000841738
-5.40727e-07
1.8744e-07
-0.000841869
-1.90479e-06
1.5315e-07
-0.000841817
-3.02055e-06
3.15518e-08
-0.000841628
-3.72783e-06
-1.68712e-07
-0.000841327
-3.90254e-06
-4.24964e-07
-0.000840946
-3.47385e-06
-7.07648e-07
-0.000840528
-2.45252e-06
-9.74106e-07
-0.000840091
-1.16815e-06
-0.000839484
-9.72727e-07
3.70313e-06
-1.14503e-08
-0.00112677
1.26941e-06
2.9427e-07
-0.00112736
-1.31907e-06
4.20419e-07
-0.00112758
-3.7946e-06
3.53322e-07
-0.00112742
-5.87581e-06
9.44641e-08
-0.0011269
-7.28597e-06
-3.39022e-07
-0.00112606
-7.76301e-06
-9.11483e-07
-0.00112497
-7.1031e-06
-1.56268e-06
-0.00112374
-5.21979e-06
-2.20433e-06
-0.00112254
-2.69409e-06
-0.00112158
-2.29704e-06
6.4666e-06
1.60903e-07
-0.00141072
2.51796e-06
6.25309e-07
-0.00141184
-1.61852e-06
8.06175e-07
-0.00141226
-5.59543e-06
6.94154e-07
-0.00141195
-9.03791e-06
2.7676e-07
-0.00141092
-1.15334e-05
-4.32039e-07
-0.00140921
-1.26224e-05
-1.39787e-06
-0.0014069
-1.1848e-05
-2.53973e-06
-0.0014042
-8.84215e-06
-3.72418e-06
-0.00140142
-4.68532e-06
-0.00139914
-3.76359e-06
8.9169e-06
4.27619e-07
-0.00169329
3.49747e-06
1.13064e-06
-0.00169518
-2.18745e-06
1.40905e-06
-0.00169589
-7.73629e-06
1.28012e-06
-0.00169541
-1.27038e-05
7.22164e-07
-0.00169372
-1.65625e-05
-2.54228e-07
-0.00169084
-1.86316e-05
-1.63029e-06
-0.00168682
-1.81068e-05
-3.31989e-06
-0.0016819
-1.40727e-05
-5.1742e-06
-0.0016765
-6.75618e-06
-0.00167187
-6.47935e-06
1.13499e-05
8.04944e-07
-0.0019783
4.53637e-06
1.66251e-06
-0.0019811
-2.55036e-06
2.01131e-06
-0.00198219
-9.53625e-06
1.86899e-06
-0.00198158
-1.59833e-05
1.20466e-06
-0.0019792
-2.13084e-05
1.10412e-08
-0.00197499
-2.46212e-05
-1.73313e-06
-0.00196889
-2.47153e-05
-3.9613e-06
-0.00196105
-1.98522e-05
-6.55296e-06
-0.00195191
-8.89096e-06
-0.00194359
-9.49424e-06
1.34557e-05
1.18443e-06
-0.00226268
5.43132e-06
2.14878e-06
-0.00226647
-2.84682e-06
2.52857e-06
-0.00226797
-1.10804e-05
2.37935e-06
-0.00226724
-1.88789e-05
1.6541e-06
-0.00226415
-2.56732e-05
3.30686e-07
-0.00225854
-3.04363e-05
-1.66074e-06
-0.0022501
-3.15851e-05
-4.30642e-06
-0.00223883
-2.63502e-05
-7.56234e-06
-0.00222482
-1.07018e-05
-0.0022114
-1.33863e-05
1.49891e-05
1.45552e-06
-0.00254808
6.11747e-06
2.38242e-06
-0.00255288
-2.97766e-06
2.7433e-06
-0.00255484
-1.20824e-05
2.57613e-06
-0.00255406
-2.0916e-05
1.85196e-06
-0.00255034
-2.89877e-05
5.25862e-07
-0.00254339
-3.52057e-05
-1.52517e-06
-0.00253253
-3.76788e-05
-4.36027e-06
-0.00251748
-3.24869e-05
-8.05881e-06
-0.00249758
-1.19362e-05
-0.00247756
-1.71345e-05
1.57969e-05
1.33795e-06
-0.00283432
6.37668e-06
2.1167e-06
-0.00284005
-3.18688e-06
2.3906e-06
-0.00284232
-1.28153e-05
2.23683e-06
-0.00284139
-2.23266e-05
1.61025e-06
-0.00283697
-3.13544e-05
4.65097e-07
-0.00282868
-3.8876e-05
-1.33546e-06
-0.00281546
-4.28402e-05
-3.962e-06
-0.00279661
-3.83883e-05
-7.48621e-06
-0.00277047
-1.18145e-05
-0.00274253
-2.13753e-05
1.58632e-05
8.5872e-07
-0.00311841