/*--------------------------------*- C++ -*----------------------------------*\
| =========                 |                                                 |
| \\      /  F ield         | foam-extend: Open Source CFD                    |
|  \\    /   O peration     | Version:     4.0                                |
|   \\  /    A nd           | Web:         http://www.foam-extend.org         |
|    \\/     M anipulation  |                                                 |
\*---------------------------------------------------------------------------*/
FoamFile
{
    version     2.0;
    format      ascii;
    class       volScalarField;
    location    "1400";
    object      T;
}
// * * * * * * * * * * * * * * * * * * * * * * * * * * * * * * * * * * * * * //

dimensions      [0 0 0 1 0 0 0];

internalField   nonuniform List<scalar> 
34480
(
278.816
278.705
278.624
278.569
278.537
278.527
278.543
278.627
278.899
278.866
278.265
278.147
278.053
277.986
277.953
277.956
277.981
278.026
278.243
277.8
278.155
278.023
277.917
277.843
277.805
277.792
277.773
277.72
277.848
277.072
278.198
278.045
277.916
277.813
277.741
277.677
277.592
277.434
277.44
276.315
278.214
278.036
277.878
277.742
277.628
277.508
277.354
277.084
276.934
275.453
278.285
278.083
277.902
277.74
277.591
277.42
277.199
276.815
276.478
274.613
278.313
278.087
277.881
277.694
277.513
277.298
277.015
276.517
275.969
273.716
278.386
278.137
277.919
277.723
277.535
277.304
276.987
276.405
275.648
272.974
278.444
278.174
277.938
277.723
277.51
277.253
276.893
276.227
275.26
272.232
279.26
278.978
278.773
278.63
278.525
278.404
278.194
277.667
276.66
273.2
279.349
279.257
279.22
279.236
279.308
279.455
279.715
280.172
280.841
281.711
278.7
278.616
278.583
278.6
278.68
278.847
279.138
279.636
280.429
281.451
278.496
278.417
278.387
278.408
278.494
278.666
278.955
279.445
280.295
281.411
278.445
278.365
278.331
278.342
278.415
278.566
278.83
279.295
280.175
281.338
278.373
278.288
278.246
278.244
278.297
278.419
278.651
279.077
279.957
281.134
278.365
278.278
278.23
278.219
278.257
278.352
278.549
278.927
279.778
280.931
278.325
278.23
278.176
278.155
278.179
278.249
278.413
278.737
279.535
280.647
278.344
278.247
278.195
278.179
278.206
278.272
278.416
278.694
279.419
280.44
278.36
278.256
278.198
278.174
278.189
278.24
278.358
278.589
279.233
280.174
279.125
279.033
279.011
279.053
279.156
279.309
279.528
279.833
280.427
281.093
279.823
279.724
279.689
279.709
279.787
279.933
280.163
280.509
281.008
281.632
279.167
279.07
279.034
279.058
279.149
279.323
279.613
280.069
280.776
281.705
278.948
278.85
278.814
278.838
278.934
279.122
279.439
279.954
280.825
282.039
278.866
278.763
278.723
278.74
278.828
279.007
279.325
279.869
280.875
282.34
278.764
278.656
278.608
278.613
278.686
278.846
279.151
279.698
280.801
282.472
278.73
278.618
278.564
278.561
278.621
278.76
279.044
279.575
280.737
282.56
278.667
278.548
278.488
278.476
278.523
278.641
278.899
279.402
280.589
282.526
278.666
278.546
278.487
278.478
278.526
278.639
278.88
279.349
280.524
282.521
278.666
278.541
278.478
278.462
278.503
278.603
278.821
279.249
280.386
282.463
279.398
279.285
279.249
279.282
279.387
279.561
279.846
280.313
281.395
283.39
280.162
280.076
280.046
280.066
280.134
280.254
280.433
280.674
280.979
281.318
279.535
279.442
279.41
279.436
279.524
279.684
279.93
280.283
280.768
281.317
279.327
279.226
279.191
279.219
279.317
279.5
279.793
280.235
280.891
281.683
279.233
279.123
279.082
279.106
279.204
279.394
279.713
280.218
281.038
282.087
279.115
278.996
278.949
278.964
279.055
279.238
279.566
280.109
281.07
282.36
279.063
278.939
278.885
278.894
278.976
279.149
279.474
280.035
281.108
282.608
278.982
278.852
278.793
278.793
278.865
279.025
279.339
279.902
281.056
282.737
278.966
278.833
278.775
278.777
278.85
279.007
279.312
279.865
281.063
282.881
278.95
278.816
278.754
278.751
278.818
278.966
279.26
279.792
280.994
282.961
279.65
279.526
279.483
279.515
279.626
279.824
280.161
280.722
281.895
283.894
280.392
280.325
280.302
280.317
280.368
280.454
280.573
280.722
280.891
281.058
279.812
279.734
279.707
279.729
279.803
279.931
280.117
280.363
280.664
280.959
279.633
279.54
279.508
279.534
279.624
279.783
280.026
280.364
280.812
281.28
279.544
279.437
279.398
279.423
279.52
279.699
279.984
280.402
281.006
281.681
279.425
279.305
279.259
279.279
279.375
279.561
279.873
280.352
281.103
281.994
279.365
279.237
279.185
279.2
279.293
279.48
279.806
280.328
281.211
282.31
279.275
279.14
279.082
279.091
279.178
279.359
279.69
280.238
281.233
282.527
279.248
279.109
279.051
279.061
279.15
279.332
279.666
280.226
281.298
282.761
279.221
279.081
279.02
279.027
279.111
279.288
279.619
280.182
281.295
282.938
279.889
279.758
279.71
279.74
279.855
280.066
280.426
281.014
282.127
283.866
280.545
280.495
280.479
280.489
280.523
280.58
280.655
280.743
280.836
280.925
280.015
279.955
279.934
279.951
280.007
280.101
280.232
280.394
280.574
280.734
279.872
279.794
279.766
279.789
279.863
279.991
280.177
280.419
280.71
280.983
279.799
279.702
279.667
279.691
279.778
279.933
280.169
280.491
280.91
281.329
279.688
279.576
279.533
279.555
279.647
279.82
280.094
280.485
281.036
281.62
279.629
279.505
279.456
279.475
279.57
279.753
280.055
280.504
281.181
281.938
279.538
279.404
279.35
279.364
279.458
279.644
279.963
280.455
281.249
282.18
279.504
279.367
279.311
279.326
279.423
279.614
279.947
280.468
281.353
282.447
279.471
279.331
279.272
279.285
279.38
279.57
279.907
280.448
281.394
282.664
280.107
279.975
279.925
279.955
280.07
280.283
280.641
281.207
282.173
283.558
280.645
280.609
280.598
280.604
280.626
280.66
280.705
280.755
280.806
280.857
280.161
280.117
280.102
280.114
280.154
280.219
280.306
280.409
280.514
280.602
280.054
279.992
279.97
279.987
280.045
280.142
280.277
280.443
280.626
280.785
280
279.918
279.888
279.909
279.982
280.109
280.293
280.529
280.809
281.067
279.905
279.806
279.768
279.789
279.872
280.021
280.247
280.552
280.939
281.316
279.853
279.74
279.696
279.716
279.806
279.973
280.234
280.6
281.097
281.607
279.766
279.641
279.591
279.608
279.701
279.878
280.166
280.584
281.188
281.838
279.733
279.601
279.549
279.568
279.665
279.852
280.161
280.618
281.312
282.101
279.694
279.56
279.506
279.522
279.619
279.809
280.129
280.615
281.377
282.317
280.301
280.174
280.124
280.152
280.263
280.469
280.806
281.318
282.111
283.156
280.71
280.684
280.676
280.68
280.693
280.713
280.739
280.767
280.796
280.828
280.265
280.236
280.225
280.233
280.259
280.302
280.358
280.421
280.483
280.532
280.19
280.144
280.127
280.14
280.182
280.252
280.346
280.456
280.569
280.662
280.155
280.09
280.066
280.082
280.14
280.238
280.375
280.542
280.726
280.885
280.079
279.996
279.964
279.982
280.052
280.175
280.353
280.58
280.846
281.087
280.039
279.94
279.902
279.921
280
280.144
280.36
280.646
281
281.339
279.959
279.847
279.803
279.821
279.906
280.065
280.312
280.65
281.095
281.542
279.93
279.811
279.763
279.783
279.875
280.047
280.318
280.7
281.226
281.782
279.89
279.765
279.716
279.735
279.828
280.006
280.293
280.708
281.298
281.973
280.468
280.35
280.303
280.329
280.433
280.623
280.925
281.365
281.99
282.748
280.754
280.733
280.728
280.73
280.737
280.749
280.764
280.779
280.796
280.819
280.341
280.321
280.314
280.319
280.336
280.363
280.398
280.436
280.472
280.5
280.291
280.258
280.246
280.255
280.285
280.333
280.396
280.467
280.537
280.592
280.272
280.223
280.204
280.217
280.26
280.333
280.431
280.546
280.665
280.763
280.216
280.149
280.124
280.138
280.194
280.29
280.425
280.589
280.768
280.922
280.188
280.106
280.074
280.091
280.158
280.276
280.446
280.661
280.909
281.132
280.118
280.022
279.984
280.001
280.076
280.211
280.413
280.678
280.998
281.3
280.097
279.992
279.951
279.97
280.052
280.203
280.431
280.737
281.124
281.509
280.056
279.945
279.902
279.92
280.006
280.165
280.41
280.75
281.193
281.665
280.606
280.501
280.459
280.482
280.575
280.744
281.004
281.366
281.843
282.375
280.782
280.765
280.761
280.762
280.766
280.773
280.781
280.79
280.8
280.818
280.396
280.384
280.379
280.382
280.393
280.41
280.431
280.453
280.475
280.491
280.367
280.345
280.337
280.342
280.362
280.394
280.435
280.48
280.523
280.556
280.36
280.324
280.31
280.319
280.35
280.402
280.47
280.547
280.624
280.684
280.321
280.27
280.25
280.261
280.304
280.376
280.475
280.59
280.709
280.807
280.306
280.24
280.215
280.228
280.282
280.375
280.505
280.662
280.832
280.978
280.246
280.166
280.135
280.149
280.212
280.322
280.481
280.681
280.907
281.109
280.234
280.146
280.111
280.128
280.199
280.325
280.509
280.746
281.025
281.286
280.193
280.098
280.061
280.078
280.153
280.288
280.49
280.758
281.082
281.405
280.717
280.626
280.589
280.61
280.69
280.834
281.049
281.337
281.69
282.054
280.799
280.785
280.782
280.783
280.785
280.789
280.793
280.798
280.804
280.82
280.438
280.431
280.427
280.429
280.436
280.446
280.458
280.472
280.484
280.494
280.425
280.41
280.405
280.409
280.422
280.442
280.468
280.496
280.522
280.542
280.424
280.399
280.389
280.395
280.417
280.453
280.499
280.55
280.598
280.635
280.401
280.363
280.348
280.357
280.388
280.441
280.51
280.589
280.668
280.729
280.396
280.346
280.326
280.337
280.378
280.449
280.544
280.656
280.771
280.865
280.345
280.281
280.257
280.268
280.318
280.405
280.526
280.673
280.83
280.963
280.345
280.273
280.245
280.26
280.318
280.419
280.562
280.74
280.936
281.111
280.302
280.224
280.193
280.208
280.271
280.381
280.542
280.745
280.977
281.195
280.8
280.725
280.694
280.711
280.778
280.897
281.068
281.289
281.543
281.787
280.809
280.796
280.794
280.794
280.795
280.797
280.8
280.803
280.807
280.82
280.47
280.466
280.463
280.464
280.468
280.474
280.482
280.49
280.497
280.504
280.47
280.461
280.458
280.46
280.468
280.481
280.497
280.514
280.53
280.541
280.472
280.454
280.448
280.452
280.466
280.49
280.52
280.553
280.584
280.607
280.461
280.434
280.424
280.43
280.452
280.489
280.536
280.59
280.64
280.679
280.465
280.428
280.413
280.421
280.452
280.503
280.571
280.649
280.726
280.786
280.42
280.371
280.352
280.362
280.4
280.466
280.555
280.659
280.766
280.854
280.433
280.377
280.355
280.366
280.412
280.49
280.598
280.727
280.863
280.979
280.387
280.324
280.3
280.312
280.362
280.45
280.572
280.723
280.885
281.029
280.858
280.799
280.773
280.787
280.841
280.935
281.067
281.231
281.41
281.569
280.812
280.8
280.799
280.799
280.8
280.801
280.802
280.804
280.807
280.819
280.495
280.492
280.49
280.491
280.493
280.497
280.501
280.506
280.511
280.515
280.507
280.501
280.499
280.501
280.506
280.514
280.524
280.534
280.543
280.55
280.506
280.495
280.49
280.492
280.502
280.517
280.537
280.558
280.577
280.592
280.506
280.487
280.48
280.484
280.5
280.525
280.557
280.592
280.624
280.648
280.516
280.489
280.478
280.484
280.506
280.543
280.59
280.643
280.693
280.732
280.476
280.44
280.425
280.432
280.461
280.509
280.572
280.645
280.717
280.774
280.501
280.459
280.443
280.452
280.486
280.545
280.623
280.715
280.807
280.882
280.45
280.402
280.383
280.392
280.431
280.497
280.588
280.696
280.808
280.902
280.894
280.849
280.829
280.84
280.882
280.953
281.052
281.17
281.293
281.395
280.81
280.799
280.798
280.798
280.799
280.799
280.8
280.801
280.803
280.814
280.513
280.511
280.51
280.51
280.511
280.513
280.516
280.519
280.522
280.525
280.538
280.535
280.533
280.534
280.537
280.542
280.548
280.554
280.559
280.563
280.53
280.523
280.52
280.521
280.527
280.537
280.55
280.563
280.575
280.584
280.54
280.527
280.523
280.525
280.536
280.552
280.573
280.595
280.616
280.63
280.553
280.534
280.527
280.531
280.546
280.571
280.603
280.638
280.671
280.695
280.516
280.49
280.48
280.485
280.505
280.539
280.583
280.632
280.679
280.716
280.555
280.525
280.512
280.519
280.544
280.587
280.642
280.705
280.766
280.814
280.495
280.458
280.444
280.451
280.48
280.529
280.594
280.669
280.744
280.805
280.911
280.879
280.864
280.872
280.903
280.956
281.027
281.109
281.192
281.255
280.804
280.794
280.793
280.793
280.793
280.794
280.794
280.795
280.796
280.806
280.525
280.523
280.522
280.522
280.523
280.525
280.526
280.528
280.531
280.533
280.565
280.563
280.563
280.563
280.565
280.568
280.571
280.574
280.577
280.579
280.547
280.542
280.54
280.541
280.545
280.551
280.559
280.567
280.575
280.58
280.564
280.557
280.554
280.555
280.562
280.573
280.586
280.6
280.613
280.621
280.579
280.567
280.562
280.564
280.575
280.591
280.612
280.635
280.656
280.671
280.544
280.526
280.519
280.522
280.536
280.559
280.589
280.621
280.652
280.675
280.597
280.576
280.567
280.572
280.59
280.619
280.657
280.699
280.739
280.769
280.523
280.497
280.487
280.492
280.513
280.547
280.592
280.643
280.692
280.731
280.915
280.892
280.881
280.887
280.909
280.947
280.996
281.052
281.107
281.145
280.796
280.787
280.787
280.787
280.787
280.787
280.787
280.787
280.789
280.797
280.53
280.529
280.528
280.528
280.529
280.53
280.531
280.532
280.534
280.537
280.589
280.588
280.588
280.589
280.59
280.591
280.593
280.595
280.596
280.597
280.558
280.555
280.553
280.554
280.556
280.56
280.565
280.57
280.574
280.578
280.582
280.577
280.575
280.577
280.581
280.587
280.596
280.604
280.612
280.617
280.596
280.588
280.585
280.587
280.593
280.604
280.618
280.632
280.645
280.654
280.562
280.55
280.546
280.548
280.557
280.573
280.592
280.613
280.632
280.646
280.63
280.616
280.611
280.614
280.626
280.646
280.671
280.698
280.724
280.742
280.539
280.52
280.513
280.517
280.531
280.554
280.584
280.618
280.649
280.674
280.909
280.894
280.886
280.89
280.906
280.931
280.965
281.001
281.037
281.059
280.792
280.785
280.785
280.784
280.784
280.785
280.785
280.785
280.785
280.793
280.528
280.527
280.526
280.526
280.526
280.527
280.528
280.529
280.531
280.533
280.611
280.611
280.611
280.611
280.612
280.613
280.614
280.615
280.615
280.615
280.564
280.562
280.561
280.561
280.563
280.565
280.568
280.571
280.573
280.575
280.593
280.59
280.589
280.59
280.592
280.596
280.601
280.606
280.611
280.614
280.605
280.6
280.598
280.599
280.603
280.61
280.618
280.627
280.636
280.641
280.573
280.566
280.563
280.565
280.571
280.58
280.593
280.605
280.617
280.626
280.655
280.646
280.642
280.645
280.652
280.665
280.682
280.699
280.716
280.726
280.541
280.528
280.524
280.526
280.535
280.551
280.57
280.591
280.611
280.627
280.902
280.892
280.887
280.89
280.9
280.917
280.939
280.963
280.985
280.997
280.806
280.801
280.8
280.8
280.8
280.8
280.8
280.8
280.8
280.806
280.513
280.512
280.511
280.511
280.512
280.512
280.513
280.514
280.515
280.518
280.628
280.628
280.628
280.628
280.628
280.629
280.629
280.63
280.63
280.63
280.565
280.564
280.564
280.564
280.565
280.567
280.568
280.57
280.571
280.572
280.597
280.595
280.594
280.595
280.596
280.599
280.602
280.605
280.608
280.609
280.606
280.603
280.601
280.602
280.604
280.609
280.614
280.619
280.625
280.628
280.578
280.574
280.572
280.573
280.577
280.583
280.59
280.598
280.605
280.609
280.667
280.661
280.658
280.66
280.665
280.673
280.684
280.695
280.706
280.713
280.527
280.518
280.516
280.517
280.523
280.533
280.545
280.559
280.57
280.581
280.908
280.903
280.899
280.901
280.907
280.918
280.933
280.947
280.962
280.968
280.857
280.853
280.853
280.853
280.853
280.853
280.853
280.853
280.853
280.857
280.478
280.477
280.477
280.478
280.478
280.478
280.478
280.478
280.479
280.482
280.632
280.631
280.631
280.63
280.63
280.631
280.632
280.633
280.634
280.634
280.565
280.565
280.565
280.565
280.566
280.567
280.567
280.568
280.568
280.568
280.596
280.594
280.594
280.594
280.595
280.596
280.598
280.6
280.602
280.603
280.601
280.598
280.598
280.598
280.6
280.602
280.606
280.609
280.613
280.615
280.577
280.575
280.574
280.575
280.578
280.581
280.586
280.591
280.594
280.596
280.657
280.652
280.65
280.65
280.654
280.659
280.666
280.674
280.682
280.687
280.488
280.484
280.482
280.484
280.488
280.494
280.502
280.51
280.516
280.522
280.945
280.941
280.938
280.939
280.944
280.951
280.961
280.97
280.981
280.983
280.939
280.936
280.935
280.935
280.935
280.935
280.935
280.936
280.937
280.94
280.42
280.422
280.423
280.425
280.425
280.425
280.424
280.423
280.421
280.42
280.62
280.618
280.617
280.616
280.616
280.616
280.617
280.619
280.621
280.623
280.565
280.566
280.566
280.566
280.567
280.567
280.568
280.568
280.567
280.566
280.592
280.591
280.59
280.59
280.591
280.592
280.593
280.595
280.596
280.597
280.594
280.593
280.592
280.592
280.593
280.595
280.598
280.6
280.603
280.604
280.575
280.574
280.574
280.574
280.576
280.579
280.582
280.585
280.587
280.588
280.624
280.62
280.618
280.618
280.621
280.625
280.63
280.636
280.642
280.648
280.428
280.426
280.425
280.426
280.43
280.434
280.44
280.445
280.448
280.448
281.003
281
280.998
280.999
281.002
281.008
281.014
281.022
281.029
281.032
289.479
291.236
291.501
289.912
290.644
292.774
293.184
291.524
292.304
294.93
295.464
293.493
293.584
296.65
297.318
295.137
294.526
298.003
298.812
296.49
295.273
299.128
300.097
297.906
295.818
300.033
301.194
299.328
296.288
300.828
302.194
300.706
296.502
301.342
302.922
301.858
297.061
302.09
303.937
303.457
286.166
286.713
286.694
286.17
287.464
288.107
288.046
287.393
289.068
289.872
289.76
288.902
290.507
291.457
291.287
290.236
291.683
292.774
292.538
291.303
292.704
293.933
293.673
292.28
293.51
294.869
294.621
293.094
294.205
295.67
295.444
293.807
294.643
296.172
295.975
294.272
295.427
296.93
296.843
295.195
282.258
282.392
282.423
282.354
282.989
283.207
283.247
283.11
284.155
284.494
284.538
284.288
285.423
285.881
285.921
285.541
286.586
287.159
287.187
286.665
287.721
288.407
288.42
287.76
288.712
289.507
289.507
288.723
289.65
290.538
290.529
289.64
290.409
291.337
291.327
290.387
291.652
292.509
292.539
291.676
281.49
281.557
281.578
281.556
281.751
281.837
281.867
281.844
282.46
282.609
282.651
282.597
283.337
283.558
283.61
283.509
284.178
284.477
284.534
284.371
285.068
285.448
285.506
285.269
285.886
286.347
286.404
286.085
286.723
287.256
287.308
286.907
287.478
288.044
288.092
287.637
288.822
289.314
289.375
288.963
281.059
281.096
281.108
281.096
281.1
281.13
281.144
281.143
281.551
281.609
281.634
281.63
282.162
282.261
282.3
282.284
282.758
282.907
282.958
282.92
283.426
283.631
283.692
283.623
284.051
284.316
284.384
284.275
284.726
285.046
285.118
284.961
285.363
285.713
285.783
285.586
286.615
286.894
286.97
286.809
280.89
280.919
280.928
280.917
280.795
280.808
280.815
280.815
281.101
281.127
281.14
281.141
281.542
281.588
281.611
281.611
281.969
282.044
282.078
282.074
282.469
282.578
282.624
282.612
282.935
283.083
283.14
283.113
283.458
283.646
283.71
283.662
283.961
284.171
284.236
284.166
285.082
285.225
285.293
285.262
280.808
280.835
280.843
280.831
280.629
280.635
280.639
280.639
280.84
280.853
280.859
280.86
281.169
281.192
281.205
281.207
281.487
281.525
281.545
281.548
281.872
281.93
281.96
281.962
282.224
282.306
282.345
282.345
282.631
282.738
282.785
282.777
283.011
283.134
283.184
283.166
284.007
284.065
284.117
284.143
280.775
280.801
280.808
280.796
280.546
280.55
280.551
280.551
280.691
280.698
280.701
280.702
280.938
280.95
280.957
280.959
281.177
281.198
281.209
281.212
281.48
281.512
281.529
281.533
281.75
281.795
281.82
281.825
282.069
282.13
282.161
282.164
282.348
282.421
282.456
282.455
283.242
283.247
283.282
283.328
280.763
280.789
280.796
280.784
280.508
280.51
280.511
280.511
280.608
280.611
280.613
280.614
280.792
280.799
280.803
280.804
280.972
280.983
280.99
280.992
281.21
281.228
281.239
281.242
281.416
281.442
281.457
281.462
281.668
281.704
281.724
281.728
281.873
281.916
281.939
281.943
282.679
282.653
282.675
282.726
280.762
280.787
280.794
280.782
280.496
280.497
280.498
280.498
280.565
280.567
280.568
280.568
280.701
280.705
280.707
280.708
280.836
280.842
280.846
280.847
281.023
281.033
281.04
281.042
281.177
281.192
281.201
281.204
281.378
281.398
281.411
281.414
281.525
281.55
281.565
281.569
282.256
282.212
282.225
282.276
280.764
280.789
280.796
280.784
280.497
280.498
280.499
280.499
280.547
280.548
280.549
280.549
280.646
280.648
280.65
280.65
280.747
280.75
280.753
280.753
280.893
280.899
280.902
280.904
281.004
281.013
281.018
281.021
281.165
281.178
281.185
281.188
281.267
281.282
281.291
281.294
281.931
281.879
281.886
281.934
280.765
280.791
280.797
280.785
280.506
280.506
280.507
280.507
280.545
280.545
280.546
280.546
280.614
280.615
280.616
280.616
280.689
280.692
280.693
280.693
280.803
280.806
280.809
280.81
280.879
280.884
280.888
280.889
281.011
281.018
281.023
281.025
281.075
281.084
281.089
281.091
281.679
281.624
281.627
281.672
280.765
280.79
280.797
280.785
280.516
280.517
280.517
280.517
280.551
280.552
280.552
280.552
280.596
280.597
280.597
280.597
280.654
280.655
280.656
280.657
280.742
280.744
280.745
280.746
280.789
280.793
280.795
280.796
280.901
280.905
280.908
280.91
280.931
280.937
280.94
280.942
281.482
281.427
281.428
281.469
280.761
280.787
280.794
280.782
280.527
280.527
280.528
280.528
280.564
280.564
280.564
280.564
280.586
280.587
280.587
280.588
280.634
280.634
280.635
280.635
280.701
280.702
280.703
280.703
280.726
280.728
280.729
280.73
280.825
280.827
280.829
280.83
280.825
280.828
280.83
280.831
281.327
281.274
281.274
281.311
280.756
280.782
280.788
280.776
280.534
280.535
280.535
280.535
280.579
280.579
280.579
280.579
280.582
280.582
280.582
280.583
280.623
280.623
280.623
280.623
280.674
280.675
280.675
280.676
280.681
280.682
280.683
280.683
280.775
280.776
280.778
280.778
280.745
280.747
280.748
280.749
281.204
281.154
281.154
281.188
280.749
280.775
280.781
280.769
280.538
280.539
280.539
280.539
280.596
280.596
280.596
280.596
280.579
280.579
280.579
280.579
280.617
280.617
280.617
280.617
280.656
280.656
280.656
280.657
280.649
280.65
280.65
280.651
280.745
280.746
280.746
280.747
280.685
280.686
280.687
280.687
281.106
281.063
281.062
281.091
280.748
280.774
280.78
280.767
280.535
280.536
280.536
280.536
280.614
280.614
280.613
280.613
280.576
280.576
280.576
280.576
280.613
280.613
280.613
280.614
280.642
280.642
280.642
280.642
280.627
280.627
280.627
280.627
280.728
280.728
280.728
280.729
280.635
280.636
280.637
280.637
281.034
280.998
280.997
281.022
280.767
280.791
280.796
280.783
280.521
280.522
280.522
280.522
280.629
280.628
280.628
280.628
280.571
280.571
280.571
280.571
280.609
280.609
280.609
280.609
280.629
280.629
280.629
280.629
280.609
280.609
280.609
280.609
280.714
280.714
280.715
280.715
280.587
280.588
280.588
280.588
280.995
280.967
280.967
280.986
280.825
280.847
280.85
280.838
280.485
280.486
280.486
280.486
280.634
280.634
280.634
280.635
280.567
280.566
280.566
280.566
280.603
280.603
280.603
280.603
280.615
280.615
280.616
280.616
280.594
280.594
280.594
280.594
280.692
280.693
280.693
280.693
280.526
280.526
280.526
280.526
281.003
280.985
280.985
280.997
280.922
280.935
280.937
280.929
280.421
280.421
280.421
280.42
280.627
280.627
280.628
280.628
280.564
280.563
280.563
280.563
280.597
280.597
280.597
280.598
280.605
280.605
280.605
280.605
280.585
280.585
280.584
280.585
280.658
280.66
280.661
280.66
280.443
280.442
280.441
280.441
281.049
281.044
281.045
281.047
282.188
280.888
280.345
279.998
279.703
279.461
279.269
279.118
278.996
278.892
282.336
281.096
280.262
279.738
279.321
279.013
278.786
278.615
278.486
278.381
282.91
281.604
280.474
279.834
279.334
278.987
278.733
278.542
278.398
278.284
283.506
282.14
280.742
280.039
279.474
279.103
278.829
278.624
278.468
278.342
283.985
282.597
280.953
280.2
279.575
279.185
278.892
278.675
278.509
278.375
284.536
283.091
281.225
280.436
279.752
279.343
279.03
278.798
278.616
278.465
285.02
283.493
281.428
280.616
279.875
279.453
279.118
278.872
278.676
278.515
285.587
283.984
281.733
280.905
280.105
279.666
279.302
279.031
278.808
278.614
286.037
284.376
281.947
281.143
280.308
279.865
279.465
279.165
278.913
278.694
287.769
286.107
283.522
282.665
281.705
281.136
280.612
280.208
279.872
279.577
283.984
282.675
281.687
280.975
280.481
280.135
279.884
279.697
279.551
279.43
284.433
282.647
281.316
280.456
279.903
279.525
279.256
279.06
278.917
278.81
285.029
282.836
281.249
280.319
279.724
279.327
279.047
278.846
278.703
278.6
285.518
283.023
281.244
280.291
279.67
279.267
278.986
278.786
278.646
278.546
285.786
283.081
281.172
280.213
279.571
279.17
278.892
278.699
278.564
278.47
285.987
283.153
281.152
280.205
279.547
279.153
278.879
278.691
278.559
278.464
286.033
283.136
281.064
280.147
279.477
279.097
278.827
278.645
278.516
278.424
286.091
283.196
281.069
280.195
279.513
279.147
278.876
278.693
278.556
278.453
286.05
283.186
281.012
280.218
279.552
279.215
278.937
278.746
278.598
278.482
286.959
284.247
282.077
281.335
280.619
280.227
279.879
279.633
279.439
279.294
282.118
281.738
281.368
281.038
280.756
280.519
280.322
280.158
280.022
279.903
282.581
281.899
281.281
280.769
280.356
280.028
279.771
279.57
279.414
279.295
283.354
282.338
281.471
280.803
280.287
279.895
279.597
279.372
279.202
279.078
284.124
282.786
281.686
280.89
280.294
279.86
279.539
279.301
279.126
278.998
284.7
283.079
281.778
280.885
280.231
279.771
279.439
279.197
279.021
278.895
285.21
283.351
281.879
280.917
280.221
279.747
279.41
279.168
278.991
278.863
285.558
283.505
281.888
280.883
280.157
279.68
279.342
279.102
278.927
278.8
285.881
283.684
281.949
280.925
280.179
279.706
279.366
279.125
278.944
278.809
286.087
283.772
281.937
280.934
280.197
279.743
279.399
279.152
278.963
278.818
287.075
284.756
282.883
281.903
281.136
280.646
280.257
279.972
279.752
279.591
281.512
281.365
281.187
281.007
280.836
280.681
280.544
280.424
280.317
280.22
281.721
281.431
281.101
280.785
280.504
280.264
280.063
279.897
279.761
279.654
282.35
281.865
281.355
280.9
280.516
280.2
279.945
279.741
279.581
279.458
283.084
282.367
281.66
281.069
280.591
280.213
279.917
279.686
279.508
279.375
283.712
282.752
281.853
281.141
280.584
280.159
279.834
279.587
279.4
279.261
284.329
283.129
282.05
281.236
280.614
280.155
279.811
279.553
279.359
279.214
284.819
283.392
282.148
281.252
280.58
280.098
279.743
279.48
279.282
279.136
285.293
283.663
282.274
281.32
280.612
280.119
279.754
279.486
279.281
279.128
285.663
283.842
282.328
281.352
280.632
280.14
279.769
279.494
279.282
279.121
286.709
284.785
283.212
282.228
281.48
280.961
280.559
280.257
280.025
279.858
281.104
281.057
280.986
280.902
280.814
280.727
280.644
280.567
280.494
280.423
281.115
281
280.845
280.677
280.512
280.358
280.22
280.098
279.995
279.91
281.569
281.361
281.098
280.828
280.576
280.351
280.157
279.993
279.859
279.752
282.163
281.825
281.427
281.044
280.702
280.41
280.167
279.967
279.807
279.682
282.709
282.215
281.67
281.174
280.749
280.399
280.115
279.889
279.71
279.573
283.289
282.624
281.927
281.325
280.825
280.426
280.111
279.864
279.671
279.523
283.784
282.938
282.092
281.394
280.831
280.395
280.057
279.796
279.593
279.439
284.286
283.263
282.276
281.5
280.887
280.424
280.068
279.795
279.582
279.421
284.704
283.499
282.387
281.56
280.917
280.441
280.073
279.791
279.571
279.402
285.742
284.415
283.231
282.372
281.699
281.198
280.807
280.506
280.272
280.103
280.932
280.914
280.881
280.84
280.794
280.745
280.697
280.65
280.602
280.551
280.804
280.752
280.675
280.585
280.489
280.395
280.305
280.222
280.149
280.087
281.119
281.022
280.883
280.726
280.568
280.417
280.28
280.159
280.055
279.97
281.571
281.406
281.184
280.946
280.716
280.505
280.319
280.16
280.027
279.92
282.003
281.75
281.427
281.1
280.796
280.528
280.299
280.107
279.95
279.826
282.493
282.134
281.7
281.282
280.906
280.586
280.318
280.099
279.922
279.782
282.928
282.447
281.896
281.388
280.947
280.581
280.283
280.043
279.85
279.701
283.391
282.779
282.111
281.523
281.026
280.624
280.301
280.043
279.838
279.678
283.785
283.031
282.254
281.605
281.068
280.643
280.302
280.033
279.819
279.652
284.769
283.91
283.063
282.371
281.802
281.352
280.992
280.708
280.483
280.319
280.849
280.842
280.827
280.807
280.782
280.756
280.729
280.701
280.671
280.634
280.634
280.609
280.57
280.522
280.467
280.41
280.354
280.301
280.253
280.211
280.851
280.802
280.728
280.638
280.542
280.445
280.352
280.268
280.193
280.129
281.191
281.107
280.982
280.837
280.688
280.543
280.409
280.29
280.186
280.1
281.521
281.388
281.2
280.991
280.782
280.588
280.413
280.26
280.13
280.025
281.918
281.723
281.459
281.179
280.91
280.666
280.452
280.269
280.116
279.993
282.274
282.004
281.656
281.303
280.973
280.683
280.435
280.227
280.055
279.918
282.668
282.312
281.876
281.452
281.069
280.74
280.463
280.234
280.046
279.898
283.003
282.548
282.028
281.546
281.121
280.763
280.466
280.223
280.025
279.868
283.909
283.379
282.799
282.274
281.816
281.435
281.119
280.862
280.655
280.503
280.814
280.813
280.806
280.795
280.782
280.768
280.752
280.736
280.716
280.689
280.549
280.536
280.515
280.488
280.457
280.423
280.389
280.356
280.325
280.298
280.697
280.671
280.63
280.578
280.519
280.458
280.398
280.341
280.289
280.244
280.951
280.905
280.834
280.747
280.651
280.555
280.461
280.375
280.298
280.233
281.199
281.127
281.016
280.884
280.745
280.608
280.48
280.364
280.262
280.178
281.514
281.406
281.246
281.063
280.875
280.697
280.533
280.388
280.262
280.159
281.795
281.642
281.424
281.185
280.948
280.727
280.53
280.359
280.213
280.094
282.118
281.911
281.631
281.336
281.052
280.794
280.568
280.374
280.211
280.08
282.384
282.115
281.775
281.43
281.107
280.821
280.573
280.364
280.189
280.049
283.207
282.889
282.503
282.12
281.768
281.459
281.194
280.973
280.79
280.654
280.803
280.803
280.8
280.794
280.787
280.78
280.771
280.761
280.748
280.726
280.509
280.503
280.491
280.476
280.458
280.438
280.418
280.398
280.379
280.361
280.611
280.596
280.573
280.542
280.507
280.469
280.431
280.394
280.359
280.329
280.799
280.774
280.732
280.679
280.619
280.556
280.493
280.433
280.378
280.33
280.985
280.944
280.878
280.795
280.703
280.609
280.518
280.434
280.357
280.293
281.233
281.17
281.073
280.954
280.827
280.699
280.578
280.467
280.369
280.286
281.448
281.359
281.223
281.064
280.897
280.735
280.584
280.449
280.33
280.232
281.707
281.586
281.408
281.207
281.002
280.808
280.63
280.473
280.338
280.226
281.91
281.751
281.532
281.292
281.055
280.834
280.636
280.464
280.316
280.195
282.654
282.466
282.213
281.943