/*--------------------------------*- C++ -*----------------------------------*\
| =========                 |                                                 |
| \\      /  F ield         | foam-extend: Open Source CFD                    |
|  \\    /   O peration     | Version:     4.0                                |
|   \\  /    A nd           | Web:         http://www.foam-extend.org         |
|    \\/     M anipulation  |                                                 |
\*---------------------------------------------------------------------------*/
FoamFile
{
    version     2.0;
    format      ascii;
    class       volVectorField;
    location    "1400";
    object      U;
}
// * * * * * * * * * * * * * * * * * * * * * * * * * * * * * * * * * * * * * //

dimensions      [0 1 -1 0 0 0 0];

internalField   nonuniform List<vector> 
34480
(
(208.971 2.16258 3.26546)
(209.292 1.19549 1.52855)
(209.45 0.40959 -0.268854)
(209.457 -0.214562 -2.17215)
(209.308 -0.709329 -4.32184)
(208.967 -1.0709 -6.89523)
(208.352 -1.27286 -10.2939)
(207.187 -1.19219 -14.8632)
(204.516 -0.593302 -22.7736)
(197.577 1.97797 -50.036)
(209.898 3.0685 2.88165)
(210.16 2.24685 1.06133)
(210.288 1.52189 -0.763422)
(210.262 0.887737 -2.66275)
(210.028 0.316195 -4.75682)
(209.525 -0.203841 -7.25533)
(208.718 -0.682513 -10.6197)
(207.426 -1.05674 -15.5931)
(204.288 -1.15556 -24.3978)
(196.126 0.629936 -55.09)
(210.58 2.70085 3.30067)
(210.818 1.82056 1.41777)
(210.913 1.04556 -0.487664)
(210.844 0.391846 -2.43257)
(210.549 -0.185989 -4.548)
(210.022 -0.711266 -7.09364)
(209.272 -1.20048 -10.6001)
(208.129 -1.5727 -16.0978)
(204.829 -1.64922 -25.7774)
(195.619 0.349533 -59.4464)
(210.58 3.24357 3.25465)
(210.818 2.41121 1.31595)
(210.93 1.66797 -0.622249)
(210.894 1.04437 -2.59508)
(210.662 0.496249 -4.74163)
(210.249 -0.000577039 -7.35148)
(209.635 -0.465449 -10.9583)
(208.657 -0.806061 -16.8127)
(205.333 -0.835361 -27.1134)
(195.322 1.31157 -62.7226)
(210.729 2.7104 3.76384)
(210.997 1.80432 1.78648)
(211.148 1.01033 -0.231165)
(211.175 0.361556 -2.27928)
(211.036 -0.203123 -4.52273)
(210.759 -0.705737 -7.26359)
(210.294 -1.15771 -11.0328)
(209.501 -1.45378 -17.2684)
(206.277 -1.39784 -28.2339)
(195.625 0.913236 -65.3953)
(210.603 3.40351 3.54085)
(210.884 2.51349 1.56565)
(211.056 1.73532 -0.413179)
(211.119 1.10674 -2.43026)
(211.047 0.577531 -4.64358)
(210.888 0.122222 -7.38024)
(210.577 -0.270197 -11.1556)
(209.999 -0.494884 -17.58)
(207.023 -0.333171 -29.0272)
(195.974 2.07645 -67.3693)
(210.676 2.57235 4.05669)
(210.998 1.58712 2.08045)
(211.199 0.73442 0.0595574)
(211.301 0.0443228 -1.9892)
(211.289 -0.538984 -4.25362)
(211.228 -1.03237 -7.06256)
(211.057 -1.42042 -10.9355)
(210.696 -1.57968 -17.6051)
(208.053 -1.21848 -29.6268)
(196.711 1.48324 -68.9938)
(210.498 3.35459 3.58403)
(210.825 2.35652 1.63994)
(211.007 1.5224 -0.301246)
(211.068 0.858701 -2.28402)
(211.015 0.33335 -4.45974)
(210.935 -0.0891579 -7.16274)
(210.81 -0.38387 -10.8964)
(210.606 -0.420836 -17.4833)
(208.372 0.245388 -29.6894)
(197.067 3.3126 -69.5921)
(210.441 2.04397 4.12976)
(210.813 0.928268 2.2391)
(211.025 -0.0295283 0.322502)
(211.124 -0.844991 -1.63639)
(211.121 -1.54967 -3.83055)
(211.086 -2.1493 -6.57088)
(211.028 -2.56314 -10.3961)
(210.964 -2.61406 -17.0982)
(209.06 -1.55846 -29.672)
(197.642 2.45954 -69.5448)
(209.477 2.79357 3.54397)
(209.759 1.57561 1.61184)
(209.712 0.620544 -0.299471)
(209.357 -0.166663 -2.26755)
(208.742 -0.773713 -4.4274)
(207.959 -1.2153 -7.06515)
(207.092 -1.39945 -10.6575)
(206.31 -1.10881 -16.8101)
(204.381 0.416103 -28.5285)
(194.21 5.28196 -66.4994)
(205.857 1.90743 3.00364)
(206.335 1.10495 1.54732)
(206.523 0.421836 -0.00653752)
(206.44 -0.122114 -1.60672)
(206.063 -0.551218 -3.31667)
(205.301 -0.865989 -5.14878)
(203.955 -1.0705 -7.1568)
(201.59 -1.17623 -9.31572)
(198.124 -1.26101 -11.2442)
(193.547 -1.16228 -14.3934)
(207.149 2.85601 2.8045)
(207.582 2.15144 1.16887)
(207.755 1.50673 -0.485563)
(207.667 0.931535 -2.18286)
(207.256 0.404502 -3.99061)
(206.401 -0.0804558 -5.96668)
(204.908 -0.538507 -8.20419)
(202.323 -1.00447 -10.9544)
(198.152 -1.59426 -14.0038)
(192.465 -1.83216 -20.58)
(208.09 2.56124 3.31742)
(208.502 1.75488 1.55562)
(208.661 1.02861 -0.246496)
(208.563 0.407043 -2.08076)
(208.127 -0.148593 -4.02126)
(207.254 -0.650927 -6.1518)
(205.77 -1.12931 -8.66124)
(203.193 -1.60046 -12.0818)
(198.649 -2.171 -16.3298)
(192.029 -2.08265 -26.7161)
(208.326 3.16031 3.31743)
(208.744 2.38595 1.47043)
(208.925 1.67752 -0.390099)
(208.868 1.07201 -2.28493)
(208.497 0.530796 -4.29929)
(207.726 0.0420375 -6.55972)
(206.356 -0.427474 -9.2919)
(203.874 -0.870582 -13.2533)
(199.102 -1.37875 -18.4739)
(191.671 -0.946626 -32.4561)
(208.669 2.65182 3.85478)
(209.115 1.79293 1.9524)
(209.335 1.0267 -0.00488509)
(209.345 0.393696 -1.99465)
(209.066 -0.161332 -4.13376)
(208.433 -0.649769 -6.57623)
(207.214 -1.10649 -9.56407)
(204.894 -1.50268 -14.0573)
(200.046 -1.91637 -20.2286)
(191.909 -1.08513 -37.6975)
(208.694 3.37954 3.65201)
(209.156 2.52827 1.73771)
(209.403 1.77109 -0.190246)
(209.456 1.15149 -2.16067)
(209.252 0.622913 -4.28454)
(208.747 0.170878 -6.76204)
(207.694 -0.235894 -9.83464)
(205.597 -0.559868 -14.6564)
(200.837 -0.841923 -21.5455)
(192.177 0.354878 -42.2164)
(208.89 2.55815 4.17753)
(209.388 1.60785 2.25502)
(209.668 0.778248 0.275432)
(209.767 0.105896 -1.73477)
(209.631 -0.459187 -3.92268)
(209.242 -0.928572 -6.50457)
(208.352 -1.31868 -9.73526)
(206.499 -1.57682 -14.9114)
(201.947 -1.66446 -22.565)
(192.866 -0.0049634 -46.2523)
(208.799 3.37079 3.7117)
(209.307 2.40656 1.8195)
(209.576 1.59462 -0.0731917)
(209.65 0.946589 -2.0107)
(209.498 0.436355 -4.10812)
(209.129 0.0319434 -6.61219)
(208.333 -0.269487 -9.7722)
(206.702 -0.423829 -14.9985)
(202.48 -0.21293 -23.0491)
(193.273 1.83209 -49.2248)
(208.809 2.05772 4.25892)
(209.349 0.979351 2.41597)
(209.646 0.0672625 0.539189)
(209.756 -0.688877 -1.36581)
(209.66 -1.31932 -3.46997)
(209.366 -1.83639 -6.02095)
(208.691 -2.19201 -9.32682)
(207.287 -2.32351 -14.7867)
(203.405 -1.74303 -23.4841)
(193.948 1.0038 -51.5048)
(207.886 2.86906 3.6487)
(208.37 1.69791 1.80186)
(208.493 0.800083 -0.0230119)
(208.284 0.0704142 -1.89498)
(207.759 -0.472525 -3.92045)
(206.954 -0.854714 -6.34533)
(205.757 -1.01285 -9.46174)
(203.959 -0.831916 -14.557)
(200.226 0.222699 -23.0328)
(191.593 4.0391 -51.3502)
(203.481 1.42283 2.3374)
(203.985 0.828519 1.2195)
(204.167 0.297476 -0.0101783)
(204.063 -0.136796 -1.2605)
(203.663 -0.487391 -2.55202)
(202.916 -0.751715 -3.83027)
(201.731 -0.939543 -5.04743)
(199.956 -1.07639 -6.05387)
(197.401 -1.2476 -6.49836)
(194.182 -1.43633 -6.51758)
(204.87 2.40201 2.31983)
(205.367 1.85939 0.953016)
(205.548 1.33319 -0.442417)
(205.425 0.842789 -1.85998)
(204.962 0.377942 -3.32624)
(204.074 -0.0667356 -4.8438)
(202.601 -0.504582 -6.37624)
(200.272 -0.967099 -7.86052)
(196.647 -1.56544 -8.80099)
(191.802 -2.14538 -9.81082)
(205.897 2.19648 2.95802)
(206.399 1.51293 1.40575)
(206.581 0.874994 -0.199179)
(206.457 0.311972 -1.82945)
(205.97 -0.208361 -3.53125)
(205.018 -0.696005 -5.32136)
(203.402 -1.17571 -7.20957)
(200.758 -1.67769 -9.28859)
(196.255 -2.34589 -11.0012)
(189.81 -2.92255 -13.5852)
(206.286 2.88028 3.00723)
(206.811 2.20369 1.33135)
(207.018 1.56337 -0.368659)
(206.93 0.998785 -2.10146)
(206.481 0.476325 -3.93088)
(205.567 -0.0138523 -5.91529)
(203.936 -0.503699 -8.10054)
(201.124 -1.01059 -10.7369)
(195.886 -1.69562 -13.1998)
(187.949 -2.17887 -17.5623)
(206.778 2.41071 3.58394)
(207.335 1.63465 1.82069)
(207.58 0.925917 -0.00548051)
(207.549 0.326147 -1.86485)
(207.171 -0.215117 -3.85862)
(206.346 -0.706434 -6.07743)
(204.775 -1.18325 -8.59594)
(201.919 -1.65164 -11.8279)
(196.135 -2.29965 -15.1298)
(186.879 -2.58941 -21.5776)
(206.934 3.18723 3.4059)
(207.511 2.40493 1.61003)
(207.784 1.69573 -0.207493)
(207.795 1.10305 -2.07103)
(207.48 0.582437 -4.08067)
(206.754 0.121547 -6.37808)
(205.283 -0.315075 -9.05591)
(202.486 -0.726974 -12.7106)
(196.357 -1.28792 -16.715)
(186.012 -1.34948 -25.3409)
(207.243 2.38194 3.95462)
(207.853 1.49477 2.13247)
(208.156 0.712159 0.246059)
(208.214 0.0704186 -1.67619)
(207.962 -0.478674 -3.77371)
(207.335 -0.943382 -6.21142)
(205.983 -1.34602 -9.1142)
(203.307 -1.67741 -13.2276)
(197.004 -2.07651 -18.0271)
(185.732 -1.8051 -28.9653)
(207.245 3.23213 3.49322)
(207.863 2.32912 1.69798)
(208.161 1.56211 -0.104017)
(208.202 0.944391 -1.95781)
(207.942 0.449604 -3.9738)
(207.343 0.0515687 -6.35809)
(206.077 -0.262465 -9.25307)
(203.554 -0.492951 -13.5495)
(197.267 -0.625131 -18.8713)
(185.336 -0.072104 -31.8822)
(207.334 1.90511 4.04504)
(207.971 0.888792 2.28756)
(208.291 0.0355954 0.484635)
(208.36 -0.660856 -1.35081)
(208.142 -1.23218 -3.37821)
(207.605 -1.68853 -5.80688)
(206.45 -1.99442 -8.86948)
(204.121 -2.12839 -13.5101)
(197.969 -1.86175 -19.6407)
(185.254 -0.798468 -34.2735)
(206.477 2.77401 3.40257)
(207.062 1.68078 1.67465)
(207.252 0.853893 -0.0421449)
(207.084 0.189622 -1.81506)
(206.55 -0.292216 -3.74001)
(205.642 -0.614607 -6.03071)
(204.129 -0.726162 -8.91578)
(201.563 -0.547003 -13.3008)
(195.548 0.218079 -19.5448)
(182.777 2.30198 -34.7028)
(201.743 0.943901 1.7048)
(202.181 0.542517 0.914456)
(202.332 0.16043 0.0107265)
(202.233 -0.163075 -0.893857)
(201.885 -0.433796 -1.79789)
(201.27 -0.646358 -2.61977)
(200.359 -0.812999 -3.2945)
(199.125 -0.957219 -3.68669)
(197.565 -1.13439 -3.58066)
(195.833 -1.36951 -2.75375)
(203.058 1.89576 1.79788)
(203.527 1.51997 0.724744)
(203.691 1.12284 -0.381709)
(203.561 0.729972 -1.4918)
(203.113 0.342442 -2.59717)
(202.304 -0.0425881 -3.66731)
(201.055 -0.435788 -4.62618)
(199.261 -0.859503 -5.3455)
(196.794 -1.38169 -5.40257)
(193.991 -1.94702 -4.62052)
(204.039 1.74545 2.51301)
(204.552 1.20516 1.21569)
(204.729 0.675492 -0.142038)
(204.588 0.19022 -1.51027)
(204.089 -0.274282 -2.9056)
(203.161 -0.726401 -4.30819)
(201.671 -1.18554 -5.65154)
(199.422 -1.67798 -6.84431)
(196.066 -2.30902 -7.29972)
(191.982 -3.00247 -6.92604)
(204.492 2.51123 2.59918)
(205.05 1.95676 1.14388)
(205.257 1.40568 -0.343557)
(205.136 0.901337 -1.85154)
(204.637 0.418412 -3.4156)
(203.671 -0.0524686 -5.05002)
(202.045 -0.540411 -6.70894)
(199.458 -1.06776 -8.37732)
(195.241 -1.77341 -9.29405)
(189.774 -2.53767 -9.54443)
(205.068 2.08652 3.21652)
(205.672 1.41773 1.63908)
(205.913 0.786344 -0.00738141)
(205.835 0.236346 -1.67634)
(205.371 -0.27477 -3.44231)
(204.43 -0.754984 -5.34897)
(202.755 -1.23718 -7.37687)
(199.953 -1.74072 -9.60913)
(194.986 -2.45493 -11.1413)
(188.181 -3.1924 -12.374)
(205.315 2.91729 3.06722)
(205.947 2.2276 1.43286)
(206.218 1.58482 -0.230477)
(206.173 1.03439 -1.93203)
(205.75 0.537627 -3.74865)
(204.858 0.0820237 -5.77226)
(203.192 -0.370109 -8.00576)
(200.284 -0.837286 -10.6663)
(194.712 -1.51759 -12.7428)
(186.702 -2.17569 -15.1429)
(205.71 2.13791 3.64498)
(206.375 1.3354 1.96166)
(206.673 0.615649 0.20755)
(206.67 0.0164227 -1.57728)
(206.295 -0.506131 -3.51099)
(205.468 -0.959755 -5.70963)
(203.848 -1.37086 -8.21597)
(200.912 -1.75245 -11.3649)
(194.883 -2.30793 -14.1249)
(185.784 -2.77987 -17.9584)
(205.791 3.03823 3.19461)
(206.465 2.21584 1.53081)
(206.762 1.50713 -0.14723)
(206.747 0.929661 -1.87575)
(206.367 0.458714 -3.7464)
(205.557 0.0721283 -5.9184)
(203.977 -0.25199 -8.46179)
(201.079 -0.540787 -11.8536)
(194.793 -0.885101 -15.1111)
(184.809 -1.19659 -20.328)
(205.948 1.70931 3.7753)
(206.633 0.771673 2.13467)
(206.946 -0.0161571 0.434512)
(206.956 -0.65327 -1.29838)
(206.609 -1.17076 -3.20183)
(205.842 -1.57568 -5.43104)
(204.319 -1.84743 -8.13787)
(201.512 -1.99698 -11.8863)
(195.155 -1.94849 -15.987)
(184.197 -1.89864 -22.391)
(205.159 2.65167 3.11153)
(205.796 1.64863 1.52427)
(206.019 0.895796 -0.0665968)
(205.859 0.295549 -1.71826)
(205.291 -0.130542 -3.50891)
(204.27 -0.402533 -5.60635)
(202.507 -0.481523 -8.16182)
(199.511 -0.316546 -11.7225)
(193.174 0.22866 -16.0579)
(181.726 1.20326 -22.8723)
(200.53 0.54594 1.19691)
(200.872 0.289739 0.66901)
(200.987 0.0288477 0.038365)
(200.912 -0.2005 -0.58081)
(200.653 -0.401889 -1.18556)
(200.215 -0.567633 -1.69612)
(199.603 -0.707321 -2.06576)
(198.84 -0.836069 -2.20452)
(197.975 -0.980357 -2.02061)
(197.122 -1.14652 -1.42999)
(201.68 1.42355 1.31766)
(202.075 1.18871 0.516535)
(202.212 0.909413 -0.31564)
(202.099 0.610929 -1.14078)
(201.727 0.302349 -1.93194)
(201.078 -0.0151267 -2.64595)
(200.134 -0.346003 -3.20865)
(198.888 -0.699998 -3.51173)
(197.364 -1.10514 -3.32771)
(195.861 -1.52042 -2.51884)
(202.522 1.27961 2.05932)
(202.994 0.877046 1.0245)
(203.157 0.457283 -0.0753481)
(203.024 0.0556282 -1.17355)
(202.573 -0.342821 -2.26199)
(201.764 -0.742756 -3.29923)
(200.533 -1.15738 -4.20068)
(198.815 -1.60419 -4.83646)
(196.53 -2.13803 -4.81397)
(194.136 -2.70452 -3.92946)
(202.955 2.10352 2.1594)
(203.499 1.67709 0.946386)
(203.696 1.22371 -0.305689)
(203.568 0.789608 -1.56579)
(203.079 0.359428 -2.84023)
(202.17 -0.0734292 -4.1094)
(200.72 -0.533102 -5.29104)
(198.588 -1.0387 -6.26985)
(195.497 -1.67791 -6.46796)
(192.025 -2.38019 -5.61192)
(203.545 1.7157 2.8066)
(204.152 1.16597 1.44315)
(204.386 0.623023 0.0045139)
(204.284 0.133368 -1.44428)
(203.795 -0.335289 -2.94568)
(202.847 -0.788945 -4.5007)
(201.256 -1.25604 -6.04113)
(198.801 -1.75899 -7.49154)
(194.937 -2.43845 -8.08829)
(190.319 -3.20425 -7.54047)
(203.834 2.59613 2.6825)
(204.484 2.01377 1.23965)
(204.747 1.44955 -0.240153)
(204.67 0.951762 -1.74752)
(204.194 0.490372 -3.32824)
(203.241 0.0542066 -5.02346)
(201.571 -0.394125 -6.78025)
(198.888 -0.880788 -8.60498)
(194.33 -1.56946 -9.56238)
(188.589 -2.36179 -9.46712)
(204.275 1.8458 3.28805)
(204.965 1.14378 1.77349)
(205.257 0.498552 0.180568)
(205.212 -0.0492829 -1.4347)
(204.764 -0.536491 -3.1598)
(203.834 -0.969984 -5.05655)
(202.135 -1.37844 -7.10771)
(199.302 -1.78691 -9.39578)
(194.147 -2.38677 -10.8807)
(187.325 -3.10527 -11.5108)
(204.411 2.80232 2.8505)
(205.115 2.07622 1.34521)
(205.41 1.43693 -0.182917)
(205.357 0.908103 -1.75696)
(204.901 0.469141 -3.44092)
(203.968 0.101518 -5.33807)
(202.253 -0.22332 -7.45417)
(199.349 -0.547713 -9.98948)
(193.77 -0.995429 -11.8687)
(185.989 -1.6594 -13.2549)
(204.621 1.47505 3.46669)
(205.333 0.630843 1.96834)
(205.64 -0.0843625 0.395746)
(205.606 -0.660184 -1.2067)
(205.174 -1.12527 -2.95021)
(204.268 -1.48411 -4.93134)
(202.568 -1.72878 -7.22106)
(199.641 -1.89177 -10.0733)
(193.818 -1.98276 -12.686)
(184.99 -2.39439 -14.8287)
(203.892 2.50443 2.78241)
(204.562 1.60215 1.35299)
(204.807 0.927398 -0.0956046)
(204.654 0.391436 -1.60583)
(204.069 0.0184034 -3.23377)
(202.987 -0.208909 -5.09666)
(201.121 -0.263925 -7.26872)
(198.027 -0.11899 -9.9988)
(192.103 0.260378 -12.8127)
(182.566 0.641698 -15.1399)
(199.694 0.246665 0.827774)
(199.948 0.0881007 0.491159)
(200.029 -0.0846166 0.0660082)
(199.978 -0.241579 -0.340666)
(199.803 -0.387195 -0.733769)
(199.515 -0.512463 -1.04535)
(199.13 -0.623662 -1.25022)
(198.679 -0.728236 -1.294)
(198.202 -0.836928 -1.1442)
(197.745 -0.948223 -0.778369)
(200.665 1.03039 0.916903)
(200.969 0.900663 0.342627)
(201.077 0.717746 -0.254989)
(200.989 0.502018 -0.84082)
(200.706 0.266789 -1.38302)
(200.228 0.0162336 -1.84081)
(199.563 -0.248361 -2.15678)
(198.744 -0.527519 -2.25825)
(197.833 -0.825948 -2.03828)
(197.021 -1.11256 -1.43238)
(201.332 0.849962 1.64424)
(201.732 0.562912 0.85027)
(201.871 0.242636 -0.00818785)
(201.758 -0.0781808 -0.857835)
(201.382 -0.407827 -1.67619)
(200.73 -0.746839 -2.41467)
(199.785 -1.10181 -2.99683)
(198.556 -1.48138 -3.31444)
(197.079 -1.90721 -3.14524)
(195.688 -2.33487 -2.34938)
(201.693 1.69988 1.73035)
(202.183 1.39142 0.755922)
(202.361 1.03383 -0.260668)
(202.24 0.673124 -1.27595)
(201.8 0.302888 -2.27465)
(201.009 -0.0793113 -3.21713)
(199.812 -0.490125 -4.01645)
(198.172 -0.941973 -4.54547)
(196.036 -1.48084 -4.43948)
(193.892 -2.05093 -3.44364)
(202.243 1.33162 2.38848)
(202.813 0.899322 1.24736)
(203.028 0.447978 0.0275918)
(202.918 0.0246122 -1.19201)
(202.448 -0.392841 -2.42615)
(201.569 -0.807035 -3.64491)
(200.175 -1.23966 -4.76141)
(198.171 -1.71029 -5.6473)
(195.352 -2.3084 -5.77727)
(192.343 -2.97162 -4.77172)
(202.53 2.24845 2.27921)
(203.157 1.77756 1.04302)
(203.405 1.29801 -0.236456)
(203.309 0.859863 -1.53323)
(202.825 0.442507 -2.86383)
(201.893 0.0377243 -4.22752)
(200.354 -0.38729 -5.5411)
(198.054 -0.858877 -6.71238)
(194.573 -1.49267 -7.04973)
(190.655 -2.23454 -6.1027)
(202.982 1.52383 2.90541)
(203.661 0.930036 1.57851)
(203.937 0.366671 0.166728)
(203.865 -0.123102 -1.25852)
(203.386 -0.56769 -2.7535)
(202.435 -0.972096 -4.33175)
(200.801 -1.3639 -5.93489)
(198.269 -1.7728 -7.50478)
(194.175 -2.34982 -8.22824)
(189.325 -3.08016 -7.56681)
(203.147 2.53705 2.47804)
(203.847 1.91674 1.15003)
(204.131 1.35479 -0.208722)
(204.051 0.881273 -1.60718)
(203.557 0.481043 -3.08027)
(202.58 0.139659 -4.67928)
(200.88 -0.173336 -6.35846)
(198.192 -0.505562 -8.14052)
(193.611 -0.977387 -9.13782)
(187.881 -1.7199 -8.80224)
(203.392 1.21052 3.13125)
(204.103 0.469745 1.79397)
(204.397 -0.167336 0.368884)
(204.331 -0.680196 -1.08083)
(203.85 -1.0937 -2.63864)
(202.881 -1.40982 -4.34785)
(201.156 -1.62997 -6.21613)
(198.365 -1.79621 -8.27885)
(193.447 -1.95908 -9.83549)
(186.741 -2.51398 -9.92393)
(202.714 2.33854 2.42504)
(203.386 1.54446 1.16589)
(203.641 0.950886 -0.126993)
(203.493 0.479463 -1.47908)
(202.908 0.157182 -2.92286)
(201.815 -0.0305843 -4.52781)
(199.966 -0.0681002 -6.30394)
(197.014 0.0555089 -8.29645)
(191.919 0.313972 -9.98628)
(184.493 0.413683 -10.0907)
(199.115 0.0373744 0.579128)
(199.3 -0.0613451 0.372334)
(199.356 -0.175227 0.089842)
(199.324 -0.280647 -0.170608)
(199.213 -0.384145 -0.424118)
(199.035 -0.476322 -0.615502)
(198.805 -0.561051 -0.735911)
(198.546 -0.64058 -0.752715)
(198.285 -0.717933 -0.658682)
(198.023 -0.788975 -0.452481)
(199.932 0.731681 0.604717)
(200.15 0.672983 0.205686)
(200.229 0.562574 -0.206515)
(200.167 0.414047 -0.605951)
(199.966 0.242125 -0.963836)
(199.636 0.0524562 -1.24825)
(199.193 -0.149566 -1.42024)
(198.675 -0.359571 -1.43682)
(198.139 -0.572211 -1.253)
(197.697 -0.762666 -0.852366)
(200.423 0.485451 1.29169)
(200.738 0.285805 0.701509)
(200.85 0.0483293 0.051974)
(200.762 -0.200119 -0.585977)
(200.47 -0.46388 -1.18504)
(199.976 -0.740256 -1.69968)
(199.29 -1.03056 -2.07034)
(198.447 -1.33593 -2.22299)
(197.518 -1.65949 -2.04459)
(196.71 -1.96644 -1.47629)
(200.69 1.33156 1.33951)
(201.103 1.12167 0.582456)
(201.254 0.850587 -0.215321)
(201.15 0.560875 -1.00623)
(200.781 0.252694 -1.7632)
(200.136 -0.0724243 -2.43985)
(199.203 -0.423017 -2.96041)
(197.999 -0.804031 -3.22117)
(196.573 -1.23341 -3.01632)
(195.257 -1.66727 -2.19756)
(201.163 0.962739 1.9878)
(201.667 0.636297 1.06106)
(201.856 0.272906 0.0563002)
(201.753 -0.0827058 -0.941198)
(201.332 -0.443863 -1.92665)
(200.57 -0.809497 -2.85378)
(199.418 -1.19369 -3.6368)
(197.863 -1.60978 -4.14965)
(195.884 -2.10714 -4.06924)
(193.949 -2.63652 -3.12429)
(201.415 1.89766 1.87983)
(201.99 1.53312 0.851603)
(202.213 1.13853 -0.223107)
(202.113 0.763543 -1.30664)
(201.656 0.396203 -2.39294)
(200.807 0.031989 -3.45376)
(199.473 -0.354297 -4.397)
(197.603 -0.783914 -5.10087)
(195.054 -1.32871 -5.10892)
(192.431 -1.95323 -4.03791)
(201.851 1.19084 2.5158)
(202.487 0.705032 1.38404)
(202.74 0.226153 0.16356)
(202.653 -0.20151 -1.06241)
(202.182 -0.598003 -2.32336)
(201.278 -0.965654 -3.59775)
(199.805 -1.32801 -4.80668)
(197.664 -1.7131 -5.82824)
(194.556 -2.2279 -6.10309)
(191.191 -2.86973 -5.08104)
(202.017 2.25661 2.09297)
(202.684 1.74482 0.951838)
(202.949 1.26428 -0.225798)
(202.854 0.850439 -1.43638)
(202.358 0.493965 -2.68877)
(201.407 0.184545 -3.99364)
(199.83 -0.106172 -5.27417)
(197.483 -0.421712 -6.45422)
(193.901 -0.861714 -6.88701)
(189.802 -1.5421 -5.93146)
(202.282 0.926226 2.78212)
(202.964 0.293209 1.61678)
(203.24 -0.26283 0.35277)
(203.154 -0.712049 -0.929382)
(202.66 -1.07487 -2.28744)
(201.696 -1.35086 -3.72211)
(200.064 -1.54749 -5.1992)
(197.566 -1.70731 -6.62976)
(193.625 -1.89056 -7.46747)
(188.711 -2.41878 -6.70853)
(201.642 2.16213 2.05081)
(202.291 1.47973 0.968339)
(202.543 0.968845 -0.159745)
(202.402 0.561693 -1.34226)
(201.835 0.287898 -2.58932)
(200.781 0.135056 -3.93058)
(199.047 0.110147 -5.3294)
(196.393 0.21292 -6.71484)
(192.238 0.384978 -7.6186)
(186.707 0.373216 -6.78838)
(198.703 -0.102906 0.420374)
(198.841 -0.167152 0.297928)
(198.878 -0.244153 0.109038)
(198.86 -0.314823 -0.056207)
(198.793 -0.388027 -0.221754)
(198.688 -0.454609 -0.342538)
(198.554 -0.517132 -0.419984)
(198.408 -0.575171 -0.433027)
(198.262 -0.628548 -0.383694)
(198.094 -0.672983 -0.274155)
(199.403 0.522751 0.372533)
(199.552 0.508618 0.101682)
(199.607 0.449415 -0.172361)
(199.565 0.352283 -0.434586)
(199.431 0.231757 -0.66237)
(199.213 0.0938229 -0.833472)
(198.931 -0.0542932 -0.923575)
(198.611 -0.206252 -0.908868)
(198.298 -0.353844 -0.772701)
(198.051 -0.478295 -0.515001)
(199.74 0.196357 1.00872)
(199.975 0.0576124 0.580869)
(200.059 -0.115317 0.101489)
(199.994 -0.302843 -0.36647)
(199.78 -0.507587 -0.797021)
(199.425 -0.725231 -1.15273)
(198.948 -0.953688 -1.39096)
(198.388 -1.18937 -1.46606)
(197.81 -1.42687 -1.32366)
(197.337 -1.64002 -0.949313)
(199.912 1.01753 1.00233)
(200.242 0.883574 0.431793)
(200.364 0.685613 -0.174359)
(200.281 0.460415 -0.771204)
(199.989 0.21214 -1.32803)
(199.49 -0.05487 -1.80098)
(198.795 -0.342395 -2.13088)
(197.942 -0.649554 -2.24384)
(197.006 -0.977797 -2.03227)
(196.2 -1.29393 -1.42779)
(200.293 0.630732 1.62333)
(200.715 0.392799 0.891195)
(200.875 0.108725 0.0858951)
(200.784 -0.181678 -0.708221)
(200.429 -0.485164 -1.4753)
(199.804 -0.797485 -2.16491)
(198.897 -1.12607 -2.70308)
(197.737 -1.47719 -2.98799)
(196.38 -1.87311 -2.83469)
(195.144 -2.27456 -2.08986)
(200.49 1.56427 1.50364)
(200.99 1.29406 0.672875)
(201.184 0.979649 -0.203823)
(201.089 0.667827 -1.08317)
(200.685 0.353565 -1.9445)
(199.953 0.0358738 -2.74604)
(198.854 -0.301937 -3.40159)
(197.396 -0.673988 -3.79707)
(195.581 -1.11793 -3.65066)
(193.845 -1.6102 -2.71842)
(200.888 0.865313 2.13704)
(201.459 0.480347 1.19697)
(201.683 0.084026 0.168067)
(201.594 -0.280383 -0.860031)
(201.158 -0.625512 -1.8966)
(200.348 -0.950822 -2.89956)
(199.088 -1.27443 -3.78658)
(197.355 -1.61857 -4.42256)
(195.069 -2.05221 -4.45136)
(192.77 -2.57232 -3.46372)
(201.035 1.97603 1.71156)
(201.643 1.56902 0.757411)
(201.882 1.1699 -0.235808)
(201.783 0.817518 -1.25547)
(201.315 0.507893 -2.28988)
(200.44 0.234518 -3.32264)
(199.055 -0.0263966 -4.26487)
(197.099 -0.309638 -5.00318)
(194.396 -0.687274 -5.09365)
(191.523 -1.24456 -4.03656)
(201.306 0.634009 2.43378)
(201.938 0.107288 1.44275)
(202.188 -0.367797 0.346049)
(202.094 -0.754118 -0.762044)
(201.617 -1.06759 -1.91775)
(200.713 -1.3056 -3.09195)
(199.251 -1.47884 -4.22795)
(197.124 -1.62534 -5.18523)
(194.084 -1.79937 -5.56885)
(190.583 -2.23237 -4.57981)
(200.691 1.98471 1.67245)
(201.294 1.41317 0.766421)
(201.532 0.984385 -0.193175)
(201.401 0.640256 -1.20101)
(200.872 0.412381 -2.24816)
(199.898 0.290215 -3.33488)
(198.346 0.274321 -4.39585)
(196.072 0.358029 -5.31128)
(192.817 0.468975 -5.69821)
(188.841 0.424895 -4.59737)
(198.4 -0.195753 0.323658)
(198.506 -0.240993 0.254354)
(198.532 -0.29601 0.124282)
(198.522 -0.344213 0.0184637)
(198.483 -0.396504 -0.0935041)
(198.422 -0.44428 -0.173742)
(198.346 -0.489575 -0.229405)
(198.264 -0.530913 -0.245437)
(198.18 -0.567074 -0.226746)
(198.061 -0.594435 -0.174381)
(199.018 0.389456 0.204226)
(199.116 0.40176 0.0234976)
(199.152 0.377036 -0.152068)
(199.126 0.317412 -0.317444)
(199.04 0.23656 -0.456465)
(198.902 0.140162 -0.5549)
(198.727 0.0354729 -0.598514)
(198.534 -0.070961 -0.574436)
(198.351 -0.171212 -0.478322)
(198.21 -0.251292 -0.313278)
(199.229 -0.0200132 0.791288)
(199.395 -0.119159 0.486831)
(199.456 -0.244328 0.139342)
(199.411 -0.38313 -0.198494)
(199.262 -0.537872 -0.504846)
(199.017 -0.704132 -0.751468)
(198.697 -0.878046 -0.909571)
(198.335 -1.05399 -0.953028)
(197.978 -1.22392 -0.856237)
(197.699 -1.36864 -0.624656)
(199.321 0.765315 0.723787)
(199.572 0.685947 0.305852)
(199.666 0.546452 -0.140615)
(199.604 0.37687 -0.577447)
(199.383 0.183183 -0.975674)
(199.015 -0.0287026 -1.29861)
(198.516 -0.256244 -1.50339)
(197.93 -0.495029 -1.54151)
(197.323 -0.738652 -1.36037)
(196.828 -0.962268 -0.935454)
(199.607 0.349094 1.30594)
(199.945 0.180581 0.741866)
(200.073 -0.0356761 0.112687)
(199.999 -0.266514 -0.503977)
(199.715 -0.5143 -1.08786)
(199.226 -0.772706 -1.59226)
(198.54 -1.04432 -1.95876)
(197.702 -1.32947 -2.11403)
(196.786 -1.6347 -1.95733)
(196 -1.92781 -1.41597)
(199.742 1.26351 1.16487)
(200.158 1.07175 0.512529)
(200.32 0.829034 -0.181879)
(200.237 0.57721 -0.874981)
(199.896 0.316148 -1.5388)
(199.296 0.0476022 -2.12859)
(198.428 -0.23725 -2.57171)
(197.33 -0.546194 -2.77726)
(196.063 -0.893715 -2.57819)
(194.923 -1.26328 -1.8467)
(200.093 0.56314 1.78399)
(200.584 0.267007 1.02307)
(200.776 -0.0524975 0.177126)
(200.692 -0.355359 -0.663688)
(200.31 -0.648266 -1.49529)
(199.619 -0.928124 -2.26725)
(198.588 -1.20776 -2.9047)
(197.236 -1.5021 -3.287)
(195.594 -1.85205 -3.2003)
(194.043 -2.24968 -2.38194)
(200.202 1.70935 1.34869)
(200.735 1.39806 0.573054)
(200.944 1.0766 -0.240659)
(200.849 0.784832 -1.07512)
(200.429 0.523078 -1.90451)
(199.664 0.288048 -2.69771)
(198.501 0.061676 -3.36743)
(196.934 -0.181616 -3.80194)
(194.948 -0.488761 -3.7067)
(192.968 -0.91313 -2.76264)
(200.473 0.345571 2.10027)
(201.035 -0.0814923 1.27783)
(201.256 -0.478759 0.347169)
(201.162 -0.804586 -0.58867)
(200.726 -1.07078 -1.54958)
(199.919 -1.27291 -2.48895)
(198.667 -1.42273 -3.34249)
(196.931 -1.55147 -3.96398)
(194.655 -1.70259 -4.0856)
(192.217 -2.03069 -3.15326)
(199.87 1.81623 1.30257)
(200.409 1.35063 0.566227)
(200.626 1.00099 -0.227063)
(200.506 0.717377 -1.0618)
(200.031 0.532363 -1.91468)
(199.167 0.436927 -2.76718)
(197.835 0.427437 -3.54081)
(195.965 0.49452 -4.11069)
(193.495 0.562845 -4.18232)
(190.72 0.51957 -3.12058)
(198.167 -0.259338 0.267968)
(198.254 -0.294284 0.231425)
(198.272 -0.336772 0.137034)
(198.267 -0.37094 0.0670388)
(198.244 -0.409325 -0.0131117)
(198.21 -0.443883 -0.0705887)
(198.167 -0.476579 -0.115274)
(198.121 -0.505709 -0.135377)
(198.071 -0.529921 -0.136398)
(197.978 -0.546355 -0.117625)
(198.732 0.315162 0.0824938)
(198.795 0.342639 -0.0363804)
(198.819 0.340399 -0.143862)
(198.803 0.307224 -0.242742)
(198.75 0.25585 -0.32241)
(198.665 0.191242 -0.374352)
(198.558 0.119772 -0.39076)
(198.443 0.0473066 -0.364497)
(198.335 -0.0196229 -0.296337)
(198.253 -0.0705657 -0.187576)
(198.844 -0.173711 0.629966)
(198.958 -0.248505 0.415707)
(199 -0.339766 0.166331)
(198.97 -0.441258 -0.0758198)
(198.869 -0.555667 -0.293652)
(198.707 -0.679404 -0.467074)
(198.498 -0.808012 -0.57741)
(198.269 -0.935686 -0.610588)
(198.051 -1.05468 -0.554092)
(197.885 -1.15131 -0.420328)
(198.879 0.573795 0.501509)
(199.062 0.531288 0.203667)
(199.132 0.436404 -0.11526)
(199.087 0.31263 -0.425427)
(198.928 0.16625 -0.702368)
(198.666 0.00372633 -0.917792)
(198.32 -0.17043 -1.04232)
(197.926 -0.350271 -1.04573)
(197.536 -0.526929 -0.90456)
(197.231 -0.682326 -0.613201)
(199.076 0.123694 1.03944)
(199.336 0.00670722 0.614422)
(199.435 -0.15415 0.134162)
(199.378 -0.333033 -0.334086)
(199.16 -0.529726 -0.769999)
(198.792 -0.737153 -1.13453)
(198.292 -0.954642 -1.38433)
(197.703 -1.17876 -1.47074)
(197.093 -1.40845 -1.34112)
(196.595 -1.61711 -0.967765)
(199.151 1.00448 0.872142)
(199.483 0.874178 0.374126)
(199.613 0.692533 -0.159788)
(199.544 0.495073 -0.690293)
(199.271 0.284664 -1.18773)
(198.798 0.0648853 -1.61097)
(198.138 -0.166995 -1.90304)
(197.335 -0.414148 -1.99878)
(196.465 -0.677679 -1.80175)
(195.723 -0.945922 -1.25886)
(199.454 0.296252 1.46724)
(199.86 0.0744149 0.866454)
(200.018 -0.176728 0.187819)
(199.945 -0.422206 -0.483269)
(199.626 -0.664387 -1.1353)
(199.062 -0.89828 -1.71815)
(198.25 -1.13247 -2.16956)
(197.229 -1.37488 -2.39406)
(196.072 -1.64859 -2.27073)
(195.036 -1.9403 -1.64356)
(199.512 1.46803 1.01641)
(199.961 1.23979 0.40401)
(200.138 0.989233 -0.242237)
(200.052 0.754807 -0.904571)
(199.693 0.539899 -1.54931)
(199.052 0.343646 -2.14014)
(198.114 0.153967 -2.59942)
(196.903 -0.0470827 -2.83584)
(195.475 -0.287835 -2.65757)
(194.133 -0.59737 -1.89369)
(199.781 0.0710941 1.79379)
(200.264 -0.266914 1.12738)
(200.452 -0.592209 0.354583)
(200.366 -0.861623 -0.418252)
(199.985 -1.08349 -1.19995)
(199.296 -1.25214 -1.93671)
(198.267 -1.37898 -2.56669)
(196.901 -1.48767 -2.96159)
(195.238 -1.61109 -2.9513)
(193.575 -1.84827 -2.18274)
(199.181 1.66612 0.952331)
(199.644 1.29807 0.373252)
(199.834 1.02241 -0.261581)
(199.729 0.79548 -0.93111)
(199.318 0.649702 -1.6027)
(198.581 0.577329 -2.24845)
(197.479 0.572374 -2.78829)
(195.998 0.625439 -3.11592)
(194.174 0.664327 -3.01368)
(192.286 0.633317 -2.11109)
(197.981 -0.307424 0.239391)
(198.056 -0.336806 0.22261)
(198.069 -0.372525 0.149055)
(198.067 -0.398264 0.0997896)
(198.054 -0.427714 0.0380104)
(198.035 -0.453352 -0.00725626)
(198.011 -0.477237 -0.0467498)
(197.985 -0.497782 -0.0706504)
(197.954 -0.513836 -0.0843663)
(197.875 -0.523213 -0.0857286)
(198.516 0.284685 -0.00754789)
(198.555 0.321039 -0.0844681)
(198.571 0.333171 -0.145605)
(198.562 0.31828 -0.199388)
(198.529 0.288168 -0.239559)
(198.478 0.246955 -0.261294)
(198.415 0.199871 -0.260732)
(198.346 0.151787 -0.233591)
(198.282 0.107677 -0.182835)
(198.233 0.0755306 -0.106732)
(198.551 -0.277646 0.513698)
(198.625 -0.338104 0.363195)
(198.653 -0.406011 0.184293)
(198.634 -0.479994 0.0101365)
(198.568 -0.563338 -0.146313)
(198.463 -0.653415 -0.271494)
(198.331 -0.746139 -0.353481)
(198.188 -0.836441 -0.385184)
(198.056 -0.917966 -0.359503)
(197.957 -0.98122 -0.290689)
(198.552 0.43629 0.328746)
(198.681 0.417211 0.122521)
(198.731 0.355038 -0.0981936)
(198.7 0.267532 -0.31152)
(198.59 0.160444 -0.498449)
(198.409 0.0399198 -0.638268)
(198.175 -0.0891402 -0.711737)
(197.916 -0.220653 -0.700513)
(197.668 -0.346029 -0.596024)
(197.48 -0.452623 -0.398162)