/*--------------------------------*- C++ -*----------------------------------*\
| =========                 |                                                 |
| \\      /  F ield         | foam-extend: Open Source CFD                    |
|  \\    /   O peration     | Version:     4.0                                |
|   \\  /    A nd           | Web:         http://www.foam-extend.org         |
|    \\/     M anipulation  |                                                 |
\*---------------------------------------------------------------------------*/
FoamFile
{
    version     2.0;
    format      ascii;
    class       volScalarField;
    location    "1400";
    object      alphat;
}
// * * * * * * * * * * * * * * * * * * * * * * * * * * * * * * * * * * * * * //

dimensions      [1 -1 -1 0 0 0 0];

internalField   nonuniform List<scalar> 
34480
(
0.00190252
0.00190028
0.00189916
0.00189952
0.00190232
0.00190987
0.00192703
0.00195895
0.00200563
0.00212261
0.0178469
0.0163686
0.0137679
0.00990155
0.00582802
0.00306629
0.00188099
0.00169883
0.00200408
0.00236939
0.0516637
0.0469132
0.03943
0.0290478
0.0174502
0.00838464
0.0038789
0.00255758
0.00265584
0.00305047
0.0641983
0.0592837
0.0513633
0.039708
0.0252823
0.0124165
0.00528679
0.0029981
0.00294159
0.00339749
0.0695492
0.065287
0.0580946
0.0466968
0.0311812
0.0158073
0.00650276
0.00334961
0.00317498
0.00370625
0.0714352
0.0679734
0.0616468
0.0507718
0.0347829
0.0179062
0.00725743
0.00359489
0.00342986
0.0040853
0.0700606
0.0676185
0.0624766
0.0525523
0.0367487
0.019183
0.007765
0.00378484
0.00367467
0.00446094
0.0593611
0.0585123
0.0554824
0.0479145
0.0341139
0.0179182
0.00731009
0.0036454
0.00373263
0.00469003
0.0192216
0.0199158
0.0204339
0.0194843
0.0151653
0.0084929
0.00377165
0.00216888
0.00266026
0.00383692
0.0017743
0.00176299
0.00175425
0.00174834
0.00174633
0.00174779
0.00175171
0.00175845
0.00175789
0.00172677
0.00191576
0.00191468
0.00191544
0.00191852
0.00192433
0.00193368
0.00194917
0.00197557
0.00202001
0.00209614
0.0165502
0.016251
0.0156733
0.0143975
0.0119167
0.00822063
0.00461385
0.00272162
0.00244248
0.00326421
0.0497681
0.0475572
0.0437145
0.0378042
0.0299298
0.0204791
0.0110446
0.00520161
0.0037709
0.00491679
0.0614044
0.0591331
0.0551075
0.0485821
0.0394442
0.0279823
0.015496
0.00672324
0.00440582
0.00582849
0.0661931
0.0644646
0.0611517
0.0552521
0.0460767
0.0337849
0.0192757
0.00798796
0.00490988
0.00666306
0.0678447
0.0667887
0.0643637
0.0593678
0.0505595
0.0379314
0.0220685
0.00889283
0.00537909
0.00768768
0.0665302
0.0662605
0.0649486
0.0611861
0.0532514
0.0408403
0.0242381
0.00960553
0.00580466
0.00874875
0.0562443
0.056947
0.0572186
0.0556755
0.050177
0.0397437
0.0241264
0.00943469
0.00584931
0.0094163
0.0179983
0.0186995
0.0198225
0.0212088
0.0220785
0.0206145
0.0140624
0.005489
0.00374975
0.00705537
0.00177602
0.00176387
0.00175366
0.00174607
0.00174257
0.00174383
0.00174804
0.00175447
0.00178547
0.00189508
0.00192097
0.00192082
0.00192225
0.00192581
0.00193181
0.00194059
0.00195283
0.00197004
0.00199487
0.00203005
0.0146442
0.0146058
0.0146327
0.0144995
0.0137635
0.0120531
0.00950366
0.00696125
0.00534065
0.00480325
0.0461903
0.0451221
0.0430299
0.0395873
0.0345672
0.0277975
0.0197984
0.0124698
0.00817373
0.00701143
0.0566659
0.0556528
0.0535299
0.0496771
0.0438557
0.0356648
0.0252621
0.0150032
0.0091286
0.00802516
0.0607952
0.0602571
0.0588125
0.0555913
0.049997
0.041459
0.0295676
0.0168151
0.00966495
0.00889356
0.0622155
0.062221
0.0615836
0.0592857
0.0542713
0.0457861
0.0328476
0.0179939
0.0100024
0.00984774
0.0611057
0.0616849
0.0619789
0.0608511
0.0568326
0.0488647
0.0353667
0.0187518
0.0101796
0.0107857
0.0517909
0.052905
0.0542534
0.0548805
0.0530461
0.0471223
0.0347667
0.01797
0.00972199
0.0112538
0.0168093
0.0173583
0.0183403
0.0197696
0.0214
0.0220937
0.0188384
0.0103406
0.00590561
0.00793497
0.00177175
0.00176082
0.00175172
0.00174515
0.00174234
0.00174493
0.00175349
0.00176715
0.00179892
0.00189796
0.00191812
0.00191834
0.00191958
0.00192218
0.00192633
0.00193215
0.00193985
0.00194985
0.00196325
0.00198227
0.0130422
0.013047
0.0132293
0.0135388
0.0137697
0.0136396
0.0129255
0.0116529
0.0101848
0.00906467
0.0423923
0.0419171
0.0408855
0.0390791
0.0362366
0.0321371
0.026887
0.0211026
0.0160265
0.0130298
0.0515185
0.0511464
0.0501101
0.0479877
0.0445229
0.0393565
0.0324476
0.0245026
0.0175665
0.0140715
0.0549242
0.0549429
0.0544838
0.0528527
0.0496263
0.0442755
0.0364428
0.0267479
0.0182581
0.0147516
0.0561426
0.0565652
0.0567597
0.0558973
0.0532071
0.0479962
0.0395253
0.0282747
0.0185707
0.0155273
0.0553288
0.0561436
0.0570458
0.0571292
0.0552974
0.0505895
0.0418083
0.0291743
0.0184754
0.0161621
0.0472499
0.0483259
0.0498644
0.0511976
0.0510663
0.0480789
0.04042
0.0278034
0.0172221
0.0160636
0.0157945
0.0161885
0.0169414
0.0180725
0.0195303
0.0208095
0.0202417
0.0155759
0.0102453
0.0107944
0.00176556
0.00175605
0.00174831
0.00174297
0.001741
0.00174419
0.00175445
0.00177269
0.00180529
0.00188254
0.00190914
0.00190949
0.00191036
0.00191191
0.00191419
0.00191723
0.00192108
0.001926
0.00193293
0.00194447
0.0119974
0.0119786
0.0121142
0.0124327
0.0128916
0.0134052
0.0138341
0.0140171
0.0138307
0.0133481
0.0387259
0.038629
0.0383457
0.0377281
0.0365446
0.034571
0.0317304
0.028153
0.0242209
0.0208908
0.0464922
0.0465095
0.0462334
0.0453935
0.0437367
0.0409726
0.0369927
0.0319535
0.0264315
0.0221003
0.0492014
0.0495038
0.049645
0.0491538
0.0476866
0.0448304
0.0403324
0.0342565
0.0274187
0.0225859
0.0502582
0.0508227
0.0514298
0.0514915
0.0504558
0.0477695
0.0429712
0.0359878
0.0279976
0.0231658
0.0497663
0.0505717
0.0516589
0.0523886
0.052
0.049741
0.0448581
0.0370421
0.0279536
0.023449
0.0429959
0.0438897
0.0452901
0.0467874
0.0475677
0.0466165
0.042741
0.035205
0.0260606
0.0225549
0.0149628
0.0152259
0.0157656
0.0165808
0.0176883
0.0189493
0.0196769
0.0183713
0.014823
0.0140899
0.00175819
0.00175008
0.00174369
0.00173957
0.00173849
0.00174202
0.00175217
0.00177077
0.00180094
0.00185716
0.00189555
0.00189594
0.00189648
0.00189724
0.00189825
0.00189945
0.00190086
0.00190272
0.00190603
0.0019136
0.011553
0.0115095
0.0115666
0.011758
0.0120812
0.0125332
0.0131024
0.0137606
0.0144388
0.014984
0.0351714
0.0352754
0.035419
0.0355352
0.0354815
0.0350798
0.0341809
0.0327162
0.030737
0.0286375
0.0417027
0.0419323
0.0421386
0.0421823
0.0418619
0.0409401
0.0392476
0.0367393
0.0335078
0.0302692
0.043891
0.0443067
0.0447818
0.0450557
0.0448649
0.0438893
0.0418864
0.0387587
0.0345717
0.030558
0.0448692
0.0454302
0.0461903
0.0468213
0.0469457
0.0461335
0.0440209
0.0404225
0.0353795
0.030923
0.0446942
0.0453878
0.0464391
0.04748
0.0480369
0.0475498
0.0454743
0.0414616
0.0355312
0.0308646
0.0391937
0.039877
0.0410171
0.0424166
0.0436303
0.044008
0.0427366
0.0391507
0.0331981
0.0290802
0.0143122
0.0144748
0.0148432
0.0153951
0.0161582
0.0171404
0.0181546
0.0185263
0.0172908
0.0164727
0.00174937
0.0017426
0.00173749
0.00173449
0.00173425
0.00173801
0.00174734
0.00176393
0.00178933
0.00182826
0.00187867
0.00187906
0.00187937
0.00187964
0.00187988
0.00188004
0.00188014
0.00188041
0.00188184
0.00188731
0.0115863
0.0115347
0.0115454
0.0116421
0.0118233
0.0120912
0.0124527
0.0129282
0.0135467
0.0142835
0.0320771
0.0321996
0.0324129
0.0327145
0.0330604
0.0333763
0.0335737
0.0335613
0.0332701
0.0327561
0.0374174
0.0376664
0.0380027
0.0383962
0.0387476
0.0389231
0.0387809
0.0382095
0.0371514
0.0358145
0.0392581
0.039633
0.0401534
0.0407209
0.0411958
0.0413859
0.0410902
0.0401567
0.0384787
0.0364269
0.0402222
0.0406752
0.041361
0.0421587
0.042868
0.0432242
0.0429356
0.041782
0.0395587
0.036904
0.0403217
0.0408501
0.0417096
0.0427434
0.0437229
0.0443111
0.0441017
0.042766
0.0399488
0.0367688
0.0359733
0.0364556
0.037292
0.0384178
0.039648
0.0406684
0.0409683
0.0400165
0.0372407
0.0342093
0.0138479
0.0139367
0.0141763
0.0145282
0.015011
0.01566
0.0164634
0.0172035
0.0171865
0.01695
0.00173883
0.00173334
0.00172938
0.00172734
0.00172776
0.00173156
0.00173981
0.00175366
0.0017736
0.00179973
0.00185942
0.00185982
0.00185999
0.00185997
0.00185977
0.00185936
0.00185878
0.00185823
0.00185869
0.001863
0.011927
0.0118797
0.0118708
0.0119179
0.0120192
0.0121749
0.0123915
0.0126953
0.0131443
0.0138037
0.0299435
0.0300116
0.0301363
0.0303311
0.0305901
0.0308959
0.0312237
0.0315344
0.0317692
0.0318737
0.0341077
0.0342677
0.0345019
0.0348272
0.0352143
0.0356208
0.0359886
0.0362481
0.0363239
0.0362237
0.0356036
0.0358547
0.0362257
0.036698
0.0372288
0.0377506
0.0381683
0.0383773
0.0382649
0.0378865
0.0365143
0.0368151
0.0372928
0.0379299
0.0386596
0.0393853
0.0399563
0.0402063
0.0399344
0.0392309
0.0367828
0.0371369
0.0377327
0.0385232
0.039442
0.040363
0.0410713
0.0413224
0.0407817
0.0396509
0.0333971
0.0337099
0.0342618
0.0350413
0.0359963
0.0370438
0.0379647
0.0384283
0.0379024
0.0367097
0.0135658
0.0136025
0.013751
0.0139632
0.0142479
0.0146289
0.0151233
0.0156651
0.0157938
0.0157614
0.00172636
0.00172203
0.00171907
0.00171779
0.00171863
0.00172223
0.00172927
0.00174034
0.00175518
0.00177245
0.0018384
0.00183879
0.00183889
0.00183871
0.00183828
0.00183757
0.00183663
0.00183565
0.00183554
0.00183911
0.012441
0.0124033
0.012388
0.0124098
0.0124681
0.0125632
0.0127026
0.0129161
0.0132748
0.0138905
0.028782
0.0288092
0.0288601
0.0289452
0.0290645
0.0292143
0.0293884
0.0295736
0.0297393
0.0298343
0.0319485
0.0320244
0.0321356
0.0323023
0.0325146
0.0327609
0.0330231
0.0332725
0.0334645
0.033572
0.0330478
0.0331834
0.0333835
0.0336485
0.0339689
0.0343286
0.0346993
0.0350401
0.0352868
0.0354278
0.0338133
0.0339822
0.0342518
0.03463
0.0351013
0.0356488
0.03623
0.0367781
0.0371743
0.0373877
0.0341194
0.034329
0.0346846
0.0351714
0.0357849
0.0365047
0.0372681
0.0379718
0.038413
0.0385734
0.0314678
0.0316534
0.0319828
0.0324529
0.0330518
0.033783
0.0346011
0.0353818
0.0357938
0.0358622
0.0134573
0.0134584
0.0135459
0.0136674
0.0138258
0.0140317
0.014296
0.0145854
0.01454
0.0143693
0.00171178
0.00170848
0.00170634
0.00170562
0.00170665
0.00170984
0.00171557
0.00172407
0.00173466
0.00174592
0.00181589
0.00181628
0.00181634
0.00181608
0.00181552
0.00181466
0.00181353
0.0018123
0.00181184
0.00181486
0.0130484
0.0130219
0.0130057
0.0130137
0.0130466
0.0131059
0.013201
0.0133648
0.013677
0.0142787
0.0282767
0.0282863
0.0283037
0.0283353
0.0283827
0.0284455
0.0285232
0.0286123
0.0286971
0.0287388
0.0307067
0.0307367
0.0307799
0.0308496
0.0309407
0.0310481
0.0311648
0.0312785
0.0313679
0.0314147
0.0314352
0.0314988
0.0315901
0.0317103
0.0318557
0.0320208
0.0321963
0.0323673
0.0325064
0.0326032
0.0320073
0.0320906
0.0322215
0.0324074
0.0326422
0.0329242
0.033244
0.0335808
0.0338821
0.0341156
0.0322574
0.0323684
0.0325565
0.0328123
0.0331405
0.0335421
0.0340055
0.0345019
0.0349368
0.0352826
0.0301288
0.0302286
0.0304086
0.0306619
0.0309815
0.0313793
0.0318566
0.0323814
0.0327812
0.0330739
0.0135116
0.0134893
0.0135378
0.0136039
0.0136878
0.0137927
0.0139228
0.0140531
0.0138862
0.0136279
0.00169495
0.00169254
0.00169105
0.00169071
0.00169174
0.00169438
0.0016988
0.00170503
0.00171227
0.00171941
0.00179201
0.0017924
0.00179243
0.00179213
0.00179151
0.00179057
0.00178933
0.00178796
0.00178724
0.00178979
0.0137128
0.0136974
0.0136826
0.0136825
0.0136992
0.0137355
0.0138023
0.0139357
0.0142218
0.0148221
0.0281353
0.0281392
0.0281444
0.0281553
0.0281737
0.028201
0.0282389
0.0282879
0.0283389
0.0283587
0.0300491
0.0300593
0.0300742
0.0301018
0.0301388
0.030183
0.0302312
0.030278
0.0303134
0.0303262
0.0304917
0.0305186
0.0305564
0.0306057
0.0306642
0.030729
0.0307963
0.0308607
0.0309122
0.0309469
0.0308827
0.0309197
0.0309769
0.0310589
0.0311614
0.0312833
0.0314215
0.0315689
0.0317051
0.0318104
0.0310427
0.031095
0.0311857
0.0313068
0.0314614
0.0316503
0.03187
0.0321113
0.0323318
0.0325133
0.0292825
0.0293296
0.0294204
0.0295453
0.0296968
0.0298806
0.0301009
0.0303463
0.0305243
0.030663
0.0137184
0.013681
0.0137056
0.0137398
0.0137823
0.0138333
0.0138938
0.0139435
0.0137382
0.0134845
0.00167578
0.0016741
0.00167312
0.00167301
0.00167391
0.00167595
0.00167916
0.00168348
0.00168818
0.00169248
0.00176674
0.00176713
0.00176715
0.00176683
0.00176618
0.00176519
0.00176389
0.00176243
0.0017615
0.00176361
0.0144263
0.014421
0.0144088
0.014404
0.01441
0.0144306
0.0144784
0.0145921
0.0148629
0.0154677
0.0281773
0.02818
0.0281814
0.0281848
0.0281922
0.0282055
0.0282273
0.0282598
0.028297
0.0283085
0.0297224
0.0297254
0.0297301
0.0297412
0.0297569
0.0297763
0.029798
0.0298195
0.0298357
0.0298389
0.0299714
0.0299812
0.0299958
0.0300153
0.0300385
0.0300638
0.0300897
0.0301142
0.0301341
0.0301481
0.0302232
0.0302377
0.0302608
0.0302949
0.0303371
0.0303867
0.0304423
0.0305015
0.0305573
0.0305991
0.0303005
0.0303214
0.0303613
0.030415
0.0304839
0.0305679
0.030665
0.0307715
0.0308678
0.0309432
0.0288159
0.0288332
0.0288754
0.0289325
0.0289976
0.0290725
0.0291593
0.0292517
0.0292967
0.0293291
0.0140699
0.0140229
0.0140336
0.0140504
0.0140711
0.014095
0.0141218
0.0141346
0.0139381
0.0137291
0.00165421
0.00165312
0.00165252
0.00165253
0.00165323
0.00165468
0.00165686
0.00165964
0.00166246
0.00166481
0.00174002
0.0017404
0.00174042
0.00174009
0.00173941
0.0017384
0.00173707
0.00173553
0.00173442
0.0017361
0.0151981
0.0152022
0.015193
0.0151858
0.0151847
0.0151945
0.0152294
0.01533
0.0155923
0.0162053
0.0283063
0.0283092
0.0283098
0.0283107
0.0283139
0.0283212
0.0283359
0.0283606
0.0283913
0.0283995
0.0295706
0.0295713
0.0295728
0.0295775
0.0295847
0.029594
0.029605
0.0296165
0.0296256
0.0296266
0.0296995
0.029702
0.0297071
0.029715
0.0297249
0.0297362
0.0297482
0.02976
0.0297706
0.0297795
0.0298566
0.0298614
0.0298699
0.0298836
0.029901
0.0299214
0.0299444
0.0299691
0.0299934
0.030012
0.0298764
0.0298819
0.0298974
0.0299203
0.0299512
0.0299899
0.0300351
0.0300852
0.0301305
0.0301649
0.0286216
0.0286234
0.0286413
0.0286653
0.0286904
0.0287167
0.0287451
0.0287716
0.0287649
0.0287614
0.0145636
0.0145106
0.0145136
0.0145214
0.0145314
0.0145425
0.0145536
0.0145507
0.0143848
0.0142294
0.00163022
0.00162959
0.00162927
0.00162932
0.00162981
0.00163074
0.00163206
0.00163368
0.00163515
0.00163617
0.00171173
0.00171211
0.00171213
0.00171179
0.0017111
0.00171007
0.00170871
0.00170712
0.00170584
0.00170708
0.0160494
0.0160619
0.0160561
0.016048
0.0160425
0.016045
0.016071
0.0161631
0.0164218
0.017047
0.0284742
0.0284777
0.0284784
0.0284786
0.0284801
0.0284848
0.0284958
0.0285162
0.0285435
0.0285509
0.0295058
0.0295061
0.0295068
0.0295089
0.0295123
0.029517
0.0295229
0.0295297
0.0295356
0.0295363
0.0295653
0.029565
0.0295665
0.02957
0.0295751
0.0295814
0.0295886
0.0295963
0.0296039
0.0296113
0.0296629
0.0296637
0.0296665
0.0296721
0.0296797
0.0296887
0.0296992
0.0297107
0.0297227
0.0297325
0.0296514
0.0296502
0.029655
0.0296647
0.0296796
0.0296996
0.0297238
0.0297515
0.029777
0.0297969
0.0286093
0.0286039
0.0286105
0.0286197
0.0286278
0.0286346
0.0286403
0.0286422
0.0286216
0.0286127
0.0152054
0.0151487
0.0151475
0.015151
0.0151559
0.0151613
0.0151656
0.015156
0.0150297
0.0149246
0.00160382
0.00160353
0.0016034
0.00160346
0.00160374
0.00160424
0.00160491
0.00160566
0.00160619
0.00160631
0.00168178
0.00168215
0.00168216
0.00168182
0.00168112
0.00168008
0.0016787
0.00167706
0.00167562
0.0016764
0.017011
0.0170315
0.0170293
0.0170215
0.0170133
0.017011
0.0170309
0.0171177
0.0173768
0.0180205
0.0286576
0.0286615
0.0286625
0.0286627
0.0286636
0.028667
0.0286757
0.0286934
0.0287187
0.0287273
0.0294816
0.0294821
0.0294826
0.0294836
0.0294851
0.0294874
0.0294905
0.0294946
0.0294987
0.0294998
0.0295035
0.0295023
0.0295026
0.0295043
0.0295075
0.0295118
0.029517
0.0295228
0.0295289
0.0295351
0.0295647
0.0295643
0.0295651
0.0295675
0.0295711
0.0295758
0.0295812
0.0295874
0.029594
0.0296
0.0295427
0.0295391
0.0295396
0.0295439
0.0295521
0.0295642
0.0295794
0.0295973
0.0296143
0.0296285
0.0287094
0.0287013
0.028703
0.028706
0.0287078
0.0287079
0.028706
0.0287005
0.0286806
0.0286756
0.0160125
0.0159534
0.0159503
0.0159518
0.0159545
0.0159574
0.0159589
0.0159479
0.0158621
0.0158001
0.00157502
0.00157499
0.00157498
0.00157503
0.00157514
0.00157531
0.00157549
0.00157562
0.00157551
0.00157504
0.00165007
0.00165044
0.00165045
0.0016501
0.00164939
0.00164834
0.00164694
0.00164526
0.00164366
0.00164396
0.0181252
0.0181534
0.0181552
0.0181484
0.0181391
0.0181339
0.0181497
0.018233
0.0184961
0.0191697
0.0288442
0.0288482
0.0288495
0.0288499
0.0288507
0.0288533
0.0288604
0.0288758
0.0288997
0.028911
0.0294744
0.0294752
0.0294757
0.0294761
0.0294767
0.0294775
0.029479
0.0294813
0.0294843
0.0294859
0.0294774
0.0294762
0.0294761
0.0294771
0.0294793
0.0294824
0.0294862
0.0294906
0.0294953
0.0295002
0.0295161
0.0295154
0.0295155
0.0295167
0.0295187
0.0295214
0.0295247
0.0295283
0.0295323
0.0295361
0.0294962
0.0294923
0.0294914
0.0294935
0.0294988
0.0295069
0.0295174
0.0295299
0.0295421
0.0295533
0.0288705
0.028862
0.0288619
0.0288626
0.0288625
0.0288611
0.0288578
0.0288515
0.0288367
0.0288373
0.0170189
0.0169584
0.0169544
0.0169552
0.0169569
0.0169586
0.0169589
0.016953
0.0169011
0.016874
0.00154388
0.00154402
0.0015441
0.00154413
0.00154411
0.00154403
0.00154387
0.00154358
0.00154304
0.00154217
0.00161663
0.001617
0.001617
0.00161664
0.00161593
0.00161486
0.00161345
0.00161172
0.00160998
0.00160976
0.0194501
0.019486
0.019492
0.0194871
0.019478
0.0194715
0.0194847
0.0195651
0.0198342
0.0205537
0.0290256
0.0290294
0.0290308
0.0290314
0.0290322
0.0290343
0.0290401
0.0290531
0.0290754
0.0290902
0.0294728
0.0294736
0.029474
0.0294742
0.0294742
0.0294743
0.0294748
0.029476
0.0294782
0.0294802
0.0294671
0.0294662
0.029466
0.0294667
0.0294681
0.0294703
0.0294729
0.029476
0.0294794
0.029483
0.0294911
0.0294905
0.0294905
0.0294911
0.0294924
0.029494
0.029496
0.0294982
0.0295006
0.029503
0.0294788
0.0294755
0.0294743
0.0294756
0.0294791
0.0294848
0.029492
0.0295006
0.0295092
0.0295179
0.0290548
0.0290473
0.0290465
0.0290465
0.0290462
0.0290451
0.0290425
0.029038
0.0290287
0.0290338
0.0182826
0.0182219
0.0182177
0.0182182
0.0182194
0.0182204
0.01822
0.0182172
0.0181949
0.0181947
0.00151053
0.00151079
0.00151092
0.00151093
0.00151082
0.00151057
0.00151017
0.0015096
0.00150878
0.00150767
0.00158164
0.001582
0.001582
0.00158164
0.00158092
0.00157985
0.00157842
0.00157666
0.00157477
0.00157401
0.0210665
0.0211097
0.0211201
0.0211181
0.0211108
0.0211051
0.0211169
0.0211937
0.0214667
0.0222504
0.0291924
0.0291957
0.029197
0.0291977
0.0291985
0.0292003
0.0292047
0.0292152
0.0292347
0.0292528
0.0294709
0.0294716
0.029472
0.029472
0.0294718
0.0294716
0.0294716
0.0294721
0.0294735
0.0294758
0.0294624
0.0294618
0.0294617
0.0294621
0.029463
0.0294643
0.029466
0.029468
0.0294701
0.0294725
0.0294764
0.029476
0.029476
0.0294764
0.0294771
0.029478
0.0294792
0.0294804
0.0294817
0.0294831
0.0294705
0.0294682
0.0294673
0.0294681
0.0294704
0.029474
0.0294786
0.029484
0.0294894
0.0294957
0.0292316
0.0292258
0.0292251
0.029225
0.0292249
0.0292243
0.0292228
0.0292204
0.0292152
0.0292231
0.0199012
0.0198418
0.019838
0.0198383
0.0198391
0.0198395
0.0198383
0.0198348
0.0198254
0.0198447
0.0014752
0.00147554
0.0014757
0.00147569
0.00147551
0.00147516
0.00147461
0.00147386
0.00147287
0.00147161
0.0015452
0.00154558
0.00154559
0.00154524
0.00154453
0.00154347
0.00154205
0.00154029
0.0015383
0.001537
0.0230737
0.0231226
0.023138
0.0231407
0.0231387
0.0231379
0.0231516
0.0232227
0.023487
0.0243373
0.0293322
0.0293346
0.0293356
0.0293362
0.029337
0.0293384
0.0293416
0.0293489
0.029364
0.029383
0.0294669
0.0294673
0.0294675
0.0294675
0.0294674
0.0294671
0.029467
0.0294671
0.0294679
0.0294697
0.0294591
0.0294587
0.0294587
0.0294589
0.0294594
0.0294601
0.0294611
0.0294622
0.0294634
0.0294648
0.0294662
0.029466
0.029466
0.0294662
0.0294666
0.0294671
0.0294676
0.0294682
0.0294689
0.0294696
0.0294614
0.02946
0.0294595
0.0294599
0.0294613
0.0294633
0.0294659
0.0294687
0.0294717
0.0294756
0.0293737
0.0293702
0.0293697
0.0293697
0.0293696
0.0293694
0.0293686
0.0293673
0.0293641
0.0293724
0.022041
0.0219864
0.0219834
0.0219836
0.0219839
0.0219837
0.0219817
0.0219773
0.0219669
0.0219792
0.00143808
0.00143844
0.00143862
0.0014386
0.00143838
0.00143796
0.00143733
0.00143649
0.00143541
0.0014341
0.0015065
0.00150687
0.00150689
0.00150655
0.00150586
0.00150482
0.00150344
0.00150171
0.00149969
0.00149794
0.0257215
0.0257605
0.0257703
0.0257712
0.0257688
0.0257661
0.0257702
0.0258089
0.0259974
0.0268359
0.0294321
0.0294332
0.0294337
0.0294342
0.0294348
0.0294357
0.0294375
0.0294414
0.0294499
0.0294645
0.0294619
0.0294621
0.0294622
0.0294622
0.0294621
0.029462
0.029462
0.0294619
0.0294622
0.029463
0.029457
0.0294568
0.0294568
0.0294569
0.0294572
0.0294576
0.0294582
0.0294588
0.0294595
0.0294603
0.0294595
0.0294593
0.0294593
0.0294594
0.0294597
0.02946
0.0294604
0.0294609
0.0294613
0.0294618
0.0294522
0.0294513
0.029451
0.0294513
0.0294521
0.0294533
0.0294547
0.0294562
0.0294576
0.0294595
0.0294609
0.0294593
0.0294592
0.0294593
0.0294593
0.0294593
0.0294591
0.029459
0.0294586
0.0294647
0.0250151
0.0249737
0.024972
0.024972
0.0249721
0.0249717
0.02497
0.0249663
0.0249575
0.0249606
0.00139843
0.0013988
0.00139897
0.00139894
0.00139871
0.00139826
0.0013976
0.00139673
0.00139563
0.00139433
0.00239265
0.00246227
0.00243238
0.00231096
0.00232435
0.0023247
0.00229573
0.00225459
0.00287807
0.00288656
0.00284775
0.00275773
0.00319295
0.00320878
0.00316903
0.00305452
0.00349035
0.0035122
0.00346968
0.0033438
0.0038152
0.0038328
0.00378085
0.00364951
0.00408503
0.0040964
0.00404143
0.00392151
0.00421815
0.00422158
0.00416507
0.00405106
0.00372861
0.00371125
0.00364383
0.00352803
0.00255885
0.00262082
0.00265889
0.00265921
0.00204806
0.00209975
0.00211912
0.0020936
0.00411263
0.00429171
0.00424983
0.00394126
0.00627571
0.00644982
0.00634467
0.005898
0.00758182
0.00772863
0.0075885
0.00710986
0.00889914
0.0090756
0.00892134
0.00842389
0.0107465
0.0110576
0.0109466
0.0104998
0.0127253
0.0131451
0.013049
0.0126468
0.0142445
0.0147407
0.0146816
0.0144116
0.01193
0.0123448
0.0122631
0.0120077
0.00235852
0.00239098
0.00239481
0.0023756
0.00193797
0.001961
0.00196714
0.00195442
0.00475953
0.00497861
0.00507293
0.00518632
0.00701199
0.00729038
0.00736995
0.00752317
0.00819758
0.00847177
0.00853825
0.00868122
0.00935366
0.00964015
0.00970541
0.00979025
0.0108396
0.0112471
0.0114331
0.0116459
0.0124961
0.0130427
0.0133352
0.0136292
0.0138001
0.0144715
0.0148572
0.0152566
0.0108244
0.0113826
0.0116848
0.0119536
0.00214192
0.0021683
0.00217886
0.00217669
0.00188489
0.001896
0.0018983
0.00189021
0.00821423
0.00824566
0.00853065
0.00921542
0.0116725
0.0117624
0.0122191
0.0132359
0.0127212
0.0129131
0.0134697
0.0146195
0.0135871
0.013877
0.0145016
0.0157229
0.0147197
0.015141
0.0158925
0.017296
0.0158506
0.0163951
0.0172431
0.0187449
0.0164608
0.0171356
0.0180746
0.0196084
0.012028
0.0126189
0.0133333
0.014332
0.00200842
0.00202489
0.0020362
0.00204423
0.00184843
0.00185616
0.00185695
0.00185034
0.0124945
0.0125133
0.0127906
0.0133852
0.0193495
0.019353
0.0199192
0.0210707
0.020389
0.0205487
0.0213191
0.0227238
0.0209184
0.0212455
0.0221667
0.0237275
0.0217753
0.0223206
0.0234418
0.0251784
0.0224702
0.0232013
0.024454
0.0262497
0.0221852
0.023054
0.0243378
0.026021
0.0146261
0.0153024
0.0161089
0.0169446
0.00193389
0.00194496
0.00195386
0.00196149
0.00181898
0.0018253
0.00182571
0.0018199
0.0140038
0.0140927
0.0142501
0.0144903
0.027495
0.027395
0.0277577
0.0285165
0.0288747
0.0288676
0.0294207
0.0304353
0.0290531
0.0291831
0.0298883
0.0310557
0.0294782
0.0297905
0.0306689
0.0319825
0.0295816
0.0300532
0.0310437
0.0324088
0.0281431
0.028723
0.0297076
0.0309426
0.016505
0.0168935
0.017367
0.0177773
0.00187937
0.0018864
0.00189291
0.00189946
0.00179374
0.00179934
0.00179955
0.00179421
0.0130525
0.013185
0.0132803
0.013354
0.0322324
0.0321834
0.0323033
0.0325642
0.0352001
0.0351642
0.0353873
0.0358091
0.0356224
0.0356316
0.0359513
0.0364954
0.0359599
0.0360549
0.0364977
0.0371781
0.0357277
0.0359068
0.0364356
0.0371852
0.0332495
0.0334885
0.0340059
0.0346677
0.0170626
0.0172024
0.0173391
0.0173758
0.00183757
0.001842
0.00184664
0.00185191
0.00177024
0.00177539
0.0017755
0.00177046
0.0124478
0.0125788
0.0126439
0.0126538
0.0315436
0.0315221
0.0315408
0.0315966
0.0361135
0.0361084
0.0361479
0.0362197
0.0377056
0.0377048
0.0377778
0.0378997
0.0389317
0.0389537
0.0390962
0.039319
0.0391871
0.0392255
0.0394177
0.0397072
0.0362119
0.0362603
0.0364335
0.0366674
0.0160563
0.0160961
0.0160845
0.0159673
0.00180289
0.00180564
0.00180889
0.00181303
0.00174705
0.00175186
0.00175191
0.00174715
0.0124451
0.0125702
0.0126163
0.0125907
0.0295042
0.0294768
0.0294789
0.029511
0.0335549
0.033556
0.0335568
0.0335562
0.0354516
0.0354603
0.035461
0.0354501
0.0374446
0.0374752
0.0375094
0.0375391
0.0386137
0.0386521
0.0387084
0.0387678
0.0359148
0.0359435
0.0359751
0.0359889
0.0146171
0.014632
0.0146021
0.0144903
0.00177206
0.00177371
0.00177594
0.00177913
0.00172347
0.00172796
0.00172798
0.0017235
0.0127383
0.0128557
0.0128886
0.0128427
0.0284148
0.0283838
0.0283846
0.0284179
0.0313903
0.0313878
0.0313882
0.0313914
0.0326205
0.0326238
0.0326179
0.0326023
0.0341904
0.0342125
0.0342232
0.0342207
0.0354237
0.0354611
0.0354833
0.0354858
0.0332906
0.0333245
0.033327
0.0332895
0.0137876
0.0137897
0.0137635
0.0136848
0.00174292
0.00174386
0.00174537
0.00174778
0.00169905
0.00170322
0.00170323
0.00169906
0.0131785
0.0132851
0.0133081
0.0132532
0.0280506
0.0280193
0.0280198
0.0280528
0.0303018
0.0302988
0.0303006
0.0303074
0.0309504
0.0309507
0.0309474
0.0309404
0.0318411
0.0318505
0.0318555
0.0318556
0.0325886
0.0326077
0.0326185
0.0326194
0.0308177
0.0308374
0.0308341
0.0308032
0.0136136
0.0136109
0.0135882
0.0135309
0.0017143
0.00171479
0.00171579
0.0017176
0.00167351
0.00167734
0.00167734
0.00167351
0.0137115
0.0138013
0.0138161
0.0137639
0.0280184
0.0279875
0.0279877
0.0280194
0.0298188
0.0298163
0.0298183
0.0298248
0.0301494
0.0301496
0.0301481
0.0301452
0.0306096
0.0306133
0.030616
0.0306178
0.0309729
0.0309805
0.0309858
0.0309886
0.0294253
0.0294337
0.029428
0.0294063
0.0138661
0.0138647
0.0138457
0.0138006
0.00168555
0.00168574
0.0016864
0.00168775
0.00164663
0.00165011
0.00165011
0.00164662
0.0143237
0.0143843
0.0143932
0.0143589
0.0281288
0.0280989
0.0280988
0.028129
0.0296106
0.0296086
0.0296101
0.0296153
0.0297815
0.029782
0.0297815
0.0297802
0.0300163
0.030018
0.0300197
0.0300214
0.0301771
0.03018
0.0301828
0.0301857
0.0288312
0.0288353
0.0288298
0.0288137
0.0143918
0.0143948
0.0143799
0.0143419
0.00165619
0.00165621
0.00165664
0.00165763
0.00161824
0.00162137
0.00162137
0.00161822
0.0150239
0.0150655
0.015071
0.0150443
0.0283017
0.0282737
0.0282736
0.0283015
0.0295237
0.0295221
0.0295232
0.0295269
0.0296139
0.0296146
0.0296145
0.0296139
0.029735
0.0297361
0.0297372
0.0297385
0.0298029
0.0298042
0.029806
0.0298085
0.0286708
0.0286738
0.0286695
0.0286574
0.0151199
0.0151287
0.0151177
0.0150838
0.00162589
0.00162581
0.00162608
0.0016268
0.00158819
0.00159098
0.00159098
0.00158818
0.0158349
0.0158738
0.0158777
0.0158497
0.0285025
0.0284773
0.0284771
0.0285023
0.0294902
0.029489
0.0294896
0.0294921
0.0295377
0.0295384
0.0295385
0.0295382
0.0296018
0.0296025
0.0296033
0.0296042
0.0296322
0.0296329
0.0296341
0.0296362
0.0287264
0.0287293
0.0287264
0.0287173
0.0160313
0.0160462
0.0160387
0.0160069
0.00159434
0.00159422
0.00159439
0.00159491
0.00155641
0.00155883
0.00155882
0.0015564
0.0168107
0.0168538
0.0168565
0.0168206
0.0287144
0.028693
0.0286929
0.0287143
0.0294793
0.0294785
0.0294788
0.0294801
0.0295025
0.0295032
0.0295033
0.0295031
0.0295375
0.029538
0.0295385
0.029539
0.0295558
0.0295563
0.0295573
0.0295588
0.0288818
0.0288847
0.0288829
0.0288762
0.0171409
0.0171614
0.0171569
0.0171265
0.00156134
0.00156121
0.00156131
0.00156167
0.00152288
0.0015249
0.00152489
0.00152288
0.0180083
0.0180687
0.0180703
0.0180142
0.0289266
0.0289101
0.0289101
0.0289267
0.0294765
0.0294762
0.0294763
0.0294767
0.0294848
0.0294853
0.0294854
0.0294852
0.029504
0.0295044
0.0295047
0.0295048
0.0295196
0.02952
0.0295207
0.0295218
0.0290721
0.029075
0.0290739
0.0290687
0.018491
0.0185145
0.0185125
0.0184849
0.00152678
0.00152666
0.00152672
0.00152697
0.00148779
0.00148937
0.00148937
0.00148779
0.0195198
0.0196229
0.0196237
0.0195227
0.0291277
0.0291173
0.0291174
0.0291279
0.0294745
0.0294747
0.0294746
0.0294744
0.0294738
0.0294741
0.0294742
0.029474
0.0294838
0.029484
0.029484
0.029484
0.0294969
0.0294973
0.0294977
0.0294983
0.0292552
0.0292581
0.0292573
0.0292528
0.0201469
0.0201646
0.0201648
0.0201476
0.00149074
0.00149065
0.00149068
0.00149084
0.00145145
0.00145255
0.00145255
0.00145145
0.0215094
0.021705
0.0217052
0.0215101
0.0293018
0.0292984
0.0292985
0.029302
0.02947
0.0294703
0.0294703
0.0294698
0.0294656
0.0294658
0.0294658
0.0294657
0.0294699
0.02947
0.0294699
0.0294698
0.0294764
0.0294768
0.0294771
0.0294773
0.0293981
0.0294008
0.0293999
0.0293955
0.0222631
0.0222746
0.022275
0.0222643
0.00145332
0.00145328
0.0014533
0.00145338
0.00141319
0.0014138
0.0014138
0.00141319
0.0243594
0.0247037
0.0247037
0.0243595
0.0294299
0.029432
0.029432
0.0294301
0.0294634
0.0294636
0.0294636
0.0294634
0.0294607
0.0294608
0.0294608
0.0294608
0.0294619
0.0294618
0.0294618
0.0294617
0.0294599
0.0294601
0.0294604
0.0294606
0.029478
0.0294792
0.0294782
0.0294752
0.0251765
0.0251775
0.0251781
0.0251783
0.00141375
0.00141376
0.00141377
0.00141379
0.00219699
0.00208347
0.00202205
0.00198628
0.00196508
0.00194928
0.00193573
0.00192415
0.00191476
0.0019073
0.00280796
0.00252797
0.00385964
0.00832468
0.0133818
0.0171595
0.0192379
0.0198507
0.0195738
0.0188426
0.0040349
0.00499711
0.0114705
0.0211431
0.0322419
0.0418181
0.0488095
0.0530469
0.0547701
0.0542434
0.00558614
0.00898541
0.0176841
0.0302753
0.0434723
0.0540696
0.0614899
0.0658241
0.0674681
0.0668577
0.00880757
0.0121423
0.0230859
0.0370247
0.0505379
0.0609233
0.0677923
0.0714972
0.072608
0.0718836
0.0132656
0.0159904
0.0274824
0.0416996
0.0549538
0.0648074
0.0709024
0.0737779
0.0742348
0.07337
0.0167387
0.018865
0.029487
0.0436799
0.0565047
0.0656354
0.0707063
0.0726042
0.0723547
0.0714258
0.0185381
0.0194756
0.0275908
0.0403589
0.0509704
0.0578055