/*--------------------------------*- C++ -*----------------------------------*\
| =========                 |                                                 |
| \\      /  F ield         | foam-extend: Open Source CFD                    |
|  \\    /   O peration     | Version:     4.0                                |
|   \\  /    A nd           | Web:         http://www.foam-extend.org         |
|    \\/     M anipulation  |                                                 |
\*---------------------------------------------------------------------------*/
FoamFile
{
    version     2.0;
    format      ascii;
    class       volScalarField;
    location    "1400";
    object      divFlux;
}
// * * * * * * * * * * * * * * * * * * * * * * * * * * * * * * * * * * * * * //

dimensions      [1 -3 -1 0 0 0 0];

internalField   nonuniform List<scalar> 
34480
(
0.0800285
0.0257656
0.0267135
0.0249972
0.0229964
0.021033
0.0191439
0.0173802
0.0158128
0.0144497
0.0235927
0.0120022
0.012244
0.0119826
0.0117288
0.0113728
0.0108156
0.0100859
0.00928329
0.00849584
0.0070955
0.00465124
0.00476615
0.00486093
0.00502828
0.00517231
0.00516601
0.00496882
0.00463668
0.0042445
0.00295801
0.00216427
0.00218759
0.00222971
0.00232297
0.00242972
0.00247797
0.00242482
0.0022828
0.00208837
0.00145614
0.0011305
0.00112119
0.00112774
0.00116561
0.00122122
0.00125725
0.0012441
0.00117959
0.00108053
0.000808024
0.000648733
0.000631572
0.000625707
0.000639714
0.000668132
0.000690739
0.000689191
0.000658214
0.000610531
0.000497216
0.000406398
0.000388505
0.000378913
0.000382935
0.000398194
0.000413125
0.000416249
0.000401938
0.000379478
0.000355371
0.000291657
0.000273065
0.000261185
0.000259671
0.000267239
0.000276801
0.000281232
0.000275392
0.000265109
0.000341189
0.00027791
0.000252963
0.000233298
0.000221419
0.00021682
0.000216354
0.000216956
0.000214257
0.000210368
0.000321411
0.00026425
0.000238978
0.000217769
0.000201556
0.000190558
0.000184651
0.000183197
0.000183273
0.000184916
0.105322
0.0306263
0.031697
0.0300313
0.0280409
0.0262414
0.0246837
0.0234466
0.0226789
0.0239646
0.0338791
0.0158002
0.016129
0.0158102
0.0154631
0.0151873
0.0149242
0.0146216
0.0143245
0.0152726
0.0110112
0.0067684
0.00693932
0.0070744
0.00731228
0.0075564
0.00774412
0.00781571
0.00774974
0.00826131
0.00506484
0.00352427
0.0035557
0.00361254
0.00376524
0.00394645
0.00410374
0.00419279
0.0041725
0.00442402
0.00274792
0.00204673
0.002021
0.00202642
0.0020942
0.00220276
0.00230697
0.00237752
0.00237373
0.00250672
0.00167583
0.00129888
0.00125715
0.00124217
0.00127019
0.00133632
0.00140696
0.00146239
0.00146721
0.00154698
0.00113119
0.000897034
0.000852249
0.000830027
0.000840316
0.000884125
0.000937164
0.00098518
0.000996642
0.00105451
0.000894028
0.000715464
0.00066647
0.000637796
0.000636427
0.000664712
0.000705628
0.000748771
0.000763966
0.000811026
0.00097912
0.000780156
0.000708666
0.00065465
0.000622016
0.000615312
0.00062807
0.000655472
0.000668981
0.000713539
0.00100348
0.000809085
0.00073386
0.000673044
0.000627823
0.000604633
0.000601507
0.000616602
0.000632044
0.000682913
0.108428
0.0270948
0.02856
0.0274066
0.0260393
0.0248842
0.0240218
0.0235523
0.0237403
0.0185445
0.0337943
0.0134032
0.0138246
0.0134493
0.0131134
0.0129852
0.013035
0.0132362
0.0137125
0.00324181
0.0103249
0.0054486
0.00556951
0.00557836
0.00565708
0.00584187
0.00613047
0.00647728
0.00690628
0.00331925
0.00445074
0.00268661
0.00269038
0.00267744
0.00272454
0.00282819
0.00300429
0.00323035
0.00350293
0.00410494
0.00224085
0.00146538
0.00143355
0.0014019
0.0014124
0.00146115
0.00155845
0.00169832
0.00187332
0.00224272
0.00125911
0.000866849
0.000829834
0.000796831
0.000791182
0.000814468
0.000871504
0.000962919
0.00108267
0.00132689
0.000780582
0.000555989
0.000521974
0.000492286
0.000481479
0.000493184
0.00053013
0.000595444
0.000684936
0.000862383
0.000562488
0.000408209
0.000376552
0.000348837
0.000335093
0.000339584
0.000364758
0.000414815
0.000487629
0.000632023
0.000535147
0.000387358
0.000354195
0.000324007
0.000303611
0.000296738
0.000306863
0.0003403
0.000401341
0.000540587
0.000463435
0.000333712
0.000306039
0.000281528
0.000265064
0.000258778
0.000263482
0.000285694
0.000340179
0.000497647
0.112283
0.0252415
0.0268812
0.0261248
0.0251311
0.0243117
0.0237556
0.0221584
0.0123626
0.00652138
0.0356802
0.0130001
0.013447
0.0130437
0.012647
0.0124241
0.012402
0.012595
0.0117138
0.00240971
0.0109505
0.00539359
0.00550256
0.00544422
0.00543356
0.00552419
0.00573213
0.00605175
0.00648312
0.000355671
0.00474907
0.0027112
0.00270964
0.00266964
0.00266861
0.00272291
0.00285162
0.00305433
0.00332768
0.000692858
0.00239409
0.00149814
0.00146407
0.00142042
0.00141007
0.0014317
0.00150276
0.00162685
0.00180157
0.000813161
0.00134181
0.000892866
0.000854525
0.000815993
0.000800173
0.000808239
0.000850147
0.000931564
0.00105129
0.00081544
0.000827843
0.000574939
0.000540166
0.000507677
0.000491524
0.000494054
0.000521724
0.000580663
0.000670689
0.00082115
0.000590784
0.000421623
0.000390044
0.000361157
0.00034453
0.000343225
0.000362445
0.000408463
0.00048248
0.000606576
0.000546825
0.000393003
0.000361858
0.000333177
0.000313211
0.000304612
0.000312374
0.000344087
0.000406943
0.00053083
0.000466433
0.00033458
0.000308926
0.000286296
0.000271511
0.000265821
0.000271617
0.000295625
0.000352234
0.000495243
0.114204
0.0231279
0.024897
0.0244475
0.0237058
0.0230737
0.020501
0.0163504
0.0111362
0.00191223
0.0369728
0.0123759
0.0128803
0.0125198
0.012115
0.0118178
0.0116629
0.011676
0.00841041
0.000622184
0.0115148
0.00527481
0.00538237
0.00527832
0.0052001
0.00519812
0.00528756
0.00547758
0.00542736
0.000546285
0.00503564
0.00270442
0.0027031
0.00264051
0.00260315
0.00260942
0.00267363
0.00280279
0.00299304
0.000456427
0.00254371
0.00151379
0.00148038
0.0014301
0.00140045
0.00139766
0.00143382
0.00151538
0.00164192
0.000108964
0.00142235
0.000908439
0.000871309
0.000829663
0.000805708
0.000799998
0.000821795
0.000877098
0.000966927
0.000219676
0.000873231
0.000586816
0.000553211
0.000519893
0.000499856
0.000494382
0.000509616
0.000551378
0.000621534
0.000196703
0.000616594
0.000429062
0.000399048
0.000370687
0.000352602
0.000346647
0.000357805
0.000391898
0.000451857
0.000104432
0.000555141
0.000391938
0.000363417
0.000337026
0.000318414
0.000309183
0.00031382
0.000339077
0.000392318
0.000299245
0.000467688
0.000329825
0.000306364
0.000285676
0.000272261
0.000267087
0.000273062
0.000296035
0.000347007
0.000468478
0.114224
0.0208217
0.0226392
0.0224119
0.0217187
0.0198484
0.0176488
0.0154468
0.0128992
0.0088524
0.037448
0.011523
0.0120777
0.0117883
0.0114236
0.0111198
0.0109023
0.0101125
0.00767192
0.00348263
0.0119779
0.00508443
0.00519605
0.00506489
0.0049419
0.00487178
0.00486455
0.00492743
0.00448568
0.00163408
0.00528865
0.0026615
0.00266238
0.00258267
0.00251784
0.00248554
0.00249478
0.00255069
0.0026176
0.000749777
0.00267672
0.00150854
0.00147818
0.00142083
0.00137708
0.00135442
0.00136048
0.00139971
0.00146949
7.06132e-05
0.00149332
0.000911601
0.000876846
0.00083365
0.000802328
0.000785589
0.00078979
0.00081888
0.000872488
0.000465526
0.000912493
0.000590734
0.000559279
0.000525863
0.000502694
0.000490735
0.000494932
0.000519168
0.000564345
0.000647721
0.00063759
0.000430566
0.000402784
0.000375535
0.000356551
0.000347063
0.000351105
0.000372805
0.000414272
0.000789643
0.000559578
0.000385935
0.000360085
0.000335912
0.000318627
0.000309332
0.000311574
0.00033018
0.000370521
0.000579808
0.000466863
0.000321439
0.000300152
0.000281222
0.000268858
0.000263972
0.000269423
0.000289717
0.000332148
0.000410579
0.11218
0.0180042
0.0196854
0.0193106
0.0182722
0.0172295
0.0159344
0.0148165
0.0134344
0.0116241
0.0370833
0.0104925
0.0110721
0.0108529
0.0105431
0.01027
0.0100041
0.00914396
0.00759275
0.00528553
0.012271
0.00481648
0.00493825
0.00480099
0.00465903
0.00455204
0.00448644
0.00446588
0.00395461
0.00220528
0.00547701
0.00257545
0.00258184
0.00249382
0.00241313
0.00235582
0.0023272
0.00232967
0.00224301
0.000971122
0.00277634
0.00147722
0.00145127
0.00139032
0.00133805
0.0013018
0.00128618
0.00129335
0.00131831
0.000180666
0.00154555
0.000898769
0.00086753
0.000823711
0.000787862
0.000763592
0.000754782
0.000763496
0.000787553
0.000426934
0.000940471
0.000584501
0.000555845
0.000523235
0.000497942
0.000481527
0.000477415
0.000487694
0.00051174
0.0007002
0.000650797
0.000424943
0.000399752
0.000373967
0.000354718
0.000342966
0.000341716
0.000353411
0.000378712
0.000975398
0.000558535
0.000374803
0.00035155
0.000329393
0.000313277
0.00030419
0.000304795
0.000318085
0.000347037
0.000890785
0.000462706
0.000309471
0.000290293
0.000272922
0.000261353
0.000256529
0.000260932
0.000277746
0.00031136
0.000757841
0.108208
0.0147765
0.0165075
0.0165168
0.015897
0.0153051
0.0144895
0.0139263
0.0130567
0.0122937
0.0359949
0.00936188
0.00993755
0.00977371
0.00951174
0.00927299
0.00893143
0.0083591
0.00743724
0.00618336
0.0122981
0.00446451
0.00459736
0.00447034
0.00433072
0.00421516
0.0041284
0.0040494
0.00362113
0.00252154
0.00555776
0.00243872
0.00245315
0.00236611
0.00228172
0.00221443
0.00216727
0.00214102
0.00200141
0.00111723
0.00282354
0.00141533
0.00139519
0.00133488
0.00128018
0.0012377
0.00121004
0.0011979
0.00115196
0.000306375
0.00156968
0.00086717
0.000840234
0.00079756
0.000760565
0.000732642
0.000716043
0.000711565
0.00071088
0.000302009
0.000952185
0.000566394
0.000540981
0.000509928
0.000484195
0.000465664
0.000456312
0.000457069
0.000466324
0.000588929
0.000653479
0.00041123
0.000388778
0.000364852
0.000345987
0.000333313
0.000328732
0.000333433
0.000346995
0.000925462
0.000550466
0.000358166
0.000337408
0.00031708
0.000302031
0.000293244
0.000292655
0.000301947
0.000322414
0.000871761
0.000453962
0.000293653
0.000276517
0.000260557
0.000249637
0.000244721
0.00024777
0.000260878
0.000286542
0.000776797
0.104319
0.0125375
0.0141552
0.0143362
0.0139317
0.0135716
0.0129996
0.0127077
0.0120678
0.0117871
0.0343345
0.00820241
0.00875048
0.00862742
0.00840328
0.00817563
0.00786937
0.00748548
0.00693061
0.00621995
0.0120177
0.00403676
0.00417514
0.00406422
0.00393652
0.00382707
0.00374025
0.00363583
0.00332773
0.00264233
0.00549818
0.00224984
0.00227171
0.00219127
0.00211098
0.00204419
0.00199281
0.00195697
0.00181836
0.00120628
0.00280306
0.00132148
0.00130737
0.00125083
0.00119824
0.00115549
0.00112396
0.00110366
0.00102768
0.000417922
0.00155833
0.000815944
0.000793539
0.000753581
0.000718029
0.000689857
0.000670232
0.000659253
0.000578248
0.000167146
0.000943736
0.000535765
0.000513789
0.000484911
0.000460304
0.000441623
0.000429914
0.000425396
0.000426059
0.000432698
0.000643589
0.000389137
0.000369434
0.000347478
0.000329675
0.000317163
0.000310952
0.000311468
0.000299607
0.000791801
0.000534198
0.000335947
0.000317549
0.000299002
0.000284919
0.00027646
0.000274869
0.000281057
0.000295404
0.000699922
0.000439606
0.000273873
0.000258716
0.000244103
0.000233771
0.00022872
0.000230336
0.000239916
0.000258849
0.000665511
0.10001
0.0107546
0.0121832
0.0124256
0.0121313
0.0118905
0.0114452
0.0112896
0.0107648
0.0107073
0.0322256
0.00706488
0.00756791
0.00747444
0.00728199
0.00706472
0.00681999
0.006552
0.00620099
0.0057611
0.0114574
0.00355913
0.00369503
0.00359972
0.00348533
0.00338535
0.00330438
0.00319539
0.00298012
0.00255103
0.00529385
0.00201806
0.00204459
0.00197265
0.00189931
0.0018372
0.0017878
0.00175106
0.00163536
0.00121675
0.00270955
0.00119936
0.0011904
0.00113909
0.00109073
0.00105067
0.00101967
0.000997493
0.000927045
0.000495965
0.00150809
0.000746737
0.000728584
0.000692189
0.000659459
0.00063298
0.000613304
0.000600233
0.000496995
4.3901e-05
0.000913084
0.000493439
0.000474794
0.000448524
0.000425873
0.000408253
0.00039615
0.000389438
0.000386092
0.000265042
0.00062004
0.000359162
0.000342119
0.000322206
0.000305875
0.00029409
0.000287352
0.000285686
0.000171145
0.000627944
0.000509038
0.000308476
0.000292357
0.00027548
0.000262465
0.000254347
0.000251872
0.000255517
0.000265232
0.000489869
0.000418934
0.000250316
0.000237054
0.000223766
0.000214099
0.000208978
0.000209274
0.000215764
0.00022354
0.000514555
0.0950934
0.00919993
0.0104136
0.0106633
0.0104285
0.010251
0.00987468
0.00979173
0.00932708
0.00936837
0.0297485
0.00600562
0.00642665
0.006361
0.00618925
0.00599733
0.0058025
0.00560767
0.00537369
0.00507091
0.0106673
0.00306092
0.00318748
0.00310625
0.00300482
0.0029146
0.00283429
0.00273263
0.00257809
0.00229802
0.00496014
0.00175905
0.00178721
0.00172413
0.00165847
0.00160212
0.00155644
0.00152137
0.001431
0.00113993
0.00254698
0.00105663
0.00105157
0.00100605
0.000962637
0.000926236
0.000897323
0.000875626
0.000820254
0.000518041
0.0014199
0.000663429
0.000649016
0.000616588
0.000587214
0.00056316
0.000544669
0.000531465
0.000429819
4.33798e-05
0.000860321
0.000441484
0.00042595
0.000402511
0.000382167
0.000366107
0.000354521
0.000347167
0.000342204
0.000114373
0.000582818
0.000322566
0.00030806
0.000290273
0.000275568
0.000264733
0.000257986
0.000255183
0.000100082
0.000473152
0.000474844
0.000276499
0.00026258
0.00024743
0.000235591
0.000227868
0.000224691
0.000226269
0.000232348
0.000300733
0.000391632
0.000223474
0.000212068
0.000200136
0.000191272
0.000186194
0.000185421
0.000189397
0.000128518
0.000371707
0.0891414
0.00773332
0.00872893
0.00896617
0.00877564
0.00864511
0.00832277
0.00829974
0.0078816
0.00798271
0.0269435
0.00500829
0.00535856
0.00529767
0.0051486
0.0049878
0.00483346
0.00468775
0.00452473
0.00429307
0.00969094
0.00256515
0.00267747
0.00260906
0.00252055
0.0024406
0.00235699
0.00226924
0.00215405
0.00196267
0.00451847
0.00148844
0.00151576
0.00146165
0.00140412
0.00135414
0.00131304
0.00128075
0.00121436
0.00100513
0.00232457
0.000902197
0.000899888
0.000860495
0.00082242
0.000790134
0.000763983
0.000743707
0.000702301
0.000488676
0.00129786
0.000571033
0.00055984
0.000531642
0.00050589
0.000484563
0.000467751
0.000455184
0.00036001
8.54529e-05
0.000787391
0.000382803
0.000370133
0.000349689
0.000331823
0.000317525
0.000306831
0.000299485
0.000293874
4.48216e-07
0.000532939
0.000281123
0.00026903
0.000253462
0.000240485
0.000230719
0.000224219
0.000220791
4.865e-05
0.000355079
0.000432088
0.000241131
0.000229357
0.000216028
0.000205475
0.000198288
0.000194679
0.000194703
0.000198001
0.000145472
0.000357833
0.00019417
0.000184565
0.000174079
0.00016614
0.000161268
0.000159751
0.000161817
7.79866e-05
0.000256625
0.0829355
0.00642434
0.00719396
0.00737974
0.00719056
0.0070574
0.00673779
0.00672672
0.00629654
0.00639745
0.0238383
0.00403847
0.00433686
0.0042907
0.00417242
0.00404597
0.00392842
0.00382196
0.00370919
0.00352151
0.00856216
0.00209965
0.00219334
0.00213389
0.00205279
0.00197231
0.00189504
0.00182185
0.00173319
0.00159843
0.00399074
0.00121925
0.00124384
0.00119873
0.00114975
0.00110674
0.00107097
0.00104238
0.000999563
0.000844423
0.00205396
0.000744493
0.000743959
0.000710896
0.000678484
0.000650712
0.000627864
0.00060971
0.000578143
0.000425814
0.00114812
0.000474746
0.000466285
0.000442502
0.000420573
0.000402211
0.000387437
0.000371761
0.000285757
9.11727e-05
0.000697653
0.000320634
0.000310574
0.000293252
0.000277996
0.000265619
0.000256078
0.00024914
0.000243408
7.73056e-05
0.000472332
0.000236907
0.000227092
0.000213834
0.000202684
0.000194113
0.000188091
0.000146195
1.1493e-06
0.00028053
0.000381884
0.000203749
0.00019405
0.000182636
0.000173482
0.000167007
0.000163283
0.000162291
0.000163593
2.11202e-05
0.000318161
0.000163456
0.000155583
0.000146624
0.000139723
0.000135242
0.000133315
0.000134049
4.72736e-05
0.000174481
0.0741086
0.00522361
0.00585551
0.00609218
0.00602092
0.00599525
0.00577904
0.00586873
0.00548053
0.00563265
0.0204534
0.00316901
0.00340964
0.00336559
0.0032606
0.00315226
0.00305629
0.00297524
0.00289784
0.00272777
0.00726311
0.00163153
0.00171492
0.001667
0.0015967
0.00152634
0.00146045
0.00140069
0.00133121
0.00123694
0.00339944
0.000961857
0.000982444
0.000946106
0.000905915
0.000870292
0.000840402
0.000816197
0.000792167
0.000680149
0.00174836
0.000590871
0.000591298
0.000564573
0.000537999
0.000515016
0.000495875
0.000480377
0.000452826
0.000344269
0.000978196
0.000379428
0.000373226
0.00035391
0.000335913
0.000320693
0.000308239
0.00027152
0.000209173
7.26186e-05
0.000595522
0.000258194
0.000250464
0.000236318
0.00022375
0.000213423
0.000205264
0.00019907
0.000193658
0.000128494
0.00040368
0.000192089
0.000184384
0.000173485
0.000164234
0.000156984
0.000123189
4.4814e-05
5.81171e-05
0.000245591
0.000325971
0.0001659
0.000158169
0.000148726
0.000141063
0.000135464
0.000131927
0.000130392
0.000130406
8.01929e-05
0.000273752
0.000132547
0.000126302
0.000118921
0.000113145
0.000109221
0.000107191
0.00010709
2.44241e-05
0.000121791
0.0629397
0.00340217
0.00350955
0.00342764
0.00318198
0.00305515
0.00282469
0.00297222
0.00261621
0.00287457
0.0168439
0.00242622
0.00262157
0.00260548
0.00254101
0.00247052
0.0024059
0.00234962
0.00229578
0.00219594
0.0058625
0.00117378
0.00125714
0.00122618
0.00117185
0.00111472
0.00106056
0.00101155
0.000955327
0.000891194
0.00276994
0.000724939
0.000740808
0.000712763
0.000681247
0.000653084
0.000629288
0.000609823
0.000590201
0.000527531
0.00142259
0.000447561
0.000448317
0.000427694
0.000406904
0.000388775
0.000373524
0.000360988
0.000330138
0.000254026
0.000796722
0.000289366
0.000284964
0.000269991
0.000255892
0.000241916
0.000212487
0.000178155
0.000133017
3.93288e-05
0.000486195
0.000198444
0.000192733
0.000181698
0.000171805
0.000163585
0.00015696
0.000151762
0.000147015
0.000135497
0.000471719
0.000173391
0.000134678
0.00011217
8.46438e-05
4.68132e-05
3.79509e-06
5.68448e-05
0.000130527
0.000248007
0.00026665
0.000129175
0.00012326
0.000115782
0.000109649
0.000105052
0.000101951
0.000100252
9.95613e-05
9.92243e-05
0.000226216
0.000102709
9.79543e-05
9.21454e-05
8.7538e-05
8.42929e-05
8.24057e-05
7.91668e-05
8.89245e-06
8.74958e-05
0.0740244
0.00697487
0.00758882
0.00752896
0.00710975
0.00664808
0.00603123
0.00568556
0.00490718
0.00476736
0.0127525
0.00154507
0.00161997
0.00155945
0.00148129
0.00141596
0.00136944
0.00133982
0.00131944
0.00129014
0.0043826
0.000733149
0.000831084
0.000822714
0.000788477
0.000747024
0.000705538
0.000666955
0.000622735
0.000586149
0.0021292
0.000514828
0.000525983
0.000505665
0.000482507
0.000461624
0.00044382
0.000429074
0.000413928
0.000378179
0.00109295
0.000319594
0.000320232
0.000305236
0.000289936
0.000276488
0.000257688
0.000238484
0.000213863
0.000162682
0.000647334
0.000218417
0.000202826
0.000184523
0.000165122
0.000143494
0.000119163
9.39668e-05
6.1547e-05
2.18076e-07
0.000375407
0.000143927
0.000139901
0.00013178
0.000124437
0.000118277
0.000113229
0.000109163
0.000105304
9.57318e-05
0.000691459
0.000197756
4.78242e-05
2.08724e-05
6.43267e-05
0.000101742
0.000141843
0.000176819
0.000232084
0.000293019
0.000206668
9.50892e-05
9.07878e-05
8.5194e-05
8.05644e-05
7.70206e-05
7.45073e-05
7.29384e-05
7.19797e-05
7.0383e-05
0.000177562
7.51507e-05
7.17103e-05
6.74024e-05
6.39477e-05
6.14463e-05
5.98741e-05
5.17534e-05
1.11034e-05
5.22438e-05
0.0899547
0.00648634
0.00639831
0.0053556
0.00421884
0.00317592
0.0022638
0.0014766
0.00103694
0.000193054
0.0108507
0.00185377
0.00194679
0.00190399
0.00180976
0.00169588
0.00157749
0.00146155
0.00134707
0.00123925
0.00298825
0.000295001
0.000416247
0.000426418
0.000409129
0.000381777
0.000352324
0.000323853
0.000292208
0.000285339
0.00151538
0.000337909
0.000344672
0.000330936
0.000315185
0.000300909
0.000288676
0.000278433
0.000267626
0.000241446
0.000765423
0.000200249
0.000199681
0.000186727
0.000172035
0.000157181
0.000142435
0.000128337
0.000110765
7.88325e-05
0.000468506
0.000139469
0.000116594
9.66882e-05
7.86888e-05
6.11818e-05
4.33361e-05
2.60336e-05
3.37903e-06
3.53174e-05
0.000269112
9.66401e-05
9.39582e-05
8.84343e-05
8.34018e-05
7.91444e-05
7.56068e-05
7.26902e-05
6.98133e-05
6.2477e-05
0.000897088
0.000191319
7.16384e-05
0.000183377
0.000240798
0.000278433
0.000311029
0.00033423
0.000378875
0.000390865
0.000148968
6.49272e-05
6.20048e-05
5.81303e-05
5.48996e-05
5.23873e-05
5.05402e-05
4.92858e-05
4.83606e-05
4.63277e-05
0.000130057
5.09047e-05
4.85726e-05
4.56283e-05
4.32478e-05
4.14889e-05
4.03246e-05
3.97309e-05
3.53936e-05
3.96413e-06
0.344274
0.0094632
0.00945055
0.00829654
0.00701321
0.00584137
0.00483045
0.0039731
0.00299204
0.00264577
0.00339586
0.000825815
0.000642143
0.000466425
0.000298065
0.000139847
7.01223e-06
0.00014333
0.000270498
0.00037743
0.00151859
9.87627e-05
7.95366e-05
0.000117708
0.000116282
9.59684e-05
6.76017e-05
3.56497e-05
1.88829e-06
2.93138e-06
0.000955032
0.000196236
0.000199421
0.000191424
0.000182317
0.000174083
0.000167065
0.000161266
0.000155056
0.000138666
0.000463884
9.43759e-05
9.29108e-05
8.38219e-05
7.36629e-05
6.36253e-05
5.39357e-05
4.48216e-05
3.33609e-05
1.49834e-05
0.000275675
6.08039e-05
4.42645e-05
3.07697e-05
1.89813e-05
8.01351e-06
2.79469e-06
1.31968e-05
2.78898e-05
5.18563e-05
0.000173051
5.79294e-05
5.62656e-05
5.29222e-05
4.98595e-05
4.72514e-05
4.50546e-05
4.32025e-05
4.1294e-05
3.6238e-05
0.000902621
8.91911e-05
0.000239802
0.000372077
0.000433425
0.000467928
0.000493524
0.000510061
0.000549264
0.000523354
9.6507e-05
3.96653e-05
3.7858e-05
3.54674e-05
3.34667e-05
3.18926e-05
3.07052e-05
2.98507e-05
2.91365e-05
2.72703e-05
8.60277e-05
3.07233e-05
2.92811e-05
2.75038e-05
2.60617e-05
2.49835e-05
2.42458e-05
7.86181e-06
3.87174e-06
1.58068e-05
0.269124
0.00444417
0.00386576
0.00314106
0.00246618
0.00188199
0.00137692
0.000869813
0.000992277
0.000314227
0.00506401
0.00161148
0.00143926
0.00122183
0.00101411
0.000829449
0.000668186
0.000526061
0.000395777
0.000277097
0.000634054
0.000400601
0.000232706
0.000188762
0.000174481
0.000174117
0.000179994
0.000188823
0.000193571
0.000164041
0.000496322
9.33855e-05
9.39024e-05
8.95738e-05
8.4658e-05
8.00565e-05
7.59065e-05
7.21652e-05
6.78866e-05
5.80733e-05
0.000224888
2.61109e-05
2.47552e-05
2.03436e-05
1.54602e-05
1.06477e-05
5.97474e-06
1.4277e-06
4.69557e-06
1.55574e-05
0.000123429
1.27414e-05
6.50214e-06
1.22842e-06
3.50178e-06
7.93228e-06
1.23721e-05
1.69286e-05
2.47944e-05
4.11734e-05
9.21877e-05
2.83343e-05
2.74035e-05
2.57648e-05
2.42664e-05
2.29819e-05
2.18863e-05
2.09382e-05
1.98969e-05
1.69536e-05
0.000358679
0.000150653
0.000381711
0.00047075
0.0005102
0.000531098
0.000546055
0.000557365
0.000590055
0.000559514
5.19227e-05
1.98234e-05
1.88714e-05
1.76797e-05
1.66842e-05
1.58966e-05
1.52928e-05
1.4839e-05
1.44131e-05
1.30911e-05
0.000431281
0.000453223
0.000430177
0.000405132
0.000392765
0.000388196
0.000388133
0.000396266
0.000392808
0.000405816
0.0586443
0.000775532
0.000535026
0.000220453
7.61622e-05
0.00033676
0.000556501
0.000788487
0.00108584
0.00158246
0.000696578
0.000148604
0.000111175
7.04724e-05
3.13197e-05
5.29014e-06
3.97262e-05
7.28525e-05
0.000105232
0.000134015
0.000165452
0.000218854
0.00017233
0.00016558
0.000168067
0.000174798
0.000184217
0.000195605
0.000204749
0.000203772
0.000148895
3.01328e-05
2.9888e-05
2.867e-05
2.74123e-05
2.63046e-05
2.53678e-05
2.45815e-05
2.35407e-05
2.00968e-05
6.33599e-05
3.37847e-06
2.49162e-06
1.1772e-06
1.3239e-07
1.36102e-06
2.55626e-06
3.80935e-06
6.10452e-06
1.44117e-05
3.48096e-05
2.17798e-06
1.22622e-06
3.07879e-07
4.55216e-07
1.10895e-06
1.75772e-06
2.56961e-06
5.30774e-06
1.78681e-05
2.94503e-05
9.46733e-06
9.02512e-06
8.47413e-06
7.9844e-06
7.56395e-06
7.19908e-06
6.87321e-06
6.47902e-06
5.27262e-06
0.000188136
0.000217298
0.000251636
0.000264984
0.000271325
0.000275087
0.000278557
0.000282887
0.00029869
0.000309059
1.69344e-05
6.74949e-06
6.35844e-06
5.95995e-06
5.6339e-06
5.37757e-06
5.17928e-06
5.02514e-06
4.85919e-06
4.23886e-06
0.00163932
0.00152744
0.00148162
0.00145005
0.00143291
0.00142473
0.00142214
0.00142511
0.00142527
0.00146439
1.28699
1.29163
1.48694
1.93835
0.969435
1.01411
1.21022
1.80489
0.534199
0.507449
0.724192
1.21851
0.227062
0.186347
0.347988
0.637654
0.0681876
0.0484717
0.123839
0.24759
0.0109915
0.00604588
0.0299475
0.104073
0.0191186
0.0134428
0.026789
0.0230552
0.0285707
0.0184036
0.045048
0.0737307
0.03252
0.019852
0.0555647
0.110414
0.030273
0.0177864
0.0578263
0.127629
0.107459
0.0171658
0.0337148
0.0588721
0.123922
0.0269915
0.0324063
0.0393444
0.0894161
0.0193175
0.0213332
0.0223704
0.0523106
0.00875967
0.0089694
0.019417
0.0269447
0.00122127
0.00353007
0.0110012
0.0119582
0.00219626
0.00447188
0.00174881
0.00463935
0.0028662
0.00374609
0.00379041
0.00119976
0.00265603
0.00303071
0.00305018
0.000727622
0.00260974
0.0029608
0.00295833
0.00190006
0.00302172
0.00357763
0.00354556
0.111243
0.105431
0.100932
0.132871
0.0962229
0.0856374
0.0802758
0.116965
0.0641317
0.0531968
0.0517951
0.0766124
0.0374581
0.0278588
0.0294805
0.0444408
0.0217061
0.0135602
0.0154123
0.0242564
0.0146485
0.00768932
0.00849275
0.0137912
0.0110749
0.00479084
0.0048077
0.00799144
0.00913496
0.00317393
0.00251615
0.00443063
0.00808404
0.00204632
0.00110347
0.00251633
0.00746068
0.00100906
0.000163662
0.0008684
0.0161016
0.023614
0.0254005
0.0289681
0.0175729
0.0202134
0.0219883
0.029933
0.0144051
0.0144049
0.0162609
0.0232891
0.0100433
0.00862419
0.00965706
0.0150247
0.00754751
0.00509918
0.00513856
0.00883686
0.00674054
0.00353652
0.00289452
0.00532025
0.00665971
0.0028067
0.0017217
0.00350156
0.00689686
0.00248598
0.00106861
0.00262706
0.00678964
0.00174869
8.55118e-05
0.00171083
0.00556227
0.000161706
0.00155738
0.000346566
0.00216287
0.0040813
0.00510738
0.00683969
0.00182678
0.00682534
0.0091728
0.0134198
0.00282655
0.00592057
0.00771552
0.011221
0.00258886
0.0041393
0.00498192
0.00742935
0.00281405
0.00300567
0.00302448
0.00461863
0.00354176
0.00275151
0.00223399
0.00330188
0.00432159
0.00274583
0.00181428
0.0026162
0.00510925
0.00288907
0.00157874
0.00233268
0.00545779
0.00260713
0.000918831
0.00185123
0.00478806
0.00165329
0.000205802
0.00112229
0.0121135
0.00769413
0.00694971
0.00586334
0.00515373
0.000457907
0.00120034
0.0034129
0.00155869
0.00144744
0.00266709
0.00453999
0.000347114
0.00148954
0.00212423
0.00335296
0.000656535
0.0014417
0.00151366
0.00226626
0.0016433
0.00166808
0.00133476
0.00180701
0.00245776
0.00188701
0.00121557
0.00155583
0.0031968
0.00215869
0.00116333
0.00149811
0.00347535
0.0020472
0.000671721
0.00120054
0.00265384
0.00124783
0.000202665
0.000830985
0.0151633
0.0118443
0.0113602
0.010666
0.00824532
0.00405402
0.00313093
0.00202241
0.00310463
0.000493093
0.000228588
0.00116683
0.00138158
0.000270464
0.000675504
0.00122344
0.000202599
0.000629429
0.000687512
0.000979412
0.000770112
0.00103171
0.000818816
0.000953464
0.00150414
0.00133564
0.000877192
0.000934885
0.00213212
0.00164935
0.000943577
0.000994518
0.00229999
0.00163418
0.000600753
0.000809148
0.00147534
0.00102583
2.76448e-05
0.000694884
0.0155321
0.0128801
0.0125895
0.0121644
0.00945354
0.00582644
0.00535071
0.0048405
0.00386383
0.00156299
0.00117304
0.000738097
0.00189514
0.000430953
0.00020608
7.6399e-06
0.000662069
0.000116377
0.000138576
0.000212197
0.000251928
0.000571493
0.000421711
0.000405268
0.000888613
0.000878417
0.000560595
0.000493388
0.0014087
0.00117902
0.000684825
0.000607771
0.00144513
0.00117764
0.000431876
0.000484445
0.000692886
0.000715978
8.87471e-05
0.000520661
0.0145699
0.0123663
0.0121964
0.011933
0.00927733
0.00615248
0.00590914
0.00572251
0.00410052
0.00205566
0.00185668
0.00168422
0.00214437
0.000816186
0.000703976
0.000676805
0.000935028
0.000198112
0.000205265
0.000224651
7.78072e-05
0.00026862
0.000152363
8.01564e-05
0.000483545
0.000557509
0.000326891
0.000217456
0.000928359
0.000835471
0.000481292
0.000361146
0.00084742
0.000796695
0.000265563
0.00025279
0.000236072
0.00046569
8.41768e-05
0.000366232
0.0130268
0.0111659
0.0110675
0.0109016
0.00840375
0.00572793
0.00560294
0.00558988
0.00390561
0.00212399
0.00202741
0.00198604
0.00215457
0.000969374
0.00092138
0.000976038
0.00106037
0.00037532
0.000399028
0.000456457
0.000291978
6.46601e-05
3.01664e-05
0.000117047
0.000190779
0.000319618
0.000144767
3.08824e-05
0.000579602
0.000573516
0.000312163
0.000191306
0.000438148
0.000495015
0.000115405
7.94924e-05
3.19338e-05
0.0002724
4.02877e-05
0.000229609
0.0112546
0.00967434
0.00961341
0.00950545
0.00725182
0.00499332
0.00493086
0.00501083
0.00344199
0.00192934
0.00188357
0.00189846
0.00197309
0.000947891
0.000932341
0.00102011
0.00104459
0.000435322
0.0004641
0.000532833
0.000395385
5.48376e-05
0.000131005
0.000216244
6.58513e-06
0.000149607
1.62649e-05
8.94815e-05
0.000332993
0.000377793
0.00018379
7.69803e-05
0.000184787
0.00028409
9.47233e-06
3.41621e-05
0.000176577
0.000137281
7.7567e-06
0.000120331
0.00951863
0.00819133
0.00815782
0.0080965
0.00602876
0.00416231
0.00413359
0.00426279
0.00286545
0.00162027
0.00159941
0.00163229
0.00168807
0.000830502
0.000829918
0.000925176
0.000932307
0.000414667
0.000441897
0.000507437
0.00040781
0.000105312
0.000164519
0.000240154
0.000117795
4.07255e-05
5.94869e-05
0.000153434
0.000176787
0.000242251
9.96985e-05
1.08701e-05
3.75429e-05
0.000143617
5.66664e-05
0.000100881
0.000239644
5.11915e-05
4.33293e-05
4.12969e-05
0.00753544
0.00644932
0.00642521
0.00640584
0.00487403
0.00337137
0.00336268
0.00351172
0.00226873
0.00128178
0.00127295
0.00130483
0.00136807
0.000676576
0.000682455
0.000773356
0.00077173
0.000352006
0.000374999
0.000430371
0.000362765
0.000110558
0.000155208
0.000217392
0.000165824
2.09153e-05
9.48875e-05
0.000176188
9.20912e-05
0.000157508
5.43052e-05
1.51133e-05
4.37575e-05
5.07658e-05
9.51313e-05
0.000135842
0.000248671
3.29877e-06
6.11798e-05
9.00202e-06
0.00667497
0.00568207
0.00563259
0.00559869
0.00363998
0.00256002
0.00256004
0.00261516
0.00170309
0.000958017
0.000954685
0.000975763
0.00105489
0.000520293
0.000528445
0.000610317
0.000595532
0.000272599
0.000290728
0.000333318
0.00028813
9.08674e-05
0.000123659
0.000171249
0.000175874
5.23298e-05
0.000106004
0.000175777
5.72094e-05
0.000110028
3.65281e-05
1.29259e-05
8.64979e-05
1.15703e-05
0.000116715
0.000151963
0.000225565
1.878e-05
6.44908e-05
3.69657e-05
0.00345021
0.00304004
0.00315261
0.00331369
0.00282202
0.00198995
0.0019769
0.00200507
0.00118946
0.00066327
0.000662711
0.000669731