/*--------------------------------*- C++ -*----------------------------------*\
| =========                 |                                                 |
| \\      /  F ield         | foam-extend: Open Source CFD                    |
|  \\    /   O peration     | Version:     4.0                                |
|   \\  /    A nd           | Web:         http://www.foam-extend.org         |
|    \\/     M anipulation  |                                                 |
\*---------------------------------------------------------------------------*/
FoamFile
{
    version     2.0;
    format      ascii;
    class       volScalarField;
    location    "1400";
    object      epsilon;
}
// * * * * * * * * * * * * * * * * * * * * * * * * * * * * * * * * * * * * * //

dimensions      [0 2 -3 0 0 0 0];

internalField   nonuniform List<scalar> 
34480
(
4841.68
4835.19
4832.8
4832.39
4835.33
4852.13
4912.97
5078.59
5442.07
6227.23
5599.66
6897.65
9570.57
15775.7
32398.8
80910.1
220743
580365
1.32033e+06
2.40842e+06
7315.92
8750.67
11490
17291.6
31893.9
75599.8
216497
645703
1.72567e+06
3.71744e+06
6065.7
7325.5
9654.86
14390.1
25903.1
60977.2
183614
605856
1.82959e+06
4.45089e+06
4869.76
5991
8040.82
12116.4
21829.2
51633.5
162065
579249
1.92761e+06
5.17447e+06
3832.56
4770.49
6507.67
10009.9
18466.6
45113.5
149712
576925
2.0841e+06
6.05829e+06
2989.15
3743.54
5170.06
8113.29
15413.4
39160.8
137123
563298
2.17786e+06
6.75849e+06
2111.59
2631.64
3634.65
5788.53
11401
30744.1
115467
507151
2.08987e+06
6.87426e+06
1188
1384.88
1772.41
2670.32
5313.54
15644.8
65182.4
310655
1.37075e+06
4.74768e+06
5629.7
5613.23
5615.61
5643.09
5703.48
5792.4
5890.34
5995.34
6183.08
6433.8
4772.07
4770.49
4778.16
4795.58
4822.26
4859.71
4920.2
5029.7
5232.46
5626.8
3016.93
3483.65
4374.18
6071.06
9643.39
18290.6
43811.4
130364
410112
1.14354e+06
4160.03
4790.27
5919.35
7963.01
11941.9
21024.9
46848.3
142438
513508
1.66871e+06
3665.37
4281.04
5366.62
7308.11
10961.2
19053.6
41897.6
132914
541643
1.986e+06
3087.05
3675.87
4717
6563.77
10023.4
17506.8
38461.1
126548
572093
2.31266e+06
2531.05
3045.19
3971.28
5650.58
8870.71
15851.5
35626.5
123849
620779
2.73492e+06
2049.76
2477.61
3265.9
4728.83
7624.55
13997.1
32363.4
118552
651050
3.08275e+06
1509.49
1809.97
2372.4
3453.37
5673.42
10721.1
25834
102129
622824
3.17333e+06
961.075
1074.94
1288.2
1708.73
2626.78
4866.99
12220
55892.7
403451
2.30166e+06
5506.57
5483.45
5474.74
5487.64
5535.54
5622.77
5723.17
5805.13
6049.23
6664.24
4693.08
4691.42
4697.12
4711.73
4735.93
4770.26
4817.84
4888.19
5000.15
5180.9
1612.42
1794.21
2122.68
2705.78
3774.53
5853.04
10323
20976.6
47255.7
104558
2194.71
2484.29
2988.83
3836.86
5306.55
8091.84
14069.2
29342.1
73629.2
189704
2083.14
2392.31
2930.89
3849.63
5408.21
8342.36
14714.3
32188.6
90926.4
270583
1869.74
2185.99
2745.04
3703.84
5343.8
8414.36
15139.4
34698.8
109542
370183
1615.06
1905.1
2430.31
3359.41
5007.42
8142.61
15196.8
37172.6
132153
501549
1370.85
1623.46
2092.72
2944.21
4517.36
7584.46
14709.4
38397.6
152646
640897
1064.39
1248.46
1595.66
2250.21
3513.09
6073.62
12324.4
34958.8
157675
732356
786.42
860.427
999.925
1265.51
1810.27
3009.39
6215.58
19345.7
102052
541932
5400.09
5374.83
5360.59
5362.84
5391.11
5453.26
5540.76
5616.85
5749.18
6165.3
4603.97
4602.57
4606.52
4617.14
4635.16
4661.29
4696.71
4744.81
4815.54
4934.65
907.033
971.839
1078.79
1263.03
1572.43
2099.55
3028.45
4723.7
7871.26
13267.2
1092.84
1212.78
1414.86
1739.36
2263.4
3137.81
4678.04
7619.8
13764.6
26362.5
1123.05
1264.79
1506.91
1905.16
2542.91
3617.79
5546.93
9427.63
18562.7
40732.2
1087.99
1245.03
1520.44
1980.08
2722.55
3989.3
6302.45
11168.8
23982.8
60121.8
1000.71
1153.49
1430.04
1909.6
2718.02
4139.7
6835.6
12864.3
30662.2
87835.3
898.297
1039.12
1301.65
1768.87
2593.71
4093.82
7057.46
14098.2
37267.6
120703
744.936
852.613
1055.9
1432.35
2129.69
3459.23
6243.86
13419.3
40004.9
146776
651.083
697.848
785.874
946.621
1257.57
1899.04
3385.95
7630.72
25473.4
107475
5278.27
5254.45
5239.61
5237.65
5254.46
5297.59
5370.12
5453.9
5552.71
5828.75
4503.23
4501.78
4504.11
4510.98
4522.68
4539.59
4562.51
4593.76
4640.49
4725.39
576.827
599.478
631.141
682.809
762.096
884.167
1073.17
1361.34
1779.13
2354.86
547.222
591.347
662.178
771.103
936.708
1189
1579.96
2195.3
3165.01
4679.49
598.378
656.47
752.503
904.846
1136.67
1496.18
2066.73
3006.31
4629.93
7588.92
625.815
696.799
818.557
1014.28
1314.91
1790.39
2561.52
3880.7
6380.19
11716.6
614.67
688.627
820.633
1043.16
1399.72
1987.56
2984.28
4789.44
8578.66
17929.6
585.13
658.115
792.887
1025.58
1416.69
2087.2
3275.99
5550.37
10826.4
25700.4
522.308
581.715
692.165
890.366
1239.85
1870.61
3061.67
5524.71
11928.7
32395.5
545.255
573.851
626.956
718.89
883.912
1198.76
1854.01
3354.73
7687.68
23518.4
5151.69
5129.92
5115.71
5111.82
5121.8
5151.1
5205.12
5280.16
5367.98
5548.19
4391.94
4390.48
4391.84
4396.47
4404.42
4415.77
4430.96
4451.76
4484.51
4549.74
420.879
429.661
439.324
453.712
473.255
499.869
535.94
582.775
637.066
698.178
301.094
316.313
339.151
372.787
420.984
488.702
583.298
712.436
878.004
1081.14
335.638
357.545
392.213
445.51
522.792
634.271
794.604
1023.03
1335.99
1772.42
371.498
401.378
450.81
526.956
638.502
803.229
1046.43
1405.95
1934.57
2799.87
385.744
419.306
477.474
572.105
716.614
941.192
1290.86
1840.24
2723.97
4408.13
386.762
422.542
486.999
593.899
764.583
1041.57
1494.2
2245.16
3563.08
6469.77
371.57
403.02
459.587
556.8
718.7
995.376
1478.33
2345.34
4039.81
8316.36
462.751
479.902
510.988
561.824
646.333
794.187
1071.34
1618.77
2792.34
6131.18
5019
4999.76
4987.08
4983.03
4989.89
5011.29
5051.44
5111.58
5185.59
5300.5
4271.4
4269.93
4270.7
4274.02
4279.89
4288.32
4299.59
4315.13
4340.51
4394.27
341.431
345.34
348.566
352.656
357.271
362.497
368.218
373.484
375.64
374.522
194.739
199.93
206.982
216.831
230.04
247.164
268.954
295.461
324.467
353.914
211.411
219.236
230.911
248.408
272.55
305.057
347.903
402.315
464.854
533.603
238.977
250.986
269.851
297.504
335.975
389.022
460.947
555.842
671.28
819.996
256.652
271.237
295.343
332.859
387.383
467.071
582.067
744.795
960.351
1283.11
266.801
283.708
312.9
358.825
428.219
534.362
695.521
936.963
1281.93
1882.32
273.274
289.507
317.191
362.218
432.425
545.213
728.252
1025.96
1498.01
2440.52
399.571
409.697
427.367
454.631
496.856
564.574
678.712
879.258
1227.26
1990.8
4879.31
4862.81
4852.06
4848.75
4854.44
4871.54
4902.75
4949.8
5008.59
5080.55
4143.05
4141.6
4142.03
4144.58
4149.28
4156.12
4165.34
4178.15
4199.5
4246.21
296.451
298.409
299.662
300.854
301.735
302.222
302.069
300.43
295.454
286.252
148.212
150.082
152.281
155.112
158.608
162.745
167.527
172.748
177.691
182.113
153.578
156.33
160.118
165.708
173.028
182.228
193.38
206.164
218.85
230.07
171.417
176.189
183.178
192.827
205.466
221.663
241.826
265.863
291.014
317.505
185.643
191.872
201.513
215.753
235.308
262.062
297.88
344.297
397.688
462.743
196.157
204.021
216.824
235.661
262.486
300.852
354.925
429.316
520.936
650.402
210.607
218.915
232.079
252.133
281.204
324.681
390.09
488.152
622.738
840.521
351.593
357.516
367.279
381.506
402.318
433.199
480.432
555.729
671.782
872.588
4731.84
4718.05
4709.33
4707.05
4712.35
4726.84
4752.13
4789.3
4834.14
4880.79
4007.96
4006.53
4006.77
4008.88
4012.88
4018.78
4026.79
4037.95
4056.64
4098.21
267.785
268.826
269.424
269.815
269.857
269.474
268.473
266.148
260.931
251.22
126.815
127.558
128.28
129.084
129.957
130.867
131.799
132.694
133.387
134.024
126.187
127.172
128.388
130.186
132.419
135.043
137.976
141.021
143.605
145.31
136.819
138.754
141.348
144.68
148.74
153.537
158.987
164.846
170.127
174.722
146.761
149.441
153.26
158.578
165.416
174.128
184.936
197.843
211.105
224.641
155.032
158.695
164.25
171.811
181.9
195.31
212.797
235.002
259.321
288.118
171.159
175.436
181.607
190.337
202.056
218.247
240.766
272.074
311.041
363.99
315.226
318.692
323.924
331.137
341.302
355.476
375.556
405.403
451.002
516.65
4576.03
4564.78
4557.94
4556.63
4561.68
4574.12
4594.84
4624.29
4658.01
4690.01
3866.79
3865.4
3865.55
3867.38
3870.92
3876.21
3883.41
3893.4
3910.07
3947.35
247.272
247.812
248.167
248.366
248.324
247.983
247.181
245.29
240.852
231.84
116.352
116.679
116.934
117.149
117.321
117.445
117.529
117.579
117.581
117.698
112.867
113.23
113.617
114.209
114.905
115.672
116.468
117.216
117.734
117.868
118.82
119.633
120.615
121.771
123.06
124.441
125.851
127.195
128.182
128.826
125.35
126.528
128.05
130.037
132.405
135.201
138.416
141.976
145.299
148.143
131.166
132.887
135.302
138.321
142.083
146.724
152.329
158.934
165.463
172.077
146.476
148.713
151.589
155.34
159.975
165.873
173.482
183.381
195.069
209.028
287.434
289.497
292.203
295.746
300.679
307.274
316.141
328.842
350.294
377.68
4411.55
4402.57
4397.34
4396.78
4401.45
4411.98
4428.77
4451.87
4477.07
4500.05
3719.93
3718.6
3718.69
3720.33
3723.56
3728.38
3734.95
3744.02
3758.97
3792.4
231.056
231.294
231.537
231.708
231.748
231.609
231.143
229.779
226.14
217.992
110.895
111.048
111.146
111.192
111.191
111.149
111.079
111.006
110.953
111.058
106.291
106.428
106.549
106.747
106.968
107.195
107.415
107.601
107.693
107.612
109.367
109.718
110.096
110.497
110.894
111.263
111.582
111.828
111.928
111.921
113.519
114.049
114.659
115.4
116.204
117.07
117.989
118.937
119.756
120.316
117.36
118.173
119.223
120.423
121.818
123.421
125.224
127.223
129.03
130.607
131.07
132.269
133.604
135.188
136.966
139.034
141.521
144.605
148.297
152.453
265.724
267.011
268.35
270.034
272.431
275.585
279.708
285.582
297.332
311.111
4238.36
4231.31
4227.39
4227.32
4231.46
4240.15
4253.5
4271.35
4290.16
4307.18
3567.63
3566.37
3566.43
3567.92
3570.88
3575.31
3581.35
3589.6
3602.99
3632.8
217.202
217.245
217.421
217.596
217.72
217.751
217.554
216.608
213.624
206.311
107.822
107.892
107.933
107.935
107.907
107.852
107.787
107.733
107.725
107.879
103.05
103.104
103.141
103.208
103.278
103.344
103.404
103.45
103.46
103.387
104.429
104.58
104.726
104.864
104.979
105.061
105.105
105.111
105.066
105.005
107.022
107.266
107.51
107.781
108.037
108.277
108.5
108.71
108.878
108.947
109.456
109.835
110.284
110.754
111.265
111.815
112.396
113.017
113.537
113.928
121.449
122.112
122.729
123.377
124.013
124.665
125.386
126.261
127.449
128.877
248.101
248.977
249.6
250.376
251.57
253.17
255.248
258.263
265.398
273.131
4056.65
4051.17
4048.26
4048.47
4051.99
4058.99
4069.42
4083.04
4097.16
4110.11
3410.08
3408.89
3408.94
3410.3
3413.01
3417.09
3422.62
3430.12
3442.05
3468.38
204.653
204.568
204.692
204.865
205.039
205.177
205.153
204.499
202.025
195.486
105.915
105.943
105.96
105.956
105.935
105.901
105.865
105.846
105.881
106.072
101.475
101.499
101.511
101.533
101.554
101.571
101.586
101.596
101.596
101.555
101.905
101.967
102.022
102.069
102.101
102.114
102.108
102.085
102.048
102.023
103.516
103.63
103.728
103.823
103.893
103.938
103.962
103.973
103.979
103.954
105.019
105.188
105.372
105.551
105.737
105.929
106.125
106.337
106.504
106.617
115.394
115.776
116.06
116.309
116.503
116.65
116.778
116.939
117.283
117.854
233.007
233.674
233.936
234.289
234.926
235.827
237.006
238.765
243.317
247.863
3866.85
3862.61
3860.46
3860.77
3863.67
3869.19
3877.24
3887.57
3898.32
3908.45
3247.49
3246.39
3246.42
3247.66
3250.14
3253.87
3258.93
3265.7
3276.24
3299.2
192.772
192.601
192.68
192.839
193.03
193.218
193.288
192.824
190.742
184.907
104.595
104.6
104.607
104.606
104.597
104.584
104.573
104.58
104.64
104.85
100.724
100.739
100.745
100.752
100.756
100.756
100.756
100.757
100.758
100.743
100.665
100.688
100.708
100.725
100.736
100.74
100.737
100.728
100.718
100.725
101.673
101.728
101.768
101.799
101.811
101.804
101.783
101.754
101.728
101.699
102.599
102.666
102.734
102.801
102.873
102.95
103.034
103.131
103.21
103.269
111.488
111.717
111.848
111.934
111.969
111.956
111.907
111.86
111.906
112.179
219.257
219.818
219.908
220.074
220.456
221.037
221.802
222.974
225.867
228.538
3669.6
3666.32
3664.72
3665.04
3667.35
3671.66
3677.83
3685.68
3694.03
3702.14
3080.16
3079.13
3079.16
3080.28
3082.53
3085.92
3090.5
3096.57
3105.79
3125.5
181.134
180.906
180.946
181.081
181.263
181.461
181.568
181.22
179.437
174.223
103.584
103.578
103.581
103.583
103.583
103.584
103.589
103.61
103.681
103.894
100.374
100.386
100.391
100.392
100.39
100.385
100.379
100.375
100.378
100.379
100.098
100.103
100.109
100.116
100.124
100.131
100.137
100.143
100.151
100.173
100.735
100.762
100.779
100.788
100.786
100.773
100.75
100.723
100.699
100.681
101.325
101.344
101.363
101.389
101.424
101.468
101.522
101.59
101.65
101.704
108.83
108.974
109.034
109.057
109.045
108.997
108.918
108.832
108.772
108.938
205.971
206.475
206.486
206.573
206.835
207.257
207.812
208.654
210.405
211.915
3465.73
3463.17
3461.96
3462.24
3464.06
3467.4
3472.14
3478.17
3484.78
3491.43
2908.47
2907.53
2907.55
2908.56
2910.58
2913.63
2917.75
2923.13
2931.09
2947.69
169.433
169.171
169.175
169.28
169.437
169.617
169.725
169.44
167.881
163.184
102.751
102.74
102.741
102.745
102.751
102.76
102.774
102.8
102.869
103.073
100.212
100.223
100.228
100.228
100.223
100.216
100.207
100.201
100.204
100.216
99.8708
99.8692
99.8704
99.8749
99.8821
99.8914
99.9021
99.9143
99.9288
99.9544
100.276
100.29
100.297
100.3
100.297
100.288
100.273
100.255
100.239
100.231
100.678
100.675
100.676
100.688
100.711
100.745
100.79
100.846
100.899
100.955
106.863
106.955
106.982
106.984
106.965
106.924
106.86
106.788
106.695
106.822
192.505
192.967
192.944
192.999
193.197
193.527
193.955
194.531
195.521
196.305
3256.23
3254.22
3253.28
3253.51
3254.93
3257.52
3261.2
3265.89
3271.22
3276.76
2733.02
2732.17
2732.17
2733.07
2734.87
2737.58
2741.23
2745.96
2752.73
2766.37
157.433
157.154
157.127
157.198
157.32
157.464
157.549
157.297
155.909
151.618
102.033
102.022
102.022
102.027
102.036
102.048
102.065
102.091
102.151
102.333
100.134
100.145
100.149
100.148
100.143
100.136
100.127
100.12
100.123
100.141
99.8102
99.807
99.8067
99.8097
99.8157
99.8242
99.8346
99.8466
99.8604
99.8823
100.066
100.073
100.077
100.078
100.077
100.071
100.063
100.053
100.043
100.04
100.354
100.344
100.34
100.346
100.364
100.392
100.428
100.473
100.517
100.568
105.257
105.315
105.325
105.322
105.309
105.284
105.242
105.195
105.1
105.212
178.37
178.785
178.75
178.789
178.945
179.208
179.545
179.951
180.412
180.756
3042.3
3040.7
3039.96
3040.14
3041.25
3043.27
3046.15
3049.86
3054.2
3058.87
2554.64
2553.87
2553.87
2554.65
2556.23
2558.61
2561.81
2565.92
2571.57
2582.46
144.943
144.662
144.61
144.646
144.725
144.82
144.866
144.632
143.395
139.416
101.41
101.4
101.4
101.405
101.414
101.426
101.443
101.465
101.512
101.659
100.088
100.096
100.1
100.099
100.095
100.089
100.082
100.076
100.078
100.097
99.8249
99.8224
99.822
99.8238
99.8278
99.8337
99.841
99.8495
99.8592
99.8743
99.9844
99.9884
99.9907
99.9913
99.9902
99.9872
99.9822
99.9758
99.9689
99.9677
100.179
100.17
100.165
100.169
100.182
100.202
100.227
100.257
100.287
100.327
103.839
103.874
103.877
103.874
103.867
103.853
103.829
103.8
103.718
103.816
163.123
163.475
163.437
163.466
163.587
163.791
164.048
164.349
164.555
164.651
2825.37
2824.07
2823.48
2823.62
2824.49
2826.08
2828.37
2831.33
2834.87
2838.82
2374.26
2373.59
2373.59
2374.27
2375.65
2377.73
2380.51
2384.04
2388.7
2397.11
131.858
131.592
131.52
131.516
131.54
131.571
131.562
131.338
130.284
126.629
100.885
100.877
100.878
100.881
100.889
100.9
100.914
100.932
100.963
101.064
100.048
100.053
100.055
100.055
100.053
100.049
100.045
100.041
100.042
100.057
99.8709
99.8695
99.8692
99.8701
99.8722
99.8752
99.879
99.8835
99.8886
99.8968
99.9679
99.9707
99.9721
99.9723
99.9713
99.9689
99.9651
99.9601
99.9548
99.9528
100.062
100.055
100.053
100.055
100.062
100.073
100.086
100.1
100.116
100.142
102.54
102.561
102.563
102.561
102.555
102.546
102.53
102.51
102.454
102.525
146.16
146.423
146.389
146.408
146.493
146.636
146.814
147.015
147.126
147.221
2606.93
2605.87
2605.39
2605.49
2606.18
2607.45
2609.28
2611.68
2614.57
2617.9
2192.33
2191.75
2191.75
2192.34
2193.53
2195.31
2197.7
2200.7
2204.48
2210.91
117.403
117.232
117.197
117.197
117.21
117.228
117.232
117.13
116.501
113.452
100.466
100.463
100.463
100.466
100.472
100.48
100.491
100.505
100.524
100.574
100.017
100.019
100.02
100.02
100.019
100.018
100.016
100.014
100.014
100.021
99.9308
99.9303
99.9301
99.9305
99.9312
99.9323
99.9337
99.9353
99.9372
99.9402
99.9845
99.9863
99.9872
99.9871
99.9862
99.9843
99.9814
99.9777
99.9738
99.9714
99.9915
99.9887
99.9875
99.9885
99.9914
99.9954
99.9996
100.004
100.008
100.018
101.348
101.359
101.361
101.36
101.355
101.346
101.333
101.318
101.295
101.335
126.197
126.333
126.307
126.315
126.362
126.442
126.54
126.646
126.685
126.752
2387.79
2386.9
2386.51
2386.58
2387.13
2388.15
2389.64
2391.59
2393.98
2396.81
8534.37
8998.95
8762.34
7684.12
2.71324e+06
2.61241e+06
2.55103e+06
2.46887e+06
5.06879e+06
4.91368e+06
4.75347e+06
4.42116e+06
6.87337e+06
6.69338e+06
6.41415e+06
5.90366e+06
8.917e+06
8.70233e+06
8.25317e+06
7.60938e+06
1.14407e+07
1.10566e+07
1.02942e+07
9.42139e+06
1.37853e+07
1.32018e+07
1.21741e+07
1.11771e+07
1.49039e+07
1.41627e+07
1.29794e+07
1.18966e+07
1.03377e+07
9.66385e+06
8.69503e+06
7.80977e+06
9638.71
9841.64
9743.45
9573.32
6442.59
6782.98
6925.64
6754.69
1.76631e+06
1.42211e+06
1.38481e+06
1.4067e+06
2.85358e+06
2.40927e+06
2.3301e+06
2.19854e+06
3.70944e+06
3.26694e+06
3.1523e+06
2.83913e+06
4.69836e+06
4.29348e+06
4.06211e+06
3.5507e+06
5.95913e+06
5.45798e+06
4.87221e+06
4.03886e+06
7.0661e+06
6.42521e+06
5.48775e+06
4.46055e+06
7.61593e+06
6.87944e+06
5.72595e+06
4.47624e+06
5.99338e+06
5.33347e+06
4.29504e+06
3.17479e+06
9236.45
9315.42
9123.2
8754.53
5636.64
5779.71
5820.23
5728.4
179042
180196
164133
131883
349646
348117
310990
238846
528683
520965
459829
347986
764561
749653
654655
491762
1.09931e+06
1.07595e+06
928431
679146
1.48424e+06
1.44779e+06
1.23694e+06
894409
1.78794e+06
1.72817e+06
1.45252e+06
1.02838e+06
1.4629e+06
1.38938e+06
1.13593e+06
760608
7065.61
7152.46
7135.45
7039.47
5373.56
5439.01
5449.17
5389.36
17716.4
17917.1
16783.3
14147.7
38321.3
38392.9
34810.7
28393.7
63308.4
62223.4
55141.5
44044.9
99647.3
96545.1
84001.8
65353.4
154703
147961
126379
96192.7
225123
213004
179578
135223
290361
271821
226967
169978
233042
212245
173684
125785
6143.95
6196.34
6222.25
6227.33
5164.06
5211.83
5213.13
5163.94
2760.05
2810.97
2703.33
2475.1
5815.64
5930.09
5581.89
4923.96
9950.95
10016.1
9267.88
8020.29
16269.6
16184.5
14728.5
12463.4
26490.3
26132.2
23536.8
19699.7
40445
39636.8
35466.5
29504.3
54679.7
53323
47612.7
39547.2
44028.5
42318.1
37626.6
30587.3
5626.59
5661.91
5691.33
5715.16
4982.12
5022.7
5023.1
4980.82
761.015
760.238
747.763
728.459
1194.82
1211.12
1175.7
1102.9
2031.31
2050.58
1973.1
1831.4
3360.37
3379.46
3219.78
2945.65
5606.4
5635.29
5349.39
4866.64
8763.22
8804.83
8339.27
7553.98
12120
12188.7
11560.9
10457.7
9733.56
9728.87
9284.07
8314.34
5274.88
5294.63
5317.06
5343.55
4814.83
4851.31
4851.4
4813.69
409.302
404.449
401.308
400.465
367.31
369.203
364.491
354.421
564.13
567.439
558.775
541.062
896.38
903.089
885.221
848.835
1472.35
1490.9
1462.59
1398.45
2284.62
2324.33
2282.33
2175.24
3167.74
3240.8
3193.91
3041.3
2705.58
2767.28
2760.95
2632.49
5008.57
5019.16
5035.39
5059.91
4651.66
4685.05
4685.01
4650.74
318.519
314.26
312.648
313.735
184.66
184.701
183.58
181.432
233.392
233.626
232.361
229.842
328.45
329.633
327.144
321.43
495.011
499.776
497.213
487.965
725.919
737.543
735.563
720.488
988.613
1011.78
1013.89
993.421
1029.19
1053.15
1068.14
1056.53
4789.14
4794.24
4805.57
4826.33
4486.55
4517.05
4516.98
4485.86
283.125
279.798
278.783
280.048
135.401
135.336
134.869
134.035
145.331
145.188
144.915
144.531
176.159
176.229
175.674
174.497
230.348
231.327
231.096
229.578
302.962
305.768
306.226
304.009
396.129
402.382
404.79
402.311
555.175
563.548
571.326
573.531
4591.37
4593.2
4600.85
4617.47
4317.25
4344.82
4344.75
4316.74
263.265
260.718
260.065
261.255
118.985
118.988
118.728
118.227
117.609
117.481
117.398
117.362
128.874
128.793
128.582
128.238
149.055
149.19
149.131
148.835
174.946
175.537
175.743
175.426
216.445
218.089
219.01
218.855
387.275
390.322
393.781
396.44
4400.7
4400.61
4405.63
4418.5
4142.78
4167.35
4167.27
4142.41
248.678
246.788
246.382
247.392
112.342
112.406
112.245
111.877
107.436
107.358
107.329
107.351
111.832
111.766
111.658
111.515
120.365
120.344
120.299
120.225
131.023
131.104
131.15
131.125
154.223
154.664
154.965
155.029
312.175
313.292
314.884
316.785
4210.33
4209.19
4212.41
4222.17
3962.72
3984.22
3984.13
3962.46
236.092
234.826
234.599
235.298
109.135
109.237
109.135
108.839
103.298
103.255
103.244
103.269
104.951
104.912
104.851
104.775
108.872
108.835
108.801
108.773
113.848
113.819
113.814
113.832
129.241
129.355
129.439
129.477
271.131
271.443
272.228
273.573
4017.59
4015.96
4017.97
4025.26
3776.99
3795.38
3795.31
3776.79
224.283
223.736
223.624
223.824
107.275
107.401
107.335
107.088
101.524
101.502
101.499
101.515
102.007
101.988
101.952
101.906
103.888
103.861
103.837
103.822
106.465
106.421
106.405
106.427
117.846
117.869
117.882
117.888
244.551
244.476
244.89
245.908
3821.41
3819.63
3820.85
3826.22
3585.71
3601.25
3601.21
3585.55
212.674
212.58
212.524
212.457
105.981
106.119
106.078
105.866
100.747
100.738
100.738
100.745
100.732
100.724
100.703
100.674
101.657
101.641
101.626
101.617
103.137
103.1
103.086
103.105
112.084
112.085
112.076
112.063
224.598
224.316
224.544
225.372
3621.37
3619.66
3620.37
3624.26
3389.25
3402.18
3402.16
3389.17
200.918
201.003
200.968
200.781
104.94
105.081
105.057
104.873
100.407
100.407
100.407
100.405
100.19
100.188
100.176
100.158
100.659
100.651
100.642
100.636
101.609
101.583
101.574
101.589
108.843
108.844
108.831
108.808
207.689
207.293
207.42
208.131
3417.42
3415.93
3416.32
3419.08
3188.24
3198.66
3198.64
3188.19
188.563
188.742
188.722
188.484
104.021
104.16
104.147
103.985
100.259
100.266
100.265
100.256
99.9726
99.9738
99.9671
99.9551
100.221
100.218
100.213
100.207
100.895
100.88
100.875
100.886
106.761
106.77
106.758
106.726
192.031
191.586
191.655
192.276
3209.85
3208.64
3208.84
3210.74
2983.34
2991.38
2991.37
2983.31
175.434
175.591
175.581
175.393
103.169
103.3
103.294
103.151
100.192
100.203
100.202
100.189
99.8978
99.8997
99.8959
99.8879
100.037
100.035
100.032
100.027
100.536
100.531
100.529
100.534
105.196
105.218
105.206
105.163
176.671
176.243
176.277
176.796
2999.25
2998.33
2998.43
2999.68
2775.56
2781.42
2781.42
2775.55
161.278
161.232
161.228
161.261
102.358
102.474
102.471
102.352
100.15
100.163
100.162
100.146
99.8849
99.8864
99.8841
99.879
99.9662
99.9652
99.9623
99.9579
100.317
100.318
100.317
100.317
103.839
103.875
103.863
103.805
161.077
160.766
160.779
161.129
2786.54
2785.92
2785.96
2786.71
2566.23
2570.15
2570.15
2566.22
145.57
145.053
145.052
145.566
101.583
101.671
101.67
101.582
100.1
100.112
100.111
100.097
99.9023
99.9028
99.9014
99.8986
99.9506
99.9491
99.9464
99.9429
100.146
100.15
100.15
100.147
102.551
102.59
102.576
102.511
144.39
144.215
144.226
144.432
2572.98
2572.65
2572.66
2573.03
2356
2358.38
2358.38
2356
126.783
125.639
125.639
126.781
100.856
100.899
100.899
100.856
100.043
100.05
100.049
100.042
99.9418
99.9416
99.9408
99.9397
99.9684
99.9666
99.9644
99.9623
100.025
100.029
100.03
100.027
101.315
101.329
101.314
101.274
124.934
124.928
124.94
124.971
2359.23
2359.14
2359.14
2359.23
6110.83
5479.78
5192.07
5078.68
5026.44
4982.47
4938.15
4899.41
4870.73
4852.78
1.83767e+06
552319
126413
37569.2
17925.6
10724.5
7460.53
5855.81
5160.1
5074.42
2.32945e+06
401475
86785.3
33359.2
17895.4
11659.9
8755.72
7314.6
6687.3
6674.75
2.25985e+06
257952
68842.5
27236.1
14815.7
9687.69
7268.89
6051.31
5496.37
5490.19
2.0496e+06
237024
62539.6
24579.6
13018.9
8281.41
6056.74
4936.25
4396.26
4367.21
1.96891e+06
256686
64460.4
24249.2
12146.5
7362.19
5157.15
4061.23
3514.67
3438.39
2.07574e+06
287495
65983.4
23387.3
11037.2
6405.87
4325.8
3312.48
2794.29
2691.03
2.09887e+06
292860
59479.3
19625.3
8697.16
4860.36
3196.32
2412.83
2016.67
1919.73
1.46871e+06
180216
29548.9
8933.48
3898.53
2300.44
1625.7
1315.19
1160.34
1113.25
9370.34
7008.66
6388.76
6119.83
5952.52
5842.03
5768.64
5716.86
5674.16
5644.31
5744.88
5331.02
5130.67
5019.85
4949.46
4896.2
4852.55
4817.92
4793.74
4779.65
652575
196270
61690.5
23241.1
11184.4
6594.38
4527.66
3497.67
3015.04
2867.17
806171
196980
57990.4
22396.1
11612.9
7391.05
5436.42
4455.21
3999.77
3904.89
841907
174248
49028.6
18991.3
10013.3
6421.41
4739.39
3889.54
3482.86
3407.32
886074
165223
45419.9
17524.4
9086.87
5704.08
4125.46
3331.51
2932.69
2848.6
1.0106e+06
179499
47794.1
17794.2
8797.17
5280.85
3667.96
2867.84
2454.4
2342.73
1.18429e+06
202501
50267.9
17683.1
8271.65
4763.06
3195.4
2434.59
2032.67
1906.97
1.29548e+06
210926
46959.8
15350.9
6753.05
3746.26
2450.08
1842.17
1526.78
1419.43
954056
134458
24627.7
7366.18
3236.16
1924.58
1366.97
1106.18
974.837
925.757
8140.01
6696.3
6194.16
5960.19
5815.97
5719.07
5652.62
5604.16
5562.95
5530.6
5227.83
5047.71
4950.54
4882.87
4829.3
4785.51
4750.75
4724.8
4707.61
4698.31
62956.5
27543.5
13371.1
7303.02
4451.55
3002.06
2233.77
1817.03
1615.15
1551.44
95373.6
36817.6
16950.2
8912.21
5409.84
3703.14
2817.48
2347.11
2124.88
2076.98
118155
40199.6
17367.1
8732.25
5187.99
3512.48
2660.2
2212.44
1996.56
1953.92
145485
44311.1
18248
8774.8
5031.46
3316.22
2460.96
2018.31
1794.72
1743.61
192767
54332.6
20869.7
9459.87
5134.07
3230.22
2303.03
1830.37
1584.34
1512.63
255481
66245.5
23045.7
9803.62
5029.93
3036.44
2093.03
1623.8
1373.86
1290.47
308302
72884.6
22124.1
8801.66
4261.69
2485.45
1674.69
1285.45
1083.01
1011.86
223906
44994.1
11288
4401.11
2229.36
1436.66
1067.74
886.551
796.435
763.615
6966.15
6306.86
5976.49
5797.32
5681.22
5600.98
5543.14
5498.56
5458.74
5426.34
4944.28
4838.75
4776.38
4729.5
4691.93
4661.92
4638.85
4622.18
4611.71
4606.86
9561.47
5901.43
3738.45
2477.11
1751.49
1334.24
1096.08
960.424
895.221
878.437
16706.2
9236.79
5427.54
3366.56
2271.84
1669.65
1332.22
1144.8
1056.38
1040.66
23366.2
11640.8
6338.08
3718.02
2426.79
1746.76
1376.78
1174.84
1077.86
1061.4
31565.4
14338.5
7287.73
4044.22
2534.36
1772.52
1369.36
1154.5
1046.55
1023.9
45298.3
19040.3
8891.41
4632.02
2742.3
1829.63
1358.89
1111.66
983.078
946.431
63761.6
24296.5
10239.6
5020.15
2813
1802.38
1296.25
1037.46
899.413
853.621
81882.2
27506
10144.2
4700.55
2497.43
1552.99
1096.44
871.157
754.326
714.146
61252.6
16871.1
5376.3
2608.24
1516.42
1066.66
835.886
715.856
657.222
636.513
6300.18
5944.23
5736.5
5607.46
5519.73
5455.52
5407.04
5368.16
5332.23
5302.64
4722.85
4649.39
4608.23
4578.77
4555.58
4537.09
4522.86
4512.72
4506.76
4504.77
2057.31
1571.45
1200.16
945.136
780.625
677.745
615.41
578.305
561.943
561.722
3728.56
2534.32
1735.12
1227.94
920.078
733.924
622.523
558.187
528.492
525.661
5726.23
3581.88
2261.94
1507.01
1081.24
836.02
694.265
613.886
575.677
571.196
8365.32
4830.73
2817.54
1769.35
1214.87
911.469
742.052
649.282
603.165
595.283
12839.3
6865.63
3663.04
2154.84
1394.76
997.347
781.133
664.17
603.519
587.354
18869.2
9128.19
4414.61
2448.01
1500.58
1031.27
783.459
653.195
583.634
561.207
25147.8
10595.9
4562.71
2411.3
1409.82
945.462
708.165
587.558
525.238
504.67
19147.6
6600.83
2702.85
1588.58
1054.59
805.779
664.514
586.295
549.139
536.206
5818.77
5627.54
5509.27
5421.27
5356.7
5305.75
5265.41
5231.98
5200.16
5173.78
4545.82
4488.17
4458.76
4439.09
4423.92
4411.84
4402.62
4396.27
4392.98
4392.68
660.522
599.868
538.758
489.914
455.291
432.37
418.173
409.803
407.763
411.784
964.267
765.301
601.061
483.097
403.373
351.484
318.877
299.57
291.327
292.236
1548.51
1143.1
828.198
624.625
495.707
415.482
366.558
337.748
324.382
324.143
2386.27
1628.6
1088.32
773.188
586.596
476.893
412.669
376.682
359.177
357.511
3849.8
2429.17
1486.88
987.353
705.019
546.132
455.199
404.542
378.426
372.43
5842.62
3337.16
1865.83
1168.02
790.506
589.032
477.013
416.463
384.06
374.249
7954.11
3982.61
2028.79
1217.8
791.894
578.416
462.894
402.25
371.097
361.562
6201.26
2715.69
1474.9
1021.59
763.631
626.009
539.666
488.593
465.341
457.232
5459.77
5363.05
5297.93
5238.53
5190.8
5150.4
5117.08
5088.83
5061.26
5038.36
4390.93
4341.91
4318.43
4303.54
4292.31
4283.54
4277.02
4272.8
4271.05
4271.71
362.488
360.582
352.225
343.552
336.961
332.738
330.506
329.687
331.156
335.535
333.619
297.584
263.748
237.18
217.847
204.661
196.165
191.152
189.522
190.921
501.647
421.551
348.49
295.955
259.376
235.078
219.532
209.99
205.797
206.558
761.643
594.614
457.086
367.468
309.272
272.88
250.713
238.095
232.257
232.627
1230.03
891.158
631.163
474.52
376.848
317.932
282.519
262.198
251.865
250.21
1871.09
1234.98
807.118
572.583
432.295
351.672
304.437
278.163
264.079
260.301
2566.77
1515.4
924.314
631.847
461.482
368.657
315.247
286.214
271.513
267.581
2213.82
1282.53
896.757
705.973
580.292
502.989
449.745
416.005
401.522
396.305
5179.94
5134.01
5096.94
5056.32
5020.69
4988.81
4961.65
4938.29
4915.04
4895.76
4243.77
4199.93
4179.64
4167.16
4157.96
4150.94
4145.91
4142.89
4141.99
4143.13
279.168
286.099
287.19
286.431
285.708
285.565
285.975
286.82
288.747
292.498
176.239
168.771
161.557
155.632
151.185
148.141
146.242
145.243
145.307
146.413
223.787
207.2
190.166
176.798
166.747
159.68
154.943
151.887
150.695
151.436
305.726
267.789
233.526
208.911
191.743
180.443
173.363
169.338
167.707
168.465
457.591
376.7
307.291
259.944
227.817
207.102
194.042
186.339
182.563
182.465
663.392
504.857
385.392
309.743
260.246
229.56
210.585
199.749
193.968
192.756
901.122
631.316
459.147
357.119
291.705
252.66
228.705
215.243
208.668
207.324
979.606
733.575
609.86
525.899
462.937
418.431
385.062
362.36
353.284
349.754
4944.94
4923.56
4900.67
4872.31
4845.53
4820.62
4798.87
4780.05
4761.05
4745.38
4096.54
4056.68
4038.56
4027.56
4019.55
4013.54
4009.37
4007.02
4006.57
4007.93
246.555
254.637
257.38
258.079
258.4
258.894
259.599
260.52
262.124
265.112
131.445
129.481
127.819
126.495
125.556
124.997
124.754
124.764
125.136
125.892
143.582
139.937
135.778
132.282
129.477
127.403
125.947
124.952
124.655
125.178
171.069
161.911
153.255
146.554
141.631
138.274
136.168
135.03