/*--------------------------------*- C++ -*----------------------------------*\
| =========                 |                                                 |
| \\      /  F ield         | foam-extend: Open Source CFD                    |
|  \\    /   O peration     | Version:     4.0                                |
|   \\  /    A nd           | Web:         http://www.foam-extend.org         |
|    \\/     M anipulation  |                                                 |
\*---------------------------------------------------------------------------*/
FoamFile
{
    version     2.0;
    format      ascii;
    class       volScalarField;
    location    "1400";
    object      k;
}
// * * * * * * * * * * * * * * * * * * * * * * * * * * * * * * * * * * * * * //

dimensions      [0 2 -2 0 0 0 0];

internalField   nonuniform List<scalar> 
34480
(
8.71232
8.70597
8.70311
8.70119
8.70186
8.71771
8.78465
8.97359
9.38753
10.2582
28.7583
30.5995
33.0844
36.0402
39.6214
45.3697
58.5504
89.8848
147.022
214.705
56.018
58.4693
61.5069
64.8379
68.3028
72.8884
83.7655
117.08
194.836
305.559
56.9243
60.2343
64.4847
69.339
74.3434
80.0038
90.5375
123.53
212.576
356.328
53.1277
57.2289
62.6793
69.1309
75.9805
83.3355
94.7245
128.301
228.013
404.829
47.7789
52.1351
58.1311
65.5889
73.9172
83.075
96.4445
133.116
247.514
463.088
41.8169
46.104
52.2141
60.1464
69.5086
80.2505
95.6872
135.362
262.9
514.215
32.3499
35.9578
41.2565
48.5104
57.5985
68.7285
85.2278
126.172
260.048
534.014
13.8236
15.2357
17.5036
21.0312
26.2353
33.7659
46.0099
76.2261
178.102
403.051
9.1517
9.13584
9.13933
9.16894
9.23297
9.32628
9.42758
9.5346
9.72672
9.98072
8.62861
8.62813
8.63739
8.65695
8.68618
8.72679
8.79327
8.91591
9.14491
9.58773
20.2236
21.5516
23.729
26.7976
30.7143
35.09
40.5864
53.5465
89.381
170.702
41.2689
43.3436
46.2396
49.9086
54.3952
59.6699
65.2875
77.8123
124.924
253.864
43.0921
45.7797
49.5538
54.3621
60.0427
66.6891
73.5077
85.9365
139.467
302.772
41.0968
44.3504
49.0242
55.0625
62.2265
70.4812
78.8804
91.8483
152.101
350.828
37.6862
41.1147
46.1935
53.0278
61.4291
71.2297
81.4811
96.2404
166.574
411.526
33.6071
36.9733
42.1294
49.317
58.5476
69.6017
81.6103
98.2033
177.963
468.234
26.5151
29.2979
33.7084
40.2142
49.0467
60.1331
72.8286
90.5026
175.226
494.654
11.9805
12.9523
14.6373
17.4806
22.1643
29.2134
38.2902
51.1632
113.25
365.92
9.01777
8.99448
8.98584
8.99977
9.05082
9.1433
9.24836
9.33186
9.58583
10.2176
8.53313
8.53253
8.53945
8.55574
8.5822
8.61937
8.67088
8.74789
8.87218
9.07427
13.8535
14.601
15.8981
17.8623
20.5377
23.8972
28.1142
34.1819
44.7266
62.7059
28.779
30.2871
32.4571
35.2764
38.7492
42.8577
47.5842
54.332
69.2879
102.163
31.1147
33.0847
35.9471
39.7087
44.2226
49.4918
55.2103
62.6928
81.6732
130.772
30.5715
32.9627
36.539
41.3029
47.0701
53.7688
60.8132
69.1802
92.5652
161.327
28.7617
31.2995
35.2261
40.6868
47.5665
55.7193
64.4017
74.3049
103.737
197.93
26.2843
28.8022
32.8388
38.6532
46.3228
55.6818
65.9223
77.33
112.82
234.655
21.3239
23.3963
26.8389
32.1094
39.4962
48.9815
59.9088
72.3612
112.286
256.626
10.4517
11.1371
12.3676
14.4717
18.0338
23.645
31.3713
40.9174
70.5867
185.738
8.90114
8.8753
8.86049
8.8628
8.89269
8.9586
9.05079
9.12898
9.26618
9.70108
8.42477
8.42446
8.42929
8.44086
8.46003
8.4876
8.52494
8.57597
8.65244
8.78441
9.77807
10.1259
10.7426
11.7547
13.2168
15.181
17.7175
20.9607
25.2226
30.7975
19.4006
20.3337
21.6959
23.5152
25.8152
28.5898
31.8667
35.9259
41.9139
52.0636
21.7254
22.9928
24.8559
27.3548
30.4313
34.0914
38.2531
43.195
51.0708
67.2942
22.1105
23.6861
26.0887
29.3378
33.3341
38.0836
43.3464
49.265
59.308
83.7583
21.4566
23.1587
25.8605
29.6793
34.5556
40.4833
47.128
54.4908
67.7523
103.904
20.2017
21.9267
24.772
28.9285
34.4819
41.425
49.3717
58.0904
74.6552
124.366
17.0034
18.4333
20.8707
24.6606
30.0533
37.1635
45.7217
55.4086
74.7727
136.754
9.19911
9.66222
10.5076
11.9271
14.3031
18.1446
23.868
31.3322
46.1086
96.0108
8.76676
8.74228
8.72668
8.72433
8.74178
8.78729
8.86399
8.95156
9.05385
9.34476
8.30141
8.30101
8.30389
8.31097
8.3226
8.33922
8.36176
8.39299
8.44146
8.53427
7.4643
7.60467
7.84641
8.26509
8.88601
9.75116
10.9004
12.3399
13.9897
15.7859
13.0927
13.5982
14.3382
15.3442
16.6348
18.2101
20.0805
22.2511
24.7202
27.8435
15.0315
15.7573
16.8261
18.2822
20.1042
22.302
24.864
27.8016
31.2754
36.4782
15.8369
16.7781
18.2218
20.1875
22.6334
25.5835
28.9737
32.773
37.4404
45.8236
15.8773
16.9201
18.5965
20.9887
24.065
27.8803
32.3439
37.381
43.9123
57.3946
15.4318
16.5221
18.3485
21.0285
24.6259
29.2152
34.6975
40.9055
49.3551
69.141
13.5551
14.4769
16.0614
18.5302
22.0542
26.8034
32.7794
39.8284
50.0508
76.0939
8.17763
8.47777
9.0295
9.9252
11.3718
13.7014
17.3353
22.4551
30.3429
51.2546
8.62604
8.6036
8.58856
8.58404
8.59402
8.62455
8.68149
8.76042
8.85192
9.04243
8.16408
8.16362
8.16532
8.16972
8.17688
8.18689
8.20025
8.21913
8.25123
8.32146
6.24898
6.30252
6.38839
6.54401
6.77176
7.08426
7.49442
8.00189
8.56204
9.12308
9.24041
9.48736
9.84415
10.3355
10.9698
11.7432
12.6507
13.6605
14.6771
15.6976
10.643
11.0201
11.5726
12.339
13.3095
14.4853
15.8536
17.3737
18.92
20.6662
11.5032
12.0219
12.8138
13.8968
15.259
16.9123
18.8297
20.9497
23.1432
26.0948
11.8624
12.4566
13.4113
14.7834
16.5631
18.8004
21.4724
24.5054
27.7939
32.9218
11.8679
12.5153
13.6013
15.1933
17.3373
20.1159
23.5215
27.4534
31.8812
39.8391
10.8961
11.4616
12.425
13.9147
16.033
18.9356
22.7012
27.2846
32.8173
43.8066
7.35459
7.54307
7.89038
8.43136
9.2655
10.571
12.6135
15.6127
19.7072
28.3061
8.47728
8.45745
8.44398
8.43924
8.44582
8.46778
8.50976
8.57295
8.65026
8.77126
8.014
8.0135
8.01448
8.01731
8.02202
8.02859
8.03735
8.05007
8.07363
8.13079
5.63237
5.65221
5.6809
5.73707
5.81763
5.92377
6.05611
6.2114
6.37318
6.53136
7.0888
7.1975
7.34758
7.55397
7.8189
8.13893
8.50917
8.90954
9.28767
9.6166
7.99001
8.16614
8.41904
8.77617
9.2311
9.78158
10.4169
11.1056
11.7549
12.3487
8.71229
8.97571
9.37021
9.90753
10.5858
11.4084
12.3593
13.3957
14.3826
15.4358
9.1468
9.46267
9.96122
10.6773
11.6112
12.7921
14.213
15.8292
17.4459
19.4251
9.34738
9.71081
10.3107
11.1797
12.3488
13.8755
15.7687
17.9818
20.2657
23.4785
8.93768
9.2706
9.82131
10.6558
11.8254
13.437
15.5615
18.2082
21.1481
25.7627
6.7113
6.8256
7.03657
7.35001
7.80948
8.49589
9.53501
11.0632
13.0109
16.3751
8.31925
8.30229
8.29088
8.28694
8.29228
8.30961
8.34194
8.39109
8.45228
8.52691
7.85265
7.85211
7.85267
7.85462
7.85797
7.86272
7.86916
7.8788
7.89781
7.94711
5.32287
5.32999
5.339
5.35967
5.38937
5.4273
5.47248
5.52245
5.57084
5.61777
5.97037
6.01539
6.07184
6.14705
6.24085
6.35094
6.47469
6.60395
6.71896
6.80982
6.49507
6.56981
6.67205
6.81865
7.00409
7.22566
7.47675
7.74143
7.97727
8.161
7.0183
7.14303
7.32211
7.56076
7.85825
8.21409
8.61924
9.05194
9.44433
9.8034
7.4022
7.56031
7.80024
8.13976
8.57919
9.13196
9.79571
10.5489
11.2792
12.0377
7.64447
7.83914
8.14916
8.58498
9.16501
9.9183
10.8532
11.9519
13.0501
14.3445
7.54929
7.73911
8.03747
8.47363
9.06747
9.87614
10.9438
12.2917
13.7509
15.676
6.22196
6.2885
6.41229
6.58705
6.83135
7.17707
7.67341
8.38032
9.22319
10.4639
8.15077
8.1367
8.12748
8.12469
8.12967
8.14424
8.1702
8.20871
8.25486
8.30191
7.681
7.68045
7.68078
7.68222
7.6848
7.68854
7.69368
7.70155
7.71767
7.76135
5.16603
5.16831
5.17078
5.17878
5.19081
5.20618
5.22444
5.24441
5.26346
5.28222
5.41169
5.43049
5.45063
5.47527
5.50418
5.53632
5.57091
5.60554
5.63399
5.65472
5.69375
5.72357
5.76106
5.81576
5.88336
5.96173
6.04742
6.13351
6.20375
6.24713
6.03513
6.09173
6.16758
6.2641
6.37987
6.51315
6.65916
6.80861
6.9351
7.0363
6.32663
6.40254
6.51074
6.65894
6.84513
7.07368
7.34301
7.64413
7.92901
8.19294
6.53777
6.63833
6.79027
6.99346
7.25619
7.58926
7.99615
8.47072
8.93568
9.42325
6.59804
6.70388
6.85866
7.07343
7.35273
7.72031
8.19707
8.79765
9.44284
10.204
5.86038
5.89704
5.96709
6.06084
6.18701
6.35637
6.58646
6.89978
7.24968
7.69467
7.97084
7.95952
7.95235
7.95067
7.95544
7.96785
7.9889
8.01907
8.05312
8.08414
7.49956
7.49902
7.49922
7.50036
7.50248
7.5056
7.50995
7.51664
7.53063
7.5697
5.08383
5.08428
5.08471
5.08814
5.09386
5.10155
5.11127
5.12268
5.13459
5.14679
5.13633
5.14465
5.15185
5.15919
5.16677
5.17445
5.18243
5.19059
5.19727
5.2027
5.27638
5.28795
5.30083
5.32029
5.34354
5.36936
5.39627
5.42155
5.43931
5.4446
5.48127
5.50656
5.5375
5.5742
5.61534
5.65949
5.70449
5.747
5.77832
5.79827
5.68382
5.71948
5.76621
5.82723
5.89994
5.98506
6.08146
6.1857
6.28049
6.35842
5.84158
5.89217
5.96385
6.05352
6.16429
6.29879
6.45727
6.63732
6.80731
6.96865
5.96634
6.02453
6.10213
6.20289
6.32575
6.47879
6.66999
6.90577
7.15638
7.4306
5.60138
5.6199
5.65795
5.70626
5.7698
5.85139
5.95723
6.09583
6.24383
6.41177
7.77868
7.76982
7.76443
7.76363
7.76804
7.77843
7.79523
7.81847
7.8432
7.86434
7.30845
7.30793
7.30806
7.30902
7.31083
7.31354
7.31731
7.32312
7.33535
7.37029
5.03811
5.0379
5.03781
5.03957
5.04293
5.04786
5.05478
5.06387
5.07464
5.08621
5.00098
5.00491
5.00758
5.00943
5.01075
5.01176
5.01302
5.0151
5.01782
5.02142
5.06343
5.06789
5.07209
5.07891
5.08679
5.09512
5.1034
5.11064
5.11463
5.11271
5.17644
5.18766
5.20004
5.21345
5.22706
5.24007
5.25173
5.26112
5.26589
5.26681
5.30959
5.32619
5.34579
5.36989
5.39647
5.42545
5.45638
5.48828
5.51595
5.53509
5.41649
5.44131
5.47408
5.51204
5.55639
5.6074
5.66464
5.72733
5.78323
5.83046
5.55934
5.59111
5.62892
5.6741
5.72459
5.78284
5.85188
5.93432
6.02137
6.11319
5.42196
5.42989
5.44952
5.4734
5.5048
5.54403
5.5933
5.6562
5.72214
5.79217
7.57374
7.56699
7.56306
7.56284
7.56672
7.57514
7.58819
7.60566
7.62335
7.638
7.10759
7.10709
7.10719
7.10801
7.1096
7.11197
7.11529
7.12035
7.131
7.16203
5.01059
5.0102
5.01008
5.01123
5.01361
5.01743
5.02332
5.03188
5.04309
5.05573
4.93436
4.93631
4.93736
4.93763
4.93744
4.9371
4.93719
4.93844
4.94115
4.94536
4.95734
4.95908
4.96041
4.9628
4.96548
4.9682
4.97083
4.97303
4.97391
4.97178
5.01295
5.01783
5.02268
5.02744
5.03165
5.03496
5.03717
5.03819
5.03755
5.03613
5.09756
5.10527
5.11331
5.12243
5.13143
5.14019
5.14868
5.15687
5.16368
5.16706
5.16498
5.1767
5.19113
5.20659
5.22367
5.24227
5.26216
5.28332
5.30101
5.31399
5.30502
5.32236
5.34031
5.35952
5.37837
5.39761
5.41865
5.44286
5.469
5.49907
5.30202
5.30408
5.31349
5.32481
5.34037
5.35981
5.38384
5.41416
5.44581
5.47868
7.35569
7.35067
7.34788
7.34798
7.35123
7.3578
7.36764
7.38044
7.39297
7.40321
6.89676
6.89631
6.89638
6.89709
6.89848
6.90057
6.90347
6.90786
6.91703
6.94427
4.99256
4.99219
4.99218
4.99309
4.99498
4.99821
5.00357
5.01198
5.02392
5.03808
4.90144
4.90241
4.90287
4.9028
4.90247
4.90218
4.90243
4.90393
4.90718
4.91213
4.90604
4.90681
4.90725
4.9081
4.909
4.90989
4.91076
4.91154
4.91186
4.91057
4.92815
4.93014
4.93199
4.93366
4.93494
4.93569
4.93588
4.93558
4.9348
4.93423
4.9811
4.98468
4.98792
4.99121
4.9939
4.99593
4.99744
4.99863
4.99958
4.99943
5.02145
5.02662
5.0326
5.03866
5.04511
5.05194
5.05905
5.0667
5.07278
5.07671
5.15086
5.1604
5.16872
5.1763
5.18214
5.18651
5.19015
5.194
5.19871
5.20883
5.22471
5.22376
5.22771
5.23292
5.24101
5.25157
5.26459
5.28094
5.2977
5.31521
7.12442
7.12078
7.11884
7.11909
7.12165
7.12661
7.13381
7.14298
7.1518
7.15902
6.67577
6.67536
6.67541
6.67603
6.67723
6.67904
6.68156
6.68531
6.69307
6.71657
4.97977
4.9795
4.97962
4.9804
4.98197
4.98476
4.98965
4.99787
5.01039
5.02613
4.88508
4.88554
4.88578
4.88574
4.88559
4.88559
4.88617
4.88797
4.8916
4.89704
4.88212
4.88258
4.8828
4.88309
4.88335
4.88357
4.88383
4.88414
4.88441
4.88385
4.8861
4.8868
4.88745
4.88808
4.88857
4.88887
4.88898
4.88896
4.88888
4.88922
4.91926
4.92094
4.92225
4.92337
4.92399
4.9241
4.92381
4.92333
4.92294
4.92236
4.94293
4.94489
4.9471
4.94941
4.95198
4.95484
4.95797
4.96157
4.96451
4.96651
5.05974
5.06504
5.06883
5.07146
5.07246
5.07189
5.07012
5.06782
5.06555
5.06958
5.17652
5.17422
5.17539
5.17781
5.18255
5.18924
5.19753
5.20783
5.21775
5.22835
6.88004
6.87744
6.87612
6.87639
6.87833
6.88194
6.88707
6.89349
6.8997
6.90483
6.44443
6.44407
6.44411
6.44463
6.44565
6.44719
6.44933
6.45245
6.45887
6.4787
4.97004
4.96991
4.97013
4.97083
4.97212
4.97448
4.97884
4.98668
4.99947
5.01669
4.87693
4.87714
4.8773
4.87735
4.87741
4.87766
4.87846
4.88039
4.88413
4.88984
4.87144
4.87183
4.872
4.87209
4.87209
4.87204
4.87202
4.87211
4.87237
4.87234
4.8666
4.86674
4.86694
4.86722
4.86754
4.86787
4.8682
4.86854
4.86894
4.86974
4.88757
4.88836
4.88891
4.88928
4.88934
4.88908
4.88858
4.88797
4.88747
4.8871
4.90198
4.90242
4.90303
4.90394
4.9052
4.90684
4.90883
4.91127
4.91345
4.91527
5.00622
5.00918
5.01087
5.01156
5.01108
5.00942
5.00666
5.00331
4.99925
5.00178
5.14713
5.14442
5.14424
5.14548
5.14876
5.15375
5.15994
5.16745
5.17391
5.18112
6.6228
6.62098
6.62009
6.62033
6.62173
6.62427
6.62784
6.63224
6.63662
6.64028
6.20268
6.20237
6.2024
6.20282
6.20366
6.20493
6.20668
6.20921
6.21433
6.23059
4.9622
4.96222
4.9625
4.96311
4.96413
4.96604
4.96978
4.97697
4.98961
5.00808
4.87294
4.87303
4.87316
4.87329
4.87348
4.87389
4.87477
4.87665
4.88027
4.88603
4.86686
4.86723
4.8674
4.86741
4.86731
4.86713
4.86697
4.86693
4.86716
4.8675
4.85856
4.85849
4.85853
4.85869
4.85897
4.85933
4.85975
4.86024
4.8608
4.86168
4.8719
4.87229
4.87253
4.87266
4.87263
4.87243
4.87208
4.87167
4.87131
4.87117
4.88164
4.88145
4.88145
4.88186
4.88268
4.88391
4.8855
4.88748
4.88936
4.89121
4.97349
4.97512
4.97583
4.97586
4.97518
4.97373
4.97145
4.96868
4.96465
4.96716
5.12901
5.12637
5.12557
5.12635
5.12895
5.13312
5.13822
5.14421
5.14863
5.15406
6.35314
6.35191
6.35132
6.3515
6.35247
6.3542
6.3566
6.35958
6.36262
6.36523
5.95066
5.9504
5.95041
5.95074
5.9514
5.95239
5.95376
5.95571
5.9596
5.97239
4.9555
4.95567
4.95598
4.95649
4.95724
4.95869
4.96168
4.96793
4.97984
4.9991
4.87103
4.87108
4.8712
4.87137
4.87163
4.87209
4.87294
4.87463
4.87791
4.88349
4.86485
4.86519
4.86534
4.86533
4.86519
4.86498
4.86477
4.86466
4.86485
4.86541
4.85606
4.85595
4.85594
4.85605
4.85626
4.85657
4.85696
4.8574
4.8579
4.85864
4.8645
4.8647
4.86482
4.86487
4.86485
4.86474
4.86455
4.86431
4.86408
4.86406
4.87181
4.87142
4.87125
4.87148
4.8721
4.87307
4.87433
4.87587
4.87739
4.87909
4.95094
4.9518
4.95204
4.95191
4.95142
4.95049
4.94898
4.94712
4.94371
4.94651
5.11664
5.11428
5.11326
5.11384
5.11606
5.11966
5.12402
5.12895
5.13191
5.1363
6.07174
6.07093
6.07055
6.07067
6.07131
6.07244
6.074
6.07594
6.07801
6.07983
5.68883
5.68863
5.68863
5.68886
5.68934
5.69006
5.69106
5.69244
5.69518
5.70467
4.94919
4.94947
4.94979
4.95016
4.95066
4.95162
4.95379
4.95877
4.96921
4.98843
4.87009
4.87013
4.87023
4.8704
4.87067
4.8711
4.87184
4.87323
4.87595
4.88099
4.86361
4.86388
4.864
4.86399
4.86388
4.86369
4.8635
4.86338
4.86351
4.86414
4.85603
4.85594
4.85593
4.85599
4.85613
4.85634
4.8566
4.8569
4.85725
4.85775
4.86129
4.8614
4.86147
4.8615
4.86148
4.86141
4.86129
4.86112
4.86095
4.86094
4.86658
4.86622
4.86606
4.86621
4.86664
4.86731
4.86816
4.86919
4.87022
4.87157
4.93224
4.93269
4.93273
4.93262
4.93232
4.93179
4.93089
4.92975
4.9271
4.92993
5.10517
5.10318
5.10214
5.1026
5.10448
5.10751
5.11112
5.11506
5.11678
5.12043
5.77956
5.77905
5.77883
5.7789
5.77929
5.77997
5.78093
5.78212
5.78343
5.78464
5.41777
5.41765
5.41766
5.41782
5.41814
5.41862
5.41927
5.42017
5.42187
5.42833
4.94146
4.94172
4.94201
4.94223
4.94248
4.94299
4.94429
4.94768
4.95578
4.97347
4.86945
4.86946
4.86955
4.86968
4.86991
4.87027
4.87085
4.87185
4.87382
4.8778
4.8623
4.86247
4.86256
4.86255
4.86248
4.86237
4.86223
4.86214
4.86222
4.86274
4.85696
4.85692
4.85691
4.85694
4.85701
4.85711
4.85725
4.8574
4.85758
4.85785
4.86016
4.86025
4.86029
4.8603
4.86027
4.86021
4.86009
4.85995
4.85979
4.85973
4.86284
4.86261
4.86252
4.8626
4.86284
4.8632
4.86363
4.86413
4.86465
4.86552
4.91384
4.91413
4.91415
4.91408
4.91388
4.91351
4.91291
4.91214
4.91033
4.91258
5.08654
5.0849
5.084
5.08432
5.08576
5.08807
5.09077
5.09357
5.0941
5.09696
5.47769
5.4774
5.47728
5.47731
5.47752
5.47789
5.4784
5.47906
5.47978
5.4805
5.13736
5.1373
5.13731
5.13739
5.13756
5.13781
5.13814
5.1386
5.1394
5.14346
4.92442
4.92459
4.92479
4.92489
4.92496
4.92513
4.92564
4.92725
4.93199
4.94504
4.86823
4.86823
4.86829
4.86838
4.86856
4.86882
4.86921
4.86982
4.87095
4.87331
4.86102
4.8611
4.86115
4.86115
4.86112
4.86107
4.86101
4.86096
4.86097
4.86122
4.85832
4.8583
4.8583
4.85831
4.85833
4.85837
4.85842
4.85847
4.85853
4.85863
4.86009
4.86015
4.86018
4.86017
4.86014
4.86008
4.85999
4.85987
4.85974
4.85966
4.86027
4.86017
4.86013
4.86017
4.86026
4.86039
4.86053
4.86066
4.8608
4.86112
4.89348
4.89369
4.89376
4.89371
4.89353
4.89321
4.89276
4.89223
4.89145
4.89273
5.03654
5.03515
5.03449
5.03464
5.03551
5.03694
5.03859
5.04017
5.03995
5.04154
5.16625
5.1661
5.16604
5.16605
5.16613
5.16627
5.16648
5.16675
5.16706
5.16741
12.1646
12.6022
12.3803
11.3426
212.745
207.441
204.179
199.771
322.703
316.085
309.177
294.594
395.347
388.415
377.537
357.229
470.267
462.689
446.629
423.089
555.264
542.767
517.522
487.838
628.746
610.878
578.748
546.702
662.315
640.171
603.998
569.921
518.977
496.172
462.431
430.485
13.1926
13.3771
13.288
13.1329
10.0854
10.4375
10.5834
10.4085
235.913
215.263
211.032
205.123
369.89
342.79
333.682
312.736
462.978
436.201
423.523
389.027
563.6
540.828
519.919
472.028
696.357
671.917
629.455
560.827
824.143
793.917
728.35
645.841
903.69
868.531
787.792
688.994
733.709
700.048
623.656
529.36
12.8229
12.8959
12.7179
12.3729
9.22568
9.38114
9.42492
9.32553
81.2844
83.233
80.1307
72.6425
137.72
139.773
132.688
117.489
182.938
184.064
173.341
152.017
234.695
235.13
220.039
191.446
302.379
303.579
283.654
244.636
376.601
378.457
352.768
302.889
433.433
434.527
402.481
342.647
346.962
345.276
315.376
260.545
10.7255
10.8132
10.7961
10.699
8.93634
9.00875
9.01997
8.95385
33.8107
34.0323
33.4855
31.9535
59.2295
59.436
57.6404
54.169
79.4185
79.2005
76.0689
70.7948
102.866
102.135
97.2635
89.2643
133.205
131.841
124.643
113.328
166.529
164.359
154.497
139.6
192.368
189.426
177.432
159.674
147.222
143.538
133.197
117.304
9.77124
9.8267
9.85408
9.85944
8.70253
8.75612
8.75757
8.7024
16.5182
16.6736
16.5264
16.1753
29.825
30.0978
29.6111
28.5979
40.0271
40.2773
39.4376
37.8618
51.797
52.0049
50.6326
48.1606
67.3431
67.629
65.709
62.2531
84.4288
84.8019
82.2581
77.6555
97.3648
97.8515
94.8796
89.3047
70.8842
70.9587
68.5547
63.3084
9.2147
9.25322
9.28525
9.31115
8.49691
8.54298
8.54344
8.49543
9.20336
9.22521
9.19844
9.15432
16.1557
16.229
16.0907
15.7934
21.5802
21.6675
21.4477
21.01
27.8231
27.9447
27.5887
26.8865
36.1592
36.4131
35.972
35.0166
45.2432
45.666
45.1325
43.8564
51.812
52.4341
51.8865
50.3189
35.5315
35.8967
35.5194
33.9746
8.82659
8.84861
8.87358
8.90302
8.30562
8.34752
8.34762
8.30431
6.5253
6.5183
6.51563
6.52639
9.71339
9.72857
9.68246
9.58502
12.5779
12.6039
12.5434
12.4136
15.9416
15.996
15.9019
15.6841
20.5087
20.6533
20.5719
20.2938
25.4453
25.713
25.6523
25.2861
28.8623
29.2764
29.2689
28.8194
19.0959
19.3758
19.417
18.967
8.52695
8.53897
8.55737
8.58512
8.11689
8.15568
8.15565
8.11583
5.62658
5.61765
5.61734
5.62904
6.81964
6.81705
6.79753
6.76305
8.20334
8.20509
8.18583
8.14822
9.94009
9.95499
9.92446
9.85109
12.3907
12.4492
12.436
12.3512
15.0459
15.1667
15.1776
15.0707
16.8577
17.0569
17.1078
16.9811
11.4478
11.5883
11.6606
11.5492
8.27604
8.28192
8.29496
8.31883
7.92367
7.95953
7.95945
7.92285
5.30747
5.30237
5.30223
5.30869
5.65115
5.64664
5.63667
5.62196
6.24417
6.24033
6.23381
6.22484
7.06435
7.06528
7.05304
7.02726
8.2974
8.31641
8.31426
8.28852
9.65974
9.70637
9.71815
9.68788
10.6413
10.7256
10.7591
10.7249
8.03451
8.09598
8.14057
8.12235
8.04661
8.04874
8.05768
8.07707
7.72306
7.7559
7.75582
7.72245
5.18009
5.17853
5.17853
5.181
5.2009
5.19783
5.19199
5.18387
5.43552
5.43186
5.42954
5.42863
5.7992
5.79694
5.79102
5.78131
6.38226
6.38619
6.38499
6.37756
7.03655
7.05076
7.05583
7.04849
7.58057
7.61143
7.62616
7.6176
6.52498
6.54941
6.57058
6.57241
7.82226
7.82216
7.8281
7.84334
7.51356
7.54323
7.54314
7.51311
5.12234
5.12334
5.12348
5.12331
5.0225
5.02094
5.01725
5.01184
5.10589
5.10349
5.10269
5.10357
5.26402
5.26206
5.25886
5.25455
5.53736
5.53709
5.53596
5.53374
5.84428
5.84702
5.84829
5.84713
6.16109
6.17091
6.17568
6.173
5.82635
5.83517
5.84416
5.84851
7.59501
7.59365
7.59751
7.60924
7.29424
7.3206
7.3205
7.29392
5.09208
5.09498
5.09521
5.09309
4.9483
4.94779
4.9454
4.94143
4.96761
4.96618
4.96595
4.96695
5.03433
5.03314
5.03132
5.02904
5.16522
5.1643
5.16338
5.16257
5.31335
5.31285
5.31274
5.31298
5.51408
5.51672
5.51744
5.51569
5.48358
5.48582
5.4894
5.49339
7.36142
7.35943
7.36188
7.37078
7.0645
7.08741
7.08732
7.06425
5.07355
5.07805
5.07831
5.0745
4.91615
4.91636
4.91481
4.91174
4.90827
4.90747
4.90743
4.90817
4.93363
4.93303
4.93198
4.93063
4.99761
4.99687
4.99623
4.99583
5.07328
5.07219
5.07177
5.07226
5.21389
5.21441
5.21384
5.21219
5.30822
5.30755
5.30891
5.31252
7.11979
7.11758
7.11909
7.12576
6.82393
6.84364
6.84358
6.82372
5.06046
5.06636
5.06659
5.06128
4.90175
4.90246
4.90149
4.89899
4.8828
4.8824
4.88242
4.88284
4.88935
4.88911
4.8885
4.88767
4.9212
4.92074
4.92035
4.9201
4.96333
4.96237
4.96201
4.9625
5.07188
5.07194
5.07113
5.06956
5.21596
5.21393
5.21444
5.21794
6.86909
6.86694
6.86784
6.87275
6.57235
6.58905
6.58902
6.57223
5.0502
5.05748
5.05765
5.05079
4.89505
4.89615
4.89556
4.8934
4.87216
4.87204
4.87204
4.87217
4.8702
4.87015
4.86982
4.86929
4.88649
4.88626
4.88603
4.88585
4.91297
4.9123
4.91207
4.9125
5.0036
5.00373
5.00303
5.00157
5.166
5.16331
5.16352
5.16709
6.60871
6.60678
6.60729
6.61085
6.30984
6.32357
6.32356
6.30978
5.04147
5.05035
5.05047
5.04187
4.89169
4.8931
4.89278
4.89078
4.86797
4.86805
4.86803
4.86791
4.86222
4.86226
4.86208
4.86173
4.87091
4.87081
4.87068
4.87054
4.88978
4.88941
4.8893
4.88961
4.96927
4.96966
4.96912
4.96771
5.13743
5.13444
5.13458
5.13824
6.33832
6.33672
6.337
6.33949
6.03651
6.04735
6.04735
6.03648
5.03359
5.04431
5.04438
5.03383
4.88953
4.89122
4.89106
4.8891
4.86636
4.8666
4.86656
4.86625
4.8591
4.85917
4.85906
4.85884
4.86397
4.86393
4.86384
4.8637
4.8784
4.87826
4.87822
4.87838
4.94919
4.9499
4.94949
4.94798
5.11887
5.11584
5.116
5.11964
6.05795
6.05672
6.05685
6.05853
5.75287
5.76096
5.76096
5.75286
5.02549
5.03806
5.03809
5.02559
4.88718
4.88906
4.889
4.88703
4.86535
4.86568
4.86564
4.86522
4.85807
4.85812
4.85805
4.85791
4.86089
4.86086
4.86078
4.86065
4.87141
4.87145
4.87144
4.87145
4.93304
4.93407
4.93369
4.93192
5.10284
5.10012
5.10031
5.10364
5.76803
5.76717
5.76723
5.76827
5.45986
5.46542
5.46541
5.45985
5.01326
5.0271
5.0271
5.01327
4.88346
4.88527
4.88526
4.88345
4.86385
4.86418
4.86415
4.86375
4.85801
4.85803
4.85799
4.8579
4.85966
4.8596
4.85952
4.85941
4.86571
4.86584
4.86584
4.86575
4.91511
4.91623
4.91579
4.91387
5.08021
5.07843
5.07864
5.08102
5.46943
5.46896
5.46898
5.4695
5.15745
5.16091
5.16091
5.15744
4.98074
4.99324
4.99324
4.98072
4.87718
4.87836
4.87836
4.87721
4.86183
4.86201
4.862
4.86178
4.85867
4.85867
4.85864
4.85861
4.85955
4.85949
4.85942
4.85935
4.86135
4.86147
4.86149
4.86142
4.89306
4.89343
4.89298
4.89178
5.02721
5.02727
5.02753
5.02807
5.16215
5.16202
5.16202
5.16215
10.13
9.43084
9.10677
8.98108
8.92527
8.87752
8.82769
8.78289
8.74857
8.72562
197.674
104.089
62.0735
50.005
43.9864
38.6541
34.2259
30.868
28.8254
28.0912
266.165
124.61
88.6486
75.0732
68.2119
62.9278
59.0846
56.4373
54.9483
54.7344
307.659
133.68
97.9157
81.0799
72.0127
65.1932
60.4174
57.1947
55.3218
55.1572
366.739
148.649
106.452
85.0759
72.7243
63.9518
57.8981
53.8438
51.3486
51.0378
439.622
177.066
117.669
89.5422
73.1641
62.1386
54.6062
49.5953
46.4191
45.7556
505.423
203.202
123.14
89.9336
70.6884
58.3242
49.9479
44.4471
40.8829
39.9623
532.794
208.037
112.875
79.0966
59.5354
47.6408
39.8101
34.8797
31.773
30.8825
397.79
129.409
56.5147
35.9649
24.881
19.2153
16.0856
14.4461
13.4659
13.1939
12.8239
10.5743
9.94729
9.67089
9.49738
9.38189
9.30444
9.24886
9.20183
9.16753
9.72139
9.25938
9.03483
8.91159
8.83391
8.77475
8.72538
8.68524
8.65614
8.63774
131.717
71.4459
48.4793
38.789
33.1546
28.6999
25.1059
22.3833
20.6764
19.927
182.803
96.5152
70.5413
58.9202
52.3972
47.6341
44.1901
41.8383
40.5377
40.2891
213.053
108.273
79.2391
64.6587
56.3664
50.4152
46.2891
43.5543
42.0006
41.7727
250.588
121.608
86.9976
68.5792
57.8339
50.4218
45.3621
42.0366
40.0012
39.5922
316.629
144.397
97.4493
73.3702
59.3928
50.1077
43.8162
39.684
37.0454
36.2839
391.867
166.211
103.609
74.964
58.5326
48.0401
40.9867
36.4083
33.3902
32.3614
432.483
172.384
96.8895
67.2708
50.3548
40.1052
33.4118
29.2407
26.5606
25.5815
324.791
108.853
49.6936
31.388
21.7823
16.8954
14.1989
12.7946
11.93
11.6226
11.6753
10.2578
9.74425
9.50197
9.35157
9.24978
9.17926
9.12691
9.0812
9.04399
9.12898
8.92836
8.82211
8.74874
8.69035
8.642
8.60292
8.57296
8.55215
8.53946
55.614
41.8666
33.3771
27.4911
23.0678
19.6585
17.1108
15.2918
14.1935
13.708
85.1506
63.0335
51.1441
42.9794
37.544
33.6726
30.9629
29.1661
28.2184
28.0655
105.947
74.4707
58.6585
48.0415
41.3214
36.6416
33.4549
31.388
30.276
30.1456
128.604
85.2434
65.0599
51.5533
43.1833
37.5025
33.6652
31.1928
29.7471
29.4746
159.395
101.224
73.4461
56.0059
45.2896
38.1652
33.3566
30.2393
28.3117
27.7497
194.426
116.087
78.8499
58.1582
45.5167
37.3771
31.9204
28.4235
26.1746
25.3871
219.552
120.776
74.581
53.1005
39.9095
31.86
26.6297
23.4151
21.4014
20.6591
160.08
74.176
37.772
24.9447
17.7313
14.1082
12.102
11.0542
10.4148
10.1999
10.524
9.85611
9.51461
9.32807
9.20656
9.12201
9.06035
9.01189
8.96743
8.92996
8.79583
8.68022
8.61397
8.56456
8.52475
8.49256
8.46729
8.44837
8.4356
8.42829
29.2051
24.8007
20.806
17.4742
14.8655
12.9022
11.4921
10.5184
9.94913
9.70348
47.517
39.9204
33.771
28.8308
25.2416
22.6519
20.8395
19.6464
19.0341
18.9495
60.4092
48.9452
40.0025
33.3122
28.7285
25.5092
23.3119
21.8948
21.1605
21.0934
73.6609
57.5511
45.2524
36.538
30.779
26.8389
24.1783
22.4865
21.5402
21.3846
92.3553
69.5288
52.0204
40.573
33.0793
28.0363
24.6309
22.4477
21.1477
20.7841
112.749
80.3617
56.7594
42.9638
33.9611
28.0879
24.1569
21.6713
20.1274
19.5982
127.706
83.6909
54.5017
39.9642
30.4046
24.527
20.73
18.4323
17.043
16.5506
90.357
49.3137
27.278
19.0461
14.1616
11.7121
10.3316
9.60355
9.16081
9.02411
9.84207
9.4746
9.25816
9.12328
9.03126
8.96339
8.91144
8.86884
8.82834
8.79374
8.53122
8.45226
8.4106
8.38161
8.35879
8.34027
8.32556
8.31447
8.30713
8.3033
15.6879
14.0349
12.3234
10.8494
9.68972
8.82212
8.20242
7.77237
7.52436
7.42294
26.739
23.7212
20.7784
18.285
16.3522
14.9103
13.884
13.2063
12.8679
12.8353
34.8723
30.1329
25.5086
21.9038
19.243
17.3171
15.9831
15.1193
14.6838
14.6575
43.4318
36.361
29.5707
24.6575
21.1715
18.7315
17.0742
16.0303
15.4687
15.3938
55.4403
44.846
34.8142
28.0732
23.3392
20.0853
17.8794
16.4782
15.6724
15.4609
68.2199
52.5214
38.7738
30.3658
24.4958
20.5944
17.9825
16.3521
15.3725
15.0481
77.2733
54.9716
37.9654
28.8396
22.4713
18.5111
15.9633
14.4433
13.5552
13.2582
52.1256
31.0704
19.1711
14.3559
11.358
9.81709
8.91863
8.43658
8.14206
8.059
9.33409
9.13501
9.01203
8.92019
8.85254
8.79858
8.75514
8.71821
8.68196
8.65068
8.31668
8.25572
8.22773
8.21027
8.19695
8.18607
8.17733
8.1708
8.16672
8.165
9.17873
8.64421
8.03998
7.50853
7.08503
6.76259
6.52586
6.35481
6.25689
6.22272
15.2423
14.067
12.7936
11.6682
10.7567
10.0654
9.57234
9.24919
9.09746
9.10034
20.1062
18.1365
15.9848
14.2253
12.8488
11.8302
11.1191
10.6572
10.4327
10.4348
25.3528
22.1632
18.8297
16.3016
14.4026
13.0503
12.132
11.5611
11.2674
11.2466
32.7634
27.7126
22.5936
18.9261
16.1971
14.286
12.9889
12.1731
11.7198
11.6156
40.5858
32.7937
25.6209
20.8473
17.3327
14.9536
13.3622
12.3815
11.8093
11.6317
45.8751
34.5667
25.6205
20.2535
16.3578
13.9001
12.3225
11.3916
10.8647
10.7045
29.5469
19.294
13.6199
11.0138
9.31068
8.38695
7.8237
7.51445
7.32371
7.27535
8.94611
8.8465
8.78007
8.71859
8.66881
8.62598
8.58993
8.55845
8.52666
8.49907
8.12667
8.07537
8.05418
8.04227
8.03357
8.02657
8.02106
8.0171
8.0149
8.01439
6.58279
6.43097
6.24191
6.07032
5.92874
5.81566
5.72773
5.66044
5.62291
5.61491
9.40439
8.95331
8.45418
8.00715
7.64207
7.36687
7.17293
7.04828
6.99783
7.01538
12.1142
11.2988
10.3768
9.59655
8.96924
8.50193
8.17537
7.96221
7.86448
7.88004
15.1194
13.6867
12.1796
10.9834
10.0621
9.40409
8.96148
8.69159
8.56171
8.56993
19.4528
17.0926
14.673
12.8129
11.387
10.3786
9.69627
9.27104
9.04355
9.00495
24.0171
20.2687
16.7866
14.2489
12.3281
11.0104
10.1308
9.59464
9.28971
9.20526
27.0148
21.5228
17.1284
14.1763
11.9988
10.6021
9.70439
9.17811
8.88947
8.81511
17.157
12.5997
10.1333
8.79956
7.8814
7.3447
7.00133
6.80765
6.68678
6.65957
8.63776
8.5928
8.55658
8.51524
8.47835
8.4446
8.41509
8.38882
8.36164
8.33794
7.94406
7.89836
7.88068
7.87146
7.86505
7.86007
7.85629
7.85376
7.85261
7.85276
5.64565
5.60204
5.53939
5.48025
5.42963
5.38732
5.3526
5.32487
5.31047
5.31123
6.70341
6.54787
6.38046
6.23125
6.11069
6.02137
5.96002
5.92258
5.9138
5.93217
8.05711
7.75396
7.40475
7.10316
6.85752
6.67344
6.54373
6.45736
6.42159
6.4388
9.6385
9.0433
8.42645
7.92428
7.53675
7.26117
7.07822
6.9696
6.92358
6.94152
12.0351
11.0044
9.942
9.08417
8.41995
7.94721
7.6273
7.42893
7.32794
7.32217
14.5791
12.8841
11.2934
10.055
9.10768
8.44942
8.00876
7.74191
7.59371
7.56055
16.2589
13.7551
11.7183
10.226
9.11744
8.38994
7.91832
7.64265
7.49753
7.47109
10.879
9.06246
8.05142
7.39206
6.91125
6.60515
6.39966
6.28013
6.20449
6.1893
8.37449
8.35635
8.33548
8.30737
8.28
8.25372
8.23002
8.20865
8.18607
8.16631
7.75925
7.71772
7.70233
7.69467
7.68951
7.68565
7.68284
7.6811
7.68052
7.68098
5.29765
5.28095
5.25425
5.22881
5.20713
5.18892
5.17359
5.16123
5.15555
5.1584
5.59815
5.54679
5.49641
5.45269
5.41874
5.39506
5.38044
5.3736
5.3774
5.39149
6.20425
6.10886
5.99396
5.89224
5.80733
5.74234
5.69535
5.66277
5.65158
5.66504
6.95103
6.73305
6.51249
6.33037
6.18969
6.08974
6.02465
5.98802
5.97713
5.99422
8.1781
7.7767
7.35826
7.00777
6.73283
6.534
6.39833
6.31441
6.27516
6.28173
9.50871
8.81369
8.15055
7.60938
7.18907
6.8899
6.68689
6.56443
6.49831
6.4891
10.4485
9.40504
8.53499
7.85068
7.33372
6.98232
6.7512
6.61701
6.55119
6.54809
7.90129
7.23821
6.83258
6.51303
6.26478
6.0922
5.97055
5.89714
5.84977
5.84081
8.13199
8.12542
8.11254
8.09327
8.07309