/*--------------------------------*- C++ -*----------------------------------*\
| =========                 |                                                 |
| \\      /  F ield         | foam-extend: Open Source CFD                    |
|  \\    /   O peration     | Version:     4.0                                |
|   \\  /    A nd           | Web:         http://www.foam-extend.org         |
|    \\/     M anipulation  |                                                 |
\*---------------------------------------------------------------------------*/
FoamFile
{
    version     2.0;
    format      ascii;
    class       volScalarField;
    location    "1400";
    object      p;
}
// * * * * * * * * * * * * * * * * * * * * * * * * * * * * * * * * * * * * * //

dimensions      [1 -1 -2 0 0 0 0];

internalField   nonuniform List<scalar> 
34480
(
107926
107639
107420
107298
107307
107499
107974
108742
109444
112551
107192
106766
106393
106093
105900
105871
106118
106724
107125
109479
106795
106247
105739
105272
104871
104594
104562
104908
104924
106314
106580
105891
105235
104599
103993
103473
103166
103225
102836
103239
106461
105649
104875
104102
103332
102604
102051
101828
101038
100530
106471
105571
104710
103837
102942
102053
101299
100816
99647.8
98365.7
106374
105411
104498
103567
102601
101608
100707
99991
98457.6
96464.1
106446
105461
104529
103582
102599
101571
100589
99684.9
97784.9
95037.7
106240
105251
104320
103394
102454
101471
100480
99428.6
97149.9
93645.9
106358
105353
104401
103467
102559
101660
100764
99741.7
97204.8
92855.3
109780
109623
109569
109651
109907
110393
111201
112452
114346
117387
108688
108407
108216
108144
108241
108585
109300
110565
112634
116444
108034
107633
107312
107087
106999
107136
107651
108789
110843
115135
107626
107086
106621
106234
105958
105879
106165
107114
109062
113650
107372
106709
106121
105598
105162
104888
104951
105681
107463
112187
107280
106522
105837
105207
104643
104208
104072
104577
106152
110863
107113
106283
105533
104830
104178
103625
103329
103612
104943
109505
107135
106269
105480
104740
104041
103418
103003
103083
104126
108411
106928
106041
105229
104471
103765
103130
102659
102573
103290
107315
106999
106102
105268
104490
103777
103159
102708
102591
103049
106934
111148
111077
111114
111283
111606
112112
112833
113804
115068
116646
109933
109761
109697
109767
110012
110482
111251
112402
114038
116297
109122
108845
108670
108619
108739
109098
109803
111004
112884
115764
108573
108170
107866
107677
107650
107866
108455
109628
111661
115093
108209
107688
107268
106955
106791
106862
107314
108408
110519
114404
108024
107408
106891
106475
106194
106133
106451
107437
109569
113806
107790
107098
106510
106017
105648
105481
105675
106536
108632
113105
107766
107028
106391
105847
105416
105170
105259
105982
107974
112558
107564
106795
106122
105540
105070
104778
104796
105398
107215
111900
107609
106829
106131
105523
105026
104710
104700
105252
106884
111699
112009
111978
112032
112184
112443
112815
113306
113911
114613
115355
110868
110764
110758
110870
111122
111539
112148
112973
114015
115189
110031
109838
109746
109777
109964
110354
111005
111981
113335
114993
109421
109119
108921
108847
108939
109259
109895
110963
112585
114746
108995
108585
108286
108108
108097
108329
108914
110020
111860
114498
108750
108249
107859
107589
107483
107623
108142
109249
111259
114330
108472
107894
107433
107089
106903
106961
107408
108486
110611
114054
108411
107783
107268
106869
106622
106610
106984
108003
110176
113914
108198
107537
106984
106545
106253
106191
106505
107456
109595
113615
108216
107543
106966
106502
106183
106092
106367
107269
109316
113607
112499
112485
112531
112641
112817
113058
113357
113703
114075
114440
111532
111470
111487
111594
111803
112118
112543
113072
113682
114299
110752
110621
110579
110642
110833
111172
111682
112378
113250
114192
110139
109918
109795
109790
109932
110260
110819
111655
112791
114108
109690
109375
109168
109084
109161
109452
110026
110966
112350
114056
109412
109012
108725
108566
108574
108816
109384
110398
112007
114103
109106
108632
108279
108054
107999
108190
108736
109793
111594
114059
109020
108494
108088
107811
107703
107843
108355
109423
111361
114159
108799
108240
107797
107481
107332
107431
107908
108963
110965
114087
108800
108227
107760
107421
107246
107318
107764
108796
110784
114206
112732
112725
112756
112826
112933
113075
113245
113433
113627
113810
111969
111932
111952
112036
112186
112402
112679
113002
113350
113680
111297
111209
111193
111261
111421
111683
112050
112515
113053
113591
110726
110568
110494
110522
110669
110955
111398
112005
112759
113559
110289
110050
109912
109886
110000
110287
110783
111515
112491
113583
110001
109688
109483
109400
109472
109746
110276
111115
112313
113716
109684
109303
109039
108903
108932
109183
109729
110654
112057
113776
109585
109154
108841
108659
108648
108871
109417
110397
111972
113993
109361
108895
108549
108333
108288
108484
109021
110032
111722
114039
109350
108870
108501
108264
108196
108372
108892
109908
111635
114214
112808
112803
112821
112862
112923
113002
113095
113195
113296
113389
112235
112212
112228
112286
112385
112524
112695
112887
113086
113267
111692
111633
111629
111686
111808
111997
112247
112548
112876
113190
111189
111077
111035
111073
111202
111430
111760
112182
112673
113164
110788
110611
110520
110526
110646
110898
111294
111837
112506
113207
110512
110272
110128
110094
110194
110457
110909
111565
112424
113360
110199
109898
109706
109632
109707
109970
110462
111219
112264
113451
110099
109752
109517
109406
109455
109709
110226
111060
112274
113710
109874
109494
109229
109090
109115
109356
109884
110774
112119
113800
109859
109464
109179
109022
109029
109258
109782
110696
112102
113989
112796
112793
112802
112824
112857
112900
112949
113002
113054
113102
112379
112365
112376
112412
112474
112558
112660
112772
112886
112987
111965
111925
111925
111968
112055
112183
112348
112539
112740
112926
111542
111463
111439
111475
111578
111749
111983
112270
112588
112894
111193
111064
111005
111024
111132
111336
111637
112027
112480
112934
110943
110762
110663
110658
110762
110991
111353
111847
112451
113077
110645
110413
110276
110242
110336
110580
110995
111587
112346
113161
110554
110281
110108
110048
110127
110378
110830
111506
112412
113421
110332
110028
109831
109749
109813
110062
110538
111278
112307
113507
110319
110001
109785
109689
109741
109985
110468
111241
112337
113689
112743
112740
112745
112756
112774
112796
112822
112849
112876
112901
112445
112436
112442
112464
112500
112550
112609
112673
112737
112794
112145
112119
112120
112149
112207
112290
112396
112515
112638
112749
111800
111746
111732
111762
111838
111959
112121
112312
112516
112709
111510
111418
111381
111403
111491
111647
111867
112140
112444
112740
111296
111163
111096
111105
111199
111385
111663
112024
112444
112863
111023
110847
110751
110742
110836
111045
111377
111825
112367
112926
110948
110738
110614
110587
110676
110901
111275
111802
112463
113166
110733
110495
110351
110308
110390
110622
111026
111614
112379
113224
110726
110475
110316
110263
110338
110570
110987
111611
112436
113391
112676
112674
112676
112682
112691
112702
112716
112730
112744
112756
112462
112457
112460
112472
112493
112521
112555
112591
112628
112659
112258
112241
112241
112260
112297
112350
112415
112488
112563
112630
111983
111946
111938
111960
112013
112096
112204
112328
112459
112581
111753
111689
111665
111685
111752
111866
112021
112208
112410
112603
111578
111482
111438
111452
111529
111672
111878
112135
112423
112703
111333
111203
111137
111141
111225
111394
111648
111977
112358
112740
111282
111124
111036
111030
111115
111304
111600
111996
112470
112956
111074
110892
110789
110772
110856
111057
111383
111834
112388
112976
111079
110886
110771
110746
110828
111033
111375
111858
112463
113128
112611
112609
112610
112613
112617
112623
112630
112637
112645
112651
112453
112450
112451
112458
112469
112485
112504
112525
112545
112563
112326
112314
112314
112326
112348
112381
112421
112465
112510
112550
112107
112083
112077
112093
112129
112183
112253
112333
112416
112492
111934
111889
111874
111890
111939
112018
112125
112250
112383
112508
111796
111729
111700
111714
111774
111880
112027
112205
112400
112586
111581
111487
111443
111453
111522
111652
111840
112075
112338
112597
111558
111442
111382
111385
111460
111610
111835
112125
112458
112790
111358
111222
111150
111148
111225
111389
111642
111976
112370
112773
111378
111232
111151
111144
111221
111392
111660
112023
112455
112912
112553
112552
112553
112554
112556
112559
112562
112566
112570
112573
112431
112429
112429
112433
112439
112448
112459
112470
112482
112492
112364
112356
112356
112363
112376
112396
112420
112446
112473
112496
112188
112172
112169
112179
112202
112237
112282
112332
112384
112432
112064
112034
112024
112036
112070
112124
112195
112277
112364
112444
111962
111915
111896
111909
111953
112028
112130
112251
112381
112503
111775
111709
111679
111690
111744
111840
111974
112138
112317
112491
111781
111698
111657
111666
111726
111841
112006
112211
112441
112665
111588
111488
111440
111445
111509
111637
111826
112067
112341
112615
111625
111519
111463
111466
111532
111667
111869
112133
112435
112745
112507
112506
112506
112507
112508
112509
112511
112512
112515
112516
112403
112402
112402
112404
112408
112413
112419
112425
112432
112437
112385
112380
112379
112383
112391
112403
112417
112432
112448
112462
112238
112228
112225
112232
112246
112268
112296
112327
112359
112389
112157
112137
112131
112139
112162
112197
112244
112297
112352
112403
112084
112052
112040
112050
112081
112133
112202
112282
112367
112447
111923
111877
111858
111867
111907
111975
112069
112180
112300
112415
111958
111900
111873
111883
111929
112013
112130
112272
112427
112576
111769
111698
111665
111673
111724
111820
111956
112125
112312
112495
111827
111751
111713
111720
111773
111876
112023
112209
112416
112623
112472
112471
112472
112472
112472
112473
112474
112474
112476
112476
112375
112374
112374
112375
112377
112380
112383
112387
112391
112394
112397
112393
112393
112395
112400
112406
112415
112424
112433
112441
112266
112260
112258
112262
112271
112285
112302
112321
112340
112359
112221
112208
112204
112210
112224
112247
112277
112310
112345
112377
112171
112150
112142
112149
112171
112205
112251
112303
112358
112408
112032
112001
111989
111996
112024
112071
112135
112209
112287
112362
112097
112057
112040
112048
112082
112141
112222
112318
112421
112517
111906
111857
111836
111843
111882
111950
112045
112161
112286
112407
111988
111935
111911
111918
111959
112033
112137
112265
112403
112539
112450
112449
112449
112449
112449
112449
112450
112450
112451
112450
112346
112346
112346
112347
112348
112350
112352
112354
112356
112358
112405
112403
112402
112404
112406
112410
112415
112420
112426
112430
112281
112277
112276
112278
112283
112291
112301
112313
112325
112336
112264
112256
112254
112257
112266
112281
112299
112320
112342
112361
112231
112217
112212
112217
112231
112254
112283
112316
112351
112383
112112
112091
112083
112089
112108
112139
112181
112229
112279
112327
112203
112177
112167
112173
112197
112237
112291
112354
112421
112482
112006
111972
111959
111965
111993
112040
112104
112181
112263
112342
112117
112082
112066
112073
112102
112154
112225
112310
112400
112488
112442
112441
112441
112441
112441
112441
112441
112441
112442
112440
112317
112317
112318
112318
112319
112320
112321
112322
112324
112325
112413
112412
112411
112412
112414
112416
112419
112422
112425
112427
112286
112283
112282
112284
112287
112291
112297
112304
112311
112318
112291
112286
112285
112287
112293
112302
112313
112326
112339
112351
112269
112260
112257
112260
112269
112284
112302
112323
112344
112364
112168
112154
112150
112153
112166
112186
112212
112243
112274
112305
112284
112267
112261
112266
112282
112309
112344
112384
112427
112464
112073
112050
112042
112047
112065
112097
112139
112190
112242
112293
112224
112201
112191
112197
112217
112252
112299
112354
112411
112467
112460
112459
112459
112459
112458
112458
112458
112457
112458
112456
112285
112285
112286
112286
112286
112287
112287
112288
112289
112290
112421
112420
112420
112420
112421
112423
112425
112427
112428
112430
112285
112284
112283
112283
112285
112288
112291
112295
112299
112303
112305
112302
112302
112303
112307
112312
112319
112327
112335
112342
112288
112283
112281
112283
112289
112298
112309
112322
112335
112347
112205
112197
112194
112196
112204
112217
112233
112252
112270
112289
112339
112329
112325
112328
112339
112356
112379
112405
112432
112453
112108
112094
112088
112092
112104
112125
112152
112184
112216
112249
112326
112311
112306
112310
112323
112346
112376
112411
112447
112481
112527
112526
112526
112526
112525
112525
112525
112524
112524
112521
112241
112241
112242
112242
112242
112242
112242
112242
112243
112243
112422
112421
112421
112422
112423
112424
112426
112427
112429
112430
112282
112281
112280
112281
112281
112283
112284
112286
112288
112290
112308
112307
112306
112307
112309
112313
112317
112322
112327
112331
112293
112289
112288
112289
112293
112299
112306
112314
112322
112330
112226
112221
112219
112221
112226
112234
112244
112255
112266
112277
112359
112352
112350
112352
112360
112371
112386
112403
112421
112434
112107
112098
112094
112097
112105
112118
112135
112155
112174
112197
112449
112440
112437
112439
112449
112463
112483
112505
112527
112549
112666
112666
112666
112667
112668
112669
112670
112671
112673
112671
112170
112169
112169
112169
112168
112168
112167
112166
112165
112163
112403
112404
112404
112404
112406
112407
112409
112411
112413
112415
112281
112280
112279
112279
112280
112280
112281
112282
112282
112283
112304
112303
112303
112303
112305
112307
112310
112313
112316
112320
112288
112285
112285
112285
112288
112291
112296
112302
112307
112313
112236
112233
112231
112233
112236
112241
112248
112255
112262
112268
112330
112326
112324
112326
112331
112339
112349
112361
112375
112386
112056
112051
112049
112050
112056
112065
112076
112088
112100
112114
112620
112612
112610
112612
112618
112628
112642
112658
112673
112690
112829
112830
112831
112833
112836
112839
112844
112850
112858
112865
112081
112080
112079
112079
112077
112075
112073
112069
112065
112057
112369
112369
112369
112370
112371
112372
112374
112376
112379
112383
112285
112284
112284
112284
112284
112285
112285
112286
112286
112285
112300
112299
112298
112299
112300
112302
112304
112307
112310
112312
112283
112281
112280
112281
112283
112286
112290
112294
112299
112303
112242
112239
112238
112239
112242
112246
112252
112258
112263
112268
112273
112269
112267
112268
112273
112279
112288
112298
112310
112323
111977
111973
111971
111972
111977
111984
111993
112003
112010
112015
112795
112786
112783
112785
112790
112799
112810
112824
112839
112857
128816
132354
132387
130337
129752
133722
133694
131805
130456
134651
135034
133364
130750
135119
136240
134822
131066
135588
137373
136147
131829
136591
139092
138429
132603
137521
140532
140486
133381
138363
141720
142190
133061
137989
141570
142507
131677
136420
140166
141652
120915
122505
122881
121999
121459
123305
123843
123067
121880
123948
124646
124093
122284
124549
125459
125192
122808
125224
126377
126348
123441
125925
127202
127278
123966
126468
127819
127994
124591
127069
128454
128811
124650
127067
128509
129087
124389
126763
128359
129193
118046
118741
118924
118642
118380
119234
119514
119301
118701
119720
120123
119997
119044
120234
120795
120781
119501
120849
121563
121654
120156
121639
122477
122677
120768
122362
123304
123613
121493
123161
124175
124597
121818
123497
124559
125097
122048
123681
124756
125388
115917
116239
116353
116266
116052
116466
116651
116617
116261
116778
117048
117079
116524
117154
117523
117640
116888
117626
118090
118293
117417
118254
118801
119093
117906
118830
119453
119839
118550
119545
120237
120726
118879
119910
120656
121242
119136
120176
120961
121623
114701
114857
114923
114900
114709
114921
115035
115054
114818
115099
115271
115335
115010
115367
115605
115731
115301
115733
116036
116227
115754
116262
116629
116887
116177
116756
117184
117511
116774
117416
117901
118302
117116
117795
118323
118792
117431
118120
118675
119193
113937
114016
114055
114052
113886
114000
114070
114096
113922
114081
114190
114251
114050
114260
114416
114522
114276
114539
114743
114896
114651
114968
115220
115424
114995
115364
115661
115918
115520
115938
116278
116589
115832
116281
116655
117010
116144
116607
117001
117387
113454
113495
113517
113520
113378
113442
113484
113505
113377
113471
113539
113584
113450
113579
113680
113757
113620
113786
113922
114033
113925
114130
114301
114449
114196
114439
114644
114829
114651
114928
115165
115388
114913
115214
115474
115726
115198
115509
115784
116055
113136
113158
113170
113173
113048
113084
113109
113125
113036
113093
113136
113166
113067
113147
113213
113265
113190
113296
113386
113463
113432
113565
113681
113784
113633
113793
113934
114063
114019
114203
114366
114522
114219
114421
114601
114774
114467
114677
114867
115053
112919
112931
112938
112940
112828
112848
112864
112874
112816
112851
112878
112898
112817
112867
112910
112945
112904
112973
113032
113084
113092
113180
113258
113328
113233
113340
113435
113524
113556
113680
113791
113898
113690
113826
113950
114068
113902
114044
114174
114300
112766
112773
112777
112779
112678
112689
112699
112705
112671
112692
112709
112722
112648
112681
112708
112731
112709
112754
112794
112828
112854
112912
112964
113012
112944
113015
113080
113140
113214
113297
113374
113446
113286
113378
113462
113543
113467
113563
113652
113737
112656
112660
112662
112663
112572
112579
112584
112589
112575
112588
112599
112607
112535
112555
112573
112588
112577
112606
112632
112655
112685
112724
112759
112791
112733
112780
112824
112865
112962
113018
113070
113119
112981
113043
113101
113155
113139
113204
113264
113321
112576
112578
112580
112580
112496
112499
112503
112506
112512
112520
112527
112532
112458
112471
112482
112492
112488
112507
112524
112539
112568
112594
112617
112638
112580
112612
112642
112669
112779
112817
112852
112885
112755
112796
112835
112871
112896
112940
112980
113019
112518
112519
112520
112520
112438
112440
112442
112444
112472
112477
112481
112484
112405
112413
112420
112426
112431
112443
112454
112464
112489
112505
112520
112534
112473
112494
112514
112532
112651
112676
112699
112721
112589
112617
112643
112667
112722
112751
112778
112804
112477
112478
112478
112479
112393
112394
112395
112397
112448
112451
112453
112455
112368
112373
112378
112382
112395
112403
112410
112416
112435
112446
112456
112465
112400
112414
112426
112438
112566
112583
112598
112612
112469
112488
112505
112521
112604
112623
112640
112657
112451
112452
112452
112452
112356
112356
112356
112358
112435
112437
112438
112439
112341
112344
112347
112349
112373
112378
112382
112386
112400
112407
112413
112419
112351
112360
112368
112375
112514
112524
112534
112543
112384
112395
112406
112417
112529
112541
112553
112564
112441
112441
112441
112442
112321
112321
112321
112323
112431
112432
112433
112433
112320
112322
112324
112325
112358
112361
112364
112366
112375
112379
112383
112387
112319
112324
112329
112334
112484
112491
112497
112503
112320
112328
112335
112341
112492
112500
112507
112514
112457
112456
112456
112457
112285
112284
112285
112286
112433
112434
112434
112434
112303
112304
112305
112306
112347
112348
112350
112351
112355
112357
112360
112362
112297
112300
112303
112306
112467
112471
112475
112479
112267
112272
112277
112281
112496
112500
112505
112510
112522
112521
112521
112522
112237
112236
112236
112238
112434
112435
112435
112434
112290
112290
112291
112292
112334
112336
112337
112337
112335
112336
112338
112339
112281
112282
112284
112286
112445
112448
112450
112452
112209
112212
112215
112217
112557
112559
112562
112565
112677
112674
112674
112677
112156
112155
112155
112157
112419
112420
112421
112420
112282
112282
112282
112283
112322
112323
112324
112324
112316
112317
112318
112319
112269
112270
112271
112273
112399
112402
112404
112404
112120
112122
112123
112125
112695
112697
112699
112701
112887
112885
112885
112887
112044
112039
112039
112044
112387
112389
112389
112387
112284
112283
112284
112285
112314
112315
112316
112316
112306
112307
112308
112308
112268
112268
112269
112271
112341
112344
112345
112345
112001
111999
112001
112005
112865
112868
112869
112870
120098
116586
114408
112697
111471
110552
109820
109218
108715
108287
121341
117401
114709
112839
111471
110430
109585
108871
108255
107693
122427
118140
114993
113078
111615
110478
109531
108722
108014
107379
123693
119052
115650
113646
112046
110791
109729
108807
107985
107265
125043
119992
116407
114216
112480
111102
109932
108912
107992
107218
126610
121066
117282
114876
113007
111510
110243
109136
108135
107299
128114
121874
117952
115308
113328
111715
110364
109184
108116
107247
129745
122664
118723
115829
113769
112055
110637
109395
108282
107360
130799
122912
119050
115958
113857
112059
110586
109292
108154
107190
131898
123378
119633
116364
114192
112302
110760
109404
108229
107222
119546
117168
115460
114123
113048
112174
111458
110876
110409
110044
120232
117523
115480
113885
112626
111623
110806
110129
109567
109083
120932
117954
115569
113842
112476
111386
110485
109728
109083
108519
121733
118594
115992
114151
112674
111485
110484
109623
108871
108215
122517
119368
116545
114560
112964
111668
110567
109612
108761
108040
123602
120306
117274
115115
113395
111987
110791
109750
108816
108024
124737
121068
117866
115500
113665
112148
110865
109750
108744
107909
126173
121846
118581
115995
114073
112458
111108
109929
108873
107981
127248
122121
118906
116144
114174
112478
111070
109838
108752
107816
128456
122469
119397
116481
114449
112678
111217
109938
108826
107862
117803
116629
115537
114572
113740
113037
112452
111975
111601
111324
118342
116855
115445
114229
113211
112368
111669
111088
110617
110226
118923
117183
115488
114094
112944
111996
111204
110539
109983
109507
119610
117707
115806
114280
113014
111959
111064
110295
109633
109061
120364
118363
116269
114602
113212
112048
111050
110184
109422
108777
121378
119205
116928
115091
113571
112293
111197
110242
109394
108672
122407
119937
117486
115449
113802
112410
111224
110191
109267
108494
123727
120736
118183
115932
114185
112694
111434
110336
109357
108525
124732
121094
118546
116122
114313
112737
111414
110259
109242
108367
125795
121470
119010
116437
114565
112920
111550
110354
109314
108411
115971
115452
114887
114327
113804
113334
112926
112586
112318
112124
116310
115621
114835
114069
113368
112746
112209
111753
111383
111082
116769
115923
114923
113975
113122
112375
111731
111181
110721
110332
117370
116406
115236
114139
113152
112287
111530
110872
110307
109820
118074
117008
115679
114432
113313
112330
111466
110707
110041
109476
119009
117791
116304
114889
113636
112534
111567
110715
109959
109312
119953
118489
116843
115237
113849
112630
111567
110632
109797
109093
121144
119288
117525
115716
114217
112894
111752
110748
109854
109089
122056
119713
117908
115925
114343
112928
111718
110657
109722
108917
122992
120126
118335
116206
114562
113085
111834
110737
109780
108950
114786
114550
114264
113955
113647
113357
113097
112875
112699
112572
114961
114646
114224
113767
113313
112888
112505
112173
111902
111682
115275
114875
114312
113706
113114
112566
112074
111645
111284
110980
115750
115284
114600
113857
113135
112464
111858
111321
110857
110457
116344
115815
115011
114131
113278
112488
111771
111130
110566
110087
117141
116519
115592
114561
113575
112666
111843
111106
110451
109888
117938
117155
116098
114896
113777
112748
111825
111003
110265
109642
118963
117919
116753
115370
114134
112999
111993
111097
110299
109614
119746
118365
117136
115587
114255
113026
111949
110997
110156
109431
120531
118780
117529
115847
114454
113167
112052
111066
110203
109454
114005
113898
113756
113593
113421
113254
113099
112964
112855
112777
114077
113933
113712
113449
113170
112895
112638
112411
112224
112072
114267
114085
113779
113410
113020
112639
112283
111965
111694
111465
114611
114404
114019
113541
113037
112542
112077
111656
111290
110973
115078
114848
114380
113788
113167
112558
111986
111464
111001
110607
115728
115456
114900
114183
113440
112717
112041
111423
110871
110396
116368
116011
115355
114495
113627
112789
112013
111308
110675
110137
117220
116710
115964
114953
113971
113029
112168
111390
110694
110095
117852
117132
116321
115161
114080
113047
112116
111283
110542
109906
118478
117522
116677
115406
114266
113179
112211
111345
110582
109922
113500
113451
113380
113296
113204
113111
113023
112945
112881
112835
113507
113440
113323
113175
113008
112838
112675
112527
112405
112303
113613
113534
113370
113150
112901
112645
112398
112172
111976
111811
113843
113761
113548
113249
112909
112557
112214
111897
111618
111375
114191
114111
113846
113461
113022
112569
112128
111717
111350
111037
114703
114615
114291
113810
113268
112711
112173
111672
111221
110830
115194
115073
114680
114086
113434
112772
112139
111553
111023
110573
115885
115691
115229
114515
113759
113001
112286
111628
111037
110526
116368
116058
115536
114699
113851
113008
112227
111516
110880
110334
116855
116409
115854
114929
114027
113135
112317
111575
110917
110346
113165
113142
113108
113065
113016
112966
112918
112874
112838
112812
113131
113100
113039
112956
112860
112759
112659
112567
112490
112424
113192
113159
113070
112940
112784
112618
112452
112298
112163
112048
113333
113306
113190
113005
112781
112537
112293
112062
111857
111678
113583
113570
113423
113177
112874
112547
112218
111905
111623
111382
113974
113973
113790
113474
113087
112672
112256
111861
111504
111193
114335
114332
114104
113704
113226
112718
112216
111744
111313
110946
114889
114859
114584
114093
113528
112934
112357
111816
111328
110903
115237
115152
114827
114241
113596
112929
112291
111702
111169
110712
115613
115461
115109
114456
113763
113052
112380
111761
111206
110725
112937
112927
112910
112888
112863
112837
112811
112787
112767
112752
112881
112867
112835
112790
112736
112677
112617
112562
112515
112474
112917
112903
112855
112779
112683
112578
112470
112369
112278
112201
112993
112989
112925
112812
112666
112503
112334
112172
112026
111898
113170
113181
113100
112944
112739
112508
112270
112040
111830
111651
113464
113494
113393
113187
112918
112615
112304
112003
111728
111488
113718
113760
113631
113366
113024
112645
112259
111888
111548
111258
114158
114201
114041
113711
113298
112847
112394
111963
111570
111227
114390
114412
114217
113818
113341
112828
112322
111846
111411
111039
114684
114678
114464
114016
113499
112948
112411
111908
111452
111057
112777
112773
112764
112754
112741
112727
112713
112701
112690
112681
112711
112705
112689
112665
112635
112601
112567
112535
112507
112481
112734
112730
112704
112659
112602
112537
112469
112404
112345
112295
112765
112768
112732
112664
112572
112464
112351
112241
112141
112051
112887
112904
112859
112761
112626
112467
112300
112135
111984
111854
113106
113142
113086
112955
112770
112556
112329
112106
111901
111721
113275
113327
113256
113082
112843
112567
112278
111996
111735
111512
113627
113691
113602
113383
113089
112755
112410
112076
111769
111499
113763
113826
113713
113447
113104
112719
112329
111955
111610
111315
113998
114053
113928
113628
113253
112837
112419
112021
111657
111341
112663
112661
112657
112652
112645
112638
112631
112624
112618
112614
112594
112592
112584
112571
112554
112536
112516
112498
112482
112465
112615
112614
112600
112574
112540
112501
112459
112418
112381
112349
112610
112615
112596
112555
112498
112429
112355
112282
112215
112154
112694
112711
112686
112625
112537
112430
112316
112201
112095
112004
112855
112887
112857
112773
112650
112501
112341
112181
112032
111900
112957
113004
112966
112854
112689
112493
112283
112075
111880
111714
113243
113305
113257
113114
112910
112668
112413
112161
111928
111722
113304
113373
113311
113137
112895
112614
112321
112036
111770
111542
113497
113568
113498
113302
113036
112730
112415
112109
111826
111580
112580
112580
112577
112575
112571
112568
112564
112561
112557
112555
112510
112510
112506
112499
112490
112480
112469
112459
112450
112439
112536
112537
112529
112515
112495
112471
112446
112421
112398
112378
112507
112511
112501
112477
112441
112398
112351
112304
112260
112219
112565
112578
112565
112527
112471
112401
112324
112247
112175
112112
112681
112706
112690
112638
112557
112456
112346
112234
112129
112035
112731
112769
112749
112677
112566
112430
112282
112132
111991
111871
112969
113020
112995
112904
112765
112595
112411
112227
112056
111902
112971
113031
112998
112886
112720
112520
112306
112094
111895
111725
113137
113202
113166
113039
112856
112637
112405
112177
111964
111778
112520
112520
112519
112518
112516
112515
112512
112511
112509
112508
112449
112449
112447
112443
112439
112433
112427
112422
112416
112409
112486
112487
112483
112475
112463
112449
112434
112419
112405
112393
112436
112440
112435
112420
112399
112372
112343
112313
112286
112259
112480
112490
112483
112460
112424
112380
112329
112278
112230
112189
112563
112581
112573
112540
112488
112421
112347
112271
112199
112134
112573
112601
112591
112545
112473
112380
112278
112173
112074
111990
112778
112818
112805
112748
112655
112538
112410
112279
112156
112045
112732
112779
112763
112691
112579
112440
112288
112136
111991
111867
112883
112935
112918
112838
112714
112561
112396
112230
112074
111938
112478
112479
112478
112478
112477
112476
112475
112474
112473
112472
112401
112401
112400
112399
112396
112393
112390
112387
112384
112379
112455
112456
112454
112449
112443
112435
112426
112416
112408
112401
112388
112391
112388
112380
112367
112351
112333
112315
112298
112280
112426
112433
112429
112415
112393
112365
112333
112300
112269
112242
112483
112496
112492
112472
112439
112396
112347
112296
112249
112205
112465