/*--------------------------------*- C++ -*----------------------------------*\
| =========                 |                                                 |
| \\      /  F ield         | foam-extend: Open Source CFD                    |
|  \\    /   O peration     | Version:     4.0                                |
|   \\  /    A nd           | Web:         http://www.foam-extend.org         |
|    \\/     M anipulation  |                                                 |
\*---------------------------------------------------------------------------*/
FoamFile
{
    version     2.0;
    format      ascii;
    class       volScalarField;
    location    "1400";
    object      rho;
}
// * * * * * * * * * * * * * * * * * * * * * * * * * * * * * * * * * * * * * //

dimensions      [1 -3 0 0 0 0 0];

internalField   nonuniform List<scalar> 
34480
(
1.34839
1.34696
1.34639
1.34711
1.34971
1.35484
1.36314
1.37275
1.37617
1.39566
1.34263
1.33981
1.33757
1.33621
1.33644
1.33919
1.34577
1.35593
1.36015
1.37545
1.33831
1.33425
1.33062
1.32754
1.32553
1.3257
1.3298
1.33861
1.34146
1.34951
1.33526
1.32997
1.32508
1.32052
1.31656
1.31432
1.31582
1.32261
1.32332
1.32331
1.33326
1.32694
1.32113
1.31545
1.31004
1.30583
1.30503
1.30965
1.30797
1.30021
1.33256
1.32556
1.3191
1.31265
1.30622
1.30055
1.2979
1.30047
1.29644
1.28234
1.33069
1.32321
1.31642
1.30957
1.30263
1.29607
1.29211
1.29285
1.28654
1.2669
1.33083
1.32326
1.31641
1.30955
1.30259
1.2958
1.29115
1.29037
1.2817
1.25619
1.32775
1.32021
1.31346
1.30701
1.30083
1.29487
1.29038
1.28844
1.27733
1.24595
1.32516
1.31742
1.31044
1.30395
1.2982
1.29326
1.28991
1.28854
1.2765
1.23919
1.36434
1.36328
1.36308
1.36406
1.36657
1.37102
1.37813
1.38886
1.40429
1.42563
1.35647
1.35429
1.35287
1.35243
1.35351
1.35682
1.36348
1.37493
1.39316
1.42334
1.3507
1.34736
1.34471
1.34284
1.34219
1.34367
1.34878
1.35965
1.37866
1.41455
1.34672
1.34212
1.33818
1.33489
1.33254
1.33202
1.33506
1.34447
1.36319
1.40301
1.34431
1.33858
1.33355
1.32907
1.32527
1.32294
1.32389
1.3314
1.34905
1.39108
1.34341
1.33684
1.33097
1.32554
1.3206
1.31675
1.3158
1.32122
1.33717
1.37944
1.34158
1.33435
1.32789
1.32181
1.31609
1.31113
1.30864
1.312
1.32583
1.36684
1.34177
1.33422
1.32741
1.32101
1.31489
1.30929
1.30569
1.30711
1.31835
1.35691
1.33906
1.3313
1.32426
1.31775
1.31172
1.30626
1.3023
1.30224
1.3106
1.34756
1.33625
1.32839
1.32114
1.31444
1.30838
1.30319
1.29962
1.29951
1.30602
1.3441
1.37569
1.37528
1.37575
1.37732
1.38016
1.38446
1.39042
1.39821
1.40797
1.41921
1.36704
1.36581
1.36546
1.36625
1.3685
1.3726
1.37912
1.38864
1.40176
1.41917
1.35998
1.35779
1.35647
1.3562
1.3574
1.36067
1.36689
1.3772
1.39288
1.41597
1.35478
1.35147
1.34904
1.3476
1.34756
1.34965
1.35496
1.36523
1.38259
1.41086
1.35137
1.34701
1.34358
1.34108
1.33986
1.34071
1.34489
1.35459
1.37291
1.40552
1.34963
1.34443
1.34016
1.33679
1.33456
1.33427
1.33727
1.34608
1.3648
1.40082
1.34721
1.34131
1.33641
1.33237
1.32938
1.32816
1.3301
1.33785
1.35646
1.39487
1.34703
1.34071
1.33536
1.33087
1.32737
1.32546
1.32649
1.33307
1.3509
1.39052
1.34458
1.33793
1.33219
1.32734
1.32355
1.32137
1.32196
1.32762
1.344
1.38498
1.34174
1.33497
1.32898
1.32386
1.31979
1.31738
1.31782
1.32336
1.33836
1.38152
1.38245
1.38229
1.38279
1.38405
1.38615
1.38911
1.39296
1.39769
1.40314
1.40848
1.37475
1.37402
1.37407
1.37508
1.37722
1.38065
1.38556
1.39207
1.40015
1.40883
1.36764
1.36615
1.36548
1.36582
1.36747
1.37078
1.37622
1.38427
1.39522
1.40804
1.36202
1.35958
1.35804
1.35753
1.35842
1.36122
1.36666
1.37564
1.38911
1.4063
1.35815
1.35476
1.35235
1.35099
1.35104
1.35314
1.35823
1.36766
1.3832
1.40466
1.35594
1.35174
1.34856
1.34643
1.34568
1.34704
1.35161
1.36112
1.37829
1.40365
1.35318
1.34828
1.34448
1.34171
1.3403
1.34097
1.34497
1.3543
1.37266
1.40144
1.35272
1.34736
1.34307
1.33983
1.3379
1.33801
1.34141
1.3503
1.36921
1.4008
1.35024
1.34453
1.33985
1.33622
1.33393
1.3337
1.33676
1.34523
1.36396
1.39837
1.34727
1.34144
1.33652
1.33266
1.3301
1.32959
1.33237
1.34061
1.35876
1.39618
1.38617
1.38611
1.38649
1.38737
1.38874
1.39058
1.39287
1.39556
1.39862
1.40172
1.3801
1.37968
1.37987
1.38078
1.38249
1.385
1.38833
1.39238
1.39698
1.40153
1.37361
1.37261
1.37234
1.37291
1.37452
1.3773
1.38144
1.38699
1.39386
1.40108
1.36807
1.36632
1.36539
1.36543
1.36668
1.36945
1.3741
1.38093
1.39011
1.40046
1.36408
1.3615
1.35987
1.35928
1.36003
1.36256
1.36742
1.37523
1.38662
1.40028
1.36161
1.3583
1.356
1.35479
1.35499
1.35717
1.36204
1.37056
1.38397
1.40098
1.35866
1.35468
1.3518
1.35004
1.34974
1.35151
1.35627
1.36525
1.38043
1.40071
1.35802
1.35357
1.35022
1.34802
1.34728
1.34866
1.35318
1.36234
1.37884
1.40212
1.35555
1.35075
1.34703
1.34446
1.34337
1.34447
1.34885
1.35807
1.37523
1.40155
1.35254
1.34761
1.34367
1.34088
1.33955
1.34041
1.34455
1.35369
1.37086
1.40019
1.38783
1.38781
1.38805
1.38858
1.38939
1.39044
1.39172
1.3932
1.39497
1.397
1.38353
1.38328
1.38346
1.38415
1.38535
1.38703
1.38915
1.39158
1.39417
1.39659
1.37805
1.37739
1.37731
1.37788
1.3792
1.3813
1.3842
1.38783
1.39199
1.39607
1.37297
1.37172
1.37118
1.37146
1.37271
1.37508
1.37868
1.38354
1.38952
1.39574
1.36915
1.36721
1.36614
1.366
1.36702
1.36947
1.37358
1.37956
1.38745
1.39609
1.36665
1.36407
1.36244
1.36186
1.36256
1.36495
1.36941
1.37635
1.38616
1.39741
1.36365
1.36046
1.35834
1.35731
1.35768
1.35992
1.36459
1.37233
1.38396
1.39794
1.36294
1.35931
1.35675
1.35533
1.35538
1.35743
1.36217
1.37046
1.38365
1.40026
1.36049
1.35652
1.35363
1.3519
1.35167
1.35353
1.35831
1.36703
1.38131
1.40058
1.35751
1.3534
1.35031
1.34839
1.34796
1.34965
1.3543
1.36312
1.3778
1.39955
1.38828
1.38827
1.38841
1.38871
1.38916
1.38974
1.39043
1.39124
1.39233
1.39387
1.38555
1.3854
1.38553
1.38599
1.38676
1.38783
1.38912
1.39056
1.39203
1.39336
1.38122
1.38077
1.38077
1.38124
1.38222
1.38372
1.38567
1.38798
1.39049
1.39285
1.37678
1.37591
1.3756
1.37595
1.37702
1.37888
1.38153
1.38487
1.3887
1.3925
1.37334
1.37191
1.37121
1.37132
1.37236
1.37446
1.37771
1.38209
1.38743
1.39293
1.37098
1.36902
1.36789
1.36768
1.36859
1.37083
1.37459
1.37996
1.38689
1.39435
1.36806
1.36556
1.36402
1.36349
1.36422
1.36651
1.37066
1.37693
1.38548
1.39505
1.36737
1.36447
1.36256
1.36173
1.36225
1.36451
1.36893
1.37592
1.38595
1.39766
1.36497
1.36175
1.35956
1.35847
1.3588
1.36099
1.36559
1.37318
1.38441
1.39826
1.36209
1.35873
1.35635
1.35511
1.35529
1.35737
1.36196
1.36979
1.38159
1.39731
1.38811
1.38811
1.38818
1.38834
1.38857
1.38888
1.38925
1.3897
1.39043
1.39173
1.3866
1.38651
1.38659
1.38687
1.38734
1.38798
1.38874
1.38957
1.39041
1.39115
1.38338
1.38308
1.38309
1.38343
1.38412
1.38513
1.3864
1.38786
1.38939
1.39079
1.37965
1.37905
1.37887
1.37919
1.38003
1.38141
1.38327
1.38552
1.38799
1.39035
1.37671
1.37568
1.37523
1.37542
1.37633
1.37802
1.38047
1.38359
1.38717
1.39072
1.37461
1.37314
1.37237
1.37238
1.37328
1.37521
1.3782
1.38221
1.38704
1.39199
1.37186
1.36994
1.36885
1.36864
1.36948
1.37157
1.37504
1.3799
1.38605
1.39258
1.37128
1.36901
1.36762
1.36719
1.36793
1.37011
1.37394
1.37956
1.38697
1.39513
1.36896
1.3664
1.36478
1.36415
1.36478
1.36698
1.37107
1.37731
1.38583
1.39564
1.36622
1.36353
1.36175
1.36101
1.36154
1.3637
1.36786
1.3744
1.3835
1.39465
1.38767
1.38767
1.3877
1.38778
1.3879
1.38806
1.38825
1.38852
1.38904
1.39022
1.38703
1.38697
1.38702
1.38718
1.38746
1.38783
1.38826
1.38873
1.38921
1.38963
1.38478
1.38458
1.3846
1.38483
1.38528
1.38592
1.38673
1.38764
1.38857
1.38941
1.38174
1.38133
1.38123
1.38147
1.38209
1.38306
1.38433
1.38582
1.38741
1.38889
1.37934
1.37861
1.37832
1.37852
1.37925
1.38052
1.3823
1.38447
1.38688
1.38918
1.37756
1.37649
1.37597
1.37607
1.37687
1.37842
1.3807
1.38361
1.38695
1.39026
1.37506
1.37361
1.37285
1.37282
1.37364
1.37541
1.37816
1.38181
1.38618
1.39064
1.37466
1.37292
1.37192
1.37175
1.37255
1.37447
1.37761
1.38195
1.38732
1.39298
1.37242
1.37043
1.36925
1.36894
1.36969
1.3717
1.37513
1.38004
1.38632
1.39319
1.36989
1.36778
1.36647
1.36608
1.36678
1.3688
1.37234
1.37756
1.38435
1.39216
1.38716
1.38716
1.38718
1.38722
1.38728
1.38736
1.38746
1.38762
1.38803
1.38915
1.3871
1.38706
1.38708
1.38718
1.38733
1.38754
1.38778
1.38805
1.38832
1.38855
1.38565
1.38552
1.38553
1.38567
1.38595
1.38636
1.38686
1.38741
1.38798
1.38848
1.38321
1.38293
1.38287
1.38305
1.38347
1.38412
1.38497
1.38594
1.38695
1.38788
1.38134
1.38083
1.38064
1.38082
1.38137
1.38228
1.38353
1.38501
1.3866
1.38811
1.37991
1.37914
1.3788
1.37893
1.37958
1.38075
1.38242
1.38448
1.38676
1.38898
1.37767
1.37661
1.37609
1.37615
1.37686
1.37827
1.38036
1.38303
1.38609
1.38913
1.37749
1.37619
1.3755
1.37547
1.37622
1.37781
1.38026
1.38351
1.38734
1.39123
1.37535
1.37383
1.373
1.37289
1.37364
1.37535
1.37809
1.38182
1.38634
1.39109
1.37307
1.37145
1.37052
1.37036
1.37108
1.37283
1.37571
1.37971
1.38465
1.39005
1.3867
1.3867
1.38671
1.38673
1.38676
1.3868
1.38685
1.38695
1.38729
1.38837
1.38697
1.38695
1.38696
1.38701
1.38709
1.38721
1.38735
1.38749
1.38765
1.38778
1.38616
1.38607
1.38607
1.38616
1.38633
1.38658
1.38688
1.38722
1.38755
1.38785
1.38419
1.38401
1.38397
1.38409
1.38437
1.3848
1.38534
1.38596
1.3866
1.38719
1.38282
1.38247
1.38235
1.38248
1.38288
1.38351
1.38436
1.38534
1.38638
1.38736
1.38172
1.38118
1.38095
1.38108
1.38157
1.38243
1.38361
1.38503
1.38657
1.38804
1.37976
1.37899
1.37864
1.37874
1.37931
1.38038
1.38191
1.38381
1.38592
1.38797
1.37982
1.37887
1.3784
1.37845
1.37909
1.38034
1.38219
1.38454
1.38722
1.38987
1.37778
1.37665
1.37607
1.37607
1.37674
1.37812
1.38022
1.38296
1.38616
1.3894
1.37579
1.37457
1.37392
1.37389
1.37456
1.376
1.37823
1.3812
1.3847
1.3884
1.38633
1.38633
1.38634
1.38635
1.38636
1.38638
1.38641
1.38647
1.38676
1.38781
1.38675
1.38674
1.38674
1.38677
1.38682
1.38688
1.38696
1.38704
1.38713
1.3872
1.38644
1.38639
1.38638
1.38643
1.38654
1.38668
1.38686
1.38706
1.38726
1.38744
1.38482
1.38471
1.38468
1.38476
1.38494
1.38521
1.38555
1.38594
1.38634
1.3867
1.38388
1.38364
1.38357
1.38367
1.38393
1.38436
1.38492
1.38557
1.38624
1.38686
1.38307
1.3827
1.38256
1.38266
1.38302
1.38363
1.38444
1.3854
1.38642
1.38738
1.38137
1.38083
1.3806
1.3807
1.38114
1.38192
1.38301
1.38432
1.38574
1.38711
1.38169
1.38102
1.3807
1.38078
1.38129
1.38223
1.38358
1.38523
1.38707
1.38885
1.37973
1.3789
1.37852
1.37857
1.37912
1.38018
1.38174
1.3837
1.38591
1.38809
1.37806
1.37718
1.37673
1.37677
1.37733
1.37846
1.38012
1.38226
1.3847
1.38719
1.38607
1.38608
1.38608
1.38608
1.38609
1.38609
1.38611
1.38616
1.3864
1.38742
1.3865
1.3865
1.3865
1.38652
1.38654
1.38658
1.38662
1.38667
1.38672
1.38676
1.3866
1.38656
1.38655
1.38658
1.38664
1.38673
1.38683
1.38695
1.38707
1.38717
1.38521
1.38513
1.38512
1.38516
1.38528
1.38545
1.38566
1.3859
1.38614
1.38637
1.38463
1.38447
1.38442
1.38449
1.38467
1.38495
1.38531
1.38572
1.38615
1.38654
1.38406
1.38381
1.38372
1.3838
1.38405
1.38446
1.38501
1.38564
1.38631
1.38693
1.38259
1.38222
1.38207
1.38215
1.38247
1.38302
1.38377
1.38466
1.3856
1.38651
1.38317
1.38271
1.3825
1.38258
1.38296
1.38365
1.38459
1.38573
1.38696
1.38813
1.38125
1.38066
1.38041
1.38048
1.38091
1.38169
1.3828
1.38417
1.38567
1.38712
1.37994
1.37932
1.37902
1.37908
1.37953
1.38037
1.38157
1.38307
1.38472
1.38638
1.38592
1.38593
1.38593
1.38593
1.38593
1.38593
1.38594
1.38597
1.38618
1.38715
1.38625
1.38625
1.38626
1.38626
1.38628
1.3863
1.38632
1.38635
1.38638
1.3864
1.38668
1.38666
1.38666
1.38667
1.38671
1.38676
1.38682
1.38688
1.38695
1.38701
1.38542
1.38538
1.38536
1.38539
1.38546
1.38556
1.38569
1.38584
1.38599
1.38612
1.38514
1.38504
1.38501
1.38506
1.38517
1.38535
1.38558
1.38584
1.38611
1.38635
1.38476
1.3846
1.38454
1.3846
1.38477
1.38504
1.3854
1.38581
1.38623
1.38662
1.38349
1.38324
1.38315
1.38321
1.38343
1.38381
1.38431
1.3849
1.38551
1.3861
1.38432
1.38401
1.38387
1.38394
1.38422
1.3847
1.38534
1.3861
1.38692
1.38767
1.3824
1.38199
1.38183
1.38189
1.38221
1.38277
1.38354
1.38446
1.38546
1.38641
1.3815
1.38106
1.38087
1.38094
1.38127
1.38187
1.38271
1.38373
1.38482
1.38591
1.38589
1.3859
1.3859
1.3859
1.3859
1.3859
1.3859
1.38592
1.38609
1.38701
1.38601
1.38601
1.38602
1.38602
1.38603
1.38604
1.38605
1.38607
1.38609
1.3861
1.38675
1.38673
1.38673
1.38674
1.38676
1.38679
1.38682
1.38686
1.3869
1.38693
1.38553
1.3855
1.38549
1.38551
1.38555
1.38561
1.38568
1.38577
1.38586
1.38594
1.38549
1.38543
1.38541
1.38544
1.38551
1.38562
1.38576
1.38592
1.38609
1.38623
1.38524
1.38513
1.3851
1.38514
1.38525
1.38542
1.38565
1.38591
1.38618
1.38642
1.38414
1.38398
1.38392
1.38397
1.38412
1.38436
1.38469
1.38506
1.38545
1.38583
1.3852
1.38499
1.38491
1.38497
1.38516
1.38548
1.38591
1.3864
1.38693
1.3874
1.38322
1.38295
1.38284
1.3829
1.38312
1.3835
1.38402
1.38463
1.38528
1.38589
1.38279
1.38249
1.38237
1.38243
1.38267
1.38309
1.38365
1.38432
1.38503
1.38573
1.38601
1.38601
1.38601
1.38601
1.38601
1.386
1.386
1.38601
1.38615
1.38698
1.38576
1.38576
1.38577
1.38577
1.38578
1.38579
1.38579
1.3858
1.38582
1.38582
1.38682
1.38681
1.38681
1.38681
1.38682
1.38684
1.38686
1.38689
1.38691
1.38692
1.38556
1.38554
1.38553
1.38554
1.38557
1.3856
1.38564
1.38569
1.38575
1.38579
1.3857
1.38566
1.38565
1.38567
1.38571
1.38578
1.38587
1.38597
1.38607
1.38616
1.38553
1.38547
1.38544
1.38547
1.38554
1.38565
1.38579
1.38595
1.38612
1.38627
1.3846
1.3845
1.38446
1.38449
1.38459
1.38475
1.38495
1.38519
1.38543
1.38566
1.38585
1.38573
1.38568
1.38572
1.38585
1.38606
1.38633
1.38665
1.38698
1.38726
1.38377
1.38359
1.38352
1.38356
1.38371
1.38397
1.3843
1.3847
1.38511
1.3855
1.38392
1.38373
1.38365
1.3837
1.38386
1.38414
1.38451
1.38494
1.38539
1.38582
1.38638
1.38638
1.38638
1.38637
1.38637
1.38636
1.38636
1.38636
1.38646
1.38718
1.38548
1.38549
1.38549
1.3855
1.3855
1.3855
1.38551
1.38551
1.38552
1.38552
1.38688
1.38687
1.38687
1.38688
1.38689
1.3869
1.38691
1.38693
1.38694
1.38695
1.38555
1.38554
1.38553
1.38554
1.38555
1.38557
1.38559
1.38562
1.38565
1.38567
1.3858
1.38578
1.38577
1.38578
1.38581
1.38585
1.38591
1.38597
1.38603
1.38608
1.38567
1.38563
1.38561
1.38563
1.38567
1.38574
1.38583
1.38593
1.38603
1.38612
1.38491
1.38484
1.38482
1.38484
1.3849
1.385
1.38512
1.38527
1.38541
1.38555
1.38628
1.3862
1.38617
1.3862
1.38628
1.38642
1.3866
1.3868
1.38701
1.38717
1.38404
1.38393
1.38389
1.38392
1.38401
1.38418
1.38439
1.38464
1.38489
1.38515
1.38504
1.38492
1.38488
1.38491
1.38502
1.3852
1.38544
1.38571
1.38598
1.38625
1.38723
1.38723
1.38723
1.38722
1.38722
1.38722
1.38721
1.3872
1.38726
1.38784
1.38509
1.38509
1.3851
1.3851
1.3851
1.38509
1.38509
1.38509
1.3851
1.3851
1.38687
1.38687
1.38687
1.38687
1.38688
1.38689
1.3869
1.38692
1.38693
1.38694
1.38553
1.38552
1.38552
1.38552
1.38552
1.38553
1.38554
1.38555
1.38556
1.38558
1.38581
1.38579
1.38579
1.3858
1.38581
1.38584
1.38587
1.38591
1.38595
1.38598
1.38567
1.38565
1.38564
1.38565
1.38568
1.38572
1.38577
1.38584
1.3859
1.38596
1.38508
1.38504
1.38503
1.38504
1.38508
1.38514
1.38521
1.3853
1.38538
1.38547
1.38638
1.38632
1.38631
1.38633
1.38638
1.38647
1.38659
1.38672
1.38687
1.38696
1.38398
1.38391
1.38389
1.38391
1.38397
1.38407
1.38421
1.38436
1.38451
1.38469
1.38642
1.38634
1.38632
1.38634
1.38641
1.38653
1.38668
1.38686
1.38703
1.38719
1.38877
1.38877
1.38877
1.38878
1.38879
1.3888
1.38881
1.38883
1.38887
1.38927
1.38443
1.38442
1.38442
1.38442
1.38441
1.3844
1.38439
1.38438
1.38438
1.38435
1.38665
1.38666
1.38666
1.38666
1.38667
1.38669
1.3867
1.38672
1.38674
1.38676
1.38553
1.38552
1.38552
1.38552
1.38552
1.38552
1.38553
1.38553
1.38554
1.38554
1.38575
1.38574
1.38574
1.38575
1.38576
1.38578
1.3858
1.38583
1.38585
1.38588
1.38561
1.38559
1.38558
1.38559
1.38561
1.38564
1.38568
1.38572
1.38577
1.38581
1.38516
1.38513
1.38512
1.38513
1.38516
1.3852
1.38525
1.38531
1.38536
1.38541
1.38601
1.38597
1.38596
1.38597
1.38601
1.38607
1.38616
1.38626
1.38638
1.38647
1.38347
1.38343
1.38341
1.38343
1.38347
1.38354
1.38363
1.38373
1.38382
1.38393
1.38827
1.3882
1.38818
1.3882
1.38825
1.38833
1.38844
1.38857
1.3887
1.38884
1.39044
1.39045
1.39046
1.39048
1.3905
1.39054
1.39059
1.39065
1.39072
1.39095
1.38363
1.38363
1.38362
1.38361
1.3836
1.38358
1.38356
1.38352
1.38348
1.38339
1.3863
1.3863
1.3863
1.38631
1.38632
1.38633
1.38634
1.38636
1.38639
1.38642
1.38559
1.38559
1.38558
1.38558
1.38558
1.38559
1.38559
1.3856
1.3856
1.38559
1.38571
1.38571
1.3857
1.38571
1.38572
1.38573
1.38575
1.38578
1.3858
1.38582
1.38557
1.38555
1.38554
1.38555
1.38557
1.38559
1.38562
1.38566
1.3857
1.38574
1.38522
1.38519
1.38518
1.38519
1.38521
1.38525
1.3853
1.38535
1.3854
1.38544
1.38542
1.38538
1.38537
1.38538
1.38542
1.38547
1.38555
1.38564
1.38574
1.38586
1.38275
1.38271
1.3827
1.38271
1.38275
1.38281
1.38289
1.38297
1.38303
1.38306
1.39009
1.39002
1.38999
1.39
1.39005
1.39012
1.39022
1.39034
1.39047
1.39063
1.53324
1.55022
1.54506
1.53361
1.54821
1.56811
1.56089
1.54974
1.55653
1.57738
1.57346
1.56098
1.56013
1.5818
1.58454
1.5701
1.56371
1.58633
1.59505
1.57937
1.573
1.59834
1.61467
1.6053
1.58277
1.61022
1.63211
1.62944
1.59239
1.62101
1.64651
1.64862
1.59013
1.61869
1.64624
1.65201
1.57457
1.60154
1.63024
1.64004
1.44138
1.45261
1.45587
1.45037
1.45025
1.46346
1.46833
1.46409
1.45434
1.46938
1.47529
1.47313
1.45787
1.47444
1.48179
1.48199
1.46255
1.48021
1.4896
1.49159
1.46738
1.48532
1.49566
1.49809
1.47096
1.48888
1.49985
1.50271
1.476
1.49369
1.50506
1.50991
1.47578
1.49278
1.50465
1.51158
1.47207
1.4881
1.50087
1.50945
1.42603
1.43097
1.43211
1.43042
1.43306
1.43886
1.44083
1.4402
1.43626
1.4434
1.44645
1.44637
1.4389
1.44744
1.45184
1.4525
1.44259
1.45239
1.4581
1.45954
1.44806
1.45898
1.46585
1.46843
1.45303
1.46487
1.47274
1.47638
1.45931
1.47172
1.48022
1.48483
1.46154
1.47397
1.48277
1.48816
1.46176
1.47375
1.4821
1.48732
1.40924
1.41184
1.41268
1.41184
1.41447
1.41731
1.41874
1.4188
1.41673
1.42039
1.42251
1.42309
1.41874
1.42326
1.4262
1.42752
1.42169
1.42704
1.43074
1.43285
1.42598
1.43205
1.43645
1.43937
1.42969
1.4364
1.44141
1.44518
1.43511
1.44232
1.44786
1.45252
1.43694
1.44439
1.45032
1.45568
1.43602
1.44371
1.44975
1.45507
1.40043
1.40198
1.40245
1.40188
1.40432
1.40581
1.40667
1.40691
1.40561
1.40766
1.40897
1.40956
1.40705
1.40968
1.41151
1.41262
1.40946
1.41265
1.415
1.41665
1.41326
1.41701
1.41986
1.42208
1.4166
1.42088
1.42419
1.42699
1.42182
1.42654
1.43026
1.43367
1.42403
1.429
1.43299
1.43683
1.42387
1.42904
1.43311
1.4367
1.39469
1.39575
1.39603
1.39552
1.39799
1.39878
1.3993
1.39955
1.39851
1.39968
1.40051
1.40101
1.3994
1.40097
1.40216
1.40303
1.40129
1.40326
1.40482
1.40609
1.40444
1.40681
1.40874
1.41042
1.40714
1.40988
1.41215
1.41426
1.41179
1.41488
1.41745
1.42
1.4139
1.41721
1.42
1.4228
1.41382
1.41735
1.42024
1.42279
1.39109
1.39192
1.39208
1.39156
1.3941
1.39455
1.39486
1.39504
1.39425
1.39495
1.39547
1.39583
1.39465
1.39562
1.3964
1.39702
1.39608
1.39733
1.39838
1.39927
1.39865
1.4002
1.40151
1.4027
1.40075
1.40258
1.40414
1.40563
1.40485
1.40692
1.40871
1.4105
1.40664
1.40889
1.41084
1.41277
1.40646
1.40886
1.41089
1.41263
1.38873
1.38945
1.38954
1.38899
1.39154
1.3918
1.39198
1.39211
1.39161
1.39203
1.39236
1.3926
1.39165
1.39226
1.39276
1.39318
1.39268
1.39349
1.39418
1.39479
1.39471
1.39573
1.39661
1.39743
1.39622
1.39743
1.3985
1.39954
1.39972
1.40112
1.40236
1.4036
1.40106
1.40259
1.40395
1.40528
1.40068
1.40232
1.40373
1.40493
1.38715
1.38783
1.38788
1.3873
1.38982
1.38996
1.39007
1.39016
1.38992
1.39018
1.39038
1.39054
1.38971
1.39009
1.39042
1.3907
1.39045
1.39097
1.39143
1.39185
1.39202
1.39269
1.39329
1.39385
1.39301
1.39383
1.39456
1.39527
1.39598
1.39693
1.39779
1.39863
1.39678
1.39783
1.39877
1.39968
1.39621
1.39733
1.39831
1.39914
1.38608
1.38675
1.38678
1.38617
1.38864
1.38871
1.38878
1.38884
1.38879
1.38895
1.38908
1.38918
1.3884
1.38864
1.38885
1.38904
1.38893
1.38927
1.38958
1.38985
1.39014
1.39059
1.39099
1.39137
1.3907
1.39125
1.39175
1.39224
1.39323
1.39387
1.39446
1.39504
1.3935
1.39422
1.39487
1.39549
1.39281
1.39357
1.39425
1.39482
1.38536
1.38603
1.38605
1.38541
1.3878
1.38783
1.38787
1.38792
1.38805
1.38814
1.38822
1.38829
1.3875
1.38766
1.3878
1.38792
1.38789
1.38812
1.38832
1.3885
1.38881
1.3891
1.38938
1.38963
1.38902
1.38939
1.38973
1.39006
1.3912
1.39164
1.39204
1.39243
1.39102
1.39151
1.39196
1.39238
1.39029
1.3908
1.39127
1.39166
1.3849
1.38557
1.38558
1.38493
1.38718
1.3872
1.38722
1.38725
1.38756
1.38762
1.38767
1.38771
1.3869
1.38699
1.38708
1.38716
1.38721
1.38735
1.38748
1.3876
1.38788
1.38807
1.38825
1.38842
1.38781
1.38806
1.38828
1.3885
1.38973
1.39002
1.3903
1.39056
1.38919
1.38951
1.38982
1.3901
1.38848
1.38883
1.38915
1.38941
1.38464
1.38532
1.38532
1.38465
1.38672
1.38672
1.38673
1.38676
1.38725
1.38729
1.38731
1.38734
1.38648
1.38654
1.38659
1.38665
1.38676
1.38686
1.38694
1.38702
1.38725
1.38738
1.38749
1.3876
1.38696
1.38712
1.38727
1.38742
1.38871
1.38891
1.38909
1.38926
1.38785
1.38807
1.38827
1.38846
1.38726
1.38749
1.3877
1.38788
1.38454
1.38522
1.38523
1.38455
1.38635
1.38634
1.38635
1.38637
1.38706
1.38709
1.3871
1.38712
1.38619
1.38622
1.38626
1.38629
1.38649
1.38655
1.3866
1.38665
1.38683
1.38691
1.38699
1.38706
1.38638
1.38649
1.38658
1.38668
1.38804
1.38817
1.38829
1.3884
1.3869
1.38704
1.38717
1.3873
1.38651
1.38666
1.3868
1.38692
1.3846
1.38527
1.38527
1.3846
1.38604
1.38603
1.38604
1.38605
1.38697
1.38699
1.387
1.387
1.38597
1.38599
1.38601
1.38603
1.38632
1.38636
1.38639
1.38642
1.38655
1.3866
1.38665
1.38669
1.386
1.38607
1.38613
1.38619
1.38764
1.38772
1.3878
1.38787
1.38621
1.3863
1.38639
1.38647
1.38613
1.38623
1.38632
1.3864
1.38483
1.38547
1.38547
1.38483
1.38575
1.38574
1.38574
1.38576
1.38696
1.38697
1.38697
1.38697
1.3858
1.38581
1.38583
1.38584
1.38621
1.38623
1.38625
1.38627
1.38635
1.38638
1.38641
1.38644
1.38576
1.3858
1.38584
1.38588
1.38742
1.38747
1.38752
1.38756
1.38571
1.38576
1.38582
1.38587
1.38609
1.38615
1.38621
1.38626
1.38533
1.38592
1.38592
1.38533
1.38544
1.38543
1.38543
1.38545
1.38698
1.38699
1.38699
1.38699
1.38567
1.38567
1.38568
1.38569
1.38611
1.38613
1.38614
1.38615
1.38617
1.38619
1.38621
1.38623
1.3856
1.38562
1.38564
1.38567
1.38728
1.38731
1.38734
1.38737
1.38528
1.38531
1.38534
1.38538
1.38642
1.38646
1.38649
1.38652
1.38638
1.38687
1.38687
1.38638
1.38501
1.38499
1.38499
1.38501
1.38698
1.38699
1.38699
1.38698
1.38556
1.38556
1.38557
1.38558
1.38601
1.38602
1.38602
1.38603
1.386
1.38601
1.38602
1.38603
1.38548
1.38549
1.3855
1.38552
1.38706
1.38708
1.3871
1.38712
1.38476
1.38478
1.3848
1.38483
1.38729
1.38732
1.38734
1.38736
1.38833
1.38868
1.38868
1.38833
1.38425
1.38423
1.38423
1.38426
1.38681
1.38682
1.38682
1.38681
1.38552
1.38551
1.38552
1.38553
1.3859
1.3859
1.38591
1.38591
1.38583
1.38584
1.38585
1.38586
1.3854
1.3854
1.38541
1.38543
1.38659
1.38662
1.38663
1.38663
1.38393
1.38394
1.38396
1.38398
1.3889
1.38892
1.38893
1.38895
1.3908
1.39093
1.39093
1.3908
1.38324
1.38318
1.38318
1.38324
1.38646
1.38648
1.38648
1.38647
1.38557
1.38556
1.38557
1.38558
1.38584
1.38584
1.38585
1.38585
1.38576
1.38577
1.38577
1.38578
1.38542
1.38542
1.38543
1.38545
1.38602
1.38605
1.38606
1.38605
1.38286
1.38282
1.38284
1.3829
1.39072
1.39074
1.39075
1.39076
1.45368
1.42628
1.40657
1.38961
1.37771
1.36928
1.36293
1.35789
1.35391
1.35075
1.4673
1.43189
1.40697
1.38973
1.37755
1.36851
1.36136
1.35552
1.35065
1.34631
1.47415
1.43557
1.40748
1.39051
1.37784
1.36814
1.3602
1.35355
1.34786
1.34282
1.48187
1.44113
1.41089
1.39369
1.37999
1.36939
1.36052
1.35295
1.34629
1.34058
1.49131
1.44719
1.41564
1.39705
1.38226
1.37069
1.36097
1.35261
1.34514
1.33908
1.50159
1.45461
1.4216
1.4013
1.38551
1.37299
1.36252
1.35351
1.34541
1.33888
1.51127
1.45945
1.42569
1.40338
1.38678
1.37334
1.36222
1.35265
1.34404
1.3373
1.52296
1.46429
1.43117
1.40669
1.38964
1.37542
1.36387
1.35384
1.34493
1.33776
1.52913
1.46334
1.43184
1.40566
1.38862
1.37385
1.36199
1.35161
1.34259
1.33504
1.53438
1.46236
1.43266
1.40481
1.38741
1.37192
1.35956
1.34872
1.33949
1.33169
1.44063
1.42406
1.41114
1.40065
1.39187
1.38453
1.37844
1.37346
1.3695
1.36644
1.44973
1.42964
1.41373
1.40071
1.3901
1.3815
1.37445
1.36862
1.36385
1.35974
1.4567
1.43426
1.41518
1.40078
1.38907
1.37962
1.37181
1.36526
1.35973
1.35486
1.46347
1.43974
1.4186
1.40308
1.3904
1.38011
1.37144
1.36399
1.35749
1.3518
1.46982
1.44641
1.42316
1.40639
1.3927
1.3815
1.37196
1.36368
1.35627
1.35004
1.47862
1.45437
1.42933
1.4111
1.39637
1.38421
1.37386
1.36484
1.35668
1.34982
1.48776
1.46058
1.43422
1.4142
1.39848
1.38536
1.37423
1.36454
1.3557
1.34846
1.49974
1.46719
1.44061
1.41865
1.40221
1.38823
1.3765
1.36622
1.35694
1.34914
1.50778
1.46846
1.44256
1.41913
1.40235
1.38768
1.37545
1.36468
1.35511
1.34687
1.51497
1.46826
1.44338
1.41856
1.40124
1.38593
1.37325
1.36209
1.35237
1.34392
1.42863
1.42013
1.41146
1.40365
1.39686
1.39109
1.38627
1.38234
1.37928
1.37703
1.43503
1.42393
1.41264
1.40267
1.39424
1.38722
1.38139
1.37655
1.37265
1.36941
1.44056
1.4273
1.41347
1.40184
1.39216
1.38415
1.37745
1.37184
1.36718
1.36317
1.44619
1.4316
1.41595
1.40317
1.39246
1.38351
1.37589
1.36935
1.36374
1.35888
1.45249
1.43708
1.41979
1.40579
1.39401
1.38409
1.37557
1.36817
1.36165
1.35616
1.46084
1.44416
1.4254
1.40996
1.39706
1.38615
1.37677
1.36859
1.3613
1.35513
1.46907
1.45014
1.43005
1.41284
1.39883
1.38691
1.37671
1.36784
1.35984
1.35321
1.48022
1.4571
1.43638
1.41726
1.40241
1.3896
1.37875
1.36926
1.36076
1.35356
1.48782
1.45956
1.43906
1.41851
1.40316
1.38959
1.37814
1.3681
1.35921
1.35156
1.49382
1.46012
1.44003
1.41813
1.40217
1.38796
1.37609
1.36568
1.35662
1.34876
1.41345
1.40937
1.40494
1.40063
1.39659
1.39291
1.38969
1.387
1.38487
1.38333
1.41722
1.41238
1.40648
1.40055
1.39499
1.39
1.38564
1.38193
1.37893
1.37646
1.42151
1.41545
1.40771
1.40013
1.39317
1.38702
1.38169
1.37713
1.37335
1.37011
1.42639
1.41944
1.41028
1.40138
1.39325
1.38603
1.3797
1.37418
1.36945
1.36535
1.43228
1.42452
1.41405
1.40386
1.39456
1.38631
1.37902
1.37261
1.36696
1.36218
1.44015
1.43114
1.41944
1.40781
1.39734
1.38806
1.37987
1.37263
1.36619
1.36068
1.44793
1.43688
1.42396
1.41064
1.39901
1.38868
1.37963
1.37165
1.36446
1.35845
1.45817
1.44395
1.43019
1.41509
1.4025
1.39124
1.38147
1.37284
1.36513
1.35853
1.46512
1.4472
1.43316
1.41661
1.4033
1.39121
1.38079
1.3716
1.36347
1.35646
1.47004
1.44817
1.43388
1.41602
1.4021
1.38944
1.37865
1.36915
1.36085
1.35365
1.40458
1.40214
1.39972
1.39734
1.395
1.39279
1.39079
1.38908
1.38771
1.38672
1.40649
1.40431
1.40122
1.39776
1.39426
1.39092
1.38788
1.38523
1.38307
1.38129
1.40932
1.4065
1.40225
1.39751
1.39279
1.38837
1.38438
1.38089
1.37796
1.37546
1.41309
1.40977
1.40456
1.39866
1.39282
1.38733
1.38233
1.37787
1.37404
1.3707
1.41801
1.41422
1.40806
1.401
1.39403
1.38749
1.38151
1.37614
1.3714
1.36738
1.42469
1.42015
1.41306
1.40472
1.39661
1.38904
1.38214
1.37592
1.37038
1.36562
1.43119
1.42537
1.41728
1.40746
1.39819
1.38957
1.38177
1.37479
1.36849
1.3632
1.44006
1.43214
1.42326
1.41187
1.4016
1.39203
1.38348
1.37583
1.36898
1.36309
1.44605
1.43569
1.42631
1.41353
1.4024
1.39196
1.38274
1.37454
1.36726
1.36099
1.44976
1.43665
1.42679
1.41285
1.40113
1.39017
1.3806
1.37211
1.36465
1.3582
1.39864
1.39695
1.39557
1.3943
1.39302
1.39178
1.39062
1.3896
1.38878
1.38816
1.39955
1.39858
1.39699
1.39504
1.39293
1.39081
1.38881
1.38703
1.38556
1.38434
1.40122
1.39996
1.39771
1.39489
1.39185
1.38883
1.38599
1.38344
1.38126
1.3794
1.40386
1.40243
1.39956
1.39584
1.39184
1.38785
1.38407
1.38061
1.37762
1.37499
1.40771
1.40612
1.40262
1.39795
1.39295
1.38798
1.38325
1.37892
1.37506
1.37178
1.41313
1.41123
1.40706
1.40136
1.39533
1.38937
1.38375
1.37858
1.37395
1.36994
1.41829
1.41573
1.41081
1.40389
1.39679
1.38983
1.38332
1.37738
1.372
1.36746
1.42571
1.42196
1.41636
1.40816
1.40008
1.3922
1.38493
1.37832
1.37238
1.36726
1.43052
1.42532
1.41921
1.40976
1.40079
1.39206
1.38414
1.377
1.37063
1.36516
1.43293
1.426
1.41943
1.40902
1.3995
1.39031
1.38205
1.37463
1.36808
1.36242
1.39482
1.39345
1.3926
1.39191
1.39123
1.39055
1.3899
1.38933
1.38885
1.38849
1.39514
1.3947
1.39386
1.39277
1.39153
1.39023
1.38898
1.38784
1.3869
1.38609
1.39608
1.39555
1.39436
1.39271
1.3908
1.3888
1.38685
1.38505
1.3835
1.38217
1.39774
1.39721
1.39566
1.39337
1.3907
1.38789
1.38513
1.38256
1.38029
1.3783
1.4006
1.4001
1.39815
1.39516
1.39167
1.38801
1.3844
1.38101
1.37798
1.37539
1.40485
1.40431
1.40193
1.39816
1.3938
1.38926
1.38482
1.38065
1.37689
1.37362
1.40875
1.40798
1.40507
1.40036
1.39507
1.38962
1.38435
1.37944
1.37497
1.37118
1.41481
1.41349
1.41007
1.40436
1.39819
1.39189
1.38589
1.38033
1.37532
1.37098
1.41844
1.41638
1.41247
1.40572
1.39872
1.39166
1.38504
1.379
1.37356
1.36889
1.41975
1.41671
1.41244
1.40495
1.39747
1.38998
1.38305
1.37673
1.3711
1.36625
1.39228
1.39106
1.39047
1.39009
1.38974
1.38938
1.38903
1.38871
1.38844
1.38823
1.39223
1.39202
1.39158
1.39098
1.39027
1.38951
1.38875
1.38806
1.38747
1.38695
1.39281
1.3926
1.39197
1.391
1.38981
1.38852
1.38723
1.38601
1.38495
1.38403
1.39373
1.39359
1.39275
1.39136
1.38961
1.38769
1.38574
1.38388
1.38223
1.38076
1.39578
1.39576
1.39469
1.3928
1.39042
1.38778
1.38511
1.38255
1.38024
1.37826
1.39901
1.39911
1.39778
1.39533
1.39226
1.38889
1.38548
1.38222
1.37926
1.37668
1.40181
1.40191
1.40025
1.39712
1.39328
1.38913
1.38497
1.38104
1.37742
1.37436
1.4067
1.40664
1.40463
1.40075
1.39616
1.39127
1.38645
1.38192
1.3778
1.37422
1.40926
1.40887
1.40645
1.40177
1.39648
1.39093
1.38556
1.38058
1.37605
1.37217
1.40974
1.40888
1.4062
1.40098
1.39527
1.38934
1.38368
1.37844
1.37373
1.36967
1.39054
1.3894
1.38896
1.38874
1.38855
1.38837
1.38818
1.38801
1.38786
1.38774
1.39027
1.39018
1.38995
1.38962
1.38923
1.38879
1.38835
1.38794
1.38759
1.38726
1.39069
1.39061
1.39026
1.3897
1.38897
1.38816
1.38733
1.38654
1.38583
1.38522
1.39109
1.39109
1.39063
1.38978
1.38866
1.38737
1.38603
1.38474
1.38358
1.38254
1.39253
1.39267
1.39209
1.3909
1.38929
1.38745
1.38552
1.38365
1.38194
1.38048
1.39496
1.39527
1.39454
1.39296
1.39083
1.38839
1.38585
1.38338
1.38113
1.37914
1.39686
1.39729
1.39637
1.3943
1.39157
1.38848
1.3853
1.38224
1.37941
1.377
1.4008
1.40126
1.40011
1.39752
1.39419
1.39049
1.38674
1.38314
1.37986
1.37698
1.40239
1.40276
1.40132
1.39815
1.39426
1.39002
1.38579
1.3818
1.37813
1.37499
1.40232
1.40251