/*--------------------------------*- C++ -*----------------------------------*\
| =========                 |                                                 |
| \\      /  F ield         | foam-extend: Open Source CFD                    |
|  \\    /   O peration     | Version:     4.0                                |
|   \\  /    A nd           | Web:         http://www.foam-extend.org         |
|    \\/     M anipulation  |                                                 |
\*---------------------------------------------------------------------------*/
FoamFile
{
    version     2.0;
    format      ascii;
    class       volScalarField;
    location    "1400";
    object      T;
}
// * * * * * * * * * * * * * * * * * * * * * * * * * * * * * * * * * * * * * //

dimensions      [0 0 0 1 0 0 0];

internalField   nonuniform List<scalar> 
34480
(
278.21
277.764
277.319
276.853
276.342
275.789
275.322
275.337
276.429
280.306
277.503
276.983
276.478
275.976
275.429
274.786
274.081
273.58
273.757
276.66
277.366
276.784
276.211
275.63
274.998
274.234
273.306
272.404
271.869
273.825
277.441
276.743
276.043
275.323
274.552
273.644
272.52
271.279
270.11
271.171
277.547
276.742
275.923
275.074
274.164
273.111
271.806
270.256
268.503
268.747
277.721
276.827
275.912
274.957
273.929
272.748
271.284
269.457
267.164
266.625
277.856
276.897
275.915
274.887
273.774
272.497
270.907
268.828
266.003
264.657
278.014
277.017
275.999
274.932
273.776
272.452
270.793
268.52
265.184
262.968
278.119
277.105
276.065
274.965
273.76
272.382
270.661
268.23
264.363
261.245
278.973
277.962
276.916
275.805
274.596
273.226
271.524
269.055
264.684
260.454
279.679
279.498
279.401
279.408
279.548
279.874
280.466
281.429
283.024
286.203
278.505
278.231
278.032
277.937
277.967
278.167
278.634
279.511
281.016
284.36
278.01
277.665
277.385
277.187
277.095
277.142
277.42
278.113
279.456
282.912
277.779
277.333
276.941
276.616
276.387
276.287
276.401
276.921
278.085
281.558
277.623
277.089
276.6
276.164
275.812
275.58
275.547
275.9
276.88
280.319
277.569
276.962
276.396
275.875
275.423
275.08
274.921
275.12
275.931
279.347
277.515
276.857
276.241
275.662
275.141
274.715
274.449
274.497
275.123
278.47
277.533
276.846
276.202
275.591
275.029
274.549
274.204
274.116
274.529
277.705
277.557
276.859
276.2
275.564
274.961
274.421
273.997
273.781
273.936
276.806
278.325
277.625
276.955
276.307
275.695
275.145
274.694
274.405
274.254
276.531
280.829
280.733
280.732
280.837
281.073
281.469
282.066
282.908
284.067
285.683
279.515
279.332
279.238
279.257
279.421
279.776
280.39
281.35
282.773
284.835
278.896
278.636
278.458
278.384
278.444
278.692
279.219
280.159
281.696
284.171
278.559
278.203
277.92
277.73
277.669
277.796
278.218
279.11
280.718
283.548
278.324
277.882
277.504
277.208
277.034
277.042
277.353
278.173
279.804
282.92
278.206
277.69
277.234
276.851
276.58
276.484
276.688
277.424
279.048
282.385
278.102
277.533
277.022
276.576
276.231
276.048
276.154
276.789
278.363
281.844
278.077
277.475
276.928
276.442
276.044
275.795
275.814
276.339
277.817
281.359
278.062
277.448
276.885
276.373
275.931
275.616
275.542
275.943
277.28
280.832
278.767
278.151
277.578
277.054
276.603
276.273
276.153
276.448
277.586
281.029
281.62
281.575
281.61
281.735
281.957
282.288
282.733
283.282
283.919
284.672
280.314
280.2
280.174
280.25
280.452
280.805
281.339
282.08
283.041
284.192
279.643
279.459
279.36
279.368
279.509
279.821
280.358
281.18
282.345
283.868
279.24
278.969
278.779
278.694
278.748
278.991
279.499
280.37
281.713
283.608
278.946
278.593
278.319
278.142
278.105
278.267
278.723
279.611
281.094
283.327
278.774
278.351
278.001
277.744
277.624
277.707
278.103
278.986
280.579
283.116
278.628
278.15
277.744
277.425
277.237
277.247
277.579
278.432
280.091
282.876
278.566
278.053
277.608
277.245
277.003
276.95
277.215
278.014
279.69
282.658
278.529
278.001
277.539
277.149
276.866
276.752
276.936
277.649
279.285
282.406
279.19
278.658
278.183
277.779
277.48
277.347
277.489
278.121
279.64
282.831
282.094
282.071
282.108
282.207
282.369
282.595
282.877
283.194
283.498
283.777
280.898
280.829
280.833
280.917
281.094
281.374
281.766
282.266
282.853
283.466
280.252
280.123
280.073
280.117
280.272
280.56
281.005
281.623
282.409
283.293
279.829
279.627
279.505
279.483
279.588
279.853
280.323
281.039
282.024
283.21
279.504
279.229
279.035
278.942
278.984
279.208
279.676
280.462
281.628
283.117
279.3
278.958
278.697
278.535
278.515
278.69
279.143
279.979
281.307
283.09
279.124
278.729
278.414
278.197
278.12
278.245
278.669
279.529
280.987
283.035
279.036
278.603
278.25
277.989
277.865
277.94
278.325
279.18
280.726
283.001
278.98
278.531
278.158
277.872
277.712
277.739
278.068
278.881
280.461
282.937
279.6
279.146
278.758
278.457
278.279
278.288
278.586
279.356
280.895
283.505
282.341
282.328
282.355
282.422
282.526
282.666
282.832
283.001
283.126
283.168
281.3
281.258
281.271
281.343
281.477
281.676
281.938
282.252
282.597
282.928
280.724
280.636
280.614
280.667
280.804
281.036
281.367
281.795
282.298
282.813
280.319
280.171
280.096
280.109
280.225
280.466
280.85
281.387
282.063
282.799
279.99
279.78
279.647
279.609
279.69
279.921
280.336
280.966
281.815
282.788
279.771
279.501
279.311
279.22
279.26
279.47
279.903
280.612
281.63
282.851
279.578
279.258
279.021
278.883
278.881
279.065
279.5
280.266
281.433
282.894
279.472
279.115
278.841
278.665
278.626
278.777
279.2
279.997
281.284
282.964
279.402
279.026
278.732
278.532
278.465
278.584
278.978
279.771
281.131
283.013
279.987
279.605
279.295
279.08
278.996
279.098
279.474
280.256
281.627
283.657
282.437
282.428
282.445
282.485
282.547
282.628
282.719
282.804
282.835
282.754
281.556
281.531
281.543
281.595
281.688
281.819
281.984
282.174
282.372
282.554
281.074
281.015
281.007
281.055
281.162
281.333
281.564
281.847
282.16
282.464
280.711
280.606
280.561
280.588
280.694
280.89
281.182
281.564
282.014
282.472
280.399
280.243
280.155
280.148
280.24
280.447
280.786
281.261
281.856
282.491
280.182
279.973
279.839
279.796
279.865
280.073
280.449
281.012
281.758
282.586
279.984
279.731
279.556
279.476
279.519
279.72
280.12
280.755
281.644
282.669
279.87
279.581
279.374
279.263
279.28
279.465
279.873
280.561
281.573
282.787
279.79
279.481
279.255
279.123
279.119
279.287
279.688
280.397
281.498
282.888
280.344
280.028
279.786
279.64
279.622
279.778
280.172
280.892
282.031
283.552
282.443
282.436
282.444
282.467
282.502
282.546
282.595
282.634
282.618
282.473
281.706
281.69
281.699
281.733
281.793
281.875
281.976
282.087
282.2
282.301
281.321
281.282
281.28
281.317
281.396
281.514
281.668
281.849
282.043
282.224
281.014
280.94
280.914
280.943
281.03
281.179
281.389
281.652
281.946
282.234
280.734
280.619
280.562
280.572
280.658
280.829
281.09
281.435
281.843
282.258
280.531
280.374
280.281
280.267
280.344
280.53
280.836
281.264
281.797
282.357
280.339
280.142
280.017
279.976
280.041
280.233
280.574
281.077
281.733
282.447
280.226
279.996
279.843
279.779
279.828
280.018
280.382
280.945
281.713
282.579
280.139
279.891
279.72
279.639
279.674
279.858
280.229
280.828
281.682
282.69
280.665
280.409
280.224
280.131
280.156
280.333
280.707
281.328
282.23
283.344
282.4
282.394
282.398
282.41
282.429
282.453
282.478
282.493
282.455
282.275
281.783
281.772
281.778
281.799
281.835
281.885
281.944
282.009
282.073
282.129
281.488
281.462
281.462
281.489
281.542
281.621
281.72
281.834
281.952
282.061
281.239
281.188
281.173
281.198
281.264
281.372
281.518
281.694
281.885
282.066
280.999
280.917
280.88
280.896
280.969
281.102
281.294
281.538
281.814
282.085
280.82
280.703
280.641
280.642
280.716
280.87
281.108
281.423
281.796
282.174
280.641
280.491
280.403
280.388
280.458
280.627
280.903
281.287
281.76
282.254
280.536
280.358
280.247
280.215
280.278
280.454
280.76
281.202
281.77
282.38
280.447
280.251
280.125
280.08
280.135
280.313
280.635
281.117
281.761
282.48
280.948
280.745
280.607
280.552
280.6
280.777
281.107
281.616
282.307
283.107
282.336
282.331
282.333
282.339
282.349
282.361
282.374
282.377
282.33
282.133
281.813
281.806
281.809
281.822
281.843
281.872
281.906
281.943
281.979
282.011
281.595
281.578
281.578
281.596
281.631
281.681
281.744
281.814
281.886
281.952
281.4
281.366
281.357
281.376
281.424
281.499
281.598
281.713
281.835
281.95
281.203
281.145
281.122
281.138
281.195
281.294
281.432
281.599
281.784
281.961
281.053
280.968
280.927
280.935
280.999
281.12
281.298
281.524
281.781
282.035
280.891
280.779
280.719
280.718
280.784
280.923
281.138
281.422
281.758
282.097
280.8
280.665
280.587
280.574
280.639
280.791
281.037
281.373
281.783
282.21
280.712
280.56
280.47
280.449
280.51
280.668
280.934
281.308
281.781
282.288
281.189
281.032
280.931
280.903
280.961
281.122
281.398
281.8
282.313
282.878
282.266
282.262
282.262
282.265
282.27
282.276
282.283
282.28
282.231
282.026
281.816
281.812
281.813
281.82
281.832
281.848
281.868
281.889
281.909
281.927
281.661
281.65
281.65
281.661
281.683
281.714
281.753
281.795
281.839
281.879
281.512
281.489
281.484
281.497
281.53
281.581
281.645
281.72
281.798
281.871
281.356
281.316
281.302
281.315
281.358
281.428
281.523
281.637
281.759
281.874
281.236
281.175
281.148
281.158
281.209
281.3
281.429
281.588
281.763
281.933
281.094
281.012
280.971
280.977
281.033
281.142
281.304
281.509
281.743
281.974
281.021
280.92
280.866
280.865
280.924
281.048
281.238
281.486
281.777
282.071
280.935
280.82
280.757
280.75
280.809
280.941
281.151
281.433
281.773
282.124
281.39
281.271
281.199
281.187
281.246
281.383
281.604
281.91
282.282
282.676
282.197
282.193
282.193
282.195
282.197
282.201
282.204
282.199
282.152
281.945
281.805
281.802
281.802
281.806
281.813
281.822
281.833
281.844
281.856
281.866
281.699
281.692
281.692
281.698
281.712
281.731
281.754
281.78
281.806
281.83
281.587
281.571
281.568
281.577
281.599
281.632
281.673
281.721
281.77
281.816
281.468
281.441
281.432
281.442
281.472
281.521
281.585
281.661
281.74
281.815
281.375
281.333
281.316
281.325
281.364
281.43
281.52
281.629
281.747
281.859
281.253
281.195
281.168
281.176
281.22
281.303
281.42
281.565
281.725
281.881
281.201
281.128
281.092
281.096
281.146
281.242
281.383
281.562
281.765
281.965
281.117
281.033
280.989
280.99
281.041
281.147
281.306
281.512
281.752
281.993
281.55
281.462
281.412
281.411
281.463
281.574
281.744
281.97
282.234
282.504
282.134
282.13
282.13
282.131
282.132
282.134
282.135
282.13
282.087
281.883
281.786
281.784
281.784
281.786
281.79
281.795
281.801
281.808
281.814
281.82
281.721
281.716
281.715
281.719
281.727
281.738
281.752
281.768
281.783
281.798
281.634
281.624
281.622
281.628
281.641
281.662
281.689
281.719
281.749
281.778
281.549
281.53
281.524
281.532
281.552
281.585
281.627
281.676
281.728
281.776
281.48
281.451
281.44
281.448
281.475
281.522
281.584
281.657
281.734
281.808
281.376
281.335
281.317
281.325
281.359
281.419
281.501
281.601
281.709
281.814
281.346
281.294
281.27
281.276
281.315
281.387
281.489
281.615
281.753
281.888
281.262
281.201
281.172
281.176
281.218
281.299
281.415
281.562
281.728
281.891
281.673
281.61
281.576
281.579
281.623
281.709
281.835
281.997
282.18
282.363
282.076
282.074
282.073
282.074
282.074
282.075
282.076
282.072
282.033
281.836
281.765
281.764
281.764
281.765
281.767
281.77
281.773
281.777
281.78
281.784
281.732
281.729
281.729
281.731
281.736
281.742
281.75
281.759
281.769
281.777
281.662
281.655
281.654
281.658
281.666
281.679
281.696
281.714
281.733
281.751
281.605
281.593
281.589
281.594
281.608
281.629
281.656
281.688
281.72
281.751
281.556
281.537
281.53
281.536
281.555
281.586
281.627
281.676
281.726
281.774
281.467
281.439
281.428
281.434
281.459
281.501
281.558
281.625
281.697
281.765
281.46
281.425
281.409
281.415
281.444
281.496
281.567
281.653
281.746
281.835
281.373
281.331
281.311
281.317
281.349
281.408
281.491
281.593
281.705
281.814
281.762
281.719
281.696
281.701
281.735
281.799
281.89
282.002
282.126
282.248
282.026
282.024
282.023
282.023
282.024
282.025
282.025
282.022
281.989
281.802
281.743
281.742
281.742
281.743
281.744
281.746
281.748
281.75
281.752
281.754
281.74
281.738
281.738
281.739
281.741
281.745
281.75
281.755
281.761
281.766
281.677
281.673
281.672
281.674
281.679
281.687
281.697
281.708
281.72
281.731
281.643
281.635
281.633
281.636
281.645
281.659
281.676
281.696
281.716
281.735
281.61
281.597
281.593
281.597
281.61
281.63
281.657
281.688
281.721
281.751
281.534
281.515
281.508
281.513
281.53
281.558
281.596
281.641
281.687
281.732
281.55
281.526
281.516
281.521
281.542
281.578
281.626
281.683
281.744
281.802
281.456
281.426
281.414
281.419
281.443
281.484
281.541
281.61
281.684
281.756
281.824
281.794
281.78
281.785
281.81
281.855
281.918
281.995
282.077
282.156
281.983
281.981
281.981
281.981
281.981
281.982
281.982
281.98
281.954
281.781
281.721
281.72
281.72
281.721
281.721
281.722
281.723
281.725
281.726
281.727
281.746
281.745
281.745
281.745
281.747
281.749
281.752
281.755
281.758
281.761
281.683
281.68
281.68
281.681
281.684
281.689
281.695
281.702
281.709
281.716
281.668
281.664
281.662
281.664
281.67
281.678
281.689
281.701
281.713
281.725
281.646
281.638
281.635
281.638
281.646
281.66
281.677
281.696
281.717
281.736
281.581
281.569
281.565
281.568
281.579
281.598
281.622
281.651
281.68
281.709
281.619
281.603
281.597
281.601
281.615
281.64
281.671
281.709
281.747
281.784
281.512
281.493
281.485
281.489
281.505
281.534
281.572
281.617
281.665
281.712
281.863
281.844
281.834
281.839
281.857
281.888
281.93
281.98
282.033
282.084
281.953
281.952
281.951
281.951
281.952
281.952
281.952
281.95
281.932
281.779
281.697
281.697
281.696
281.697
281.697
281.698
281.698
281.699
281.7
281.701
281.753
281.752
281.752
281.753
281.753
281.755
281.756
281.758
281.76
281.762
281.683
281.682
281.681
281.682
281.684
281.686
281.69
281.694
281.698
281.702
281.683
281.68
281.679
281.681
281.684
281.689
281.696
281.703
281.711
281.718
281.668
281.663
281.661
281.663
281.668
281.676
281.687
281.699
281.712
281.724
281.613
281.605
281.602
281.605
281.612
281.624
281.639
281.657
281.675
281.693
281.67
281.66
281.656
281.659
281.669
281.685
281.705
281.729
281.754
281.776
281.545
281.533
281.528
281.531
281.542
281.56
281.585
281.614
281.644
281.675
281.889
281.877
281.872
281.875
281.887
281.908
281.935
281.968
282.001
282.033
281.948
281.947
281.946
281.946
281.946
281.946
281.947
281.946
281.934
281.809
281.667
281.667
281.667
281.667
281.667
281.667
281.667
281.668
281.668
281.669
281.758
281.758
281.758
281.758
281.759
281.76
281.761
281.762
281.763
281.765
281.68
281.679
281.679
281.679
281.68
281.681
281.683
281.685
281.688
281.69
281.69
281.688
281.687
281.688
281.69
281.693
281.697
281.702
281.706
281.711
281.677
281.674
281.673
281.674
281.677
281.683
281.689
281.697
281.704
281.712
281.631
281.627
281.625
281.627
281.631
281.638
281.648
281.659
281.67
281.681
281.701
281.695
281.693
281.695
281.701
281.711
281.724
281.74
281.755
281.769
281.554
281.546
281.543
281.545
281.552
281.564
281.58
281.598
281.616
281.636
281.919
281.911
281.908
281.91
281.918
281.932
281.949
281.97
281.991
282.01
281.983
281.983
281.983
281.983
281.984
281.984
281.985
281.985
281.981
281.895
281.623
281.622
281.622
281.622
281.622
281.621
281.621
281.621
281.62
281.62
281.756
281.756
281.756
281.756
281.757
281.758
281.759
281.76
281.761
281.763
281.676
281.676
281.675
281.675
281.676
281.676
281.677
281.678
281.679
281.68
281.689
281.688
281.688
281.688
281.69
281.692
281.694
281.697
281.7
281.703
281.678
281.676
281.675
281.676
281.678
281.681
281.685
281.69
281.695
281.7
281.64
281.637
281.636
281.637
281.64
281.644
281.65
281.657
281.663
281.67
281.704
281.7
281.698
281.7
281.704
281.711
281.719
281.73
281.741
281.75
281.531
281.526
281.525
281.526
281.531
281.538
281.548
281.56
281.571
281.584
281.969
281.964
281.962
281.963
281.969
281.978
281.989
282.003
282.017
282.03
282.053
282.053
282.053
282.054
282.056
282.058
282.061
282.064
282.067
282.038
281.56
281.56
281.559
281.559
281.558
281.557
281.555
281.554
281.551
281.549
281.742
281.742
281.742
281.742
281.743
281.744
281.745
281.747
281.749
281.751
281.675
281.674
281.674
281.674
281.674
281.674
281.675
281.675
281.676
281.676
281.686
281.686
281.685
281.686
281.687
281.688
281.69
281.692
281.694
281.696
281.674
281.673
281.672
281.673
281.674
281.677
281.68
281.683
281.687
281.69
281.643
281.641
281.64
281.641
281.643
281.646
281.65
281.655
281.659
281.663
281.679
281.676
281.675
281.676
281.679
281.684
281.691
281.698
281.707
281.716
281.479
281.476
281.474
281.476
281.479
281.485
281.492
281.499
281.506
281.512
282.037
282.031
282.029
282.03
282.034
282.041
282.049
282.06
282.071
282.083
292.026
296.759
297.825
295.403
291.304
296.406
297.716
295.621
291.318
296.711
298.298
296.964
291.3
296.912
298.855
298.466
291.336
297.092
299.356
299.63
291.303
297.039
299.419
299.731
291.204
296.855
299.287
299.678
291.142
296.684
299.177
299.785
290.858
296.308
298.909
299.837
290.675
296.075
298.849
300.214
291.585
293.132
293.376
292.374
291.104
292.86
293.165
292.169
291.292
293.202
293.671
292.798
291.549
293.612
294.291
293.626
291.861
294.053
294.89
294.43
292.402
294.682
295.612
295.308
292.931
295.244
296.217
296.057
293.401
295.694
296.656
296.526
293.584
295.869
296.865
296.833
293.707
296.09
297.266
297.497
287.729
288.425
288.638
288.295
287.128
288.032
288.313
287.926
287.264
288.296
288.658
288.37
287.566
288.728
289.195
289.03
287.933
289.215
289.784
289.716
288.417
289.792
290.418
290.382
288.894
290.342
291.014
291.023
289.378
290.877
291.587
291.67
289.709
291.226
291.986
292.185
290.212
291.704
292.58
293.03
285.905
286.171
286.283
286.239
285.182
285.623
285.789
285.695
285.239
285.769
286.001
285.963
285.479
286.11
286.42
286.44
285.777
286.504
286.887
286.958
286.208
287.024
287.47
287.592
286.653
287.549
288.054
288.229
287.13
288.093
288.652
288.894
287.558
288.557
289.167
289.5
288.366
289.334
290.01
290.53
284.686
284.759
284.826
284.886
283.916
284.14
284.249
284.246
283.928
284.208
284.367
284.406
284.111
284.462
284.677
284.764
284.342
284.763
285.035
285.169
284.692
285.184
285.511
285.695
285.058
285.616
285.997
286.232
285.472
286.092
286.525
286.818
285.862
286.521
287.002
287.371
286.663
287.303
287.834
288.368
283.954
283.935
283.974
284.071
283.159
283.28
283.348
283.365
283.142
283.299
283.402
283.451
283.279
283.484
283.628
283.714
283.458
283.712
283.9
284.023
283.749
284.056
284.287
284.451
284.055
284.413
284.688
284.893
284.412
284.818
285.136
285.385
284.755
285.192
285.546
285.852
285.538
285.962
286.346
286.775
283.483
283.416
283.439
283.55
282.681
282.749
282.791
282.807
282.648
282.74
282.806
282.845
282.748
282.871
282.966
283.033
282.883
283.041
283.167
283.262
283.12
283.315
283.475
283.601
283.369
283.6
283.792
283.95
283.669
283.934
284.158
284.348
283.954
284.242
284.49
284.72
284.694
284.977
285.245
285.56
283.169
283.076
283.089
283.208
282.375
282.414
282.44
282.452
282.332
282.388
282.429
282.457
282.401
282.478
282.54
282.586
282.5
282.601
282.685
282.752
282.691
282.817
282.925
283.015
282.888
283.04
283.171
283.284
283.136
283.312
283.465
283.601
283.364
283.554
283.724
283.886
284.056
284.244
284.427
284.645
282.947
282.838
282.846
282.97
282.175
282.198
282.213
282.221
282.126
282.16
282.186
282.204
282.17
282.219
282.259
282.29
282.239
282.304
282.359
282.405
282.389
282.472
282.544
282.607
282.54
282.64
282.73
282.808
282.742
282.858
282.963
283.057
282.915
283.041
283.156
283.267
283.557
283.684
283.807
283.953
282.783
282.663
282.667
282.796
282.04
282.054
282.063
282.068
281.992
282.012
282.029
282.04
282.015
282.046
282.072
282.093
282.06
282.102
282.139
282.169
282.175
282.23
282.279
282.321
282.285
282.352
282.412
282.466
282.448
282.526
282.596
282.661
282.573
282.657
282.735
282.81
283.166
283.251
283.334
283.43
282.653
282.526
282.528
282.661
281.947
281.955
281.961
281.964
281.903
281.916
281.926
281.933
281.912
281.931
281.948
281.961
281.938
281.966
281.99
282.01
282.025
282.061
282.093
282.122
282.099
282.144
282.184
282.221
282.23
282.282
282.329
282.373
282.314
282.371
282.424
282.473
282.858
282.915
282.971
283.035
282.546
282.414
282.415
282.551
281.88
281.886
281.889
281.891
281.845
281.853
281.859
281.864
281.842
281.855
281.865
281.874
281.857
281.874
281.89
281.904
281.92
281.944
281.965
281.984
281.965
281.994
282.021
282.046
282.071
282.106
282.138
282.167
282.12
282.158
282.194
282.227
282.618
282.656
282.693
282.735
282.454
282.318
282.319
282.456
281.831
281.834
281.836
281.837
281.807
281.812
281.816
281.819
281.795
281.803
281.81
281.815
281.803
281.814
281.825
281.833
281.848
281.864
281.878
281.89
281.869
281.889
281.907
281.923
281.958
281.981
282.002
282.022
281.977
282.002
282.026
282.047
282.432
282.457
282.481
282.509
282.371
282.234
282.234
282.373
281.792
281.795
281.796
281.796
281.783
281.786
281.788
281.79
281.762
281.767
281.771
281.775
281.768
281.776
281.782
281.788
281.8
281.81
281.819
281.827
281.802
281.815
281.827
281.837
281.881
281.896
281.911
281.923
281.872
281.889
281.905
281.918
282.287
282.304
282.32
282.338
282.295
282.158
282.159
282.296
281.761
281.763
281.763
281.763
281.769
281.771
281.773
281.774
281.739
281.742
281.744
281.746
281.746
281.751
281.755
281.759
281.768
281.775
281.781
281.786
281.756
281.765
281.772
281.779
281.832
281.842
281.851
281.859
281.795
281.807
281.817
281.826
282.177
282.187
282.198
282.209
282.223
282.091
282.092
282.224
281.733
281.734
281.735
281.735
281.763
281.764
281.765
281.766
281.72
281.722
281.724
281.725
281.733
281.736
281.738
281.74
281.747
281.751
281.755
281.758
281.725
281.73
281.735
281.739
281.803
281.81
281.816
281.821
281.739
281.747
281.754
281.759
282.093
282.1
282.107
282.114
282.158
282.036
282.036
282.158
281.706
281.707
281.707
281.707
281.763
281.764
281.764
281.765
281.705
281.707
281.708
281.708
281.723
281.725
281.726
281.727
281.731
281.734
281.736
281.738
281.703
281.707
281.71
281.712
281.788
281.792
281.796
281.799
281.695
281.7
281.704
281.707
282.035
282.039
282.044
282.048
282.11
282.005
282.006
282.11
281.673
281.673
281.674
281.673
281.766
281.766
281.767
281.767
281.692
281.693
281.694
281.694
281.714
281.715
281.716
281.717
281.717
281.718
281.72
281.721
281.687
281.689
281.691
281.692
281.777
281.78
281.782
281.784
281.652
281.656
281.659
281.66
282.009
282.012
282.015
282.017
282.099
282.022
282.022
282.099
281.623
281.624
281.624
281.624
281.764
281.765
281.765
281.765
281.682
281.682
281.683
281.683
281.705
281.706
281.707
281.707
281.703
281.704
281.705
281.706
281.674
281.675
281.676
281.677
281.758
281.76
281.761
281.762
281.596
281.6
281.601
281.601
282.029
282.031
282.032
282.034
282.124
282.091
282.091
282.124
281.549
281.548
281.548
281.549
281.753
281.754
281.754
281.753
281.676
281.676
281.676
281.677
281.698
281.699
281.699
281.699
281.693
281.694
281.695
281.695
281.665
281.666
281.667
281.668
281.727
281.729
281.73
281.73
281.518
281.52
281.521
281.521
282.086
282.088
282.089
282.09
287.163
284.119
282.72
281.892
281.233
280.631
280.073
279.569
279.1
278.653
287.443
284.987
283.385
282.22
281.265
280.48
279.793
279.171
278.592
278.039
288.665
286.043
283.982
282.66
281.569
280.676
279.895
279.192
278.545
277.947
290.133
287.141
284.914
283.433
282.218
281.217
280.335
279.535
278.795
278.116
291.442
288.196
285.816
284.17
282.842
281.738
280.762
279.875
279.051
278.307
293.074
289.292
286.756
284.944
283.504
282.297
281.233
280.265
279.364
278.557
294.656
290.257
287.568
285.592
284.047
282.746
281.604
280.565
279.6
278.75
296.117
291.174
288.339
286.208
284.565
283.176
281.962
280.862
279.845
278.95
297.318
291.952
288.997
286.734
284.994
283.51
282.22
281.06
280.003
279.074
298.79
293.255
290.247
287.913
286.082
284.523
283.169
281.949
280.843
279.862
288.431
285.985
284.394
283.209
282.31
281.611
281.051
280.596
280.224
279.922
288.266
285.731
283.925
282.604
281.613
280.844
280.218
279.69
279.238
278.845
288.558
285.857
283.851
282.486
281.448
280.628
279.945
279.358
278.848
278.404
289.124
286.313
284.204
282.785
281.673
280.778
280.016
279.352
278.765
278.251
289.731
286.852
284.643
283.13
281.932
280.957
280.121
279.387
278.732
278.161
290.555
287.524
285.187
283.553
282.264
281.207
280.301
279.502
278.788
278.165
291.424
288.114
285.648
283.88
282.509
281.378
280.414
279.565
278.806
278.15
292.421
288.661
286.108
284.202
282.767
281.573
280.563
279.675
278.883
278.197
293.343
289.062
286.505
284.471
282.99
281.733
280.682
279.759
278.948
278.241
294.722
289.923
287.525
285.41
283.896
282.591
281.503
280.544
279.704
278.97
286.613
285.457
284.52
283.715
283.024
282.441
281.955
281.557
281.24
280.999
286.641
285.248
284.058
283.063
282.236
281.551
280.981
280.504
280.107
279.778
286.942
285.371
283.995
282.895
281.99
281.242
280.612
280.074
279.614
279.224
287.476
285.787
284.278
283.089
282.103
281.281
280.576
279.964
279.428
278.965
288.035
286.282
284.644
283.356
282.284
281.384
280.606
279.924
279.32
278.797
288.802
286.907
285.13
283.725
282.562
281.581
280.732
279.985
279.318
278.739
289.619
287.478
285.559
284.026
282.777
281.721
280.811
280.01
279.295
278.677
290.534
288.011
285.987
284.323
283.005
281.885
280.927
280.086
279.336
278.685
291.399
288.379
286.33
284.54
283.171
281.994
280.999
280.128
279.361
278.69
292.702
289.163
287.257
285.387
283.997
282.783
281.763
280.865
280.078
279.384
285.188
284.734
284.232
283.719
283.237
282.811
282.446
282.143
281.905
281.732
285.26
284.54
283.793
283.096
282.474
281.934
281.473
281.084
280.763
280.506
285.522
284.666
283.763
282.946
282.23
281.61
281.076
280.618
280.228
279.903
286.009
285.05
284.018
283.098
282.291
281.589
280.976
280.44
279.974
279.576
286.541
285.503
284.348
283.325
282.426
281.641
280.952
280.345
279.808
279.348
287.232
286.082
284.799
283.66
282.665
281.797
281.034
280.358
279.757
279.238
287.955
286.627
285.211
283.946
282.859
281.912
281.083
280.351
279.698
279.135
288.77
287.148
285.625
284.231
283.068
282.053
281.174
280.398
279.708
279.11
289.566
287.524
285.962
284.438
283.217
282.145
281.227
280.421
279.712
279.093
290.81
288.323
286.856
285.248
284.003
282.897
281.955
281.126
280.398
279.757
284.056
283.965
283.745
283.46
283.168
282.893
282.65
282.444
282.281
282.165
284.104
283.763
283.343
282.906
282.486
282.101
281.76
281.467
281.226
281.034
284.306
283.888
283.354
282.807
282.287
281.813
281.391
281.023
280.71
280.451
284.717
284.238
283.599
282.95
282.334
281.772
281.267
280.819
280.43
280.099
285.183
284.649
283.908
283.156
282.447
281.798
281.214
280.692
280.232
279.838
285.793
285.182
284.333
283.47
282.663
281.928
281.267
280.676
280.149
279.694
286.429
285.691
284.728
283.745
282.844
282.028
281.297
280.646
280.065
279.564
287.138
286.192
285.13
284.025
283.043
282.156
281.371
280.673
280.051
279.513
287.832
286.565
285.455
284.225
283.18
282.236
281.411
280.682
280.039
279.478
288.978
287.378
286.316
285.004
283.931
282.953
282.105
281.354
280.693
280.11
283.322
283.398
283.323
283.175
283.007
282.842
282.691
282.56
282.457
282.384
283.317
283.156
282.927
282.666
282.399
282.142
281.906
281.7
281.528
281.393
283.449
283.252
282.949
282.601
282.245
281.903
281.588
281.309
281.069
280.872
283.768
283.545
283.169
282.733
282.288
281.86
281.464
281.106
280.794
280.529
284.146
283.898
283.447
282.921
282.387
281.874
281.399
280.968
280.586
280.26
284.654
284.367
283.835
283.212
282.586
281.988
281.435
280.934
280.485
280.099
285.185
284.825
284.203
283.474
282.756
282.076
281.453
280.89
280.385
279.951
285.779
285.288
284.584
283.745
282.946
282.196
281.516
280.904
280.357
279.883
286.354
285.644
284.887
283.937
283.075
282.268
281.546
280.902
280.331
279.834
287.391
286.458
285.715
284.689
283.795
282.954
282.21
281.544
280.955
280.436
282.839
282.994
282.991
282.92
282.828
282.734
282.645
282.568
282.505
282.463
282.791
282.715
282.593
282.443
282.281
282.117
281.963
281.825
281.709
281.618
282.866
282.776
282.607
282.393
282.16
281.925
281.702
281.5
281.325
281.18
283.1
283.005
282.79
282.508
282.199
281.888
281.59
281.316
281.075
280.871
283.388
283.29
283.025
282.672
282.285
281.896
281.524
281.18
280.873
280.611
283.796
283.687
283.367
282.934
282.466
281.997
281.551
281.138
280.768
280.448
284.221
284.08
283.695
283.175
282.622
282.076
281.56
281.087
280.661
280.293
284.703
284.49
284.042
283.43
282.803
282.188
281.616
281.093
280.623
280.217
285.157
284.81
284.314
283.609
282.922
282.253
281.639
281.083
280.588
280.157
286.086
285.606
285.104
284.335
283.613
282.911
282.274
281.697
281.183
280.73
282.52
282.71
282.742
282.712
282.663
282.611
282.562
282.517
282.481
282.458
282.445
282.409
282.345
282.261
282.165
282.065
281.968
281.88
281.805
281.746
282.478
282.437
282.344
282.216
282.068
281.913
281.761
281.621
281.498
281.395
282.642
282.605
282.484
282.307
282.1
281.881
281.666
281.464
281.284
281.131
282.853
282.824
282.672
282.442
282.171
281.885
281.603
281.339
281.1
280.896
283.17
283.147
282.96
282.669
282.33
281.974
281.625
281.296
280.999
280.742
283.499
283.47
283.239
282.879
282.468
282.042
281.628
281.242
280.891
280.589
283.88
283.82
283.545
283.113
282.635
282.148
281.68
281.245
280.852
280.511
284.225
284.093
283.779
283.275
282.742
282.205
281.696
281.229
280.81
280.445
285.055
284.853
284.525
283.968
283.403
282.834
282.302
281.814
281.376
280.991
282.301
282.509
282.555
282.546
282.521
282.493
282.466
282.441
282.421
282.409
282.216
282.199
282.166
282.12
282.065
282.006
281.947
281.892
281.846
281.808
282.221
282.203
282.153
282.077
281.986
281.886
281.786
281.692
281.609
281.539
282.33
282.319
282.252
282.143
282.007
281.859
281.708
281.564
281.434
281.323
282.479
282.479
282.394
282.246
282.061
281.858
281.652
281.454
281.274
281.12
282.721
282.733
282.627
282.436
282.196
281.934
281.669
281.415
281.184
280.983
282.967
282.986
282.853
282.61
282.312
281.99
281.667
281.36
281.08
280.839
283.264
283.276
283.113
282.817
282.464
282.087
281.715
281.364
281.044
280.766
283.516
283.498
283.306
282.956
282.556
282.135
281.726
281.343
280.997
280.696
284.26
284.21
284.004
283.613
283.183
282.735