/*--------------------------------*- C++ -*----------------------------------*\
| =========                 |                                                 |
| \\      /  F ield         | foam-extend: Open Source CFD                    |
|  \\    /   O peration     | Version:     4.0                                |
|   \\  /    A nd           | Web:         http://www.foam-extend.org         |
|    \\/     M anipulation  |                                                 |
\*---------------------------------------------------------------------------*/
FoamFile
{
    version     2.0;
    format      ascii;
    class       volVectorField;
    location    "1400";
    object      Urel;
}
// * * * * * * * * * * * * * * * * * * * * * * * * * * * * * * * * * * * * * //

dimensions      [0 1 -1 0 0 0 0];

internalField   nonuniform List<vector> 
34480
(
(211.847 -5.13833 -19.9451)
(213.459 -5.93222 -24.553)
(214.878 -6.48973 -29.8374)
(216.115 -6.80715 -36.081)
(217.144 -6.87825 -43.6824)
(217.734 -6.68759 -53.1249)
(217.019 -6.20535 -64.7596)
(212.688 -5.49722 -79.09)
(199.846 -4.89051 -98.6549)
(167.77 -4.34693 -119.399)
(213.95 -5.42001 -26.9395)
(215.868 -5.09824 -31.0295)
(217.559 -4.74546 -35.5117)
(219.012 -4.33721 -40.6592)
(220.31 -3.88476 -46.9421)
(221.424 -3.41759 -55.0571)
(221.832 -2.94195 -65.7979)
(219.769 -2.47379 -80.0088)
(210.68 -2.3362 -101.41)
(180.278 -2.76267 -129.935)
(215.128 -9.95462 -31.984)
(217.314 -8.9375 -35.8485)
(219.322 -7.9576 -39.995)
(221.155 -6.99177 -44.6907)
(222.888 -6.0396 -50.3718)
(224.598 -5.14443 -57.8462)
(225.976 -4.33089 -68.203)
(225.536 -3.59102 -82.6023)
(219.173 -3.22173 -105.484)
(190.404 -3.55137 -140.465)
(215.403 -13.6619 -37.5157)
(218.066 -12.1807 -41.4364)
(220.583 -10.7524 -45.6192)
(222.967 -9.34629 -50.2964)
(225.24 -7.96937 -55.8594)
(227.494 -6.66732 -63.1064)
(229.55 -5.47748 -73.2771)
(230.204 -4.39856 -87.869)
(225.776 -3.7456 -111.865)
(198.066 -3.94702 -151.641)
(215.592 -18.3471 -42.9827)
(218.68 -16.5904 -47.0207)
(221.639 -14.8871 -51.3662)
(224.499 -13.1824 -56.1639)
(227.26 -11.5072 -61.807)
(229.995 -9.90961 -69.0408)
(232.6 -8.44202 -79.1846)
(234.108 -7.1107 -94.0638)
(231.176 -6.25636 -119.124)
(204.065 -6.42691 -162.717)
(215.42 -22.059 -49.5051)
(218.834 -20.0078 -53.641)
(222.117 -18.0117 -58.101)
(225.329 -15.9845 -62.9844)
(228.465 -13.9635 -68.6952)
(231.58 -11.9874 -75.9259)
(234.609 -10.1133 -86.0293)
(236.787 -8.36502 -101.142)
(235.014 -7.15196 -127.179)
(208.112 -7.1874 -173.993)
(215.403 -27.0763 -55.8285)
(219.029 -24.8305 -60.0949)
(222.501 -22.6113 -64.7229)
(225.914 -20.321 -69.7391)
(229.271 -18.0148 -75.5602)
(232.628 -15.7188 -82.8216)
(235.967 -13.4758 -92.8826)
(238.737 -11.2813 -108.176)
(238.06 -9.51269 -135.092)
(211.485 -8.95796 -184.67)
(215.148 -30.8361 -63.4399)
(218.859 -28.3154 -67.7474)
(222.388 -25.7824 -72.4101)
(225.852 -23.146 -77.4465)
(229.26 -20.4558 -83.2504)
(232.676 -17.716 -90.395)
(236.147 -14.9256 -100.196)
(239.388 -12.0447 -115.307)
(239.862 -9.43771 -142.641)
(214.053 -7.96685 -194.358)
(215.173 -36.7508 -70.3349)
(218.894 -33.9973 -74.6832)
(222.422 -31.1406 -79.429)
(225.903 -28.1414 -84.5753)
(229.337 -25.0708 -90.519)
(232.77 -21.9221 -97.7424)
(236.268 -18.6411 -107.452)
(239.826 -15.0887 -122.339)
(241.38 -11.3729 -149.961)
(216.44 -8.25498 -203.109)
(214.099 -41.1571 -78.2886)
(217.83 -38.0922 -82.4896)
(221.378 -34.9107 -87.1133)
(224.861 -31.562 -92.1695)
(228.234 -28.059 -98.0333)
(231.511 -24.3651 -105.154)
(234.791 -20.385 -114.623)
(238.382 -15.9231 -128.832)
(241.145 -11.0225 -155.916)
(218.111 -6.24091 -209.315)
(204.043 6.1352 1.57572)
(204.974 4.59337 -1.84934)
(205.404 3.24084 -5.75262)
(205.22 2.10424 -10.1977)
(204.233 1.18162 -15.3371)
(202.117 0.483622 -21.2959)
(198.364 0.00799776 -28.124)
(192.319 -0.272326 -35.632)
(182.537 -0.419756 -42.8516)
(163.889 -0.560641 -45.371)
(208.005 9.6151 1.61192)
(209.386 8.66991 -1.39932)
(210.347 7.70463 -4.79792)
(210.734 6.77548 -8.63999)
(210.411 5.8844 -13.1235)
(209.091 5.01407 -18.5391)
(206.164 4.14436 -25.2754)
(200.709 3.26844 -33.5971)
(191.275 2.35336 -43.4368)
(171.441 1.27626 -50.439)
(210.318 9.15743 3.694)
(212.049 8.44993 0.936921)
(213.432 7.66455 -2.14527)
(214.364 6.82751 -5.721)
(214.711 5.96687 -9.95328)
(214.248 5.06115 -15.2281)
(212.387 4.08321 -22.1496)
(207.986 3.01421 -31.3861)
(199.384 1.82156 -43.7358)
(178.661 0.415809 -55.7867)
(211.329 9.4971 5.44356)
(213.551 8.85533 2.77524)
(215.479 8.11368 -0.229835)
(217.04 7.29237 -3.77403)
(218.071 6.41801 -8.01783)
(218.358 5.47347 -13.3602)
(217.352 4.4322 -20.5121)
(213.846 3.26567 -30.4736)
(206.029 1.90819 -44.8944)
(184.575 0.270622 -61.8545)
(212 8.85157 7.35851)
(214.658 8.10903 4.74289)
(217.062 7.25814 1.71503)
(219.156 6.34006 -1.86504)
(220.782 5.35658 -6.21538)
(221.717 4.29313 -11.7052)
(221.444 3.11231 -19.1135)
(218.752 1.78294 -29.7304)
(211.699 0.226217 -45.9638)
(189.601 -1.61768 -67.6582)
(212.174 9.21641 8.25599)
(215.183 8.39326 5.72976)
(217.954 7.44635 2.747)
(220.457 6.44926 -0.795598)
(222.554 5.39547 -5.17122)
(224.015 4.28507 -10.7249)
(224.352 3.08019 -18.2773)
(222.383 1.7458 -29.3676)
(216.028 0.160029 -47.0259)
(193.227 -1.77079 -72.9333)
(212.4 8.24117 9.40326)
(215.653 7.24163 6.94208)
(218.665 6.13723 3.95882)
(221.437 5.01772 0.419217)
(223.86 3.85567 -3.99608)
(225.713 2.66224 -9.60766)
(226.554 1.40221 -17.2594)
(225.284 0.0577712 -28.7268)
(219.703 -1.46022 -47.6195)
(196.413 -3.28104 -77.4881)
(212.309 8.54818 9.2754)
(215.689 7.44356 6.97672)
(218.821 6.26118 4.14293)
(221.731 5.09211 0.740195)
(224.334 3.91073 -3.55522)
(226.434 2.74227 -9.04524)
(227.652 1.58106 -16.5652)
(227.031 0.439392 -28.0652)
(222.385 -0.77124 -47.7509)
(199.096 -2.39489 -81.1333)
(212.357 6.69857 9.84871)
(215.766 5.42336 7.7254)
(218.939 4.15652 5.0167)
(221.933 2.94595 1.70733)
(224.688 1.74708 -2.57287)
(227.016 0.584548 -8.1016)
(228.559 -0.517715 -15.6678)
(228.503 -1.48497 -27.1837)
(224.839 -2.19934 -47.5878)
(201.746 -3.22523 -83.9986)
(211.392 6.48717 9.28151)
(214.813 5.09369 7.45088)
(218.028 3.742 5.05793)
(221.066 2.45241 2.0404)
(223.851 1.23815 -1.95035)
(226.215 0.145526 -7.22855)
(227.872 -0.757023 -14.6056)
(228.188 -1.31697 -25.7249)
(225.668 -1.36305 -46.3102)
(203.564 -1.23084 -84.6702)
(198.265 4.89719 0.467333)
(198.759 3.72227 -2.20345)
(198.73 2.69874 -5.13531)
(198.098 1.83951 -8.34206)
(196.73 1.16112 -11.7802)
(194.45 0.6717 -15.3489)
(191.038 0.3562 -18.8488)
(186.259 0.16121 -21.9549)
(179.759 0.00752434 -23.9278)
(170.86 -0.211338 -22.9928)
(203.098 8.22382 0.432558)
(204.028 7.44908 -2.11884)
(204.478 6.6427 -4.93989)
(204.32 5.85267 -8.04128)
(203.381 5.08974 -11.461)
(201.399 4.35134 -15.1861)
(197.994 3.62668 -19.1435)
(192.657 2.89991 -23.1114)
(184.686 2.15569 -26.4196)
(173.082 1.35792 -27.0687)
(206.108 7.98361 2.35194)
(207.419 7.36007 -0.125501)
(208.299 6.65217 -2.8843)
(208.63 5.89392 -6.00064)
(208.247 5.10701 -9.53954)
(206.857 4.28014 -13.6061)
(203.951 3.39975 -18.2747)
(198.761 2.45209 -23.4668)
(190.193 1.42488 -28.6527)
(176.278 0.292299 -31.7187)
(207.7 8.43536 3.97043)
(209.485 7.85691 1.50053)
(210.885 7.17525 -1.27406)
(211.796 6.40976 -4.50802)
(212.02 5.59087 -8.25598)
(211.249 4.70322 -12.6981)
(208.885 3.73355 -18.0191)
(203.938 2.66583 -24.3181)
(194.958 1.47795 -31.3087)
(178.93 0.144933 -37.1114)
(208.804 7.85036 5.85811)
(211.018 7.17345 3.38665)
(212.885 6.39087 0.533822)
(214.315 5.53178 -2.83576)
(215.097 4.60991 -6.82214)
(214.909 3.60703 -11.6325)
(213.098 2.49943 -17.5525)
(208.495 1.26551 -24.8858)
(199.306 -0.118992 -33.6347)
(181.428 -1.64543 -42.4713)
(209.316 8.29959 6.77597)
(211.888 7.54988 4.36092)
(214.136 6.68133 1.51761)
(215.984 5.74873 -1.87402)
(217.233 4.76019 -5.97687)
(217.55 3.70882 -11.0116)
(216.248 2.56829 -17.3522)
(212.033 1.31044 -25.5197)
(202.779 -0.11757 -35.8152)
(183.306 -1.73271 -47.7131)
(209.795 7.3557 8.00923)
(212.628 6.44304 5.6373)
(215.143 5.43319 2.76872)
(217.292 4.39441 -0.65977)
(218.895 3.31541 -4.871)
(219.623 2.19721 -10.092)
(218.788 1.01281 -16.7737)
(215.03 -0.261707 -25.6731)
(205.912 -1.66085 -37.4331)
(185.157 -3.21055 -52.505)
(209.894 7.72489 7.97778)
(212.88 6.71429 5.75605)
(215.554 5.63323 3.02743)
(217.889 4.55457 -0.279945)
(219.734 3.46921 -4.41298)
(220.775 2.38795 -9.60894)
(220.353 1.30238 -16.37)
(217.11 0.206545 -25.6713)
(208.37 -0.936684 -38.5645)
(186.741 -2.37788 -56.6016)
(210.053 5.90877 8.63499)
(213.085 4.72306 6.56613)
(215.818 3.5498 3.95047)
(218.257 2.42592 0.74124)
(220.288 1.33081 -3.36983)
(221.617 0.278107 -8.63954)
(221.608 -0.711685 -15.5985)
(218.922 -1.60466 -25.2808)
(210.702 -2.29366 -39.2744)
(188.296 -3.29707 -59.8532)
(209.264 5.86984 8.11941)
(212.304 4.55015 6.29635)
(215.084 3.29197 3.97309)
(217.57 2.08823 1.03908)
(219.643 0.972601 -2.78888)
(221.031 -0.0141558 -7.7905)
(221.239 -0.803939 -14.5758)
(219.055 -1.28906 -24.1565)
(211.6 -1.30492 -38.8259)
(188.849 -1.20029 -60.8206)
(194.164 3.82067 -0.0871254)
(194.397 3.00379 -1.96506)
(194.189 2.28752 -3.96393)
(193.496 1.68455 -6.05609)
(192.262 1.20999 -8.15259)
(190.428 0.866092 -10.1302)
(187.97 0.637481 -11.804)
(184.952 0.474072 -12.9309)
(181.509 0.295917 -13.1022)
(177.587 0.0163753 -11.7273)
(199.12 6.82876 -0.281486)
(199.7 6.249 -2.2822)
(199.821 5.62636 -4.4221)
(199.393 4.99709 -6.70392)
(198.3 4.38083 -9.08154)
(196.396 3.78154 -11.4445)
(193.515 3.19303 -13.6081)
(189.517 2.60363 -15.2739)
(184.313 2.0086 -15.8738)
(178.046 1.41898 -14.6567)
(202.437 6.77812 1.34434)
(203.378 6.26223 -0.75408)
(203.869 5.65799 -3.05899)
(203.802 5.00362 -5.58038)
(203.039 4.31725 -8.31822)
(201.37 3.59668 -11.2283)
(198.506 2.83473 -14.1769)
(194.108 2.02204 -16.8545)
(187.847 1.15372 -18.544)
(179.595 0.243375 -18.1451)
(204.402 7.35248 2.73002)
(205.776 6.85639 0.548244)
(206.722 6.25316 -1.88254)
(207.124 5.56849 -4.64592)
(206.805 4.82888 -7.74214)
(205.496 4.0276 -11.1928)
(202.79 3.16062 -14.9166)
(198.136 2.21901 -18.6357)
(190.932 1.19242 -21.5433)
(180.662 0.0940549 -22.3272)
(205.835 6.83226 4.51043)
(207.614 6.23356 2.26055)
(208.987 5.53088 -0.316975)
(209.847 4.74993 -3.32406)
(209.978 3.90901 -6.77363)
(209.075 2.99232 -10.7434)
(206.623 1.98986 -15.2177)
(201.87 0.888571 -19.9964)
(193.902 -0.324005 -24.2402)
(181.729 -1.60986 -26.6216)
(206.628 7.36563 5.38615)
(208.759 6.69823 3.14675)
(210.499 5.91693 0.530714)
(211.751 5.06482 -2.57517)
(212.288 4.15906 -6.23361)
(211.773 3.18964 -10.5578)
(209.609 2.14372 -15.6069)
(204.856 1.0031 -21.2939)
(196.269 -0.264175 -26.7931)
(182.328 -1.64345 -30.939)
(207.329 6.45432 6.65889)
(209.728 5.63233 4.42922)
(211.743 4.72089 1.75097)
(213.296 3.77184 -1.44889)
(214.167 2.78654 -5.29424)
(214.001 1.75914 -9.92388)
(212.145 0.674308 -15.4781)
(207.509 -0.48633 -22.0216)
(198.506 -1.74943 -28.8125)
(183.016 -3.10007 -35.0023)
(207.604 6.90253 6.68825)
(210.173 5.98855 4.58695)
(212.367 5.00938 2.02653)
(214.129 4.02316 -1.08536)
(215.255 3.0354 -4.90759)
(215.391 2.04723 -9.60887)
(213.86 1.05395 -15.4012)
(209.468 0.0458124 -22.5241)
(200.309 -1.01039 -30.4136)
(183.569 -2.29957 -38.6535)
(207.857 5.13293 7.45341)
(210.49 4.04522 5.47834)
(212.761 2.96858 3.0044)
(214.636 1.93208 -0.0269672)
(215.948 0.934621 -3.83826)
(216.361 -0.0160599 -8.64001)
(215.2 -0.895108 -14.7234)
(211.193 -1.68695 -22.4415)
(202.112 -2.32971 -31.525)
(184.198 -3.25826 -41.658)
(207.185 5.2655 6.99107)
(209.836 4.04121 5.22767)
(212.167 2.88725 3.02018)
(214.106 1.78114 0.238038)
(215.489 0.772897 -3.31585)
(215.992 -0.104054 -7.86634)
(215.032 -0.777432 -13.7926)
(211.403 -1.1653 -21.5758)
(202.735 -1.14143 -31.5384)
(183.946 -1.05261 -42.7074)
(191.637 2.90505 -0.311162)
(191.75 2.37415 -1.53678)
(191.544 1.89953 -2.8129)
(191.006 1.49476 -4.09621)
(190.121 1.17019 -5.30974)
(188.89 0.926122 -6.36128)
(187.352 0.751869 -7.13015)
(185.639 0.607492 -7.49978)
(184.038 0.425175 -7.29915)
(182.721 0.123756 -6.33738)
(196.156 5.52505 -0.647324)
(196.511 5.12885 -2.11608)
(196.486 4.67942 -3.63252)
(196.029 4.20575 -5.19388)
(195.082 3.73111 -6.73215)
(193.587 3.26323 -8.13767)
(191.5 2.80195 -9.25198)
(188.832 2.34173 -9.86682)
(185.692 1.88558 -9.67718)
(182.412 1.45756 -8.45731)
(199.397 5.6031 0.658793)
(200.057 5.20004 -1.02585)
(200.305 4.70934 -2.84109)
(200.065 4.16826 -4.76237)
(199.244 3.59422 -6.75148)
(197.723 2.99082 -8.71078)
(195.375 2.35544 -10.4735)
(192.109 1.68394 -11.7655)
(187.939 0.978045 -12.1122)
(183.227 0.265154 -11.0369)
(201.495 6.28895 1.76286)
(202.529 5.88471 -0.0796013)
(203.142 5.37343 -2.1047)
(203.234 4.78391 -4.34212)
(202.673 4.14077 -6.75386)
(201.274 3.44455 -9.27586)
(198.806 2.69657 -11.7406)
(195.034 1.89412 -13.8263)
(189.822 1.03504 -14.8786)
(183.508 0.150741 -14.1836)
(203.108 5.8286 3.38057)
(204.509 5.31702 1.40879)
(205.489 4.70352 -0.829422)
(205.943 4.01557 -3.38321)
(205.695 3.26999 -6.22013)
(204.506 2.45853 -9.31715)
(202.04 1.57904 -12.5259)
(197.896 0.625048 -15.514)
(191.728 -0.40985 -17.4599)
(183.778 -1.47541 -17.492)
(204.087 6.44126 4.16387)
(205.821 5.86409 2.15462)
(207.133 5.17734 -0.169184)
(207.924 4.41883 -2.89256)
(207.986 3.60957 -6.00472)
(207.038 2.74153 -9.52543)
(204.643 1.81078 -13.343)
(200.229 0.805476 -17.1493)
(193.195 -0.296916 -19.9854)
(183.631 -1.46585 -20.9075)
(204.949 5.56274 5.43267)
(206.947 4.83743 3.39491)
(208.524 4.0283 0.968025)
(209.592 3.17764 -1.90837)
(209.932 2.29481 -5.27491)
(209.228 1.37294 -9.18284)
(206.964 0.404985 -13.5773)
(202.406 -0.623509 -18.2148)
(194.658 -1.73725 -22.052)
(183.582 -2.9013 -24.1661)
(205.362 6.09804 5.48687)
(207.54 5.28768 3.54866)
(209.303 4.41465 1.20915)
(210.578 3.52809 -1.62166)
(211.15 2.64318 -5.0209)
(210.687 1.75848 -9.07805)
(208.615 0.872129 -13.8012)
(204.06 -0.0298203 -19.0499)
(195.817 -0.982585 -23.7782)
(183.412 -2.10951 -27.1601)
(205.708 4.37386 6.34756)
(207.964 3.39456 4.50455)
(209.815 2.42206 2.21556)
(211.206 1.48295 -0.569173)
(211.945 0.588411 -3.98824)
(211.708 -0.254667 -8.17676)
(209.897 -1.02285 -13.2385)
(205.518 -1.71434 -19.1413)
(197.021 -2.29678 -24.9454)
(183.357 -3.10621 -29.6457)
(205.135 4.67797 5.91227)
(207.419 3.56672 4.25353)
(209.339 2.5269 2.20239)
(210.802 1.53165 -0.36598)
(211.623 0.640065 -3.57036)
(211.479 -0.118642 -7.56163)
(209.816 -0.675854 -12.517)
(205.634 -0.968971 -18.5268)
(197.22 -0.914466 -25.1158)
(182.542 -0.834276 -30.5088)
(190.274 2.15176 -0.352444)
(190.334 1.82488 -1.10566)
(190.184 1.52392 -1.87961)
(189.824 1.26156 -2.63208)
(189.259 1.04359 -3.3118)
(188.505 0.870069 -3.8616)
(187.61 0.735654 -4.2104)
(186.703 0.610757 -4.31611)
(186.076 0.440728 -4.10091)
(186.015 0.138589 -3.53038)
(194.095 4.37412 -0.782449)
(194.309 4.13033 -1.80209)
(194.238 3.82778 -2.81706)
(193.855 3.48946 -3.82468)
(193.142 3.13841 -4.76493)
(192.086 2.78435 -5.55806)
(190.698 2.43229 -6.10037)
(189.03 2.08263 -6.2741)
(187.199 1.74342 -5.93269)
(185.438 1.43772 -5.0433)
(197.006 4.50723 0.233463)
(197.458 4.20984 -1.05347)
(197.567 3.8297 -2.41099)
(197.286 3.3996 -3.80462)
(196.563 2.93614 -5.18418)
(195.346 2.44598 -6.45206)
(193.604 1.93033 -7.47106)
(191.351 1.38997 -8.05563)
(188.702 0.832181 -7.94777)
(185.979 0.284477 -6.97258)
(199.046 5.27949 1.04818)
(199.803 4.96802 -0.441439)
(200.183 4.55394 -2.05063)
(200.109 4.06535 -3.77919)
(199.494 3.52561 -5.5708)
(198.234 2.93999 -7.33341)
(196.225 2.31313 -8.90123)
(193.41 1.64772 -10.02)
(189.853 0.949573 -10.2781)
(185.972 0.253977 -9.33081)
(200.704 4.86673 2.47299)
(201.78 4.44531 0.808851)
(202.455 3.92663 -1.05887)
(202.64 3.33851 -3.1368)
(202.207 2.69607 -5.37024)
(200.996 1.99755 -7.68371)
(198.822 1.24528 -9.89798)
(195.521 0.438539 -11.7082)
(191.056 -0.421101 -12.5285)
(185.911 -1.28187 -11.8578)
(201.776 5.54826 3.12838)
(203.154 5.06508 1.38569)
(204.114 4.47732 -0.607305)
(204.564 3.82089 -2.89779)
(204.337 3.11617 -5.43664)
(203.227 2.35959 -8.17889)
(200.959 1.55229 -10.9483)
(197.244 0.687803 -13.4136)
(191.892 -0.245953 -14.816)
(185.42 -1.21082 -14.5181)
(202.736 4.70048 4.35599)
(204.365 4.07554 2.54785)
(205.565 3.37132 0.414867)
(206.249 2.62525 -2.07713)
(206.226 1.85027 -4.91234)
(205.248 1.04159 -8.07415)
(202.958 0.197258 -11.412)
(198.933 -0.693213 -14.6)
(192.778 -1.64711 -16.7297)
(184.993 -2.61709 -17.0604)
(203.245 5.32569 4.40043)
(205.055 4.62414 2.6601)
(206.434 3.86114 0.581414)
(207.305 3.08114 -1.90711)
(207.468 2.30419 -4.8191)
(206.648 1.52973 -8.17468)
(204.418 0.757478 -11.8638)
(200.222 -0.0294207 -15.6036)
(193.423 -0.863266 -18.3874)
(184.418 -1.81083 -19.4129)
(203.666 3.64223 5.33368)
(205.566 2.77835 3.65485)
(207.039 1.91577 1.58598)
(208.021 1.08227 -0.90015)
(208.321 0.295239 -3.87272)
(207.658 -0.437231 -7.38981)
(205.564 -1.09541 -11.4253)
(201.363 -1.68839 -15.7715)
(194.132 -2.19917 -19.424)
(183.961 -2.85904 -21.2961)
(203.165 4.11916 4.89978)
(205.1 3.13251 3.3815)
(206.648 2.21369 1.52102)
(207.705 1.33816 -0.784326)
(208.086 0.567794 -3.5893)
(207.503 -0.0707194 -6.97162)
(205.495 -0.517226 -10.962)
(201.335 -0.727527 -15.42)
(193.966 -0.654755 -19.6449)
(182.829 -0.571624 -21.9049)
(189.696 1.55042 -0.31028)
(189.735 1.35668 -0.751934)
(189.643 1.17151 -1.2053)
(189.426 1.0062 -1.6342)
(189.093 0.863117 -2.00956)
(188.661 0.74278 -2.29894)
(188.168 0.643759 -2.45995)
(187.719 0.543161 -2.48796)
(187.588 0.395449 -2.33248)
(188.167 0.104011 -2.02465)
(192.768 3.40544 -0.785099)
(192.899 3.2757 -1.46109)
(192.831 3.08749 -2.10872)
(192.553 2.8585 -2.72849)
(192.063 2.6095 -3.27676)
(191.369 2.35064 -3.70269)
(190.495 2.08999 -3.94673)
(189.493 1.83205 -3.95002)
(188.443 1.58729 -3.64609)
(187.481 1.37337 -3.05696)
(195.217 3.52593 -0.00367272)
(195.521 3.3183 -0.943946)
(195.561 3.0363 -1.91491)
(195.309 2.70678 -2.88486)
(194.743 2.34468 -3.80773)
(193.849 1.95767 -4.60692)
(192.635 1.5496 -5.18708)
(191.149 1.12458 -5.43693)
(189.499 0.692414 -5.22772)
(187.899 0.276115 -4.5126)
(197.062 4.35256 0.543292)
(197.605 4.127 -0.612464)
(197.832 3.80662 -1.83653)
(197.691 3.41663 -3.11731)
(197.132 2.9789 -4.39686)
(196.106 2.50137 -5.58793)
(194.584 1.99085 -6.55884)
(192.585 1.45384 -7.13658)
(190.224 0.901177 -7.09095)
(187.816 0.364861 -6.27545)
(198.654 3.97062 1.76792)
(199.46 3.63603 0.41313)
(199.912 3.21166 -1.08733)
(199.938 2.72312 -2.71563)
(199.456 2.18459 -4.41024)
(198.373 1.59874 -6.08205)
(196.604 0.970693 -7.5701)
(194.116 0.304317 -8.64252)
(190.993 -0.392358 -8.93504)
(187.655 -1.0731 -8.19262)
(199.733 4.70564 2.27641)
(200.803 4.31487 0.814617)
(201.486 3.82625 -0.836219)
(201.702 3.27392 -2.69035)
(201.334 2.67594 -4.68591)
(200.244 2.03339 -6.74563)
(198.282 1.35027 -8.69089)
(195.338 0.624952 -10.2423)
(191.426 -0.145173 -10.8875)
(187.063 -0.923114 -10.2488)
(200.73 3.88427 3.43473)
(202.03 3.35923 1.87716)
(202.918 2.75952 0.058193)
(203.317 2.11992 -2.02648)
(203.078 1.45364 -4.3326)
(202.023 0.759431 -6.80174)
(199.934 0.0385723 -9.25634)
(196.604 -0.714842 -11.3893)
(191.933 -1.50876 -12.5417)
(186.509 -2.29314 -12.207)
(201.288 4.59749 3.44044)
(202.762 4.00588 1.92066)
(203.814 3.35389 0.125893)
(204.368 2.68363 -1.98972)
(204.26 2.01629 -4.39868)
(203.281 1.35359 -7.07242)
(201.145 0.696735 -9.85075)
(197.544 0.0293416 -12.4295)
(192.218 -0.676183 -14.0258)
(185.771 -1.44839 -14.0218)
(201.764 2.94763 4.4228)
(203.334 2.20168 2.93117)
(204.479 1.45139 1.10606)
(205.134 0.727304 -1.05168)
(205.127 0.0484513 -3.56159)
(204.237 -0.575322 -6.4197)
(202.132 -1.1277 -9.52521)
(198.402 -1.62276 -12.6113)
(192.585 -2.05171 -14.8579)
(185.157 -2.56559 -15.3717)
(201.31 3.59925 3.96681)
(202.921 2.74307 2.61489)
(204.14 1.94839 0.970125)
(204.865 1.1963 -1.04029)
(204.93 0.546492 -3.42432)
(204.096 0.02354 -6.19924)
(202.02 -0.323103 -9.30588)
(198.225 -0.464919 -12.4983)
(192.157 -0.383738 -15.1218)
(183.92 -0.299515 -15.8085)
(189.589 1.08288 -0.238633)
(189.619 0.970405 -0.487654)
(189.57 0.858208 -0.748293)
(189.448 0.756489 -0.989271)
(189.262 0.665009 -1.19696)
(189.025 0.584681 -1.35369)
(188.764 0.516511 -1.43158)
(188.562 0.441437 -1.44376)
(188.674 0.319497 -1.34359)
(189.579 0.0436873 -1.19419)
(191.987 2.62281 -0.72262)
(192.069 2.57121 -1.15366)
(192.02 2.46587 -1.54937)
(191.837 2.31997 -1.914)
(191.522 2.15133 -2.21949)
(191.088 1.96959 -2.43563)
(190.559 1.78375 -2.53022)
(189.97 1.60006 -2.47543)
(189.373 1.42965 -2.2421)
(188.839 1.28499 -1.85963)
(193.944 2.68114 -0.114406)
(194.147 2.54293 -0.7758)
(194.156 2.34129 -1.44533)
(193.959 2.09713 -2.09754)
(193.549 1.82295 -2.6966)
(192.929 1.5261 -3.18951)
(192.12 1.21157 -3.51633)
(191.167 0.88477 -3.61508)
(190.151 0.555377 -3.4231)
(189.196 0.241066 -2.93865)
(195.519 3.5297 0.202972)
(195.9 3.37744 -0.660411)
(196.032 3.14042 -1.55517)
(195.882 2.84031 -2.46838)
(195.425 2.49696 -3.34985)
(194.645 2.11947 -4.1304)
(193.547 1.71581 -4.71752)
(192.175 1.29442 -5.00328)
(190.632 0.86789 -4.86595)
(189.121 0.462505 -4.24912)
(196.961 3.16036 1.23742)
(197.553 2.90398 0.170815)
(197.847 2.56745 -0.993354)
(197.794 2.17277 -2.22676)
(197.343 1.73326 -3.47145)
(196.449 1.25427 -4.6464)
(195.087 0.742635 -5.62687)
(193.282 0.205152 -6.25365)
(191.142 -0.346846 -6.31488)
(188.963 -0.87546 -5.69169)
(197.978 3.93003 1.5953)
(198.792 3.62507 0.408136)
(199.265 3.23113 -0.91335)
(199.336 2.77887 -2.36342)
(198.927 2.28486 -3.87875)
(197.959 1.75331 -5.37699)
(196.363 1.18997 -6.70678)
(194.125 0.596946 -7.65914)
(191.337 -0.0218719 -7.91462)
(188.393 -0.63576 -7.26782)
(198.958 3.12914 2.6663)
(199.974 2.69912 1.36299)
(200.615 2.20005 -0.143438)
(200.816 1.66429 -1.83133)
(200.473 1.10348 -3.64881)
(199.47 0.520373 -5.51845)
(197.689 -0.081801 -7.27615)
(195.057 -0.704483 -8.67221)
(191.615 -1.34791 -9.27135)
(187.852 -1.96599 -8.75648)
(199.522 3.92432 2.61186)
(200.698 3.43925 1.32198)
(201.48 2.89567 -0.183284)
(201.801 2.33393 -1.92437)
(201.536 1.77389 -3.85301)
(200.541 1.22003 -5.91248)
(198.644 0.675074 -7.93825)
(195.703 0.125808 -9.66239)
(191.671 -0.450027 -10.5369)
(187.096 -1.06259 -10.1407)
(200.03 2.29892 3.6227)
(201.301 1.66885 2.3308)
(202.171 1.02956 0.760159)
(202.576 0.414241 -1.06135)
(202.38 -0.15956 -3.12336)
(201.418 -0.680438 -5.38052)
(199.477 -1.13477 -7.70249)
(196.342 -1.53698 -9.82739)
(191.842 -1.88081 -11.1619)
(186.494 -2.26574 -11.071)
(199.601 3.12736 3.12369)
(200.914 2.40218 1.95365)
(201.853 1.73082 0.538812)
(202.32 1.10084 -1.16318)
(202.177 0.566266 -3.13045)
(201.244 0.149439 -5.3373)
(199.287 -0.111495 -7.68147)
(196.03 -0.200554 -9.89463)
(191.244 -0.118579 -11.4618)
(185.264 -0.0395169 -11.4085)
(189.732 0.725963 -0.163427)
(189.757 0.660427 -0.298962)
(189.734 0.592076 -0.449148)
(189.67 0.53063 -0.584865)
(189.57 0.473736 -0.702443)
(189.444 0.422424 -0.792255)
(189.31 0.378952 -0.833337)
(189.236 0.326381 -0.847669)
(189.459 0.228455 -0.785718)
(190.53 -0.0313623 -0.728694)
(191.583 2.01275 -0.637383)
(191.635 2.01054 -0.903038)
(191.605 1.96161 -1.13433)
(191.493 1.8755 -1.33831)
(191.301 1.76717 -1.49886)
(191.041 1.64536 -1.5989)
(190.729 1.51887 -1.6216)
(190.389 1.39413 -1.55388)
(190.051 1.28164 -1.38302)
(189.751 1.18963 -1.1331)
(193.08 1.97936 -0.14637)
(193.215 1.89033 -0.597596)
(193.215 1.75016 -1.04689)
(193.075 1.57441 -1.47461)
(192.794 1.37276 -1.85543)
(192.382 1.15149 -2.15494)
(191.86 0.915534 -2.33745)
(191.262 0.670117 -2.37004)
(190.641 0.423263 -2.2225)
(190.067 0.187593 -1.90659)
(194.363 2.82306 -0.0142676)
(194.627 2.72873 -0.637587)
(194.703 2.56105 -1.26895)
(194.572 2.33813 -1.89803)
(194.225 2.0774 -2.48555)
(193.661 1.78804 -2.98156)
(192.897 1.47821 -3.32585)
(191.978 1.15683 -3.45513)
(190.981 0.836089 -3.30777)
(190.028 0.536385 -2.86449)
(195.608 2.44958 0.851031)
(196.034 2.25953 0.0364939)
(196.223 2.00036 -0.839441)
(196.139 1.69001 -1.74658)
(195.759 1.34059 -2.63558)
(195.063 0.958818 -3.44147)
(194.057 0.552265 -4.07592)
(192.783 0.129063 -4.43722)
(191.338 -0.298876 -4.40739)
(189.913 -0.702393 -3.93569)
(196.513 3.23386 1.0667)
(197.119 3.00453 0.132121)
(197.44 2.69662 -0.892036)
(197.431 2.3364 -1.99065)
(197.044 1.93922 -3.10551)
(196.241 1.51118 -4.16322)
(195.001 1.059 -5.04837)
(193.353 0.587114 -5.61707)
(191.401 0.10274 -5.68009)
(189.418 -0.371712 -5.13337)
(197.435 2.44719 2.04177)
(198.212 2.10371 0.981475)
(198.664 1.69837 -0.230847)
(198.741 1.25958 -1.55885)
(198.372 0.798066 -2.9504)
(197.492 0.319147 -4.32769)
(196.048 -0.172619 -5.55696)
(194.04 -0.675172 -6.45345)
(191.558 -1.18405 -6.74697)
(188.96 -1.6602 -6.25087)
(197.964 3.31518 1.91379)
(198.882 2.92929 0.850558)
(199.45 2.48802 -0.375036)
(199.611 2.02941 -1.76366)
(199.279 1.57078 -3.26084)
(198.36 1.1191 -4.79806)
(196.766 0.678352 -6.23067)
(194.455 0.239411 -7.34855)
(191.48 -0.214332 -7.79222)
(188.264 -0.68764 -7.30218)
(198.484 1.70356 2.93689)
(199.492 1.18316 1.84652)
(200.137 0.650002 0.528247)
(200.364 0.138756 -0.968462)
(200.07 -0.336317 -2.61962)
(199.145 -0.762777 -4.35775)
(197.465 -1.12942 -6.05387)
(194.941 -1.44881 -7.48331)
(191.56 -1.71352 -8.24603)
(187.761 -1.99245 -7.93522)
(198.062 2.71101 2.37688)
(199.109 2.11253 1.39403)
(199.815 1.55975 0.211945)
(200.09 1.04606 -1.18546)
(199.831 0.617672 -2.76103)
(198.91 0.294506 -4.46338)
(197.184 0.104042 -6.18016)
(194.515 0.052949 -7.66675)
(190.864 0.129567 -8.55915)
(186.593 0.19737 -8.20516)
(189.984 0.455358 -0.0945903)
(190.006 0.415698 -0.165633)
(189.996 0.372584 -0.255033)
(189.964 0.335835 -0.333511)
(189.912 0.301375 -0.403698)
(189.846 0.270183 -0.460156)
(189.779 0.245068 -0.485082)
(189.768 0.210327 -0.505491)
(190.036 0.132595 -0.467403)
(191.184 -0.113111 -0.464347)
(191.419 1.55237 -0.5529)
(191.454 1.57896 -0.711441)
(191.438 1.56636 -0.839388)
(191.373 1.52124 -0.945269)
(191.261 1.45614 -1.02119)
(191.109 1.37876 -1.05781)
(190.929 1.2972 -1.04661)
(190.736 1.21741 -0.981265)
(190.546 1.14893 -0.856144)
(190.376 1.09671 -0.688102)
(192.523 1.41315 -0.133215)
(192.612 1.35621 -0.433787)
(192.61 1.26051 -0.729661)
(192.517 1.13699 -1.006)
(192.334 0.992527 -1.24594)
(192.07 0.831987 -1.42787)
(191.742 0.659526 -1.53095)
(191.372 0.479368 -1.53794)
(190.994 0.297303 -1.43391)
(190.648 0.121646 -1.23315)
(193.529 2.23439 -0.143531)
(193.71 2.18282 -0.579463)
(193.754 2.06968 -1.0108)
(193.653 1.90992 -1.43089)
(193.403 1.71824 -1.81112)
(193.011 1.50315 -2.11732)
(192.496 1.27224 -2.31194)
(191.892 1.0339 -2.35917)
(191.252 0.798897 -2.22914)
(190.65 0.582778 -1.91683)
(194.558 1.84428 0.578889)
(194.86 1.70758 -0.0261219)
(194.979 1.51338 -0.667712)
(194.895 1.27567 -1.31857)
(194.596 1.00499 -1.93955)
(194.079 0.708325 -2.4822)
(193.361 0.393202 -2.88718)
(192.482 0.0678158 -3.09256)
(191.517 -0.256949 -3.03476)
(190.585 -0.559578 -2.69538)
(195.325 2.62427 0.669148)
(195.766 2.45846 -0.0444995)
(195.98 2.22529 -0.814117)
(195.935 1.94647 -1.62234)
(195.604 1.63588 -2.41961)
(194.971 1.30044 -3.14647)
(194.043 0.94727 -3.72039)
(192.86 0.581845 -4.04784)
(191.514 0.212482 -4.02113)
(190.182 -0.146253 -3.59175)
(196.162 1.84676 1.54732)
(196.742 1.57897 0.707936)
(197.054 1.25766 -0.241442)
(197.06 0.906547 -1.25947)
(196.716 0.535525 -2.29837)
(195.989 0.151189 -3.28953)
(194.865 -0.241177 -4.13191)
(193.377 -0.637255 -4.69739)
(191.619 -1.03059 -4.82686)
(189.837 -1.38933 -4.4144)
(196.623 2.77663 1.34009)
(197.324 2.4795 0.489755)
(197.727 2.13162 -0.477621)
(197.788 1.76715 -1.55239)
(197.449 1.40137 -2.68048)
(196.657 1.04232 -3.79483)
(195.377 0.69483 -4.77877)
(193.618 0.353309 -5.48006)
(191.469 0.00646039 -5.67306)
(189.229 -0.350562 -5.213)
(197.139 1.16704 2.36453)
(197.921 0.74668 1.46765)
(198.387 0.31172 0.388529)
(198.495 -0.103673 -0.810259)
(198.172 -0.488741 -2.10097)
(197.349 -0.830935 -3.40986)
(195.965 -1.12132 -4.62591)
(194.005 -1.37029 -5.57259)
(191.525 -1.56816 -5.99453)
(188.858 -1.76566 -5.64975)
(196.707 2.35582 1.72858)
(197.522 1.8757 0.928883)
(198.04 1.43328 -0.0282847)
(198.183 1.02643 -1.13934)
(197.878 0.692601 -2.36297)
(197.04 0.449232 -3.63635)
(195.595 0.314595 -4.85683)
(193.492 0.289185 -5.82305)
(190.783 0.356437 -6.29886)
(187.775 0.409986 -5.8626)
(190.264 0.248391 -0.0341035)
(190.282 0.222409 -0.0695758)
(190.28 0.19318 -0.126929)
(190.264 0.171069 -0.175275)
(190.237 0.150636 -0.221294)
(190.203 0.132775 -0.261665)
(190.171 0.120517 -0.279982)
(190.188 0.0990372 -0.306668)
(190.464 0.0376731 -0.282881)
(191.64 -0.1961 -0.312673)
(191.399 1.21562 -0.48039)
(191.422 1.25758 -0.571641)
(191.415 1.26715 -0.636412)
(191.379 1.24898 -0.683663)
(191.315 1.21361 -0.710792)
(191.229 1.16777 -0.712881)
(191.127 1.11871 -0.685773)
(191.018 1.07169 -0.626214)
(190.911 1.03547 -0.531723)
(190.815 1.01267 -0.412792)
(192.18 0.966528 -0.0971877)
(192.238 0.928741 -0.293947)
(192.238 0.86367 -0.486724)
(192.18 0.778349 -0.664327)
(192.065 0.677138 -0.815896)
(191.901 0.563412 -0.928135)
(191.699 0.44026 -0.9889)
(191.474 0.310587 -0.989015)
(191.245 0.177921 -0.920476)
(191.036 0.0470155 -0.796636)
(192.95 1.75696 -0.21291)
(193.072 1.73494 -0.508292)
(193.099 1.6627 -0.793577)
(193.027 1.55247 -1.06538)
(192.855 1.41623 -1.30421)
(192.592 1.26134 -1.48748)
(192.253 1.09438 -1.59237)
(191.862 0.922571 -1.59897)
(191.455 0.754945 -1.49334)
(191.075 0.603436 -1.27502)
(193.766 1.34369 0.393511)
(193.976 1.24789 -0.0444968)
(194.051 1.10604 -0.503268)
(193.98 0.928543 -0.960452)
(193.758 0.724144 -1.38672)
(193.389 0.499352 -1.74776)
(192.89 0.261005 -2.00507)
(192.296 0.0165365 -2.12197)
(191.659 -0.224973 -2.06469)
(191.051 -0.448039 -1.82934)
(194.386 2.10289 0.380162)
(194.701 1.98805 -0.148362)
(194.842 1.81722 -0.709429)
(194.786 1.60782 -1.28741)
(194.522 1.37186 -1.84278)
(194.046 1.11627 -2.33045)
(193.373 0.847909 -2.69385)
(192.544 0.572365 -2.87448)
(191.628 0.297662 -2.81257)
(190.738 0.0321839 -2.48871)
(195.124 1.3322 1.16582)
(195.549 1.12811 0.518676)
(195.761 0.879457 -0.205705)
(195.732 0.605084 -0.967642)
(195.438 0.313876 -1.72648)
(194.866 0.0126772 -2.42662)
(194.023 -0.293133 -2.99565)
(192.947 -0.598172 -3.34831)
(191.722 -0.895917 -3.39542)