/*--------------------------------*- C++ -*----------------------------------*\
| =========                 |                                                 |
| \\      /  F ield         | foam-extend: Open Source CFD                    |
|  \\    /   O peration     | Version:     4.0                                |
|   \\  /    A nd           | Web:         http://www.foam-extend.org         |
|    \\/     M anipulation  |                                                 |
\*---------------------------------------------------------------------------*/
FoamFile
{
    version     2.0;
    format      ascii;
    class       volScalarField;
    location    "2300";
    object      alphat;
}
// * * * * * * * * * * * * * * * * * * * * * * * * * * * * * * * * * * * * * //

dimensions      [1 -1 -1 0 0 0 0];

internalField   nonuniform List<scalar> 
34480
(
0.00188848
0.00188722
0.00188706
0.00188789
0.00189
0.00189391
0.00190144
0.00191971
0.00195897
0.00203021
0.0159265
0.0151185
0.014819
0.014549
0.0129267
0.00824383
0.00340684
0.00134829
0.000984823
0.00145487
0.0442686
0.0426106
0.0409232
0.0374787
0.0286699
0.0146812
0.00511829
0.00182848
0.00124085
0.00181177
0.048418
0.0462603
0.0443193
0.0402803
0.029708
0.0141606
0.00479321
0.00177549
0.00128735
0.00197761
0.0477411
0.0453212
0.0435563
0.0397154
0.0288494
0.0131892
0.00440848
0.00168451
0.00129889
0.00209659
0.0459921
0.0435076
0.041847
0.0380607
0.0268359
0.0116157
0.00385796
0.0015533
0.00130532
0.00222416
0.0438625
0.0415392
0.0400792
0.0364658
0.0252706
0.0105523
0.00349411
0.00146112
0.00131283
0.00233373
0.0364094
0.0347172
0.0336876
0.0309403
0.0214256
0.00863886
0.00281209
0.00123973
0.00123605
0.00234068
0.012429
0.0121092
0.0120061
0.0117294
0.00993109
0.0051255
0.00167724
0.000736719
0.000834292
0.00178636
0.00180095
0.00180087
0.00180253
0.0018058
0.00181059
0.0018167
0.00182474
0.00183598
0.00185254
0.00181384
0.00188851
0.00188665
0.00188605
0.00188657
0.00188843
0.00189187
0.00189738
0.00190684
0.00192454
0.00196536
0.0149586
0.0143236
0.0141316
0.0143148
0.0147257
0.0147744
0.0129473
0.00764434
0.00249479
0.00204502
0.0407434
0.0395151
0.0388487
0.0383108
0.0366974
0.0319863
0.023005
0.0112946
0.00328115
0.00280216
0.04482
0.0431507
0.0423469
0.0417738
0.039931
0.0344325
0.0242065
0.0114386
0.00330049
0.00316939
0.0446545
0.0426971
0.0419511
0.0415925
0.0401092
0.0348384
0.0244539
0.0112837
0.00323792
0.00345056
0.0434401
0.0413724
0.0406444
0.04042
0.0392054
0.0342105
0.0239581
0.0108491
0.00316551
0.00378153
0.0418357
0.0398507
0.0392132
0.0390729
0.0380963
0.033466
0.0235382
0.0105534
0.00312907
0.00409791
0.035144
0.0336712
0.0332022
0.0331844
0.0326756
0.0293604
0.0210947
0.00938447
0.00285442
0.00417048
0.0123672
0.0120601
0.0119989
0.0120568
0.0121869
0.0120296
0.0106114
0.00545475
0.00170678
0.00280087
0.00179638
0.00179392
0.00179342
0.00179461
0.00179741
0.00180152
0.00180769
0.00181752
0.0018418
0.00188911
0.00188401
0.0018824
0.00188187
0.00188233
0.00188392
0.00188669
0.00189068
0.00189667
0.00190561
0.00191914
0.014062
0.0136456
0.0135115
0.013662
0.0141007
0.0147409
0.0151432
0.0142156
0.0101115
0.00583661
0.0372114
0.0362436
0.035905
0.036051
0.0363678
0.035948
0.0330147
0.0253634
0.0133437
0.00709915
0.0410818
0.0397774
0.039347
0.0395726
0.0400694
0.0397171
0.0361972
0.0266178
0.0125401
0.00720392
0.0413108
0.0397946
0.0393785
0.039718
0.0405221
0.0406526
0.0373614
0.0266928
0.0114198
0.00717605
0.0405693
0.038961
0.0385249
0.0389285
0.0399572
0.0405762
0.0376974
0.026177
0.0103053
0.00724768
0.0394633
0.037896
0.0375028
0.0379108
0.0390424
0.0400211
0.037651
0.0255311
0.00938146
0.00733139
0.0336219
0.0324583
0.0321488
0.032466
0.0334071
0.0345684
0.0334144
0.0226409
0.00796961
0.00704263
0.0122603
0.0120049
0.0119607
0.0120212
0.012217
0.0124492
0.0126045
0.0106467
0.004489
0.00445642
0.00178906
0.00178616
0.00178528
0.00178618
0.00178887
0.00179322
0.00180025
0.00181208
0.00183882
0.00189233
0.00187582
0.00187469
0.00187431
0.00187466
0.00187582
0.00187769
0.00188002
0.0018831
0.00188705
0.00189172
0.0134713
0.0132235
0.0131327
0.0132285
0.0135196
0.0139754
0.0144497
0.0148652
0.014595
0.0128621
0.0340388
0.0333551
0.0331595
0.0333618
0.0339278
0.0346066
0.0346329
0.0324114
0.025687
0.0173826
0.0376442
0.0367025
0.036434
0.0367252
0.0375338
0.0385403
0.0385993
0.0352939
0.0257931
0.0167225
0.0381909
0.037098
0.0368294
0.037186
0.038199
0.0395797
0.0399747
0.0361449
0.0246344
0.015881
0.0378696
0.036693
0.0363911
0.036787
0.0379467
0.0396903
0.0405397
0.0363516
0.0231434
0.0153346
0.0372093
0.0360336
0.0357524
0.0361409
0.037344
0.0392837
0.0405172
0.036061
0.0215251
0.0148459
0.0322059
0.0313241
0.0310939
0.0313811
0.0322889
0.0339199
0.0354076
0.0319999
0.0185295
0.0137235
0.0121943
0.011984
0.0119515
0.0119978
0.0121467
0.0123369
0.0125439
0.0126727
0.0095888
0.00831938
0.00178015
0.00177711
0.0017761
0.00177691
0.00177962
0.00178428
0.00179188
0.00180459
0.00183074
0.00187809
0.00186474
0.00186405
0.00186382
0.00186406
0.00186481
0.00186592
0.00186711
0.00186854
0.00187012
0.00187158
0.0131889
0.0130518
0.0129918
0.0130514
0.0132309
0.0134914
0.0137225
0.0140114
0.0142928
0.0144153
0.0315054
0.0311044
0.0309979
0.0311229
0.0315064
0.0321207
0.0328081
0.0330907
0.0316398
0.0274614
0.0347721
0.0341696
0.0340003
0.0341959
0.0347916
0.0357766
0.0368779
0.0371097
0.0340962
0.0274699
0.0355146
0.0347908
0.0346143
0.0348551
0.0355988
0.036865
0.0383261
0.038583
0.0342336
0.0263051
0.0355128
0.0347019
0.0344867
0.0347628
0.0356234
0.0371638
0.039048
0.0394575
0.0338288
0.0253958
0.0352033
0.0343592
0.0341512
0.0344278
0.0353312
0.0370028
0.0391542
0.0396397
0.0328224
0.0244439
0.0309614
0.0303138
0.0301384
0.0303463
0.0310164
0.0323217
0.0341942
0.0350293
0.0289295
0.0222939
0.0121761
0.0120026
0.0119791
0.0120106
0.012112
0.0122297
0.0123005
0.0126959
0.0125742
0.0122114
0.00176981
0.00176675
0.00176568
0.00176643
0.0017691
0.00177385
0.00178149
0.00179387
0.00181658
0.00185321
0.0018513
0.00185095
0.00185084
0.00185098
0.00185142
0.00185199
0.00185251
0.0018531
0.00185367
0.00185407
0.0131469
0.0130806
0.0130432
0.0130821
0.0131939
0.0133325
0.0134243
0.0135395
0.0136594
0.0137514
0.0297468
0.0295534
0.0295058
0.0295657
0.0297591
0.0300878
0.0305433
0.0310947
0.0314185
0.0310578
0.0326049
0.032264
0.0321652
0.0322723
0.0326181
0.0332411
0.0341516
0.0351926
0.03548
0.033946
0.0333873
0.0329494
0.0328417
0.0329807
0.0334353
0.0342679
0.0355101
0.0369056
0.0369211
0.0340657
0.0335733
0.0330498
0.0329036
0.0330754
0.0336305
0.0346841
0.0363073
0.0381509
0.0378587
0.0338492
0.033498
0.0329223
0.0327755
0.0329543
0.0335603
0.0347312
0.0365765
0.0386896
0.0379499
0.0331016
0.0299085
0.0294532
0.0293257
0.0294662
0.0299199
0.0308154
0.0322743
0.0342162
0.0337666
0.0299545
0.0122091
0.0120668
0.0120517
0.0120717
0.0121352
0.0121878
0.0121402
0.0123351
0.0127466
0.0136381
0.00175789
0.00175492
0.00175385
0.00175454
0.0017571
0.0017617
0.00176895
0.00178022
0.00179869
0.00182517
0.00183589
0.00183577
0.00183574
0.00183582
0.00183605
0.00183627
0.00183646
0.00183666
0.00183683
0.00183688
0.0132691
0.0132503
0.0132298
0.0132563
0.0133255
0.0133889
0.0134286
0.0134711
0.013502
0.0134923
0.0286855
0.0286086
0.0285934
0.0286185
0.0287007
0.0288351
0.0290273
0.0292921
0.0295738
0.0297921
0.0311273
0.03095
0.0308957
0.0309484
0.0311266
0.0314514
0.0319521
0.0326489
0.033349
0.0337451
0.0318254
0.0315793
0.0315185
0.0315912
0.0318418
0.0323051
0.0330407
0.0340991
0.0350948
0.03539
0.0320803
0.0317604
0.0316659
0.0317654
0.0320961
0.0327279
0.033763
0.0353032
0.0366621
0.0367231
0.0321314
0.0317561
0.0316574
0.0317653
0.0321458
0.0328816
0.0341053
0.0359715
0.0374812
0.0371054
0.0290744
0.0287675
0.0286792
0.0287688
0.0290575
0.0296179
0.0305419
0.0321143
0.0335575
0.0335475
0.0123018
0.0121845
0.0121768
0.012188
0.0122224
0.0122208
0.0120996
0.0121029
0.0122897
0.0129848
0.00174424
0.00174147
0.00174044
0.00174107
0.00174345
0.0017477
0.00175424
0.00176397
0.00177838
0.00179694
0.00181875
0.00181877
0.00181879
0.00181883
0.00181893
0.00181897
0.00181901
0.00181904
0.00181905
0.00181898
0.0134976
0.0135133
0.0135065
0.0135249
0.0135651
0.0135904
0.0136096
0.0136262
0.013627
0.0135851
0.0281278
0.0281059
0.0281061
0.0281162
0.028147
0.0281921
0.028257
0.0283455
0.0284429
0.0285276
0.0302022
0.0301133
0.0300842
0.0301092
0.0301971
0.0303546
0.0305925
0.0309227
0.0312974
0.0316306
0.030757
0.0306258
0.0305937
0.0306294
0.0307598
0.0309968
0.0313678
0.0319151
0.0325574
0.0331294
0.031001
0.0308137
0.0307552
0.0308102
0.030998
0.031351
0.0319232
0.0328123
0.033883
0.0348217
0.0310981
0.0308624
0.030799
0.0308609
0.0310895
0.0315236
0.0322364
0.0333882
0.0347753
0.0359127
0.0284635
0.0282649
0.0282068
0.0282611
0.0284343
0.0287592
0.029274
0.0302065
0.031465
0.0327012
0.0124605
0.0123622
0.0123608
0.0123657
0.0123784
0.0123351
0.0121781
0.012071
0.0120508
0.0123133
0.00172873
0.00172626
0.00172531
0.00172587
0.001728
0.00173175
0.00173739
0.00174542
0.0017563
0.00176909
0.00179997
0.00180007
0.00180012
0.00180014
0.00180016
0.00180014
0.00180011
0.00180008
0.00180004
0.00179993
0.0137984
0.0138413
0.0138461
0.0138588
0.0138772
0.0138881
0.0138989
0.0139055
0.0138956
0.013843
0.0278879
0.02789
0.0278965
0.0279009
0.0279102
0.0279225
0.0279408
0.0279645
0.0279876
0.0280025
0.0296644
0.0296191
0.0296032
0.0296152
0.0296593
0.0297364
0.0298482
0.0299943
0.0301542
0.0302895
0.0300718
0.0300034
0.0299872
0.0300043
0.0300708
0.0301888
0.0303667
0.0306161
0.0309092
0.0311767
0.0302668
0.0301602
0.030125
0.0301547
0.0302588
0.0304499
0.0307493
0.0311959
0.0317554
0.0323087
0.0303621
0.0302178
0.0301784
0.0302126
0.0303465
0.0305944
0.030987
0.0316011
0.0323925
0.0331901
0.028062
0.0279381
0.0279021
0.0279332
0.0280306
0.0282037
0.0284625
0.0289334
0.0296368
0.0304952
0.0126899
0.0126057
0.0126095
0.01261
0.0126068
0.0125343
0.0123678
0.0122137
0.0120872
0.0121459
0.00171129
0.00170916
0.00170833
0.00170882
0.00171064
0.00171382
0.00171849
0.00172485
0.00173282
0.00174148
0.00177961
0.00177973
0.0017798
0.0017798
0.00177979
0.00177976
0.00177972
0.00177967
0.00177962
0.00177949
0.0141698
0.0142229
0.0142379
0.0142465
0.0142529
0.01426
0.0142668
0.0142687
0.0142539
0.0141959
0.027836
0.0278454
0.0278543
0.0278566
0.0278583
0.0278608
0.0278646
0.0278686
0.02787
0.0278658
0.0293732
0.0293488
0.0293396
0.0293458
0.029369
0.0294092
0.029465
0.0295332
0.0296031
0.0296558
0.0296579
0.0296218
0.0296136
0.0296219
0.0296564
0.0297163
0.0298029
0.0299162
0.0300421
0.030147
0.0297962
0.0297363
0.0297155
0.0297314
0.0297889
0.0298919
0.0300473
0.0302648
0.0305286
0.0307763
0.0298693
0.0297818
0.0297579
0.0297766
0.0298543
0.0299944
0.030208
0.0305222
0.0309163
0.0312925
0.0278426
0.0277678
0.0277469
0.0277637
0.0278139
0.0278948
0.0280107
0.0282228
0.0285514
0.0289688
0.0129946
0.01292
0.0129283
0.0129257
0.0129109
0.0128216
0.0126624
0.0125002
0.0123346
0.0123331
0.00169185
0.00169008
0.00168939
0.00168979
0.0016913
0.00169388
0.0016976
0.00170245
0.00170815
0.00171391
0.00175764
0.00175776
0.00175782
0.00175782
0.00175781
0.00175778
0.00175774
0.0017577
0.00175765
0.00175753
0.0146082
0.0146652
0.0146834
0.0146902
0.0146952
0.0147003
0.0147046
0.0147037
0.014686
0.0146238
0.0278886
0.0278994
0.0279076
0.0279098
0.0279103
0.0279102
0.0279102
0.0279092
0.0279053
0.0278965
0.0292279
0.0292136
0.029208
0.0292114
0.0292246
0.0292471
0.0292774
0.0293125
0.0293463
0.0293693
0.0294222
0.029402
0.0293975
0.0294018
0.0294207
0.029453
0.0294978
0.0295527
0.0296096
0.0296533
0.0295121
0.0294783
0.0294659
0.0294747
0.0295068
0.0295631
0.029645
0.0297527
0.0298771
0.0299887
0.0295605
0.0295069
0.0294923
0.0295028
0.0295486
0.0296286
0.0297464
0.0299091
0.030102
0.0302717
0.0277708
0.0277267
0.0277158
0.0277241
0.0277465
0.0277753
0.0278181
0.0279008
0.0280357
0.0282298
0.0133791
0.013311
0.0133233
0.0133186
0.0132946
0.013201
0.0130589
0.0129098
0.0127422
0.0127411
0.00167038
0.00166897
0.00166841
0.00166873
0.00166993
0.00167195
0.0016748
0.00167837
0.00168234
0.00168611
0.001734
0.00173412
0.00173417
0.00173417
0.00173416
0.00173414
0.0017341
0.00173407
0.00173403
0.00173391
0.0151183
0.015179
0.0151984
0.0152052
0.0152094
0.015213
0.0152156
0.0152128
0.0151929
0.0151268
0.027998
0.0280088
0.028016
0.0280182
0.0280186
0.0280182
0.0280175
0.0280156
0.0280107
0.0280011
0.0291632
0.0291543
0.0291507
0.0291528
0.0291607
0.0291739
0.0291914
0.029211
0.0292293
0.0292406
0.0292957
0.0292835
0.0292806
0.0292831
0.0292943
0.0293132
0.0293386
0.029368
0.0293966
0.0294176
0.0293507
0.0293312
0.0293238
0.0293288
0.0293473
0.0293788
0.0294231
0.0294783
0.0295393
0.0295935
0.0293807
0.0293469
0.0293379
0.0293442
0.0293719
0.0294191
0.0294863
0.029574
0.0296717
0.0297536
0.0278106
0.0277853
0.0277807
0.0277842
0.0277908
0.0277944
0.0278027
0.0278262
0.0278715
0.0279694
0.0138501
0.0137865
0.0138026
0.0137962
0.0137641
0.0136785
0.0135587
0.0134326
0.013281
0.0133028
0.00164684
0.00164576
0.00164533
0.00164558
0.00164649
0.00164801
0.00165012
0.00165267
0.00165536
0.00165779
0.00170862
0.00170872
0.00170877
0.00170877
0.00170876
0.00170874
0.00170872
0.00170869
0.00170866
0.00170855
0.0157116
0.015776
0.0157965
0.0158032
0.0158068
0.0158095
0.0158107
0.0158067
0.0157851
0.015715
0.028138
0.0281483
0.0281546
0.0281568
0.0281572
0.028157
0.0281564
0.0281547
0.0281501
0.0281403
0.0291401
0.0291346
0.0291323
0.0291336
0.0291383
0.0291461
0.0291564
0.0291678
0.0291784
0.0291845
0.0292323
0.0292242
0.0292219
0.0292236
0.0292308
0.0292428
0.0292585
0.0292761
0.0292923
0.0293041
0.0292647
0.0292531
0.0292485
0.0292515
0.0292624
0.0292806
0.0293054
0.0293349
0.0293661
0.029395
0.0292847
0.0292626
0.0292568
0.029261
0.0292785
0.0293077
0.0293479
0.0293979
0.0294506
0.0294951
0.0279303
0.0279155
0.0279146
0.0279156
0.0279138
0.0279083
0.0279029
0.0279023
0.0279099
0.0279679
0.0144185
0.0143575
0.014378
0.01437
0.0143326
0.0142651
0.0141692
0.014069
0.0139402
0.0139909
0.00162123
0.00162044
0.00162013
0.00162031
0.00162097
0.00162208
0.00162359
0.00162534
0.00162712
0.00162867
0.0016814
0.0016815
0.00168154
0.00168154
0.00168154
0.00168152
0.00168151
0.00168149
0.00168146
0.00168135
0.0164059
0.0164744
0.0164958
0.0165024
0.0165057
0.0165075
0.0165079
0.016503
0.0164801
0.0164058
0.0282944
0.0283041
0.0283096
0.0283116
0.0283122
0.0283122
0.0283119
0.0283105
0.0283065
0.028297
0.0291369
0.0291336
0.0291323
0.029133
0.0291357
0.0291402
0.029146
0.0291526
0.0291589
0.0291624
0.0292027
0.0291971
0.0291952
0.0291963
0.0292012
0.0292093
0.0292198
0.0292311
0.0292414
0.0292488
0.0292216
0.0292144
0.0292116
0.0292134
0.0292199
0.0292307
0.029245
0.0292614
0.0292783
0.0292949
0.029239
0.0292239
0.0292201
0.0292231
0.0292346
0.0292536
0.0292789
0.0293092
0.0293398
0.0293676
0.0281046
0.028093
0.0280943
0.0280939
0.0280897
0.0280829
0.0280741
0.0280659
0.0280598
0.0281011
0.0151139
0.0150441
0.0150667
0.0150569
0.0150279
0.0149777
0.0149052
0.0148299
0.0147248
0.0148031
0.00159355
0.00159299
0.00159277
0.0015929
0.00159337
0.00159415
0.00159518
0.00159635
0.0015975
0.00159847
0.00165229
0.00165238
0.00165241
0.00165241
0.00165241
0.0016524
0.00165238
0.00165237
0.00165235
0.00165225
0.0172272
0.0173002
0.0173223
0.0173287
0.0173318
0.0173331
0.0173329
0.0173274
0.0173036
0.0172246
0.0284591
0.0284681
0.0284728
0.0284745
0.0284752
0.0284754
0.0284754
0.0284745
0.0284712
0.0284621
0.0291421
0.0291403
0.0291397
0.02914
0.0291414
0.0291437
0.0291468
0.0291504
0.029154
0.0291562
0.0291902
0.0291861
0.0291845
0.0291852
0.0291886
0.0291942
0.0292014
0.0292091
0.0292159
0.029221
0.029201
0.0291965
0.0291946
0.0291957
0.0291997
0.0292062
0.0292147
0.0292241
0.0292337
0.0292438
0.0292203
0.0292097
0.0292071
0.0292093
0.0292173
0.02923
0.0292465
0.0292659
0.0292848
0.0293044
0.0283107
0.0282999
0.0283009
0.0283006
0.0282975
0.0282921
0.0282842
0.0282757
0.0282663
0.0283001
0.0159626
0.0158854
0.0159022
0.015896
0.0158765
0.0158422
0.0157915
0.015738
0.0156548
0.015756
0.00156381
0.00156342
0.00156327
0.00156336
0.00156368
0.0015642
0.00156489
0.00156564
0.00156636
0.00156695
0.00162123
0.00162131
0.00162133
0.00162133
0.00162133
0.00162133
0.00162132
0.0016213
0.00162128
0.00162119
0.0182124
0.0182906
0.0183128
0.0183189
0.0183221
0.0183229
0.0183223
0.0183168
0.0182925
0.0182084
0.0286262
0.0286343
0.0286381
0.0286395
0.0286402
0.0286406
0.0286409
0.0286404
0.028638
0.0286298
0.0291499
0.029149
0.0291488
0.029149
0.0291495
0.0291505
0.0291518
0.0291536
0.0291556
0.0291572
0.0291849
0.0291819
0.0291806
0.029181
0.0291833
0.0291871
0.029192
0.0291973
0.029202
0.0292056
0.0291909
0.0291879
0.0291866
0.0291872
0.0291897
0.0291937
0.0291988
0.0292043
0.0292099
0.0292163
0.0292135
0.0292059
0.0292041
0.0292058
0.0292114
0.02922
0.029231
0.0292436
0.0292558
0.0292706
0.0285298
0.0285194
0.0285201
0.0285201
0.0285183
0.028515
0.0285098
0.0285034
0.0284948
0.0285241
0.0170031
0.0169202
0.0169311
0.0169281
0.0169173
0.0168973
0.0168663
0.0168311
0.0167676
0.0168853
0.001532
0.00153175
0.00153165
0.00153171
0.00153192
0.00153225
0.00153269
0.00153316
0.00153359
0.00153395
0.00158828
0.00158835
0.00158837
0.00158837
0.00158837
0.00158837
0.00158836
0.00158835
0.00158833
0.00158824
0.0194157
0.0194996
0.019522
0.0195277
0.0195303
0.0195307
0.01953
0.0195247
0.0195007
0.019411
0.0287895
0.0287965
0.0287993
0.0288003
0.0288009
0.0288014
0.0288019
0.0288019
0.0288005
0.0287938
0.0291572
0.0291569
0.0291569
0.0291569
0.0291571
0.0291573
0.0291576
0.0291583
0.0291593
0.0291607
0.0291816
0.0291795
0.0291784
0.0291786
0.0291801
0.0291826
0.0291858
0.0291893
0.0291926
0.0291951
0.0291844
0.0291824
0.0291815
0.0291818
0.0291833
0.0291857
0.0291887
0.029192
0.0291953
0.0291993
0.0292087
0.0292035
0.0292022
0.0292035
0.0292072
0.0292129
0.02922
0.0292281
0.0292359
0.0292472
0.028744
0.0287345
0.0287349
0.0287351
0.0287345
0.0287332
0.0287305
0.0287268
0.0287203
0.0287455
0.0182921
0.0182063
0.0182109
0.0182108
0.0182076
0.0182006
0.018188
0.0181679
0.0181228
0.0182486
0.00149824
0.00149808
0.00149801
0.00149805
0.00149818
0.00149839
0.00149866
0.00149893
0.0014992
0.0014994
0.00155368
0.00155373
0.00155375
0.00155375
0.00155375
0.00155375
0.00155374
0.00155373
0.0015537
0.00155363
0.0209196
0.021009
0.0210315
0.0210366
0.0210376
0.0210377
0.021037
0.0210323
0.0210097
0.0209145
0.0289405
0.0289457
0.0289474
0.0289479
0.0289483
0.0289489
0.0289496
0.0289501
0.0289498
0.0289454
0.0291622
0.0291621
0.0291622
0.0291622
0.0291622
0.0291621
0.029162
0.0291621
0.0291625
0.0291638
0.0291778
0.0291763
0.0291754
0.0291755
0.0291763
0.0291779
0.0291799
0.0291821
0.0291843
0.0291862
0.0291785
0.0291771
0.0291765
0.0291766
0.0291774
0.0291788
0.0291805
0.0291823
0.0291842
0.0291867
0.0291998
0.0291964
0.0291955
0.0291963
0.0291987
0.0292022
0.0292065
0.0292113
0.029216
0.0292242
0.0289341
0.0289261
0.0289262
0.0289265
0.0289266
0.0289264
0.0289255
0.028924
0.0289197
0.0289404
0.0199132
0.0198278
0.0198253
0.0198273
0.0198313
0.0198368
0.0198423
0.0198355
0.0198102
0.0199326
0.0014627
0.0014626
0.00146256
0.00146258
0.00146266
0.00146279
0.00146295
0.00146311
0.00146328
0.00146339
0.00151761
0.00151765
0.00151765
0.00151765
0.00151765
0.00151765
0.00151764
0.00151764
0.00151763
0.00151758
0.0228572
0.0229491
0.0229688
0.0229729
0.0229737
0.0229736
0.0229727
0.0229687
0.0229488
0.0228508
0.029067
0.0290696
0.02907
0.02907
0.0290702
0.0290707
0.0290716
0.0290726
0.0290733
0.0290721
0.0291641
0.0291641
0.0291642
0.0291642
0.0291642
0.0291641
0.0291639
0.0291638
0.0291639
0.0291649
0.0291732
0.0291721
0.0291716
0.0291715
0.029172
0.0291729
0.0291741
0.0291754
0.0291768
0.0291782
0.0291727
0.0291718
0.0291714
0.0291715
0.0291719
0.0291726
0.0291735
0.0291745
0.0291755
0.0291768
0.0291851
0.0291831
0.0291826
0.029183
0.0291843
0.0291863
0.0291886
0.0291911
0.0291937
0.0291988
0.0290788
0.0290727
0.0290727
0.0290729
0.0290731
0.0290733
0.029073
0.0290726
0.0290706
0.0290861
0.0220127
0.0219343
0.0219323
0.021934
0.0219371
0.0219413
0.0219455
0.0219485
0.0219494
0.0220525
0.00142552
0.00142545
0.00142542
0.00142544
0.00142549
0.00142557
0.00142567
0.00142577
0.00142588
0.00142594
0.00147921
0.00147921
0.00147919
0.00147918
0.00147918
0.00147918
0.00147919
0.00147921
0.00147923
0.00147925
0.0254656
0.025546
0.0255598
0.0255627
0.0255633
0.025563
0.0255619
0.0255586
0.0255439
0.0254556
0.0291554
0.0291552
0.0291545
0.029154
0.029154
0.0291545
0.0291553
0.0291566
0.0291582
0.02916
0.029164
0.029164
0.029164
0.029164
0.029164
0.029164
0.029164
0.029164
0.029164
0.0291643
0.0291696
0.0291689
0.0291686
0.0291686
0.0291688
0.0291693
0.02917
0.0291708
0.0291716
0.0291725
0.029169
0.0291685
0.0291682
0.0291683
0.0291685
0.029169
0.0291696
0.0291701
0.0291707
0.0291713
0.0291712
0.0291702
0.0291699
0.0291701
0.0291708
0.0291719
0.0291731
0.0291744
0.0291757
0.029178
0.0291663
0.0291626
0.0291622
0.0291621
0.0291621
0.029162
0.029162
0.0291621
0.0291622
0.029172
0.0249071
0.0248484
0.0248473
0.0248484
0.0248505
0.0248532
0.024856
0.0248578
0.0248582
0.0249351
0.00138593
0.00138588
0.00138586
0.00138587
0.00138591
0.00138597
0.00138604
0.00138612
0.0013862
0.00138625
0.0023442
0.00236507
0.00235485
0.00232093
0.00141082
0.00143385
0.0014312
0.00142636
0.0018874
0.00192949
0.00192035
0.00189567
0.00227436
0.00233254
0.00231301
0.00226678
0.00262184
0.00269299
0.00266099
0.00259651
0.00296331
0.00304563
0.00300538
0.00293188
0.00324544
0.00333592
0.00329359
0.00322028
0.00341321
0.00351004
0.00346998
0.00340135
0.003045
0.00313455
0.00309569
0.00303999
0.00237485
0.0023915
0.00235661
0.00227535
0.00202755
0.00203326
0.00203438
0.00203136
0.00235361
0.00243395
0.00233395
0.0021421
0.0033082
0.00342273
0.00329228
0.00305442
0.00407178
0.00424025
0.00408161
0.00378367
0.00485362
0.00508962
0.00489508
0.00451941
0.00582853
0.00615463
0.00591315
0.00542859
0.0067949
0.00720874
0.00690719
0.00630938
0.00749291
0.00799116
0.00763306
0.00693827
0.00591729
0.00635417
0.00600131
0.0054047
0.00218168
0.00221403
0.00220716
0.00217138
0.0019332
0.00193526
0.00193541
0.00193415
0.00406627
0.00404183
0.00405222
0.00414326
0.00499138
0.00497278
0.00499292
0.0050972
0.00549614
0.00551585
0.00553571
0.00558551
0.00601105
0.00606517
0.0060685
0.00602694
0.00675406
0.00685088
0.00681132
0.00663352
0.00751219
0.00763575
0.00752225
0.00718448
0.00805063
0.0082113
0.0080241
0.00752539
0.00612454
0.00626445
0.00608854
0.00560757
0.00204803
0.00206514
0.00206322
0.00204546
0.00189446
0.00189469
0.00189481
0.00189485
0.0102405
0.00996196
0.0100979
0.0106126
0.0119476
0.0116136
0.0119165
0.0128099
0.0114407
0.0112596
0.0116318
0.0125267
0.0110902
0.0110291
0.0114261
0.0122564
0.0112082
0.0112508
0.0116413
0.0123682
0.0114044
0.0115063
0.011845
0.0124236
0.0113546
0.011532
0.0118023
0.0121732
0.00801814
0.00820289
0.0083261
0.00836723
0.00195679
0.00196724
0.00196822
0.00196022
0.00187253
0.00187257
0.0018726
0.00187262
0.0144911
0.0144312
0.0144593
0.0145687
0.0238417
0.0235182
0.023706
0.0243331
0.0222459
0.0219539
0.0223065
0.0232333
0.0203813
0.0202018
0.0206817
0.0217892
0.0193311
0.0193009
0.0198719
0.0210702
0.0185183
0.0185934
0.0191864
0.0203778
0.017331
0.0175433
0.0180985
0.0191106
0.0108801
0.0111154
0.0113569
0.0116702
0.00189355
0.00190004
0.0019015
0.0018981
0.00185449
0.00185446
0.00185445
0.00185445
0.0140868
0.0140132
0.0140037
0.0140587
0.0304039
0.0302972
0.0303233
0.0304704
0.0317978
0.0315592
0.0316498
0.0320267
0.0304325
0.0301454
0.0303659
0.0310246
0.0290255
0.0288077
0.0291969
0.0301264
0.0274494
0.0273219
0.0278367
0.0289648
0.0247751
0.0248404
0.0253977
0.0264744
0.0131736
0.013406
0.0135816
0.0137421
0.00184562
0.00184955
0.00185082
0.00184947
0.00183718
0.00183714
0.00183712
0.00183711
0.0137853
0.0136946
0.0136769
0.0137313
0.0299159
0.029919
0.0299334
0.0299592
0.0336754
0.033679
0.0337116
0.0337706
0.034825
0.034779
0.0348401
0.0349964
0.0353465
0.0352619
0.0353983
0.0357256
0.0347084
0.0345952
0.0348275
0.0353616
0.0310991
0.031131
0.031443
0.0320077
0.013316
0.0135934
0.0136545
0.0135467
0.00180729
0.00180968
0.00181062
0.00181011
0.00181925
0.0018192
0.00181917
0.00181916
0.0138649
0.0137678
0.0137476
0.0138032
0.0286249
0.0286183
0.0286212
0.0286342
0.031759
0.0317853
0.0318028
0.0318117
0.0333167
0.0333622
0.0333952
0.0334169
0.0350526
0.0351259
0.0351873
0.0352386
0.0359192
0.0359839
0.0360698
0.0361779
0.0326215
0.0327799
0.0329064
0.0330045
0.0123924
0.012649
0.0126893
0.0125504
0.00177445
0.00177597
0.00177661
0.00177637
0.00180019
0.00180014
0.0018001
0.0018001
0.0141242
0.0140238
0.0140027
0.0140595
0.0280675
0.0280548
0.0280534
0.0280637
0.0303408
0.0303489
0.0303541
0.0303564
0.03128
0.0313015
0.0313143
0.0313191
0.0325575
0.0326146
0.032646
0.0326533
0.0334933
0.0335721
0.0336157
0.0336288
0.0307735
0.0309414
0.0310098
0.0309863
0.0119573
0.012182
0.0122236
0.0121017
0.00174437
0.0017454
0.0017458
0.00174562
0.00177976
0.0017797
0.00177967
0.00177966
0.0144824
0.0143791
0.0143573
0.0144154
0.0279205
0.027907
0.0279048
0.0279141
0.0296735
0.0296746
0.0296756
0.0296765
0.0301784
0.0301838
0.0301871
0.0301886
0.0308809
0.0309038
0.0309161
0.030918
0.0314139
0.031447
0.031465
0.0314692
0.029041
0.0291513
0.0291911
0.029162
0.0120323
0.0122517
0.0122932
0.0121707
0.00171551
0.00171625
0.00171651
0.00171633
0.0017578
0.00175773
0.0017577
0.0017577
0.0149176
0.0148111
0.0147885
0.0148481
0.0279467
0.0279338
0.0279315
0.0279401
0.029377
0.0293766
0.0293767
0.0293773
0.0296625
0.0296634
0.0296641
0.0296645
0.0300316
0.0300407
0.0300454
0.0300457
0.0302997
0.0303104
0.0303167
0.0303187
0.028184
0.0282589
0.0282833
0.0282567
0.0123975
0.0126282
0.0126709
0.012539
0.001687
0.00168758
0.00168774
0.00168755
0.0017342
0.00173412
0.00173408
0.00173409
0.0154295
0.0153193
0.0152957
0.0153572
0.0280475
0.0280352
0.028033
0.028041
0.029245
0.0292443
0.0292443
0.0292448
0.029421
0.029421
0.0294211
0.0294212
0.0296149
0.0296193
0.0296214
0.0296212
0.029754
0.0297577
0.02976
0.0297608
0.0278874
0.0279464
0.0279639
0.0279391
0.0129389
0.0131886
0.0132341
0.0130901
0.00165828
0.00165876
0.00165886
0.00165866
0.00170884
0.00170876
0.00170872
0.00170873
0.0160283
0.0159137
0.015889
0.0159526
0.0281828
0.0281713
0.028169
0.0281764
0.0291874
0.0291867
0.0291867
0.0291872
0.0293059
0.0293058
0.0293058
0.0293058
0.0294078
0.0294105
0.0294117
0.0294114
0.0294901
0.0294921
0.0294931
0.0294933
0.0278809
0.0279317
0.027946
0.0279231
0.0136126
0.0138853
0.0139345
0.0137769
0.00162892
0.00162933
0.0016294
0.0016292
0.00168166
0.00168157
0.00168153
0.00168155
0.0167317
0.0166117
0.0165856
0.0166517
0.0283351
0.0283244
0.0283222
0.0283289
0.0291644
0.0291638
0.0291638
0.0291643
0.02925
0.0292499
0.0292499
0.0292499
0.0293036
0.0293054
0.0293061
0.0293059
0.0293636
0.0293653
0.029366
0.0293658
0.0280199
0.0280652
0.0280776
0.0280567
0.0144105
0.014709
0.0147626
0.01459
0.00159858
0.00159894
0.00159898
0.00159879
0.00165257
0.00165247
0.00165243
0.00165245
0.0175656
0.0174389
0.0174111
0.0174802
0.0284956
0.0284857
0.0284836
0.0284895
0.0291577
0.0291572
0.0291572
0.0291577
0.0292218
0.0292218
0.0292218
0.0292217
0.02925
0.0292513
0.0292517
0.0292515
0.029303
0.0293047
0.0293053
0.0293049
0.028229
0.0282697
0.0282806
0.0282614
0.0153472
0.0156745
0.0157328
0.0155435
0.00156698
0.0015673
0.00156733
0.00156714
0.00162152
0.00162142
0.00162138
0.00162141
0.0185672
0.0184322
0.018402
0.0184749
0.0286581
0.0286492
0.0286472
0.0286524
0.0291583
0.029158
0.029158
0.0291584
0.0292063
0.0292063
0.0292063
0.0292062
0.0292208
0.0292217
0.029222
0.0292218
0.0292716
0.0292734
0.0292739
0.0292733
0.028466
0.0285024
0.0285118
0.0284943
0.0164563
0.0168156
0.0168787
0.0166706
0.00153394
0.00153422
0.00153424
0.00153406
0.0015886
0.00158848
0.00158844
0.00158847
0.019791
0.019645
0.0196117
0.0196892
0.0288164
0.0288086
0.0288068
0.0288113
0.0291616
0.0291614
0.0291614
0.0291617
0.0291958
0.0291959
0.0291959
0.0291959
0.0292026
0.0292033
0.0292035
0.0292032
0.02925
0.0292517
0.0292522
0.0292515
0.028703
0.028735
0.0287428
0.0287267
0.0177922
0.0181856
0.018253
0.0180247
0.00149936
0.00149961
0.00149962
0.00149947
0.00155401
0.00155388
0.00155384
0.00155389
0.0213175
0.0211559
0.0211182
0.0212023
0.0289637
0.0289577
0.0289562
0.0289596
0.0291644
0.0291644
0.0291644
0.0291645
0.029187
0.0291871
0.0291872
0.0291872
0.029189
0.0291894
0.0291895
0.0291893
0.0292278
0.0292292
0.0292296
0.0292289
0.0289152
0.0289426
0.0289486
0.0289339
0.0194342
0.0198575
0.0199276
0.0196813
0.00146336
0.00146356
0.00146357
0.00146345
0.00151799
0.00151787
0.00151784
0.00151789
0.023272
0.0230878
0.0230444
0.0231382
0.0290872
0.0290834
0.0290824
0.0290846
0.0291652
0.0291652
0.0291652
0.0291652
0.029179
0.0291791
0.0291792
0.0291793
0.0291781
0.0291784
0.0291784
0.0291783
0.029202
0.029203
0.0292033
0.0292027
0.0290776
0.0290992
0.0291033
0.0290907
0.0215229
0.0219755
0.0220425
0.0217747
0.00142604
0.0014262
0.00142621
0.00142611
0.00147971
0.00147961
0.0014796
0.00147966
0.0258483
0.0256395
0.0255938
0.025701
0.0291702
0.0291686
0.0291681
0.0291691
0.029164
0.0291639
0.0291639
0.0291638
0.0291731
0.0291733
0.0291733
0.0291734
0.0291718
0.0291719
0.0291719
0.0291719
0.0291795
0.0291799
0.02918
0.0291798
0.0291741
0.0291864
0.0291883
0.0291806
0.0244723
0.0248973
0.0249469
0.0246872
0.00138662
0.00138675
0.00138675
0.00138666
0.00215548
0.00203893
0.00197451
0.00194197
0.00192284
0.00191046
0.00190228
0.00189709
0.00189376
0.00189147
0.00174745
0.00158317
0.00476549
0.00942406
0.0139348
0.0171227
0.0186335
0.0187847
0.0181533
0.0172131
0.00236377
0.00257412
0.00732495
0.0155533
0.0249586
0.0330803
0.0390654
0.0428685
0.0447449
0.0451314
0.00276856
0.00359674
0.0082886
0.017841
0.0291687
0.0385212
0.0449961
0.0487264
0.0501637
0.049955
0.00307712
0.00394183
0.00871608
0.0193457
0.0320853
0.0419669
0.0481513
0.0510046
0.0513203
0.0501085
0.00338883
0.00407082
0.00893765
0.0204179
0.0342685
0.0443137
0.049892
0.0516827
0.0509079
0.0488684
0.00363091
0.00408392
0.00896756
0.0211697
0.0358998
0.0457605
0.0504402
0.0510705
0.0493453
0.0468131
0.0037098
0.00381797