/*--------------------------------*- C++ -*----------------------------------*\
| =========                 |                                                 |
| \\      /  F ield         | foam-extend: Open Source CFD                    |
|  \\    /   O peration     | Version:     4.0                                |
|   \\  /    A nd           | Web:         http://www.foam-extend.org         |
|    \\/     M anipulation  |                                                 |
\*---------------------------------------------------------------------------*/
FoamFile
{
    version     2.0;
    format      ascii;
    class       volScalarField;
    location    "2300";
    object      divFlux;
}
// * * * * * * * * * * * * * * * * * * * * * * * * * * * * * * * * * * * * * //

dimensions      [1 -3 -1 0 0 0 0];

internalField   nonuniform List<scalar> 
34480
(
2.30734e-05
9.82339e-06
9.82606e-06
9.16226e-06
8.61055e-06
8.17015e-06
7.82216e-06
0.000367275
0.00240449
7.01516e-06
8.66712e-06
4.32076e-06
4.28851e-06
4.05048e-06
3.84808e-06
3.76543e-06
3.77454e-06
3.78502e-06
0.00226412
3.64412e-06
2.22336e-06
1.74837e-06
1.40752e-06
1.45362e-06
1.42402e-06
1.47589e-06
1.55813e-06
1.61197e-06
0.0029859
1.58489e-06
7.78623e-07
7.54911e-07
5.46242e-07
6.02066e-07
5.84158e-07
6.19515e-07
6.57354e-07
6.79997e-07
0.000795451
6.71749e-07
3.06531e-07
3.587e-07
2.22355e-07
2.65948e-07
2.5109e-07
2.69352e-07
2.83229e-07
2.93374e-07
2.96516e-07
2.89578e-07
2.6064e-07
6.98744e-08
1.47309e-07
1.05957e-07
1.16725e-07
1.21593e-07
1.2818e-07
1.307e-07
1.33678e-07
1.30241e-07
1.06345e-07
4.56666e-08
7.01035e-08
4.63793e-08
5.62559e-08
5.67141e-08
5.9616e-08
6.05324e-08
6.25179e-08
6.05833e-08
5.98515e-08
4.12374e-09
4.00461e-08
2.38719e-08
2.89578e-08
2.78123e-08
2.92327e-08
3.01491e-08
3.07448e-08
3.05615e-08
4.62358e-09
3.59057e-08
1.50371e-08
1.52037e-08
1.78695e-08
1.52037e-08
1.67449e-08
1.69115e-08
1.79112e-08
1.7453e-08
7.04376e-08
2.36351e-08
3.39063e-08
3.81828e-09
1.40131e-08
1.09203e-08
1.13403e-08
1.17603e-08
1.15694e-08
1.21803e-08
3.54853e-05
1.26403e-05
1.2749e-05
1.20876e-05
1.14757e-05
1.10022e-05
1.06852e-05
1.05112e-05
1.04774e-05
0.000845954
1.24943e-05
6.6283e-06
6.33689e-06
6.0497e-06
5.81611e-06
5.72049e-06
5.7354e-06
5.84423e-06
6.02291e-06
0.00315031
2.51597e-07
3.38164e-06
2.43232e-06
2.45119e-06
2.44041e-06
2.52905e-06
2.65645e-06
2.80541e-06
2.95564e-06
0.00419926
1.20228e-06
1.80025e-06
1.04685e-06
1.1544e-06
1.13389e-06
1.19423e-06
1.26575e-06
1.34129e-06
1.417e-06
0.00152195
2.31494e-06
1.12287e-06
4.65809e-07
5.65421e-07
5.45463e-07
5.74488e-07
6.11303e-07
6.47144e-07
6.85236e-07
7.02669e-07
3.15875e-07
2.20963e-08
4.53426e-07
2.13562e-07
2.86773e-07
2.84909e-07
3.02586e-07
3.21488e-07
3.39005e-07
3.46256e-07
4.71705e-07
1.31998e-07
4.04324e-07
1.99724e-08
1.75114e-07
1.43262e-07
1.5358e-07
1.64986e-07
1.74499e-07
1.77007e-07
1.97324e-06
5.23709e-07
3.60356e-07
3.99543e-08
1.17393e-07
7.36046e-08
8.46368e-08
9.19206e-08
9.72876e-08
9.87518e-08
1.03881e-06
2.4895e-07
1.13303e-07
6.27312e-09
8.00791e-08
4.70871e-08
5.52964e-08
5.90912e-08
6.01755e-08
6.32491e-08
1.69342e-06
1.33004e-06
8.18432e-07
2.72148e-07
1.41168e-07
2.16171e-08
4.36601e-08
4.46895e-08
4.98719e-08
5.233e-08
3.35107e-05
9.87644e-06
1.02571e-05
9.76006e-06
9.27215e-06
8.91824e-06
8.72388e-06
8.70438e-06
8.1833e-05
0.000679912
1.12281e-05
4.94495e-06
4.76632e-06
4.52403e-06
4.30198e-06
4.1521e-06
4.10652e-06
4.197e-06
4.94913e-05
0.00123774
1.59787e-06
2.48406e-06
1.71341e-06
1.69939e-06
1.64201e-06
1.61227e-06
1.63869e-06
1.74148e-06
0.000113487
0.00125318
2.79037e-07
1.21639e-06
6.66237e-07
7.41968e-07
6.93956e-07
6.82142e-07
6.98444e-07
7.48931e-07
8.37466e-07
1.04455e-06
3.68354e-07
7.13387e-07
2.50147e-07
3.42976e-07
2.99474e-07
2.984e-07
3.05471e-07
3.29739e-07
3.72476e-07
4.7354e-07
5.15376e-07
1.13844e-09
2.17492e-07
1.31466e-07
1.38247e-07
1.35475e-07
1.39039e-07
1.4879e-07
1.71955e-07
2.22052e-07
6.37082e-08
1.17034e-08
1.37185e-07
4.23259e-08
7.07045e-08
6.33569e-08
6.57768e-08
7.01765e-08
8.28479e-08
1.08554e-07
4.77987e-07
1.21764e-07
8.88976e-08
1.60768e-08
3.97564e-08
3.17972e-08
3.41731e-08
3.60738e-08
4.28451e-08
5.83057e-08
2.56132e-07
1.49105e-07
3.70782e-09
2.17429e-08
2.58107e-08
1.9331e-08
2.18149e-08
2.24629e-08
2.80426e-08
3.67137e-08
4.64574e-07
2.28976e-07
1.42949e-07
3.81131e-08
3.20084e-08
8.71157e-09
1.52123e-08
1.58062e-08
1.66972e-08
2.59532e-08
3.38608e-05
9.08278e-06
9.50629e-06
9.07744e-06
8.6518e-06
8.34553e-06
8.18693e-06
8.18034e-06
2.54479e-05
0.000285785
1.10542e-05
4.70022e-06
4.57533e-06
4.32782e-06
4.10571e-06
3.94709e-06
3.8702e-06
3.89809e-06
1.36694e-05
0.00105598
2.03462e-06
2.35945e-06
1.72165e-06
1.65531e-06
1.5896e-06
1.53995e-06
1.52905e-06
1.5818e-06
0.000121583
0.00228861
5.37691e-07
1.1396e-06
6.67826e-07
7.25253e-07
6.82827e-07
6.60004e-07
6.57765e-07
6.86018e-07
0.000135656
0.00221964
1.26738e-07
6.58825e-07
2.48322e-07
3.43296e-07
3.03066e-07
2.91602e-07
2.91602e-07
3.06379e-07
6.67424e-05
0.00176855
5.93087e-07
5.98191e-09
2.03753e-07
1.4329e-07
1.38044e-07
1.33305e-07
1.34685e-07
1.40529e-07
2.05716e-05
0.00121963
1.9143e-07
2.55228e-08
1.35713e-07
5.15773e-08
6.86744e-08
6.40115e-08
6.36434e-08
6.74473e-08
7.70184e-08
0.000572606
3.74071e-07
8.98943e-08
8.1538e-08
2.23079e-08
3.87996e-08
3.13636e-08
3.43454e-08
3.46767e-08
4.0861e-08
0.000243957
1.86822e-07
1.08126e-07
1.60968e-08
1.55279e-08
2.70734e-08
1.96776e-08
2.1652e-08
2.2087e-08
2.61363e-08
3.56823e-08
4.24758e-07
2.04182e-07
1.20804e-07
2.51547e-08
2.70566e-08
1.23626e-08
1.48781e-08
1.5645e-08
1.80071e-08
2.55861e-08
3.42396e-05
8.38946e-06
8.77525e-06
8.36339e-06
7.96428e-06
7.68301e-06
7.53343e-06
7.52377e-06
2.74238e-05
0.000109998
1.09268e-05
4.32684e-06
4.27867e-06
4.05884e-06
3.85711e-06
3.70717e-06
3.62247e-06
3.60998e-06
1.29179e-05
0.000551835
2.19072e-06
2.20896e-06
1.71504e-06
1.60608e-06
1.53381e-06
1.47738e-06
1.44726e-06
1.45602e-06
8.63328e-05
0.00136934
6.53392e-07
1.10293e-06
6.72909e-07
6.99573e-07
6.66236e-07
6.40569e-07
6.26995e-07
6.34552e-07
0.000112579
0.00154658
4.4119e-08
6.46493e-07
2.39453e-07
3.28869e-07
3.00269e-07
2.86434e-07
2.8047e-07
2.85994e-07
9.52066e-05
0.00149268
6.21779e-07
1.02237e-08
1.79535e-07
1.49077e-07
1.37998e-07
1.31967e-07
1.30598e-07
1.33036e-07
9.45643e-05
0.00130504
2.89795e-07
5.03056e-08
1.28445e-07
5.84047e-08
6.69981e-08
6.35759e-08
6.18268e-08
6.37661e-08
1.75129e-05
0.000958154
3.21128e-07
7.17625e-08
7.47055e-08
2.53581e-08
3.74383e-08
3.18602e-08
3.34686e-08
3.40162e-08
3.05786e-05
0.000811036
1.29431e-07
7.0403e-08
3.3786e-08
1.03287e-08
2.72216e-08
1.9724e-08
2.18395e-08
2.08129e-08
2.4795e-08
0.000534897
4.04644e-07
1.87306e-07
1.04775e-07
1.67685e-08
2.41262e-08
1.21201e-08
1.42019e-08
1.59986e-08
1.72819e-08
0.000726677
3.29575e-05
7.52769e-06
7.93129e-06
7.56976e-06
7.20711e-06
6.94608e-06
6.79651e-06
6.76308e-06
6.83874e-06
1.8729e-05
1.08997e-05
3.94217e-06
3.92165e-06
3.72473e-06
3.55166e-06
3.41995e-06
3.3405e-06
3.31203e-06
1.46494e-05
0.00022747
2.24275e-06
1.96706e-06
1.64212e-06
1.52393e-06
1.44936e-06
1.39496e-06
1.36019e-06
1.3473e-06
5.08916e-05
0.000764081
6.46196e-07
1.05324e-06
6.78794e-07
6.70921e-07
6.39929e-07
6.15539e-07
5.98253e-07
5.9303e-07
8.13019e-05
0.000962001
7.54754e-08
6.63175e-07
2.37556e-07
3.11818e-07
2.92684e-07
2.78868e-07
2.70233e-07
2.69415e-07
9.05738e-05
0.00104969
6.01725e-07
4.43401e-08
1.53699e-07
1.47694e-07
1.35088e-07
1.29242e-07
1.25862e-07
1.26061e-07
0.000113147
0.0010474
3.55741e-07
5.86429e-08
1.14599e-07
6.40866e-08
6.44754e-08
6.31675e-08
6.14708e-08
6.1294e-08
7.46636e-05
0.000892579
2.95448e-07
6.09865e-08
6.79219e-08
2.78368e-08
3.65537e-08
3.21953e-08
3.27361e-08
3.25134e-08
0.000111524
0.000885655
7.2848e-08
3.3115e-08
4.87036e-08
6.44947e-09
2.68969e-08
2.03028e-08
2.2067e-08
2.14886e-08
3.93663e-05
0.000801556
3.95106e-07
1.74073e-07
9.28159e-08
1.01538e-08
2.02546e-08
1.26989e-08
1.43426e-08
1.49258e-08
0.000103579
0.000960894
3.18174e-05
6.65663e-06
7.04444e-06
6.72776e-06
6.40631e-06
6.1701e-06
6.03043e-06
5.99393e-06
6.05082e-06
3.32927e-06
1.05498e-05
3.59218e-06
3.56382e-06
3.36434e-06
3.20308e-06
3.08496e-06
3.01114e-06
2.98086e-06
8.18484e-06
8.18565e-05
2.44426e-06
1.69468e-06
1.52083e-06
1.41711e-06
1.34229e-06
1.28897e-06
1.25493e-06
1.23558e-06
2.78631e-05
0.000417669
5.82204e-07
9.43023e-07
6.59177e-07
6.30883e-07
6.00914e-07
5.7824e-07
5.61801e-07
5.51154e-07
5.23389e-05
0.000580209
2.00148e-07
6.75239e-07
2.41797e-07
2.88947e-07
2.79061e-07
2.65372e-07
2.57809e-07
2.53035e-07
6.8758e-05
0.000687427
5.29236e-07
9.30872e-08
1.30684e-07
1.42256e-07
1.305e-07
1.24437e-07
1.20888e-07
1.18928e-07
0.000101284
0.000752948
3.88319e-07
5.18548e-08
9.57572e-08
6.65765e-08
6.20089e-08
6.08916e-08
5.88542e-08
5.84599e-08
8.56498e-05
0.000691778
2.79013e-07
5.04549e-08
5.94457e-08
3.01369e-08
3.45436e-08
3.11129e-08
3.15861e-08
3.08467e-08
0.000134261
0.000757495
1.23851e-08
4.19427e-09
5.99565e-08
5.48481e-09
2.50581e-08
1.97346e-08
2.0568e-08
2.05412e-08
8.85519e-05
0.000746931
3.91638e-07
1.65349e-07
8.20705e-08
4.80593e-09
1.78436e-08
1.31362e-08
1.35059e-08
1.40974e-08
0.000140845
0.000870065
3.00713e-05
5.77043e-06
6.14123e-06
5.87202e-06
5.58345e-06
5.36576e-06
5.23345e-06
5.17974e-06
5.20708e-06
5.526e-06
9.65827e-06
3.17988e-06
3.19126e-06
2.99993e-06
2.84504e-06
2.73321e-06
2.66293e-06
2.63182e-06
3.22511e-06
2.12614e-05
2.69868e-06
1.43576e-06
1.35782e-06
1.28408e-06
1.21911e-06
1.1691e-06
1.13421e-06
1.11381e-06
1.36308e-05
0.000206673
6.31283e-07
7.99226e-07
6.19438e-07
5.83605e-07
5.52193e-07
5.30931e-07
5.14503e-07
5.04582e-07
3.06389e-05
0.000327902
3.68096e-07
6.55141e-07
2.46306e-07
2.63863e-07
2.58679e-07
2.47838e-07
2.39315e-07
2.33816e-07
4.43622e-05
0.000422018
4.03265e-07
1.42762e-07
1.1489e-07
1.30802e-07
1.23723e-07
1.18052e-07
1.13722e-07
1.12038e-07
7.68256e-05
0.000509492
3.83324e-07
3.14347e-08
7.62193e-08
6.61687e-08
5.92342e-08
5.70957e-08
5.63931e-08
5.5385e-08
7.14044e-05
0.000490531
2.59268e-07
3.68144e-08
4.87193e-08
3.05183e-08
3.29102e-08
2.97484e-08
3.00234e-08
2.9666e-08
0.000123628
0.000584534
5.58045e-08
4.01162e-08
6.67603e-08
5.67375e-09
2.277e-08
1.87459e-08
1.92208e-08
1.92208e-08
9.08689e-05
0.000575517
3.91442e-07
1.58205e-07
7.16904e-08
5.7279e-10
1.46405e-08
1.28534e-08
1.29909e-08
1.35637e-08
0.0001376
0.000683436
2.80362e-05
4.86886e-06
5.23342e-06
5.01885e-06
4.77674e-06
4.58771e-06
4.46864e-06
4.41689e-06
4.4286e-06
4.66055e-06
8.6961e-06
2.66085e-06
2.74558e-06
2.60632e-06
2.47127e-06
2.36999e-06
2.30574e-06
2.27274e-06
2.26296e-06
1.12781e-06
2.85747e-06
1.23786e-06
1.18212e-06
1.12878e-06
1.07671e-06
1.03372e-06
1.00121e-06
9.81325e-07
5.38844e-06
9.38543e-05
7.8109e-07
6.4384e-07
5.55127e-07
5.28439e-07
4.99238e-07
4.77789e-07
4.61602e-07
4.51591e-07
1.65408e-05
0.000172054
4.927e-07
6.01886e-07
2.4694e-07
2.38432e-07
2.34635e-07
2.25287e-07
2.18094e-07
2.12581e-07
2.55511e-05
0.000238953
2.46878e-07
1.79011e-07
1.0556e-07
1.17892e-07
1.13068e-07
1.08627e-07
1.05145e-07
6.07213e-06
5.26927e-05
0.000322054
3.39252e-07
3.40791e-10
5.89001e-08
6.24216e-08
5.62589e-08
5.30498e-08
5.19707e-08
5.12607e-08
4.87961e-05
0.000315853
2.24234e-07
1.58979e-08
3.75978e-08
2.94699e-08
3.1668e-08
2.8013e-08
2.79108e-08
7.37821e-07
9.88797e-05
0.000414628
1.29913e-07
7.37038e-08
6.82202e-08
7.0172e-09
1.98666e-08
1.84492e-08
1.80542e-08
1.7938e-08
7.38012e-05
0.000396798
3.93153e-07
1.49671e-07
5.91486e-08
5.62305e-09
1.24815e-08
1.19064e-08
1.15869e-08
3.29298e-06
0.000115424
0.000491816
2.64106e-05
4.08419e-06
4.39914e-06
4.21654e-06
4.00283e-06
3.82958e-06
3.71588e-06
3.65888e-06
3.64436e-06
3.75539e-06
8.24235e-06
2.19702e-06
2.31077e-06
2.21107e-06
2.10287e-06
2.0148e-06
1.95317e-06
1.91994e-06
1.90102e-06
1.78518e-06
2.66537e-06
1.0916e-06
1.0183e-06
9.66711e-07
9.26412e-07
8.89987e-07
8.62804e-07
8.43843e-07
8.83952e-07
3.80629e-05
9.75994e-07
5.04067e-07
4.74425e-07
4.60347e-07
4.38685e-07
4.18963e-07
4.04786e-07
3.94114e-07
7.64407e-06
8.37959e-05
5.29586e-07
5.1612e-07
2.38186e-07
2.13678e-07
2.08111e-07
2.0027e-07
1.93142e-07
1.88492e-07
1.33108e-05
0.000126133
9.28286e-08
1.95017e-07
1.00568e-07
1.03716e-07
1.01459e-07
9.73898e-08
9.37069e-08
8.58798e-06
3.42765e-05
0.000193187
2.61729e-07
3.16812e-08
4.52512e-08
5.57588e-08
5.12179e-08
4.83666e-08
4.73105e-08
4.59905e-08
2.84649e-05
0.000184653
1.66817e-07
8.79152e-09
2.94159e-08
2.54479e-08
2.88457e-08
2.55667e-08
2.53766e-08
6.55135e-07
7.3481e-05
0.0002766
2.06299e-07
1.00616e-07
6.42191e-08
9.67715e-09
1.69566e-08
1.68702e-08
1.69566e-08
1.64166e-08
5.13405e-05
0.000252262
3.91652e-07
1.37952e-07
4.471e-08
9.93996e-09
1.04944e-08
1.10884e-08
1.1425e-08
5.89485e-06
8.78177e-05
0.000332523
2.28364e-05
3.39269e-06
3.69728e-06
3.61463e-06
3.49902e-06
3.40626e-06
3.35297e-06
3.37346e-06
3.51597e-06
3.94414e-06
7.55999e-06
1.75234e-06
1.88002e-06
1.82319e-06
1.74817e-06
1.68586e-06
1.64306e-06
1.61625e-06
1.59778e-06
1.45811e-06
2.17636e-06
9.7304e-07
8.76246e-07
8.14066e-07
7.76824e-07
7.48285e-07
7.26152e-07
7.09143e-07
6.93946e-07
1.31294e-05
1.11606e-06
3.99e-07
3.94969e-07
3.89391e-07
3.72861e-07
3.57822e-07
3.44367e-07
3.35605e-07
2.14209e-06
3.64213e-05
4.73486e-07
4.1442e-07
2.16882e-07
1.87314e-07
1.79867e-07
1.72704e-07
1.66898e-07
1.62669e-07
6.04972e-06
6.22955e-05
2.37204e-08
1.86762e-07
9.55347e-08
9.14482e-08
8.80244e-08
8.49044e-08
8.2944e-08
8.22341e-06
2.15464e-05
0.000112377
1.66869e-07
5.85111e-08
3.60786e-08
4.80312e-08
4.56014e-08
4.26807e-08
4.14536e-08
4.05946e-08
1.34721e-05
9.7674e-05
8.46566e-08
3.4768e-08
2.46292e-08
2.09624e-08
2.6087e-08
2.38119e-08
5.4299e-07
1.58797e-07
5.24858e-05
0.000178302
2.79268e-07
1.20084e-07
5.66682e-08
1.25505e-08
1.43377e-08
1.49602e-08
1.46389e-08
1.41369e-08
3.02764e-05
0.000146841
3.78286e-07
1.18268e-07
2.96912e-08
1.21673e-08
9.09328e-09
1.00505e-08
9.3878e-09
5.30499e-06
6.20182e-05
0.000213977
1.65623e-05
1.19597e-06
1.169e-06
8.82203e-07
6.44018e-07
4.42419e-07
2.14519e-07
9.76423e-08
5.70401e-07
1.26864e-06
7.23718e-06
1.44785e-06
1.51731e-06
1.42179e-06
1.3192e-06
1.23642e-06
1.18403e-06
1.16953e-06
1.2013e-06
1.2228e-06
1.5246e-06
8.42804e-07
7.49782e-07
6.76637e-07
6.33576e-07
6.0339e-07
5.81316e-07
5.65011e-07
5.50103e-07
4.03338e-06
1.12922e-06
3.24225e-07
3.26279e-07
3.19725e-07
3.08379e-07
2.9599e-07
2.84987e-07
2.75438e-07
2.67926e-07
1.19988e-05
3.44389e-07
3.11159e-07
1.87775e-07
1.58909e-07
1.50695e-07
1.45327e-07
1.39694e-07
1.35734e-07
2.21399e-06
2.84236e-05
8.35954e-08
1.59015e-07
8.82734e-08
7.88018e-08
7.51055e-08
7.21793e-08
9.70776e-07
7.07881e-06
1.31721e-05
6.40811e-05
7.33631e-08
7.52709e-08
3.12355e-08
4.01338e-08
3.96319e-08
3.69396e-08
3.53424e-08
3.46351e-08
3.66633e-06
4.44047e-05
1.66259e-08
5.67167e-08
2.43541e-08
1.65509e-08
2.16846e-08
2.02677e-08
9.63466e-06
1.16238e-06
3.66852e-05
0.000113139
3.44153e-07
1.30955e-07
4.48589e-08
1.35715e-08
1.24515e-08
1.33849e-08
1.27502e-08
1.28622e-08
1.35723e-05
7.53452e-05
3.45066e-07
9.0575e-08
1.38267e-08
1.27657e-08
8.98391e-09
8.07697e-09
8.72723e-09
3.6341e-06
4.11711e-05
0.000132112
5.56091e-05
1.21362e-05
1.28522e-05
1.2728e-05
1.26951e-05
1.28768e-05
1.31893e-05
1.35321e-05
1.38974e-05
1.44161e-05
3.79973e-06
7.35408e-07
1.14892e-06
1.32877e-06
1.40823e-06
1.4366e-06
1.41541e-06
1.32545e-06
1.1455e-06
7.66384e-07
8.24141e-07
6.13983e-07
5.81035e-07
5.41251e-07
5.18439e-07
5.06203e-07
4.97784e-07
4.91885e-07
7.59734e-07
2.57697e-06
1.00901e-06
2.58062e-07
2.62134e-07
2.54928e-07
2.46051e-07
2.38638e-07
2.31002e-07
2.24368e-07
2.17575e-07
5.6655e-08
1.82224e-07
2.15332e-07
1.53536e-07
1.30874e-07
1.23074e-07
1.18056e-07
1.1402e-07
1.09848e-07
5.82837e-07
1.19801e-05
8.10077e-08
1.18022e-07
7.60965e-08
6.62891e-08
6.15406e-08
5.93691e-08
6.85105e-06
6.02821e-06
7.84359e-06
3.62206e-05
3.68041e-10
8.08557e-08
2.71923e-08
3.18375e-08
3.30253e-08
3.12435e-08
2.97376e-08
2.86558e-08
2.80195e-08
1.41878e-05
2.15202e-06
6.99066e-08
2.66302e-08
1.25038e-08
1.7238e-08
1.21934e-05
1.47258e-05
2.23867e-06
2.54028e-05
7.17988e-05
3.98361e-07
1.32865e-07
3.2227e-08
1.45776e-08
1.06903e-08
1.0482e-08
1.05167e-08
1.06382e-08
1.98469e-06
2.99973e-05
2.80583e-07
5.47557e-08
2.19532e-09
1.07539e-08
7.46091e-09
7.445e-09
1.01915e-06
1.89841e-06
2.58725e-05
7.86929e-05
0.00022613
4.14788e-05
4.42115e-05
4.47415e-05
4.5053e-05
4.44421e-05
4.24538e-05
3.91119e-05
3.46793e-05
2.93268e-05
1.48643e-05
1.77709e-06
1.13336e-06
5.62431e-07
1.72607e-07
3.12782e-09
4.36786e-08
2.44791e-07
5.15358e-07
7.41568e-07
5.81437e-05
7.01526e-06
9.46678e-06
7.07129e-06
5.63835e-06
4.48632e-06
3.0543e-06
6.9868e-07
2.99563e-06
4.7087e-06
8.11842e-07
2.02842e-07
2.1454e-07
2.04795e-07
1.92623e-07
1.80955e-07
1.69361e-07
1.6343e-07
1.55548e-07
1.31669e-07
1.80766e-08
1.35152e-07
1.18572e-07
1.04273e-07
9.60339e-08
9.1648e-08
8.85804e-08
8.50057e-08
1.89659e-07
5.09138e-06
9.32965e-06
7.2073e-08
5.98723e-08
5.43487e-08
4.99564e-08
6.44959e-06
9.36139e-06
5.35126e-06
4.44053e-06
2.05498e-05
4.5407e-08
7.68423e-08
2.38197e-08
2.46479e-08
2.65409e-08
2.46676e-08
2.3662e-08
2.33071e-08
2.21634e-08
2.06427e-08
5.56325e-05
4.20552e-05
3.82347e-05
3.32082e-05
3.0149e-05
2.56297e-05
1.77157e-05
3.49844e-06
1.74542e-05
4.63415e-05
4.4017e-07
1.25936e-07
1.82466e-08
1.31324e-08
9.26045e-09
9.29271e-09
8.97005e-09
8.72805e-09
8.27632e-09
3.47803e-06
1.83064e-07
1.77465e-08
3.10564e-09
7.45353e-09
6.55142e-09
5.73804e-09
2.92798e-06
4.56499e-07
1.5287e-05
4.51499e-05
0.001065
0.000161679
0.000177667
0.000175477
0.000164329
0.000146428
0.000124417
0.000100509
7.58431e-05
5.0267e-05
2.65992e-05
4.69481e-06
2.015e-06
3.99432e-07
2.77307e-07
4.17043e-07
3.85904e-07
4.95469e-07
1.09011e-06
2.35732e-06
0.00019928
0.000126637
6.85737e-05
3.8706e-05
2.13712e-05
1.15561e-05
5.39017e-06
4.75251e-07
5.1018e-06
7.8702e-06
6.35427e-07
1.2295e-07
1.41661e-07
1.47174e-07
1.48507e-07
1.4628e-07
1.41578e-07
1.34966e-07
1.24641e-07
1.06463e-07
1.19344e-07
7.29909e-08
8.35259e-08
7.81995e-08
7.35565e-08
6.97856e-08
6.63682e-08
1.55621e-07
2.37898e-07
2.86076e-06
3.80211e-05
2.91466e-05
1.89804e-05
1.49878e-05
1.39812e-05
1.27569e-05
1.01241e-05
5.05836e-06
2.07204e-06
1.16536e-05
5.611e-08
6.47079e-08
1.99623e-08
1.80192e-08
2.01639e-08
1.91008e-08
1.80192e-08
1.7231e-08
1.69744e-08
1.55809e-08
0.000225938
3.76458e-05
7.45159e-05
6.44972e-05
4.84374e-05
3.35804e-05
2.00587e-05
5.25801e-06
1.15332e-05
3.07877e-05
4.68043e-07
1.10805e-07
5.84921e-09
1.06336e-08
7.28902e-09
6.46413e-09
6.71909e-09
6.46413e-09
6.73409e-09
6.86626e-09
6.22624e-08
1.33907e-08
2.76338e-09
4.31692e-09
5.12806e-09
4.7981e-09
3.44953e-06
5.76886e-07
8.00401e-06
2.40839e-05
0.00400222
0.000544546
0.000562303
0.000492796
0.000401983
0.000310961
0.000228304
0.000155681
9.06896e-05
2.87198e-05
0.000100801
1.72829e-05
1.24964e-05
1.0126e-05
8.68922e-06
7.03857e-06
4.6265e-06
1.06494e-06
4.2725e-06
1.17672e-05
0.000341162
0.000241176
0.000116809
6.05057e-05
3.01399e-05
1.43737e-05
5.61262e-06
4.18376e-07
6.94425e-06
1.10692e-05
4.3407e-07
8.20141e-08
9.06284e-08
9.04111e-08
9.34018e-08
1.00866e-07
1.08675e-07
1.17455e-07
1.22414e-07
8.27383e-08
1.82893e-05
3.44423e-08
5.40955e-08
2.07246e-07
1.55862e-06
2.32065e-06
2.2983e-06
1.39645e-06
8.28632e-08
2.2021e-06
3.89381e-05
4.41476e-05
3.44138e-05
2.55209e-05
1.91291e-05
1.41553e-05
9.74417e-06
4.98831e-06
1.161e-07
6.08111e-06
4.1912e-08
5.06118e-08
1.59504e-08
1.19798e-08
1.38714e-08
1.39566e-08
1.30193e-08
1.26104e-08
1.2031e-08
1.10078e-08
0.00049206
2.14196e-05
7.93093e-05
7.82733e-05
5.85628e-05
3.91509e-05
2.29835e-05
8.15754e-06
6.11997e-06
2.05669e-05
4.74455e-07
8.78526e-08
3.36018e-09
7.30595e-09
5.80014e-09
5.46552e-09
5.29821e-09
4.67079e-09
4.76839e-09
4.43195e-09
5.65723e-08
2.98431e-08
1.12471e-09
2.41556e-09
3.42524e-09
2.85778e-08
2.24373e-06
9.23397e-07
2.97344e-06
1.03078e-05
0.0139543
0.00121412
0.00109544
0.000804449
0.000552812
0.000361372
0.000219174
0.000110478
2.00799e-05
6.48705e-05
0.000196065
5.57321e-05
4.70959e-05
3.89923e-05
2.9502e-05
1.89266e-05
7.44111e-06
5.43598e-06
2.09626e-05
3.92547e-05
0.000488854
0.00036713
0.000161025
7.65387e-05
3.44931e-05
1.44255e-05
4.23031e-06
2.63785e-06
1.0686e-05
1.76289e-05
4.14158e-07
8.80178e-08
6.72015e-08
4.47812e-08
2.74105e-08
1.63251e-08
1.16438e-08
1.51845e-08
3.27453e-08
1.18459e-07
5.9172e-05
3.54705e-05
2.05762e-05
1.33384e-05
9.11896e-06
6.3616e-06
4.26618e-06
2.36004e-06
5.86828e-07
1.33653e-06
2.96384e-05
3.7337e-05
3.09052e-05
2.30808e-05
1.68325e-05
1.20432e-05
8.22716e-06
4.76896e-06
1.58257e-06
1.98563e-06
2.09075e-08
3.74503e-08
1.26894e-08
7.58829e-09
8.58633e-09
8.98238e-09
9.01406e-09
8.58633e-09
8.25365e-09
6.97199e-09
0.000834885
0.000119664
6.14005e-05
7.93621e-05
6.29225e-05
4.34124e-05
2.70768e-05
1.31004e-05
8.86118e-07
1.12495e-05
4.49967e-07
5.869e-08
8.55464e-09
3.09782e-09
4.21251e-09
3.70701e-09
3.20151e-09
3.59036e-09
3.00709e-09
3.42621e-09
1.3925e-07
2.90026e-08
5.14467e-09
2.06737e-09
2.25748e-09
2.18619e-09
2.09114e-09
2.3429e-07
3.50693e-07
2.29572e-06
0.0318838
0.00063669
0.000486558
0.000288337
0.00014702
5.47289e-05
7.77553e-06
5.62054e-05
0.000102514
0.000154316
0.000197558
0.000147117
0.000107248
7.17675e-05
4.22817e-05
1.81757e-05
2.59848e-06
2.25736e-05
4.4452e-05
6.7352e-05
0.000559982
0.000468678
0.000186972
8.35149e-05
3.67363e-05
1.72305e-05
9.49336e-06
5.73835e-06
1.12581e-06
6.82062e-06
5.6199e-08
1.17037e-07
9.17984e-08
5.06764e-08
5.31284e-09
4.49769e-08
1.01088e-07
1.6208e-07
2.28022e-07
3.57916e-07
5.1585e-05
3.51671e-05
2.02583e-05
1.29492e-05
8.65405e-06
5.94513e-06
4.07682e-06
2.60883e-06
1.42126e-06
9.51304e-08
1.81141e-05
2.13004e-05
1.82375e-05
1.39549e-05
1.04002e-05
7.68065e-06
5.60382e-06
3.875e-06
2.48439e-06
8.27458e-07
9.60859e-09
2.55665e-08
1.08392e-08
5.15453e-09
4.74216e-09
5.05144e-09
5.09562e-09
4.78635e-09
4.03526e-09
4.31642e-09
0.00105919
0.000206742
2.91965e-05
6.6329e-05
5.84251e-05
4.37035e-05
3.06904e-05
1.97961e-05
1.0952e-05
1.1999e-06
3.78489e-07
2.75935e-08
6.88029e-09
3.61486e-10
2.01227e-09
1.91588e-09
2.31351e-09
2.08457e-09
2.12072e-09
1.57865e-09
1.05936e-06
7.92089e-07
4.60594e-09
1.72308e-09
1.57949e-09
5.79343e-07
1.06865e-06
6.91686e-07
5.13015e-07
6.04889e-07
0.0142761
0.000277989
8.27077e-05
4.10189e-05
3.03922e-05
1.56607e-05
7.94208e-06
3.82669e-05
8.62674e-05
0.000137938
8.68708e-05
6.96222e-05
3.48419e-05
9.02637e-06
6.8662e-06
1.69871e-05
2.46803e-05
3.21183e-05
4.04317e-05
4.61288e-05
0.000297652
0.000382245
0.000135029
5.63635e-05
2.32964e-05
1.03999e-05
5.34298e-06
2.44854e-06
1.17181e-06
7.2812e-06
3.93746e-08
4.31265e-09
7.52454e-08
1.34585e-07
1.82096e-07
2.26424e-07
2.65741e-07
2.97922e-07
3.19885e-07
3.35558e-07
2.19708e-05
1.64957e-05
9.5438e-06
6.20623e-06
4.28938e-06
3.12702e-06
2.3768e-06
1.83882e-06
1.47522e-06
9.87332e-07
7.79787e-06
7.18753e-06
6.26084e-06
5.0023e-06
3.95488e-06
3.1642e-06
2.58834e-06
2.15167e-06
1.91158e-06
1.5638e-06
3.61361e-09
1.39921e-08
7.58478e-09
3.20368e-09
2.61497e-09
2.49175e-09
2.28639e-09
2.4233e-09
2.71081e-09
1.36995e-09
0.000696971
0.000161183
8.66476e-06
4.0691e-05
4.03387e-05
3.39091e-05
2.76885e-05
2.251e-05
1.88789e-05
1.36588e-05
2.50231e-07
1.13137e-09
2.46437e-10
8.06521e-10
9.52143e-10
1.20978e-09
1.04176e-09
1.20978e-09
7.28109e-10
1.30907e-09
0.000102292
0.000140395
9.63879e-05
6.15427e-05
3.99034e-05
2.73244e-05
1.99049e-05
1.46558e-05
1.1246e-05
5.76807e-06
0.0271356
0.000662431
0.000530131
0.000431479
0.000351087
0.000285219
0.000231926
0.000189816
0.000156386
0.000134745
6.51595e-05
0.000138252
9.65567e-05
6.45393e-05
4.28465e-05
2.85218e-05
1.87575e-05
1.12786e-05
3.8998e-06
6.28977e-06
8.73766e-05
9.05363e-05
2.74267e-05
1.36033e-05
8.49655e-06
6.98825e-06
6.58112e-06
6.25507e-06
5.62462e-06
4.27035e-06
4.75483e-08
1.23559e-07
7.56973e-08
3.69991e-08
4.08555e-09
2.61075e-08
5.87251e-08
8.83263e-08
1.1115e-07
1.41162e-07
2.42349e-06
2.38414e-06
1.50296e-06
1.09631e-06
8.67867e-07
7.35842e-07
6.61254e-07
6.22455e-07
6.38181e-07
6.7914e-07
1.38702e-06
9.33626e-07
8.34899e-07
7.3225e-07
6.50276e-07
5.88835e-07
5.50004e-07
5.30788e-07
5.75763e-07
6.62132e-07
1.14009e-08
5.71469e-09
3.44918e-09
1.51458e-09
1.4764e-09
6.10924e-10
8.78203e-10
4.83648e-10
7.25472e-10
7.00017e-10
4.14744e-05
1.67783e-05
8.90341e-06
1.40129e-05
1.42712e-05
1.35011e-05
1.27142e-05
1.20864e-05
1.20156e-05
1.14961e-05
7.30237e-08
2.81164e-09
7.81011e-10
2.49924e-10
1.97856e-10
5.93568e-10
4.58193e-10
3.64472e-10
4.7902e-10
3.64472e-10
0.000322016
0.000217698
0.000152404
0.000111646
8.78581e-05
7.41978e-05
6.60708e-05
6.05841e-05
5.68094e-05
4.95517e-05
0.476544
0.385501
0.492496
0.860274
0.650681
0.595251
0.707944
1.07108
0.835663
0.77993
0.92501
1.42161
0.622577
0.598375
0.708195
1.10634
0.471889
0.468359
0.554182
0.893992
0.329524
0.322907
0.398742
0.67489
0.234613
0.221002
0.293634
0.523745
0.164903
0.149414
0.213044
0.393662
0.121517
0.108936
0.164344
0.309272
0.0945551
0.0857411
0.138959
0.262977
0.0319967
0.00162627
2.01898e-05
0.0176492
0.0743569
0.00621174
1.58495e-05
0.0393602
0.134482
0.0149857
9.05058e-06
0.0695601
0.126366
0.0171823
4.90193e-06
0.0607922
0.11586
0.0177526
2.63696e-06
0.050683
0.0948119
0.0156548
1.40784e-06
0.0406894
0.0769246
0.0130009
7.64919e-07
0.0350615
0.0608099
0.0106884
4.50767e-07
0.0288963
0.0504152
0.00985481
0.00141339
0.0247471
0.0442067
0.0118677
0.00543098
0.021864
0.015128
0.0121304
0.0129285
0.0182016
0.0368001
0.0255226
0.0251949
0.0394481
0.0741877
0.0482501
0.0488601
0.0790864
0.072352
0.0437484
0.045294
0.0758888
0.0689424
0.0389704
0.0413626
0.072776
0.0583556
0.0310619
0.033622
0.0615627
0.048875
0.0244841
0.0270913
0.0519563
0.0398368
0.0188453
0.0211717
0.0419048
0.0338111
0.0146342
0.016961
0.0348332
0.0301796
0.0124616
0.0151882
0.030382
0.00169744
0.00125533
0.00122739
0.00180944
0.0058438
0.00403143
0.00375193
0.00615853
0.016218
0.0109958
0.0104647
0.0165757
0.0196116
0.0128692
0.0126576
0.019319
0.0221988
0.013973
0.0143161
0.0216797
0.0215537
0.0130075
0.0137268
0.0207642
0.0201396
0.0115726
0.0125271
0.0192822
0.0180864
0.0099522
0.0109617
0.0170173
0.0163527
0.00824701
0.00949501
0.0150456
0.0151864
0.00752711
0.0093599
0.0142199
0.000544747
0.000524062
0.000559074
0.000769955
0.00221589
0.00206639
0.00233075
0.00336562
0.00616649
0.00579726
0.00645143
0.00894758
0.00762715
0.00679348
0.00727591
0.00985121
0.00911752
0.00765628
0.00809835
0.0108896
0.009407
0.007423
0.00782586
0.0104321
0.00929234
0.00687429
0.00728684
0.00972338
0.00890397
0.00620613
0.0066244
0.00878937
0.00862979
0.00551441
0.00613844
0.00808854
0.00862256
0.0055008
0.00660123
0.00821374
9.87858e-05
9.81655e-05
9.88813e-05
0.00015717
0.000771427
0.000726106
0.000849461
0.00123876
0.00252394
0.00254335
0.00303723
0.00416625
0.00321554
0.00321129
0.00368985
0.00488071
0.00396642
0.00385717
0.00432172
0.00562665
0.00425437
0.00395258
0.0043352
0.00555174
0.00434083
0.00382926
0.00414483
0.00524009
0.00439431
0.00365483
0.00391744
0.00486577
0.00455513
0.0034895
0.00384913
0.00463514
0.00469889
0.00355875
0.00418478
0.00473683
3.81738e-06
7.72981e-06
3.03598e-06
2.21589e-05
0.000283635
0.000261193
0.000309699
0.000470704
0.00122504
0.00123858
0.00151902
0.00211237
0.00161677
0.00167452
0.00199472
0.00263616
0.00202286
0.00210292
0.00245566
0.00317212
0.00220529
0.00223933
0.00255242
0.00323088
0.00225008
0.00221804
0.0024799
0.00307745
0.00235515
0.00220922
0.00241709
0.00293613
0.00253972
0.0022277
0.00246236
0.00284899
0.00263155
0.00228777
0.00263952
0.0028799
1.98259e-05
7.06426e-06
6.77839e-06
6.97918e-06
8.30904e-05
6.85318e-05
8.01133e-05
0.000135908
0.000567267
0.000552601
0.00068229
0.000973512
0.000831158
0.000857999
0.00103232
0.00137078
0.00108758
0.00114885
0.0013641
0.00176495
0.00123766
0.00129631
0.00150722
0.00190781
0.00126355
0.00131159
0.00149836
0.00184816
0.0013634
0.00136451
0.00151933
0.00183285
0.00144058
0.00138125
0.00152845
0.00173968
0.00151198
0.00145605
0.00165634
0.00178808
1.64404e-05
5.74964e-06
5.55461e-06
5.72299e-06
1.42762e-05
6.79716e-06
6.21509e-06
2.16632e-05
0.000248778
0.000221298
0.000272594
0.000414231
0.000420508
0.000426121
0.000513285
0.000687092
0.000579925
0.000613442
0.000732978
0.000951917
0.000707714
0.000748955
0.000877656
0.00111414
0.000726244
0.000773546
0.000892544
0.00109703
0.00081901
0.000848126
0.00095344
0.00114876
0.000818264
0.000831213
0.000918595
0.00104119
0.000891752
0.00092117
0.00103638
0.00111776
1.17228e-05
3.55938e-06
3.4497e-06
3.59768e-06
3.70857e-06
1.59308e-06
1.55203e-06
1.72277e-06
9.4257e-05
6.40553e-05
7.69329e-05
0.000143391
0.000204953
0.000200148
0.000240038
0.000325557
0.000297962
0.000311895
0.000373694
0.000488923
0.000397641
0.000420224
0.000494011
0.000630978
0.000404946
0.000438084
0.000507783
0.00062177
0.000490013
0.000516214
0.000583295
0.000704986
0.000465233
0.000489407
0.000540292
0.000613053
0.000533039
0.000574933
0.00064186
0.000693551
1.71999e-05
6.15764e-06
5.7083e-06
5.74821e-06
3.40126e-06
1.16693e-06
1.12759e-06
1.25464e-06
2.36826e-05
5.32338e-07
5.19946e-07
2.2477e-05
9.47737e-05
8.70053e-05
0.000103125
0.000142579
0.000146724
0.000150098
0.000180111
0.000238948
0.000220594
0.000230532
0.000271465
0.000350572
0.000216169
0.000236372
0.000274786
0.000334557
0.000291327
0.000308243
0.000349669
0.000425994
0.000260386
0.000279182
0.000308125
0.000350353
0.000318265
0.000351733
0.000391364
0.000423479
1.48747e-05
4.753e-06
3.7519e-06
3.00014e-06
2.53471e-06
8.82467e-07
8.65313e-07
9.49105e-07
9.98091e-07
3.53848e-07
3.43289e-07
3.86479e-07
3.97323e-05
3.27498e-05
3.76938e-05
5.33235e-05
6.75517e-05
6.63512e-05
7.96718e-05
0.000108372
0.000120719
0.000123689
0.000145783
0.000191533
0.000107782
0.000119304
0.000139053
0.000167293
0.000172696
0.000181565
0.000206808
0.000255514
0.000138422
0.000149858
0.000165388
0.000188174
0.000187238
0.000209563
0.000233534
0.00025252
6.50837e-05
1.56405e-05
1.24014e-05
1.0266e-05
2.65569e-06
1.03659e-06
1.09298e-06
1.34828e-06
8.85068e-07
3.30997e-07