/*--------------------------------*- C++ -*----------------------------------*\
| =========                 |                                                 |
| \\      /  F ield         | foam-extend: Open Source CFD                    |
|  \\    /   O peration     | Version:     4.0                                |
|   \\  /    A nd           | Web:         http://www.foam-extend.org         |
|    \\/     M anipulation  |                                                 |
\*---------------------------------------------------------------------------*/
FoamFile
{
    version     2.0;
    format      ascii;
    class       volScalarField;
    location    "2300";
    object      epsilon;
}
// * * * * * * * * * * * * * * * * * * * * * * * * * * * * * * * * * * * * * //

dimensions      [0 2 -3 0 0 0 0];

internalField   nonuniform List<scalar> 
34480
(
4930.66
4928.63
4928.53
4930.03
4933.24
4938.4
4951.02
5004.67
5194.51
5725.81
655.43
602.134
601.217
653.19
838.732
1576.04
5099.5
22849.8
103709
382385
618.807
523.151
509.503
569.14
809.938
1829.1
7041.65
35119.2
172536
699245
524.835
439.428
427.389
485.091
733.808
1883.4
8219.36
44412.5
232219
1.01098e+06
456.682
384.803
377.366
433.131
684.825
1927.54
9177.95
52591.3
289184
1.33362e+06
392.513
332.832
326.597
378.467
628.368
1956.26
10121.3
61045.3
350633
1.6987e+06
353.278
302.783
298.386
346.407
591.481
1962.76
10725.7
67199.3
400350
2.02275e+06
321.372
282.111
277.709
317.501
534.195
1820.49
10350.3
66983.2
412649
2.16763e+06
460.055
435.971
433.362
458.77
597.091
1410.12
6840.85
43695.5
275985
1.49851e+06
5709.12
5709.35
5714.8
5726.76
5743.58
5763.66
5787.86
5823.81
5890.21
5958.87
4856.09
4853.57
4853.08
4854.57
4858.57
4865.59
4876.72
4902.84
4965.48
5186
512.062
479.195
473.56
487.68
532.084
648.524
1002.85
2354.51
11801.2
103647
447.047
383.976
370.277
389.684
458.476
645.749
1229.66
3567.09
21358.1
197644
399.646
338.706
325.247
344.955
416.422
620.165
1294.45
4289.51
30234.6
294759
365.874
311.141
300.603
319.813
390.763
598.901
1321.8
4812.15
38717
396504
326.351
278.968
269.16
286.445
352.226
554.126
1294.09
5180.35
47348.5
508566
302.547
260.851
252.672
267.935
328.927
521.448
1256.15
5361
54215.9
607811
283.114
249.966
242.289
253.907
301.56
456.637
1074.63
4827.9
54991.6
652017
432.851
410.961
405.858
413.322
443.441
531.676
848.121
2980.61
36399.2
467540
5591.65
5587.33
5587.85
5594.49
5606.16
5620.75
5640.11
5673.12
5740.78
5913.67
4770.95
4768.55
4767.8
4768.62
4771.24
4775.38
4780.21
4791
4815.07
4870.12
399.887
386.443
383.78
388.538
403.671
439.036
527.084
758.592
1516.82
5758.4
308.138
276.908
270.073
279.251
309.662
379.279
550.394
1030.15
2859.51
14988.4
290.272
256.449
248.775
259.352
294.51
378.427
597.212
1279.78
4409.2
28919.7
280.869
247.909
241.46
252.416
289.525
380.31
629.017
1481.31
6140.43
47809.9
261.343
231.089
224.597
234.996
270.692
361.658
625.217
1625.59
8150.77
73153
250.551
222.529
216.937
226.427
260.517
349.178
617.176
1724.5
10165.3
101598
243.075
220.106
214.693
222.319
249.655
322.181
549.934
1594.42
11043.1
122896
402.722
386.38
382.629
388.277
408.71
461.616
607.122
1235.54
7680.8
92095.4
5481.97
5474.88
5472.58
5476.16
5484.96
5496.95
5513.46
5544.23
5616.71
5802.12
4674.93
4673.43
4673
4673.63
4675.43
4677.72
4678.73
4681.53
4688.94
4705.05
328.46
324.34
323.52
324.615
328.695
339.048
365.057
421.601
541.21
940.356
219.31
206.056
203.205
207.248
220.64
248.931
309.068
445.233
772.135
2085.83
214.438
197.718
193.784
199.306
217.263
256.753
345.538
565.528
1169.54
4141.67
217.573
199.534
195.947
202.146
222.75
269.295
379.525
675.966
1611.21
7155.4
210.714
192.766
188.728
195.119
216.346
266.425
392.091
761.661
2117.69
11600
208.51
190.728
187.082
193.233
214.629
266.158
401.07
827.395
2633.54
17124.1
209.983
194.706
190.984
196.276
214.346
258.896
379.791
795.199
2860.87
21850.9
375.689
363.704
360.87
365.061
380.024
416.996
508.749
782.696
2181.13
16545.3
5359.98
5352.9
5350.35
5353.41
5361.68
5374.05
5391.19
5422.05
5488.86
5632.07
4569.53
4568.84
4568.7
4569.1
4570.07
4570.78
4569.47
4568.34
4568.28
4570.04
285.509
284.769
284.671
284.439
284.433
286.167
293.404
307.378
329.716
375.955
167.901
162.883
161.842
163.261
168.294
178.515
198.298
237.433
308.118
484.23
166.467
158.743
156.782
159.28
167.535
184.77
219.568
294.211
443.14
889.767
173.914
164.605
162.672
165.763
176.211
198.55
246.032
356.467
601.426
1498.02
173.615
163.422
160.93
164.475
176.21
202.438
261.458
410.914
783.887
2435
176.092
165.191
162.819
166.444
179.077
207.88
275.356
457.571
966.53
3640.79
183.353
173.474
170.904
174.284
185.61
212.177
276.679
463.591
1058.68
4746.65
351.359
342.758
340.574
343.463
354.005
379.255
438.179
581.544
1009.5
3814.34
5230.31
5223.38
5220.66
5223.25
5230.86
5242.95
5259.61
5287.99
5343.68
5446.03
4455.71
4455.65
4455.73
4455.95
4456.32
4455.99
4453.97
4451.88
4450.1
4449.03
259.798
259.881
259.964
259.444
258.45
258.048
259.945
263.299
268.032
275.305
139.442
137.795
137.526
137.911
139.526
142.769
148.672
159.186
175.183
203.048
137.535
134.155
133.231
134.277
137.829
144.897
157.836
182.366
222.509
303.006
145.045
140.512
139.561
140.989
145.959
156.012
175.322
215.177
286.343
458.046
147.36
141.84
140.387
142.25
148.409
161.438
187.865
247.283
364.055
701.82
151.781
145.38
143.933
145.959
153.085
168.449
200.808
278.308
444.173
1014.1
162.27
156.169
154.493
156.572
163.399
178.66
212.135
297.463
500.451
1320.6
329.48
323.584
321.977
323.929
331.269
348.547
387.053
467.612
639.994
1290.59
5092.35
5085.82
5083.12
5085.33
5092.24
5103.53
5119.02
5143.93
5187
5254.26
4334.2
4334.55
4334.78
4334.88
4334.86
4333.9
4332.04
4330.03
4328.21
4326.88
243.797
243.752
243.777
243.302
242.372
241.926
242.288
243.018
244.122
245.926
123.983
123.57
123.577
123.616
124.002
124.85
126.393
128.975
132.497
137.196
120.665
119.23
118.807
119.221
120.694
123.516
128.268
136.262
147.555
163.748
126.665
124.562
124.139
124.752
127.005
131.344
138.962
152.942
174.381
210.56
129.506
126.628
125.817
126.75
129.857
136.115
147.66
170.702
209.285
285.815
134.272
130.644
129.806
130.877
134.75
142.686
157.838
190.043
247.844
381.56
146.169
142.568
141.525
142.751
146.713
155.221
172.351
210.933
286.965
489.916
310.148
306.299
305.141
306.433
311.513
323.502
349.139
396.329
479.996
667.55
4945.88
4939.95
4937.41
4939.28
4945.4
4955.44
4969.19
4990.19
5022.65
5066.49
4205.5
4206.11
4206.43
4206.45
4206.21
4205.13
4203.64
4202.05
4200.62
4199.54
232.908
232.485
232.381
232.028
231.435
231.25
231.268
231.417
231.804
232.795
115.6
115.578
115.657
115.607
115.614
115.727
115.999
116.502
117.192
117.984
111.052
110.448
110.255
110.414
111.02
112.153
113.943
116.656
120.074
123.798
115.291
114.363
114.2
114.444
115.431
117.257
120.249
125.185
131.929
140.367
117.754
116.306
115.872
116.322
117.846
120.797
125.851
134.85
148.24
167.56
122.085
120.091
119.632
120.171
122.221
126.25
133.355
146.774
167.939
202.424
134.229
132.21
131.594
132.293
134.516
139.158
147.945
165.5
195.872
252.189
293.167
290.806
289.976
290.832
294.384
302.956
320.351
348.998
394.122
462.632
4790.74
4785.56
4783.28
4784.85
4790.1
4798.62
4810.3
4827.29
4851.16
4880.09
4069.95
4070.7
4071.07
4071.05
4070.69
4069.8
4068.7
4067.55
4066.52
4065.73
224.503
223.703
223.468
223.232
222.984
222.931
222.911
222.974
223.259
224.151
111.006
111.069
111.144
111.088
111.013
110.939
110.888
110.889
110.952
111.059
105.703
105.441
105.349
105.411
105.666
106.137
106.846
107.834
108.975
109.979
108.445
108.057
108.009
108.098
108.518
109.273
110.455
112.241
114.482
116.708
110.262
109.561
109.336
109.548
110.278
111.652
113.889
117.508
122.46
128.096
113.879
112.81
112.572
112.833
113.899
115.929
119.31
125.063
133.299
143.386
125.601
124.541
124.197
124.585
125.796
128.287
132.823
140.975
153.817
171.851
278.194
276.871
276.264
276.847
279.402
285.763
297.753
315.701
341.522
371.319
4626.9
4622.57
4620.63
4621.91
4626.25
4633.15
4642.67
4655.89
4672.98
4691.96
3927.95
3928.61
3929
3928.97
3928.61
3927.99
3927.23
3926.43
3925.73
3925.16
216.926
216.032
215.686
215.536
215.482
215.46
215.461
215.538
215.834
216.725
108.393
108.455
108.506
108.465
108.394
108.299
108.2
108.116
108.073
108.077
102.81
102.685
102.638
102.663
102.778
102.988
103.292
103.688
104.115
104.434
104.449
104.293
104.289
104.317
104.494
104.807
105.281
105.948
106.728
107.391
105.648
105.322
105.21
105.308
105.651
106.284
107.281
108.777
110.711
112.635
108.536
107.972
107.856
107.978
108.53
109.556
111.196
113.758
117.16
120.57
119.493
118.986
118.807
119.02
119.662
120.986
123.325
127.179
132.824
139.522
264.783
264.157
263.689
264.111
266.036
270.902
279.253
290.778
306.137
320.3
4454.51
4451.06
4449.48
4450.49
4453.93
4459.27
4466.73
4476.62
4488.51
4500.76
3779.62
3780.14
3780.47
3780.44
3780.21
3779.79
3779.28
3778.75
3778.29
3777.87
209.481
208.599
208.258
208.151
208.116
208.112
208.133
208.227
208.539
209.427
106.793
106.836
106.869
106.84
106.787
106.714
106.636
106.566
106.529
106.536
101.295
101.227
101.2
101.212
101.269
101.371
101.516
101.695
101.88
101.999
102.197
102.134
102.139
102.147
102.225
102.362
102.563
102.828
103.116
103.339
102.916
102.77
102.717
102.761
102.921
103.209
103.654
104.284
105.065
105.813
105.178
104.878
104.824
104.883
105.174
105.703
106.52
107.711
109.189
110.496
115.215
115.009
114.926
115.043
115.377
116.078
117.268
119.099
121.602
124.39
252.451
252.275
251.885
252.218
253.757
257.508
263.346
270.861
280.266
287.086
4273.84
4271.22
4270.01
4270.79
4273.37
4277.36
4282.96
4290.09
4298.13
4305.88
3625.1
3625.51
3625.77
3625.76
3625.62
3625.35
3625.01
3624.67
3624.37
3624.04
201.821
200.966
200.655
200.561
200.535
200.539
200.57
200.67
200.985
201.856
105.699
105.721
105.739
105.721
105.686
105.639
105.588
105.546
105.532
105.552
100.53
100.488
100.472
100.478
100.509
100.563
100.638
100.728
100.821
100.874
100.978
100.947
100.951
100.953
100.993
101.062
101.161
101.283
101.404
101.494
101.368
101.306
101.28
101.301
101.375
101.506
101.704
101.973
102.295
102.62
103.14
102.975
102.95
102.981
103.142
103.429
103.854
104.44
105.118
105.681
112.204
112.15
112.12
112.186
112.359
112.725
113.312
114.17
115.245
116.503
240.734
240.835
240.479
240.766
242.078
244.887
248.946
253.871
259.754
262.81
4085.33
4083.45
4082.58
4083.15
4084.98
4087.87
4091.91
4096.85
4102.12
4106.93
3464.59
3464.93
3465.13
3465.13
3465.04
3464.87
3464.66
3464.44
3464.25
3463.98
193.767
192.947
192.664
192.581
192.559
192.565
192.597
192.695
193.002
193.847
104.848
104.856
104.863
104.852
104.831
104.804
104.776
104.755
104.76
104.79
100.159
100.133
100.124
100.127
100.143
100.172
100.211
100.258
100.311
100.338
100.35
100.328
100.326
100.328
100.353
100.397
100.457
100.527
100.591
100.641
100.535
100.509
100.497
100.507
100.541
100.601
100.69
100.806
100.941
101.098
101.943
101.844
101.831
101.852
101.948
102.115
102.352
102.663
103
103.28
110.018
110.035
110.032
110.072
110.165
110.346
110.619
111.002
111.418
112.027
229.208
229.475
229.123
229.389
230.525
232.495
235.277
238.489
242.215
243.255
3889.53
3888.27
3887.7
3888.08
3889.31
3891.35
3894.15
3897.45
3900.78
3903.71
3298.38
3298.67
3298.82
3298.83
3298.78
3298.68
3298.54
3298.4
3298.28
3298.04
185.211
184.43
184.175
184.103
184.082
184.087
184.115
184.204
184.498
185.309
104.114
104.113
104.114
104.107
104.096
104.082
104.07
104.063
104.079
104.114
99.9895
99.9742
99.9702
99.9717
99.9792
99.9921
100.011
100.034
100.064
100.08
100.045
100.025
100.02
100.021
100.04
100.073
100.117
100.167
100.21
100.245
100.114
100.102
100.096
100.101
100.118
100.146
100.187
100.238
100.296
100.382
101.253
101.188
101.181
101.197
101.26
101.366
101.509
101.69
101.876
102.044
108.329
108.384
108.394
108.42
108.468
108.549
108.66
108.813
108.924
109.246
217.323
217.837
217.513
217.773
218.585
219.931
221.792
223.856
226.218
226.177
3687.21
3686.36
3686.01
3686.25
3687.08
3688.47
3690.32
3692.42
3694.44
3696.19
3126.88
3127.13
3127.24
3127.25
3127.22
3127.16
3127.08
3126.99
3126.9
3126.69
176.069
175.332
175.106
175.044
175.023
175.025
175.047
175.125
175.4
176.174
103.439
103.433
103.429
103.425
103.42
103.415
103.412
103.414
103.437
103.475
99.9213
99.9141
99.9136
99.914
99.9159
99.9191
99.9248
99.934
99.9504
99.9612
99.9113
99.8929
99.885
99.8866
99.9014
99.9278
99.9623
100
100.033
100.062
99.9195
99.9129
99.9091
99.9115
99.9203
99.935
99.9548
99.9791
100.004
100.056
100.853
100.807
100.801
100.815
100.86
100.931
101.024
101.14
101.253
101.373
106.922
106.989
107.009
107.026
107.046
107.076
107.108
107.153
107.128
107.32
204.842
205.495
205.298
205.48
206.023
206.908
208.105
209.4
210.875
210.284
3479.12
3478.57
3478.35
3478.51
3479.06
3479.94
3481.11
3482.38
3483.54
3484.56
2950.62
2950.82
2950.9
2950.92
2950.91
2950.87
2950.82
2950.76
2950.7
2950.5
166.262
165.572
165.376
165.327
165.304
165.304
165.319
165.383
165.637
166.37
102.797
102.789
102.782
102.78
102.778
102.779
102.782
102.79
102.815
102.856
99.9046
99.9026
99.904
99.9038
99.9023
99.9001
99.8984
99.8993
99.9072
99.9166
99.8647
99.8483
99.84
99.841
99.8524
99.8728
99.8993
99.9285
99.9547
99.9785
99.845
99.8398
99.8367
99.8378
99.8429
99.8514
99.8621
99.8746
99.8866
99.9198
100.607
100.572
100.567
100.578
100.61
100.66
100.724
100.8
100.875
100.969
105.657
105.722
105.745
105.756
105.764
105.77
105.767
105.765
105.687
105.818
191.594
192.297
192.203
192.325
192.668
193.215
193.936
194.72
195.602
194.783
3266.15
3265.82
3265.69
3265.79
3266.12
3266.66
3267.35
3268.06
3268.67
3269.26
2770.32
2770.49
2770.55
2770.56
2770.56
2770.54
2770.5
2770.46
2770.42
2770.24
155.694
155.055
154.886
154.849
154.832
154.831
154.84
154.888
155.115
155.807
102.185
102.174
102.167
102.165
102.166
102.169
102.176
102.186
102.211
102.254
99.9137
99.9139
99.916
99.9153
99.9125
99.908
99.9032
99.9002
99.9032
99.9129
99.861
99.8473
99.8399
99.8403
99.8483
99.8628
99.8819
99.903
99.9229
99.9422
99.8324
99.8276
99.8249
99.8252
99.8282
99.8333
99.8395
99.8463
99.8523
99.8736
100.43
100.403
100.398
100.406
100.429
100.463
100.506
100.556
100.606
100.682
104.458
104.51
104.532
104.54
104.542
104.539
104.524
104.506
104.416
104.517
177.435
178.118
178.103
178.181
178.377
178.679
179.059
179.5
179.974
179.132
3049.37
3049.18
3049.11
3049.17
3049.36
3049.65
3050.03
3050.4
3050.68
3051
2586.97
2587.12
2587.16
2587.17
2587.17
2587.16
2587.13
2587.1
2587.06
2586.9
144.231
143.653
143.513
143.489
143.484
143.481
143.484
143.516
143.706
144.352
101.609
101.596
101.588
101.586
101.588
101.593
101.601
101.611
101.633
101.677
99.9327
99.9326
99.934
99.9331
99.9303
99.9259
99.9211
99.9176
99.9184
99.929
99.8783
99.8679
99.8623
99.8622
99.8671
99.8764
99.8886
99.9026
99.9166
99.9315
99.8521
99.8482
99.8461
99.8459
99.8474
99.85
99.853
99.8563
99.8591
99.8716
100.273
100.253
100.249
100.254
100.268
100.289
100.315
100.345
100.377
100.436
103.291
103.328
103.345
103.35
103.35
103.343
103.325
103.304
103.225
103.304
162.208
162.815
162.863
162.91
162.998
163.118
163.248
163.453
163.627
162.903
2830.08
2829.99
2829.95
2829.98
2830.07
2830.22
2830.4
2830.56
2830.67
2830.83
2401.73
2401.84
2401.87
2401.88
2401.88
2401.87
2401.85
2401.83
2401.8
2401.68
131.645
131.153
131.061
131.051
131.05
131.046
131.042
131.055
131.187
131.768
101.087
101.072
101.065
101.062
101.064
101.069
101.076
101.085
101.102
101.142
99.9495
99.9477
99.9478
99.9469
99.9449
99.9421
99.9391
99.937
99.9374
99.9478
99.9083
99.9014
99.8977
99.8975
99.9001
99.9052
99.9121
99.9202
99.9289
99.9392
99.89
99.8876
99.8862
99.8858
99.8862
99.887
99.8878
99.8885
99.8893
99.8949
100.119
100.106
100.103
100.105
100.112
100.123
100.136
100.151
100.168
100.208
102.169
102.188
102.199
102.2
102.196
102.187
102.17
102.151
102.097
102.157
145.451
145.927
145.961
145.997
146.057
146.137
146.219
146.279
146.211
145.692
2609.7
2609.66
2609.65
2609.66
2609.69
2609.73
2609.79
2609.83
2609.87
2609.94
2215.03
2215.09
2215.1
2215.1
2215.1
2215.1
2215.09
2215.09
2215.09
2215.03
117.388
117.051
117.02
117.025
117.027
117.022
117.012
117.005
117.049
117.478
100.625
100.609
100.602
100.598
100.599
100.602
100.608
100.617
100.63
100.662
99.9659
99.9636
99.963
99.9623
99.9614
99.9602
99.9592
99.9586
99.9593
99.9663
99.9506
99.9469
99.945
99.9449
99.9461
99.9485
99.9517
99.9556
99.9601
99.9657
99.9405
99.9395
99.9389
99.9386
99.9385
99.9383
99.938
99.9376
99.9373
99.9386
100.009
100.004
100.002
100.003
100.006
100.01
100.014
100.019
100.026
100.045
101.125
101.127
101.129
101.128
101.122
101.113
101.1
101.087
101.069
101.111
125.761
126.044
126.061
126.082
126.114
126.157
126.199
126.223
126.174
125.833
2388.98
2388.96
2388.97
2388.97
2388.97
2388.97
2388.97
2388.97
2388.95
2388.99
7183.95
7294.25
7250.51
7044.05
658917
683866
689430
697310
1.49739e+06
1.5841e+06
1.59162e+06
1.57172e+06
2.52526e+06
2.70356e+06
2.70103e+06
2.61951e+06
3.76095e+06
4.05607e+06
4.02974e+06
3.86818e+06
5.30801e+06
5.75134e+06
5.69981e+06
5.48695e+06
6.8685e+06
7.46746e+06
7.40366e+06
7.20696e+06
7.88289e+06
8.61082e+06
8.55613e+06
8.42812e+06
5.61971e+06
6.17916e+06
6.11509e+06
6.08128e+06
7903.62
8151.37
7989
7569.78
5749.32
5802.11
5804.63
5765.5
308552
324673
345347
377325
689324
780868
824931
861812
1.17797e+06
1.40289e+06
1.4661e+06
1.49203e+06
1.76356e+06
2.17759e+06
2.2515e+06
2.26497e+06
2.45884e+06
3.11245e+06
3.2117e+06
3.24759e+06
3.13175e+06
4.0403e+06
4.20108e+06
4.31991e+06
3.5733e+06
4.70405e+06
4.94533e+06
5.18023e+06
2.80677e+06
3.81858e+06
4.00716e+06
4.32032e+06
7126.34
7357.93
7286.98
7066.63
4937.9
4948.86
4948.01
4938.29
21661
25960.4
24597.1
19966.5
61570.2
73410.3
68679.3
55731.5
128749
152840
140889
114033
228361
270537
246271
199440
372379
441933
401382
326406
545328
648541
591608
485407
702802
839398
769571
636846
584453
696866
629351
524653
6344.34
6431.65
6409.33
6314
4716.01
4718.14
4718.69
4717.89
1594.31
1711.3
1679.88
1545
4698.18
5172.49
5012.67
4434.65
11230.7
12505.1
11926.5
10213.8
22554.9
25254
23699.8
19746.2
41691.6
46923.3
43528.2
35537.3
68295.4
76985.8
70797
57129.9
97160.3
109914
100444
80430.1
83357.6
93765.3
84199.2
67266.3
5904.02
5945.71
5942.83
5904.91
4568.02
4568.92
4569.13
4568.6
423.283
436.215
438.469
431.555
710.116
757.058
761.573
731.386
1595.04
1736.84
1729.33
1610.31
3203.63
3529.33
3458.55
3118.67
6140.13
6823.4
6583.14
5758.28
10498.3
11693.8
11109.3
9472.75
15692.1
17555.6
16463.8
13724.7
13860.2
15397.2
14113.9
11586.4
5578.72
5600.75
5602.23
5586.62
4444.97
4445.72
4445.79
4445.17
275.586
278.458
279.171
277.912
226.359
231.459
233.287
232.247
385.585
403.076
407.314
400.547
674.052
717.862
722.114
696.123
1215.16
1316.48
1312.64
1233.52
2023.64
2211.44
2175.75
1991.41
3046.96
3360.47
3261.94
2904.55
2928.97
3183.3
3023.42
2664.15
5318.17
5328.95
5331.09
5325.52
4322.63
4323.35
4323.4
4322.77
241.775
243.681
244.08
243.023
140.135
140.888
141.242
141.228
175.866
178.565
179.693
179.439
243.2
250.227
252.463
250.763
368.971
386.595
390.323
383.182
549.223
582.684
585.326
565.807
795.519
854.98
852.136
807.128
984.683
1029.72
1010.25
962.494
5095.78
5100.66
5102.51
5101.26
4195.51
4196.21
4196.26
4195.66
228.094
229.812
230.151
229.141
118.189
118.327
118.381
118.358
125.852
126.302
126.527
126.554
146.029
147.259
147.802
147.781
183.405
186.916
188.183
187.622
233.787
240.34
242.095
240.308
314.611
327.183
329.122
323.566
543.029
548.691
546.176
542.486
4893.66
4895.67
4896.96
4897.15
4061.96
4062.62
4062.67
4062.11
219.49
221.145
221.473
220.498
110.888
110.945
110.954
110.915
110.347
110.419
110.457
110.465
117.765
117.975
118.086
118.118
131.711
132.521
132.875
132.842
149.877
151.234
151.774
151.734
187.357
190.298
191.144
190.484
400.183
397.207
396.46
399.119
4698.45
4699.14
4699.91
4700.4
3921.66
3922.27
3922.32
3921.81
212.195
213.794
214.115
213.177
107.868
107.917
107.921
107.881
104.484
104.491
104.494
104.494
107.574
107.596
107.61
107.622
113.656
113.877
113.977
113.969
121.96
122.211
122.351
122.428
144.579
145.282
145.545
145.483
335.329
330.247
329.467
332.882
4503.8
4503.9
4504.33
4504.79
3774.64
3775.2
3775.24
3774.77
205.055
206.595
206.907
206.007
106.338
106.386
106.391
106.353
101.988
101.986
101.984
101.983
103.358
103.35
103.347
103.349
106.198
106.277
106.309
106.296
110.765
110.778
110.804
110.857
126.728
126.859
126.911
126.906
297.59
292.08
291.174
294.489
4307.1
4306.97
4307.19
4307.53
3621.09
3621.59
3621.62
3621.2
197.657
199.136
199.437
198.575
105.37
105.417
105.423
105.388
100.853
100.851
100.849
100.848
101.489
101.481
101.476
101.476
102.817
102.856
102.869
102.856
105.715
105.685
105.683
105.713
117.997
117.975
117.957
117.945
271.426
265.973
265.019
268.133
4107.11
4106.93
4107.04
4107.27
3461.3
3461.74
3461.76
3461.39
189.834
191.247
191.537
190.716
104.624
104.668
104.674
104.641
100.318
100.317
100.316
100.316
100.637
100.632
100.629
100.627
101.224
101.249
101.256
101.244
103.288
103.261
103.254
103.269
113.192
113.132
113.092
113.07
250.818
245.571
244.624
247.547
3903.26
3903.13
3903.18
3903.29
3295.66
3296.02
3296.04
3295.71
181.495
182.841
183.12
182.341
103.966
104.007
104.013
103.983
100.064
100.064
100.064
100.064
100.245
100.243
100.241
100.239
100.469
100.487
100.492
100.482
102.071
102.055
102.049
102.055
110.241
110.18
110.134
110.103
232.984
227.995
227.085
229.83
3695.34
3695.31
3695.33
3695.33
3124.61
3124.91
3124.91
3124.64
172.573
173.852
174.119
173.385
103.349
103.387
103.392
103.365
99.9513
99.9523
99.9524
99.9515
100.065
100.064
100.063
100.061
100.119
100.132
100.135
100.127
101.425
101.419
101.416
101.415
108.201
108.151
108.107
108.067
216.46
211.759
210.902
213.473
3483.45
3483.54
3483.55
3483.46
2948.75
2948.98
2948.97
2948.74
163
164.211
164.468
163.779
102.757
102.793
102.798
102.772
99.9133
99.9154
99.9157
99.9142
99.9828
99.9828
99.9821
99.9809
99.9645
99.9737
99.9749
99.9684
101.04
101.043
101.042
101.035
106.605
106.573
106.534
106.484
200.393
196.011
195.222
197.613
3267.99
3268.19
3268.19
3268.03
2768.85
2769.01
2768.98
2768.8
152.691
153.837
154.086
153.445
102.191
102.224
102.229
102.205
99.9167
99.9199
99.9203
99.9179
99.9476
99.9482
99.9479
99.9471
99.9034
99.9095
99.9099
99.9049
100.761
100.771
100.771
100.761
105.208
105.199
105.166
105.106
184.223
180.216
179.513
181.699
3049.65
3049.93
3049.94
3049.73
2585.92
2586
2585.95
2585.82
141.542
142.634
142.878
142.281
101.648
101.68
101.685
101.662
99.9387
99.9428
99.9432
99.9401
99.9374
99.9385
99.9386
99.9381
99.889
99.8924
99.8923
99.889
100.511
100.524
100.525
100.514
103.876
103.891
103.866
103.8
167.523
164.009
163.415
165.335
2829.46
2829.79
2829.8
2829.58
2401.16
2401.14
2401.08
2401.01
129.373
130.425
130.665
130.103
101.141
101.169
101.172
101.151
99.9598
99.9641
99.9645
99.9613
99.9448
99.946
99.9464
99.9462
99.9026
99.9039
99.9038
99.9023
100.268
100.28
100.281
100.272
102.554
102.58
102.566
102.506
149.614
146.669
146.227
147.864
2608.73
2609.1
2609.12
2608.88
2215.02
2214.86
2214.8
2214.85
115.752
116.733
116.939
116.406
100.666
100.683
100.684
100.67
99.9738
99.9765
99.9767
99.9747
99.9697
99.9706
99.9711
99.9712
99.9403
99.9405
99.9404
99.9402
100.077
100.084
100.085
100.08
101.287
101.296
101.289
101.264
128.33
126.309
126.072
127.23
2388.2
2388.59
2388.6
2388.34
6105.81
5442.89
5173.15
5077.02
5022.21
4983.69
4958.08
4943.71
4935.73
4930.98
798391
193282
33403.5
11732.3
5300.72
2836.32
1749.33
1212.51
928.297
765.111
1.42406e+06
247048
44254.2
15129.3
6776.42
3637.41
2200.52
1460.45
1048.27
803.021
1.99548e+06
239536
46768.4
15018.1
6483.21
3391.16
2000.55
1297.51
912.93
688.59
2.45865e+06
252614
48935.2
14561.1
6098.32
3102.25
1792.07
1144.46
795.509
596.717
2.93039e+06
276401
51143.5
13974.8
5638.67
2768.64
1561.58
981.222
677.406
508.294
3.31262e+06
294976
52002.8
13162.7
5158.82
2467.93
1375.82
861.568
595.648
450.417
3.39659e+06
287392
47702.4
11002.4
4164.36
1946.8
1093.07
700.336
502.957
394.81
2.34166e+06
182157
27372.5
5711.45
2275.29
1237.94
858.036
671.625
568.195
506.587
6016.17
5992.95
5847.18
5822.78
5779.37
5755.08
5735.8
5725.55
5718.63
5712.68
5443.28
5175.2
5045.27
4972.7
4927.15
4897.14
4877.69
4866.14
4859.93
4855.99
180236
44894.5
13613.4
5322.72
2635.45
1567.18
1065.1
802.47
656.242
572.288
375676
86409.2
23467.2
8290.86
3889.07
2187.77
1383.86
956.195
710.783
565.743
595035
126245
30701.6
9651.62
4228.05
2261.56
1372.59
915.848
661.593
515.494
830504
165014
36427.8
10417.6
4317.6
2219.95
1310.37
857.634
610.405
472.01
1.1098e+06
207213
41753.8
10864.1
4247.2
2091.47
1198.76
768.905
542.093
418.485
1.38891e+06
244455
45356.5
10850.9
4055.89
1939.3
1095.73
699.607
493.243
382.957
1.56429e+06
258686
43999.4
9553.48
3395.89
1585.36
900.755
587.809
429.948
345.823
1.18225e+06
178732
26853.8
5249.96
1966.87
1091.43
771.673
615.215
526.607
476.295
6252.83
5952.89
5792.77
5733.94
5683.07
5652.3
5630.01
5616.4
5606.83
5598.52
4904.01
4869.18
4841.71
4818.91
4801.09
4788.17
4779.56
4774.4
4771.54
4769.49
9199.46
4175.78
2298.84
1432.77
985.4
735.86
591.214
504.96
452.247
420.437
23997.9
9564.66
4650.22
2546.86
1542.06
1010.24
712.676
538.343
431.111
364.752
45438
15962
6938.09
3411.14
1898.32
1159.03
771.528
555.689
428.531
352.739
73594.2
22902.7
9011.83
4056.09
2119.71
1232.35
791.801
556.659
421.543
343.283
112049
31041.9
11040.8
4548.41
2235.29
1237.03
767.193
526.292
393.52
318.991
156047
38869.6
12577.6
4795.13
2251.8
1206.02
734.784
500.598
373.479
303.543
191504
42871.7
12521.4
4385.65
1974.95
1036.75
636.28
443.068
341.774
286.187
141665
27756
7304.49
2547.4
1307.87
842.962
642.723
536.58
473.006
436.3
6018.32
5835.84
5711.22
5637.37
5584.27
5551.14
5528.13
5512.46
5500.87
5490.9
4712.99
4704.63
4695.46
4687.21
4680.96
4676.71
4674.06
4672.7
4672.37
4671.98
1208.04
906.49
708.874
570.479
479.263
420.775
383.192
358.479
341.796
331.522
3028.76
1919.52
1270.41
860.772
612.395
460.954
367.18
307.613
268.168
242.301
6221.02
3481.25
2057.55
1252.18
812.889
564.705
420.251
333.139
278.336
243.982
10747.2
5351.3
2878.33
1610.56
978.847
644.285
460.266
354.605
289.919
250.457
17346.6
7666.86
3761.54
1939.11
1105.23
689.17
472.656
353.781
284.442
243.622
25222.3
9947.9
4496.93
2165.92
1178.89
709.705
476.41
352.873
281.941
240.948
32104
11242.5
4659.36
2095.19
1100.69
652.781
441.612
333.006
272.8
238.105
23544.3
7367.28
2961.83
1443.42
906.146
663.593
542.628
472.675
427.915
401.456
5789.05
5660.52
5561.78
5497.88
5453.79
5424.91
5404.2
5389.34
5378.13
5368.65
4567.58
4566.35
4565.11
4564.14
4563.57
4563.32
4563.34
4563.72
4564.63
4565.47
412.731
382.969
356.674
334.889
318.459
306.414
297.564
290.934
285.855
282.608
637.774
512.559
411.736
334.522
279.764
241.961
216.076
198.174
185.236
176.179
1287.31
926.105
666.286
486.306
369.853
294.97
246.638
214.939
193.466
179.266
2276.17
1481.77
973.415
652.895
462.865
348.841
279.638
236.705
208.349
189.978
3814.36
2241.03
1346.92
830.65
548.855
390.259
299.437
245.698
212.121
191.241
5703.75
3044.39
1696.33
978.328
614.789
420.822
314.958
254.781
217.682
194.943
7460.59
3599.87
1861.21
1012.35
616.766
417.071
313.392
255.926
221.789
201.022
5662.33
2637.04
1436.18
904.144
665.889
539.384
466.862
421.212
389.973
371.105
5535.67
5459.62
5394.35
5347.95
5314.03
5289.78
5271.52
5257.81
5247.23
5238.42
4444.79
4444.91
4445.21
4445.68
4446.28
4446.92
4447.57
4448.37
4449.58
4451.02
277.888
274.891
271.419
267.993
264.975
262.414
260.26
258.413
256.79
255.485
225.928
210.881
194.966
180.655
169.148
160.377
153.852
148.964
145.035
142.074
373.143
321.838
273.243
233.346
203.638
182.282
167.101
156.243
148.278
142.752
613.205
488.045
382.077
302.911
248.818
212.618
188.486
172.249
160.535
152.455
1013.15
737.758
529.287
386.597
296.644
240.22
204.681
181.851
166.426
156.307
1522.13
1022.7
681.304
465.937
339.919
265.198
220.359
192.771
174.283
162.24
2045.5
1267
790.199
514.294
364.932
280.919
232.638
203.526
184.883
172.96
1814.38
1182.36
824.904
628.73
519.806
452.69
409.124
379.518
357.936
344.658
5303.33
5261.68
5221.84
5189.95
5164.52
5144.79
5129.21
5117.06
5107.45
5099.57
4322.52
4322.79
4323.24
4323.84
4324.53
4325.22
4325.87
4326.63
4327.77
4329.22
244.176
244.015
243.668
243.199
242.684
242.149
241.601
241.016
240.374
239.617
140.672
138.604
136.042
133.466
131.203
129.349
127.883
126.7
125.584
124.654
176.558
168.273
158.71
149.715
142.177
136.161
131.444
127.753
124.825
122.727
241.58
220.118
197.594
178.252
163.322
152.232
144.104
138.161
133.436
129.973
355.627
303.667
254.574
215.795
187.998
168.569
155.051
145.573
138.635
133.883
503.851
404.346
318.114
255.348
213.45
185.771
167.407
155.118
146.113
139.901
681.122
513.396
382.53
294.838
240.142
205.644
183.589
169.091
159.112
152.472
826.658
675.195
559.128
481.195
428.727
391.947
365.444
346.192
331.329
322.026
5091.77
5069.89
5046.09
5024.5
5005.8
4990.27
4977.46
4967.11
4958.73
4951.96
4195.42
4195.63
4195.97
4196.42
4196.94
4197.44
4197.91
4198.47
4199.4
4200.66
230.442
230.67
230.775
230.787
230.728
230.604
230.41
230.124
229.721
229.084
118.339
118.072
117.707
117.305
116.937
116.634
116.404
116.208
115.926
115.638
126.158
124.613
122.561
120.39
118.365
116.582
115.05
113.75
112.651
111.858
146.602
142.549
137.535
132.672
128.477
125.037
122.287
120.123
118.219
116.742
183.561
172.777
160.743
149.912
141.152
134.337
129.115
125.144
122.024
119.833
231.571
210.502
188.326
169.879
155.899
145.593
138.048
132.589
128.225
125.06
302.857
263.976
227.244
198.859
178.534
164.158
153.997
146.779
141.494
137.891
515.485
472.591
430.21
396.136
369.325
348.451
332.067
319.467
309.233
302.744
4892.52
4880.76
4866.38
4851.93
4838.5
4826.7
4816.57
4808.12
4801.09
4795.5
4061.88
4062.02
4062.23
4062.53
4062.87
4063.18
4063.46
4063.8
4064.5
4065.56
221.791
222.057
222.206
222.276
222.282
222.225
222.094
221.865
221.499
220.867
110.951
110.94
110.928
110.913
110.91
110.929
110.97
111.005
110.952
110.856
110.387
110.046
109.542
108.952
108.349
107.772
107.239
106.755
106.327
106.022
117.934
117.077
115.87
114.564
113.324
112.22
111.277
110.492
109.72
109.08
132.022
129.423
126.186
122.906
119.952
117.429
115.336
113.634
112.222
111.225
150.421
145.529
139.432
133.685
128.787
124.8
121.627
119.179
117.057
115.445
186.103