/*--------------------------------*- C++ -*----------------------------------*\
| =========                 |                                                 |
| \\      /  F ield         | foam-extend: Open Source CFD                    |
|  \\    /   O peration     | Version:     4.0                                |
|   \\  /    A nd           | Web:         http://www.foam-extend.org         |
|    \\/     M anipulation  |                                                 |
\*---------------------------------------------------------------------------*/
FoamFile
{
    version     2.0;
    format      ascii;
    class       volScalarField;
    location    "2300";
    object      k;
}
// * * * * * * * * * * * * * * * * * * * * * * * * * * * * * * * * * * * * * //

dimensions      [0 2 -2 0 0 0 0];

internalField   nonuniform List<scalar> 
34480
(
8.76721
8.7648
8.76467
8.76645
8.77026
8.77638
8.79133
8.85471
9.07725
9.6861
9.27961
8.66793
8.57524
8.85488
9.45398
10.3408
11.9395
15.8517
28.7374
67.0234
15.0394
13.57
13.124
13.2723
13.8427
14.8757
17.2092
22.9051
41.6356
101.406
14.4911
12.9636
12.5134
12.7077
13.4182
14.8327
18.0049
25.406
49.25
127.782
13.4281
12.0123
11.6613
11.9283
12.7798
14.4899
18.2594
26.9557
55.2701
151.576
12.2194
10.9459
10.6335
10.9153
11.8069
13.7004
17.9419
27.9021
61.0603
176.657
11.3265
10.2063
9.95173
10.2267
11.1218
13.0875
17.5893
28.4196
65.5177
198.015
9.83967
9.00339
8.79855
9.01429
9.72685
11.3971
15.4913
26.1244
64.5435
205.593
6.88239
6.61383
6.56518
6.67521
7.00464
7.72925
9.7298
16.2733
43.4108
149.666
9.23848
9.23873
9.24461
9.2575
9.27562
9.29722
9.32323
9.3618
9.43282
9.50598
8.67858
8.67558
8.675
8.67677
8.68154
8.68989
8.70315
8.73419
8.80843
9.06733
7.92975
7.50989
7.41656
7.57427
8.02128
8.86367
10.3052
12.1077
15.4273
41.1727
12.2349
11.1723
10.88
11.0833
11.762
13.0231
15.2209
18.122
23.7875
66.4127
12.139
10.9708
10.652
10.8952
11.7003
13.2508
16.0315
20.0139
28.3901
86.1797
11.5985
10.4646
10.1978
10.4739
11.3666
13.108
16.2966
21.0749
31.8417
104.295
10.805
9.75469
9.49929
9.77313
10.6715
12.4982
15.9678
21.4555
34.8373
123.701
10.2147
9.26253
9.04535
9.29893
10.1724
12.0006
15.6077
21.5517
37.1089
140.952
9.05408
8.33219
8.14806
8.33962
9.01735
10.515
13.6621
19.2848
35.7038
147.362
6.64484
6.3975
6.3433
6.41748
6.68218
7.26718
8.61402
11.5617
22.4913
102.416
9.11131
9.10662
9.10718
9.11439
9.12707
9.14289
9.16388
9.1996
9.2726
9.45785
8.57685
8.57397
8.57307
8.57405
8.57719
8.58216
8.58794
8.60086
8.62964
8.69529
6.78251
6.57091
6.51686
6.59277
6.82419
7.2712
8.06574
9.35971
11.1352
16.4366
9.69112
9.07102
8.91769
9.0853
9.60499
10.56
12.175
14.5696
17.5471
29.1787
9.88877
9.15079
8.96543
9.17934
9.83874
11.0945
13.2869
16.6416
21.1137
40.7609
9.75943
9.00425
8.84144
9.07818
9.81667
11.2603
13.8634
17.9403
23.7779
52.2523
9.33088
8.60346
8.43596
8.67387
9.42822
10.974
13.8886
18.6185
26.0237
64.9009
9.01593
8.33153
8.1853
8.40792
9.14941
10.7174
13.8023
18.9561
27.7475
76.9247
8.19522
7.66689
7.53763
7.70802
8.28304
9.56549
12.2711
17.1622
26.6517
82.8777
6.37358
6.18135
6.14152
6.20247
6.4134
6.87614
7.92502
10.3684
16.6985
57.1055
8.99178
8.98402
8.9815
8.98542
8.99504
9.00815
9.02617
9.05973
9.13852
9.33853
8.46138
8.45956
8.45905
8.45981
8.46198
8.46475
8.46596
8.46934
8.47827
8.49768
6.00856
5.91775
5.89065
5.92149
6.02172
6.21433
6.55106
7.13249
7.99599
9.8809
7.80854
7.49588
7.42301
7.51845
7.81994
8.3828
9.33389
10.8209
12.6577
17.0736
8.12461
7.70716
7.60341
7.74089
8.16703
8.98934
10.423
12.7265
15.5982
23.5539
8.24732
7.7887
7.69184
7.84966
8.3479
9.33546
11.1223
14.0845
17.8845
30.1249
8.08382
7.61538
7.50576
7.67273
8.2023
9.30142
11.3874
14.9951
19.864
37.6355
7.97583
7.51152
7.41205
7.57356
8.11051
9.25613
11.5226
15.5768
21.3675
44.9594
7.44527
7.07498
6.98294
7.11138
7.53528
8.48129
10.4798
14.3817
20.6522
48.7681
6.13162
5.98465
5.95475
6.00072
6.15812
6.49611
7.22476
8.98533
12.9804
33.0373
8.85788
8.85008
8.84726
8.85064
8.85975
8.87338
8.89223
8.92613
8.99931
9.15517
8.33371
8.33288
8.33271
8.33319
8.33437
8.33524
8.33364
8.33227
8.33219
8.33433
5.53759
5.50314
5.49005
5.49993
5.53611
5.60487
5.72015
5.91161
6.17866
6.62113
6.56593
6.42824
6.39744
6.43772
6.5741
6.83241
7.27145
7.98203
8.87907
10.3566
6.87195
6.65528
6.59866
6.66941
6.89664
7.33928
8.11401
9.40812
11.0453
14.0196
7.10199
6.84224
6.78588
6.87319
7.15869
7.72683
8.75911
10.5598
12.8858
17.7758
7.09726
6.81064
6.73892
6.83942
7.16322
7.83566
9.1154
11.4643
14.6136
22.2338
7.12081
6.81801
6.74991
6.85185
7.19674
7.92869
9.37323
12.1312
15.9825
26.6476
6.81343
6.5618
6.49571
6.58178
6.86387
7.48515
8.77841
11.4745
15.6916
29.0131
5.91843
5.80755
5.7848
5.81662
5.92762
6.15994
6.63027
7.74133
10.1054
19.2392
8.71444
8.70674
8.70372
8.70659
8.71505
8.72847
8.74695
8.77839
8.83991
8.95243
8.19475
8.19468
8.19477
8.19504
8.1955
8.19509
8.19262
8.19005
8.18787
8.18656
5.27033
5.25892
5.25258
5.25484
5.26614
5.28798
5.32346
5.37805
5.4475
5.53732
5.80936
5.75792
5.7482
5.76162
5.81264
5.9095
6.07207
6.33469
6.67423
7.13893
6.04294
5.93924
5.91046
5.94294
6.05117
6.25966
6.61639
7.21165
7.98786
9.1067
6.28227
6.1456
6.11574
6.15939
6.30764
6.5974
7.11197
8.02107
9.23792
11.203
6.35105
6.18547
6.14126
6.19746
6.38049
6.75298
7.44431
8.74042
10.5396
13.8038
6.44212
6.25415
6.21037
6.27051
6.47784
6.90711
7.72896
9.3405
11.6533
16.3939
6.29321
6.13031
6.0855
6.14046
6.31823
6.69916
7.46005
9.07697
11.6573
17.7686
5.73293
5.65178
5.63556
5.65689
5.73314
5.88842
6.18398
6.83618
8.10058
11.8448
8.56052
8.55319
8.55017
8.55264
8.56039
8.57303
8.59037
8.61822
8.66626
8.74102
8.04508
8.04552
8.0458
8.04593
8.0459
8.04471
8.0424
8.03992
8.03767
8.03601
5.1266
5.12319
5.11973
5.11966
5.12255
5.12895
5.13906
5.15343
5.16959
5.18566
5.3759
5.36096
5.36008
5.36295
5.37797
5.40717
5.45619
5.53388
5.63284
5.75054
5.52651
5.47958
5.46564
5.47942
5.52752
5.61829
5.76703
6.00378
6.30877
6.68038
5.72716
5.65973
5.64543
5.66542
5.73712
5.87324
6.10445
6.49904
7.03141
7.75017
5.81504
5.72397
5.69809
5.72767
5.82541
6.01854
6.36056
6.98387
7.86726
9.18698
5.92897
5.81719
5.7906
5.82391
5.94241
6.17997
6.6121
7.43962
8.65431
10.6617
5.88358
5.78311
5.75428
5.78767
5.8943
6.11616
6.53633
7.40175
8.80322
11.4705
5.57813
5.52016
5.50919
5.52293
5.57397
5.67521
5.85869
6.23083
6.89037
8.32518
8.39557
8.38885
8.38598
8.3881
8.39502
8.40638
8.42193
8.44563
8.48222
8.53151
7.88502
7.88578
7.88618
7.88621
7.88591
7.88456
7.88269
7.8807
7.87891
7.87757
5.05198
5.05076
5.0485
5.04799
5.04862
5.05065
5.05362
5.05744
5.061
5.06341
5.13785
5.1362
5.13823
5.13783
5.14009
5.14555
5.156
5.17354
5.19604
5.22003
5.21959
5.19894
5.19232
5.19792
5.21871
5.25713
5.31718
5.40613
5.51477
5.62681
5.36807
5.33675
5.33075
5.3392
5.37215
5.43284
5.53105
5.68805
5.89271
6.12699
5.44707
5.39921
5.38477
5.39964
5.44974
5.54583
5.70751
5.98373
6.36787
6.85613
5.55773
5.49378
5.47854
5.496
5.56124
5.6879
5.90589
6.29788
6.86482
7.64812
5.57428
5.51557
5.49807
5.51747
5.57853
5.70232
5.92563
6.35726
7.04567
8.13536
5.45381
5.41322
5.40624
5.41483
5.44842
5.51342
5.62682
5.83776
6.18539
6.75855
8.21907
8.21315
8.21054
8.21233
8.21833
8.22808
8.24143
8.26083
8.28804
8.32095
7.71466
7.71561
7.71608
7.71606
7.7156
7.71448
7.71309
7.71163
7.71033
7.70933
5.01364
5.01274
5.01107
5.01064
5.01092
5.01191
5.01316
5.01455
5.0155
5.01565
5.01144
5.0136
5.01607
5.01506
5.01374
5.01242
5.01193
5.01302
5.01554
5.01857
5.04475
5.03552
5.0323
5.03457
5.04367
5.06022
5.08499
5.11905
5.1579
5.19175
5.1454
5.13162
5.12957
5.13286
5.14747
5.17372
5.21449
5.27515
5.34997
5.42254
5.20532
5.18121
5.17349
5.18071
5.2056
5.25216
5.32727
5.44634
5.60504
5.77833
5.30062
5.26518
5.25693
5.26565
5.30063
5.36667
5.47508
5.6555
5.9051
6.19342
5.35056
5.31836
5.30843
5.31926
5.35258
5.41879
5.53419
5.74202
6.06225
6.49185
5.35788
5.32979
5.32565
5.33095
5.35293
5.3945
5.46459
5.58459
5.76936
6.02089
8.0306
8.02559
8.02334
8.02482
8.02984
8.03782
8.04883
8.0641
8.08382
8.1057
7.53417
7.535
7.53551
7.53546
7.53501
7.53422
7.53324
7.53222
7.53133
7.5306
4.99322
4.99239
4.99108
4.99081
4.99115
4.99191
4.99282
4.99374
4.99433
4.99423
4.94616
4.94878
4.95087
4.95005
4.94827
4.94585
4.94332
4.94112
4.93966
4.93898
4.94928
4.94482
4.94312
4.94411
4.94833
4.95592
4.96685
4.98091
4.99593
5.00714
5.01295
5.00711
5.00664
5.00782
5.01424
5.02556
5.04257
5.06622
5.09365
5.11683
5.05337
5.04169
5.03771
5.04114
5.05325
5.07542
5.11009
5.16145
5.22692
5.29112
5.13023
5.11095
5.10671
5.11093
5.12947
5.16362
5.21763
5.30109
5.41038
5.51828
5.1957
5.17943
5.17428
5.18012
5.19735
5.23111
5.28881
5.38656
5.53153
5.70581
5.28668
5.26728
5.26503
5.26837
5.28292
5.30977
5.35333
5.42229
5.52051
5.64044
7.82986
7.82582
7.82396
7.82516
7.82918
7.83545
7.84417
7.85575
7.86966
7.88397
7.34328
7.34395
7.34438
7.34434
7.34404
7.3435
7.34284
7.34215
7.34155
7.34101
4.98134
4.98062
4.97967
4.97951
4.97986
4.98053
4.98134
4.98215
4.98272
4.98262
4.91316
4.91532
4.91688
4.91636
4.91497
4.91301
4.91082
4.90874
4.9072
4.90635
4.89944
4.897
4.89602
4.8965
4.89865
4.90246
4.90778
4.91428
4.92088
4.92515
4.93747
4.93492
4.93491
4.93533
4.93827
4.94341
4.9509
4.96066
4.97118
4.97929
4.96218
4.95671
4.95471
4.95634
4.96216
4.97263
4.98861
5.01098
5.03837
5.06425
5.02226
5.01175
5.00964
5.01172
5.02164
5.03951
5.06686
5.10648
5.15534
5.19849
5.09317
5.08592
5.08362
5.08668
5.09501
5.11121
5.13864
5.18312
5.24649
5.3217
5.23573
5.22221
5.22115
5.22338
5.23331
5.25106
5.2785
5.31879
5.3709
5.43179
7.61669
7.61358
7.61214
7.61306
7.61614
7.62087
7.62753
7.63599
7.64553
7.65472
7.14174
7.14229
7.14263
7.14261
7.14242
7.14207
7.14163
7.14118
7.14079
7.14036
4.97347
4.97291
4.97226
4.97218
4.97249
4.97306
4.97376
4.97445
4.975
4.97486
4.89666
4.89827
4.89937
4.8991
4.8982
4.8969
4.89545
4.89407
4.89313
4.89263
4.87472
4.87323
4.87264
4.87291
4.87408
4.87614
4.87896
4.8823
4.88564
4.88753
4.89636
4.89503
4.89504
4.89522
4.89675
4.89942
4.90319
4.90779
4.91235
4.91573
4.91008
4.90757
4.90657
4.90736
4.91017
4.91513
4.92253
4.93242
4.94409
4.95558
4.95689
4.95095
4.9499
4.95103
4.95656
4.96629
4.98067
5.00038
5.02318
5.04215
5.02817
5.02567
5.02498
5.02656
5.03021
5.03731
5.04926
5.06827
5.09394
5.12882
5.20036
5.19074
5.19039
5.19206
5.19915
5.21128
5.22895
5.25307
5.28067
5.31353
7.39104
7.38878
7.38773
7.38841
7.39062
7.3941
7.39898
7.40494
7.41128
7.41708
6.92934
6.9298
6.93006
6.93006
6.92995
6.92972
6.92944
6.92915
6.92889
6.92853
4.96745
4.9671
4.9667
4.96667
4.96692
4.96736
4.96792
4.96848
4.96898
4.96874
4.88842
4.88959
4.89035
4.89024
4.88972
4.88896
4.88813
4.88736
4.88696
4.88674
4.86323
4.8623
4.86197
4.86211
4.86276
4.86388
4.8654
4.8672
4.86907
4.87002
4.87503
4.87413
4.87401
4.87412
4.87509
4.87678
4.87906
4.88172
4.88415
4.88599
4.88185
4.88068
4.88018
4.88058
4.88196
4.88436
4.88783
4.89229
4.89739
4.90306
4.91901
4.9154
4.91485
4.91557
4.91889
4.92457
4.93262
4.94316
4.9546
4.96418
4.98843
4.98821
4.98836
4.98918
4.99053
4.99313
4.99747
5.00457
5.01309
5.03088
5.17621
5.16921
5.16925
5.17065
5.17598
5.18456
5.19631
5.21122
5.22578
5.24493
7.15296
7.15141
7.15071
7.15118
7.15269
7.1552
7.15863
7.16266
7.16675
7.17033
6.70592
6.70631
6.70652
6.70652
6.70646
6.70632
6.70614
6.70595
6.70578
6.70546
4.96235
4.96221
4.96201
4.96202
4.96221
4.96253
4.96292
4.96334
4.96381
4.96345
4.88422
4.88509
4.8856
4.88559
4.88533
4.88495
4.88456
4.88421
4.88418
4.88417
4.85845
4.85791
4.85776
4.85783
4.85815
4.85869
4.85945
4.86038
4.86146
4.86199
4.86459
4.86384
4.86361
4.86371
4.86441
4.86564
4.86728
4.8691
4.8707
4.87198
4.86743
4.86685
4.86658
4.86679
4.8675
4.86871
4.87039
4.87248
4.87478
4.8779
4.89783
4.89543
4.89509
4.89565
4.89783
4.90142
4.9063
4.91247
4.91881
4.92461
4.96448
4.96519
4.96574
4.96618
4.96649
4.96704
4.96787
4.96965
4.97065
4.98099
5.15951
5.15438
5.15464
5.15592
5.16004
5.16638
5.1745
5.18407
5.19161
5.2039
6.90271
6.90164
6.90121
6.90151
6.90255
6.90428
6.90659
6.90921
6.91173
6.91391
6.47141
6.47174
6.4719
6.47191
6.47188
6.47179
6.47168
6.47155
6.47144
6.47114
4.95774
4.95783
4.95778
4.95784
4.95796
4.95816
4.95842
4.9587
4.95917
4.95871
4.88198
4.88264
4.88296
4.883
4.88291
4.88278
4.88268
4.88261
4.88284
4.88298
4.85696
4.8567
4.85667
4.8567
4.8568
4.85698
4.85727
4.85767
4.85827
4.85862
4.85988
4.85922
4.85894
4.85901
4.85955
4.8605
4.86175
4.86311
4.86431
4.86531
4.86061
4.86026
4.86009
4.8602
4.86059
4.86124
4.86211
4.86315
4.86424
4.86613
4.8861
4.88438
4.88413
4.88459
4.88612
4.88856
4.89175
4.89566
4.89956
4.90373
4.94944
4.95038
4.95108
4.95135
4.95126
4.951
4.95044
4.95008
4.94803
4.95504
5.14737
5.14358
5.144
5.14519
5.14847
5.15335
5.15919
5.1656
5.16926
5.17801
6.6405
6.6398
6.63952
6.63973
6.64042
6.64155
6.64303
6.64464
6.64611
6.64742
6.22586
6.22616
6.22627
6.22628
6.22627
6.22622
6.22615
6.22606
6.22598
6.2257
4.95346
4.95377
4.95383
4.95393
4.95401
4.95411
4.95424
4.95441
4.95491
4.95441
4.88063
4.88112
4.8813
4.88135
4.88136
4.88139
4.88147
4.88159
4.88198
4.88229
4.85702
4.85695
4.85698
4.85698
4.85696
4.85693
4.85694
4.85704
4.85734
4.85764
4.85804
4.85747
4.85718
4.85723
4.85763
4.85835
4.85929
4.86031
4.86124
4.86204
4.85774
4.85749
4.85736
4.85741
4.85764
4.85802
4.85851
4.85906
4.85961
4.86082
4.87923
4.87792
4.87772
4.87809
4.87919
4.8809
4.88308
4.88568
4.88824
4.89155
4.93854
4.93936
4.94005
4.94025
4.94009
4.93964
4.93871
4.93771
4.93472
4.94011
5.13757
5.13479
5.13528
5.13641
5.13911
5.14297
5.14734
5.1518
5.15322
5.15998
6.36666
6.36623
6.36606
6.3662
6.36663
6.36732
6.36822
6.36915
6.36994
6.3707
5.96958
5.96983
5.96992
5.96993
5.96993
5.9699
5.96985
5.96979
5.96973
5.96947
4.94938
4.94988
4.95003
4.95017
4.95022
4.95024
4.95027
4.95035
4.95091
4.95046
4.87956
4.87989
4.87995
4.87998
4.88004
4.88017
4.88036
4.88059
4.88106
4.88157
4.85775
4.85776
4.85782
4.8578
4.85772
4.8576
4.85747
4.85742
4.85755
4.85786
4.85756
4.85709
4.85684
4.85686
4.85714
4.85764
4.85831
4.85903
4.85972
4.86037
4.85686
4.85666
4.85655
4.85657
4.8567
4.85693
4.85721
4.85751
4.8578
4.85858
4.87434
4.87335
4.87317
4.87344
4.87421
4.87538
4.87683
4.87855
4.88027
4.88293
4.92852
4.92908
4.92969
4.92986
4.92974
4.92935
4.9285
4.9275
4.92454
4.92896
5.12814
5.12618
5.12667
5.12774
5.12997
5.13307
5.13643
5.13957
5.13966
5.14509
6.08173
6.08149
6.08139
6.08148
6.08172
6.08211
6.08262
6.0831
6.08348
6.08391
5.70321
5.70342
5.70348
5.7035
5.7035
5.70348
5.70344
5.7034
5.70334
5.7031
4.94521
4.94585
4.94607
4.94625
4.94629
4.94625
4.94618
4.94617
4.94676
4.94657
4.87839
4.87852
4.87848
4.87848
4.87856
4.87872
4.87895
4.87923
4.87971
4.88042
4.85858
4.85858
4.85862
4.85859
4.85851
4.85838
4.85823
4.85814
4.85819
4.85853
4.85768
4.85733
4.85714
4.85714
4.85731
4.85763
4.85805
4.85853
4.859
4.8595
4.85697
4.85681
4.85673
4.85673
4.8568
4.85691
4.85705
4.85719
4.85734
4.85779
4.86969
4.86898
4.86883
4.86899
4.86947
4.87019
4.87107
4.8721
4.8732
4.87524
4.91724
4.91752
4.918
4.91814
4.91805
4.91774
4.91707
4.91626
4.91381
4.91738
5.11632
5.11504
5.1155
5.11647
5.11827
5.12071
5.12326
5.1254
5.12468
5.12891
5.78656
5.78643
5.78638
5.78642
5.78654
5.78674
5.78699
5.78721
5.78736
5.78758
5.42759
5.42776
5.4278
5.42781
5.42781
5.4278
5.42778
5.42774
5.42769
5.42751
4.93953
4.94017
4.94055
4.94078
4.94083
4.94075
4.94057
4.94041
4.94078
4.94108
4.87678
4.87666
4.87655
4.87651
4.87657
4.87672
4.87694
4.87723
4.87765
4.87849
4.8591
4.85904
4.85904
4.85901
4.85895
4.85886
4.85877
4.85871
4.85874
4.85908
4.85814
4.85791
4.85779
4.85778
4.85787
4.85804
4.85827
4.85854
4.85884
4.85918
4.8576
4.85751
4.85746
4.85745
4.85746
4.8575
4.85754
4.85758
4.85762
4.85783
4.86472
4.86427
4.86416
4.86424
4.86448
4.86484
4.86527
4.86577
4.86637
4.86773
4.90353
4.90357
4.90386
4.90391
4.90378
4.90347
4.90293
4.9023
4.90068
4.90331
5.09504
5.09434
5.09473
5.09552
5.09686
5.09863
5.10042
5.10168
5.10052
5.10332
5.48212
5.48206
5.48204
5.48206
5.4821
5.48216
5.48224
5.4823
5.48235
5.48245
5.14253
5.14263
5.14264
5.14264
5.14264
5.14264
5.14264
5.14263
5.14263
5.14254
4.9247
4.92527
4.92589
4.92622
4.9263
4.92618
4.92589
4.92548
4.92508
4.92571
4.87368
4.87333
4.87313
4.87303
4.87304
4.87316
4.87336
4.87364
4.87404
4.87487
4.85937
4.8593
4.85928
4.85925
4.85922
4.85919
4.85915
4.85913
4.85916
4.85939
4.85895
4.85883
4.85877
4.85876
4.8588
4.85888
4.85899
4.85912
4.85927
4.85945
4.85863
4.85859
4.85857
4.85856
4.85856
4.85855
4.85854
4.85853
4.85852
4.85857
4.86083
4.86064
4.86058
4.86061
4.8607
4.86083
4.86098
4.86115
4.86138
4.86202
4.88685
4.88669
4.88675
4.88669
4.88651
4.8862
4.88578
4.88537
4.8848
4.88649
5.0409
5.04061
5.04086
5.04137
5.04216
5.04319
5.04421
5.04477
5.04376
5.0448
5.16848
5.16845
5.16846
5.16846
5.16846
5.16847
5.16846
5.16846
5.16843
5.16849
11.269
11.384
11.3385
11.1222
82.8104
84.8877
85.3475
85.9967
143.138
148.612
149.081
147.837
202.801
212.238
212.105
207.816
264.482
278.143
276.938
269.486
332.776
351.057
348.957
340.214
395.159
417.811
415.428
408.037
433.166
459.438
457.491
452.916
345.679
368.256
365.706
364.357
11.4769
11.7155
11.5594
11.1514
9.71375
9.77312
9.77596
9.73197
76.0776
79.3217
80.0812
80.2023
133.885
144.805
145.907
143.742
192.906
214.535
215.071
209.174
256.14
290.983
290.036
280.086
329.511
380.274
378.499
365.624
399.6
466.621
465.653
452.623
446.085
527.573
528.614
517.423
350.518
422.878
420.968
416.133
10.7115
10.9423
10.8719
10.6516
8.77683
8.78981
8.7888
8.77729
26.538
28.9549
28.2176
25.7085
49.3569
53.7632
52.0992
47.4255
74.5828
81.3423
78.2229
70.7075
103.457
112.997
107.818
96.7362
139.442
152.805
145.178
129.285
177.31
194.675
184.516
163.493
207.528
228.705
216.445
190.909
164.727
181.62
170.138
149.302
9.91282
10.0036
9.9804
9.88119
8.51189
8.51445
8.51511
8.51415
11.4729
11.7226
11.693
11.4959
21.2127
21.94
21.8767
21.3345
31.9972
33.484
33.2322
31.9165
44.5106
46.9441
46.28
43.758
60.634
64.4026
63.0829
58.7668
78.0556
83.1685
80.9018
74.458
92.5752
99.1258
95.8392
87.1473
71.9345
77.0749
73.5632
65.9621
9.44868
9.49311
9.49004
9.44963
8.33287
8.33397
8.33423
8.33358
7.04187
7.13344
7.15865
7.1288
11.6779
11.9742
12.0572
11.9712
16.8711
17.4857
17.5862
17.3195
22.8366
23.8566
23.8925
23.2886
30.713
32.3381
32.2254
31.0367
39.2231
41.4579
41.0403
39.0611
46.2613
49.1974
48.3806
45.4006
34.4008
36.6195
35.4293
32.5493
9.09834
9.12228
9.12389
9.10693
8.18255
8.18347
8.18356
8.18279
5.6067
5.62098
5.62621
5.62449
7.45587
7.52582
7.55855
7.55992
9.93742
10.1212
10.1884
10.1633
12.8336
13.1794
13.2658
13.1653
16.7961
17.4126
17.5025
17.2348
21.0456
21.9424
21.9659
21.4367
24.4781
25.7302
25.6287
24.6925
17.4807
18.3748
18.0204
17.0168
8.8128
8.82471
8.82707
8.82093
8.03171
8.0326
8.03267
8.03189
5.19692
5.20012
5.20099
5.20001
5.82311
5.83893
5.84758
5.84978
6.91426
6.96716
6.99234
6.99344
8.25893
8.37119
8.41553
8.40582
10.2336
10.4612
10.5312
10.4824
12.3586
12.7064
12.7766
12.6576
14.053
14.5727
14.6194
14.3551
10.2218
10.558
10.4795
10.1883
8.56537
8.57084
8.57292
8.57151
7.87347
7.87434
7.87441
7.87366
5.06321
5.06438
5.06439
5.06346
5.23313
5.23551
5.23695
5.2376
5.68404
5.69641
5.70295
5.70433
6.26557
6.29593
6.31048
6.31201
7.19408
7.26968
7.30034
7.29464
8.21559
8.33656
8.37642
8.35776
9.06865
9.26915
9.31373
9.24834
7.33891
7.45163
7.44557
7.37949
8.33736
8.33964
8.3411
8.34132
7.70548
7.70632
7.70639
7.70568
5.01329
5.01422
5.01416
5.01324
5.02032
5.02044
5.0205
5.02054
5.20441
5.20675
5.20804
5.20841
5.45535
5.46197
5.46556
5.46667
5.88057
5.90355
5.91411
5.91397
6.35899
6.39481
6.41014
6.41042
6.80636
6.87765
6.90016
6.8855
6.19851
6.23243
6.23677
6.22625
8.11414
8.11493
8.11582
8.11638
7.52702
7.5278
7.52786
7.52721
4.99134
4.99219
4.99214
4.99126
4.93893
4.93883
4.93873
4.93864
5.00959
5.00982
5.00994
5.01
5.12348
5.12438
5.12495
5.12534
5.32338
5.3304
5.33371
5.33364
5.55976
5.56821
5.57284
5.5749
5.81405
5.83891
5.84799
5.84375
5.69864
5.7062
5.70886
5.70963
7.88846
7.88858
7.88908
7.88961
7.3377
7.33842
7.33848
7.33787
4.97959
4.98038
4.98032
4.97949
4.90613
4.9061
4.90602
4.9059
4.92538
4.92527
4.92521
4.92522
4.9803
4.98015
4.98009
4.98017
5.07668
5.07924
5.08036
5.08005
5.20666
5.20775
5.20882
5.21019
5.3663
5.37601
5.37934
5.37664
5.45414
5.4532
5.45378
5.45607
7.65707
7.65691
7.65718
7.65758
7.13733
7.13798
7.13803
7.13748
4.97183
4.97253
4.97246
4.97167
4.89242
4.89243
4.89237
4.89225
4.8873
4.88718
4.88712
4.88714
4.91575
4.91554
4.91541
4.91539
4.96186
4.96313
4.96359
4.96324
5.04266
5.04219
5.04228
5.04303
5.15354
5.15839
5.15953
5.15696
5.32494
5.32163
5.32113
5.32307
7.41817
7.41796
7.41809
7.41836
6.92579
6.92637
6.9264
6.92591
4.9658
4.9664
4.9663
4.96555
4.88654
4.88656
4.88651
4.88638
4.86973
4.86964
4.86961
4.86963
4.88596
4.88583
4.88573
4.88569
4.90699
4.90779
4.90804
4.90773
4.96375
4.96322
4.9631
4.96347
5.04877
5.05199
5.05233
5.04976
5.25294
5.24939
5.24849
5.24978
7.17063
7.17048
7.17054
7.17067
6.70302
6.70352
6.70354
6.7031
4.96066
4.96114
4.96102
4.96031
4.88397
4.884
4.88395
4.88382
4.86175
4.8617
4.86169
4.86171
4.87203
4.87197
4.87191
4.87186
4.88063
4.8812
4.88135
4.88109
4.92484
4.92456
4.92446
4.92457
4.99616
4.99879
4.99883
4.99625
5.21088
5.20784
5.20685
5.2075
6.91367
6.91363
6.91366
6.91366
6.46905
6.46946
6.46946
6.46908
4.9561
4.95647
4.95631
4.95565
4.88285
4.88289
4.88284
4.88271
4.85849
4.85848
4.85847
4.85848
4.86542
4.8654
4.86536
4.86532
4.86809
4.8685
4.86859
4.86837
4.90484
4.90483
4.90478
4.90471
4.96893
4.97135
4.97127
4.96867
5.18474
5.18248
5.18157
5.18158
6.6468
6.64691
6.64692
6.64681
6.22399
6.22431
6.22429
6.22397
4.95205
4.95231
4.95212
4.95151
4.88233
4.88241
4.88237
4.88221
4.85765
4.85768
4.85768
4.85767
4.86219
4.86219
4.86217
4.86214
4.86222
4.86251
4.86256
4.86238
4.89336
4.89358
4.89358
4.89336
4.95328
4.95569
4.95557
4.95288
5.16678
5.16543
5.16466
5.16404
6.36982
6.37006
6.37007
6.36987
5.96819
5.96841
5.96837
5.96811
4.94846
4.94864
4.94844
4.94788
4.88193
4.88208
4.88205
4.88185
4.85805
4.85811
4.85812
4.85808
4.86054
4.86056
4.86055
4.86053
4.85952
4.85971
4.85973
4.85959
4.88512
4.8855
4.88553
4.88523
4.94148
4.94401
4.94389
4.9411
5.152
5.15168
5.15111
5.14986
6.08283
6.0832
6.08322
6.08294
5.70234
5.70245
5.70239
5.7022
4.9452
4.94538
4.9452
4.94467
4.88123
4.88148
4.88147
4.8812
4.85887
4.85898
4.85899
4.85892
4.85969
4.85972
4.85972
4.85971
4.85835
4.85846
4.85846
4.85836
4.87745
4.87789
4.87794
4.87762
4.92868
4.93134
4.93126
4.92843
5.1357
5.13659
5.13631
5.13436
5.7864
5.78685
5.78687
5.78656
5.42738
5.42735
5.42726
5.42716
4.941
4.94139
4.94127
4.94066
4.8796
4.87994
4.87994
4.8796
4.85947
4.85959
4.8596
4.85952
4.85936
4.8594
4.85941
4.85941
4.85808
4.85813
4.85812
4.85808
4.86955
4.86995
4.87001
4.86973
4.91187
4.91429
4.91426
4.91179
5.10923
5.11163
5.1117
5.10889
5.48141
5.48193
5.48196
5.48162
5.14313
5.14289
5.1428
5.14287
4.92732
4.92821
4.92819
4.92723
4.87564
4.87587
4.87584
4.87558
4.85962
4.8597
4.85971
4.85965
4.85958
4.85961
4.85962
4.85963
4.85863
4.85863
4.85863
4.85863
4.86301
4.86323
4.86327
4.86313
4.89064
4.8918
4.89177
4.89056
5.04763
5.05116
5.05147
5.04804
5.16797
5.16853
5.16854
5.16817
10.1125
9.36665
9.05457
8.94205
8.87757
8.83212
8.80185
8.78483
8.77537
8.76974
103.674
49.1183
35.748
29.9536
24.5565
19.9489
16.3629
13.6891
11.7812
10.4191
160.953
70.861
51.0938
43.743
37.1915
31.4254
26.5927
22.7119
19.6682
17.2937
206.428
82.5944
55.9826
46.7285
39.3622
32.7666
27.2286
22.835
19.4435
16.8557
242.065
88.9527
58.8266
47.9657
40.0775
32.7364
26.6768
21.9544
18.3678
15.7223
278.038
94.6918
60.9746
48.3026
39.8457
31.7873
25.3526
20.4649
16.8821
14.3308
307.096
98.1596
61.6908
47.7813
39.0462
30.5199
23.9436
19.0742
15.5946
13.2104
315.209
93.7528
56.6282
42.228
33.9177
25.7871
19.9243
15.797
13.046
11.2291
224.473
56.1342
30.5433
21.1161
16.2834
12.2241
9.95515
8.61306
7.80409
7.27991
9.56918
9.54454
9.38913
9.36299
9.31641
9.29028
9.26952
9.25847
9.25101
9.24459
9.3671
9.05696
8.90474
8.81914
8.7652
8.72958
8.70644
8.6927
8.68529
8.6806
53.1032
28.6709
22.5567
19.4496
16.6687
14.1978
12.1631
10.6005
9.46072
8.66858
89.9997
46.275
35.801
31.0212
27.1815
23.5091
20.2905
17.6315
15.5034
13.8844
122.267
58.6128
42.8654
35.6346
30.5507
25.7667
21.6962
18.4229
15.8729
13.9863
152.566
68.7687
47.857
38.5207
32.3849
26.6785
21.9776
18.2982
15.4857
13.4755
186.44
78.8767
52.1456
40.4761
33.2584
26.6699
21.4543
17.4961
14.5915
12.5914
217.207
86.4758
54.7139
41.2504
33.3539
26.178
20.6983
16.6612
13.7709
11.8534
233.198
86.7508
51.9183
37.4845
29.5786
22.5777
17.5744
14.0835
11.7635
10.2831
167.408
54.756
29.0624
19.3796
14.6949
11.2266
9.27458
8.12952
7.4336
7.00274
9.81851
9.50196
9.3308
9.26752
9.21262
9.17934
9.15518
9.14043
9.13004
9.12102
8.73773
8.69631
8.66358
8.63635
8.61505
8.59959
8.58928
8.5831
8.57966
8.5772
19.9483
16.5765
14.5029
12.6846
11.1149
9.81183
8.79751
8.0486
7.50984
7.13723
35.9209
28.7126
24.9257
21.6897
18.914
16.5057
14.5106
12.9061
11.6308
10.6689
51.0383
37.9368
31.5413
26.3507
22.2596
18.84
16.0967
13.9474
12.288
11.0742
66.1295
45.6931
36.6305
29.594
24.3794
20.1256
16.8136
14.2905
12.379
11.0258
83.2272
53.3447
41.1446
32.0847
25.7356
20.6617
16.8422
14.0202
11.9742
10.5806
99.1255
59.1915
44.1509
33.4586
26.3366
20.7056
16.5978
13.6544
11.5706
10.1994
108.42
59.7587
42.6
31.0008
23.7647
18.2181
14.4246
11.8569
10.1704
9.09753
75.9442
36.6495
23.8685
16.2729
12.2256
9.68242
8.28971
7.47147
6.96267
6.64327
9.57146
9.37699
9.24302
9.16316
9.10553
9.06949
9.0444
9.0273
9.01465
9.00375
8.50934
8.49927
8.48822
8.47828
8.47074
8.46561
8.46241
8.46077
8.46037
8.4599
10.9415
10.1335
9.28437
8.43995
7.73276
7.19004
6.79122
6.50318
6.29461
6.14954
19.868
18.0289
16.177
14.304
12.6882
11.3599
10.2985
9.46266
8.80339
8.30883
28.4783
24.6336
21.1906
17.9887
15.4007
13.3285
11.7049
10.4519
9.49347
8.79826
37.2438
30.6673
25.4316
20.8637
17.3676
14.6401
12.5633
11.0094
9.8417
9.01739
47.4708
36.9717
29.5249
23.3601
18.8649
15.4399
12.9153
11.0863
9.77438
8.88352
57.0696
42.0774
32.5535
25.0136
19.7598
15.8315
13.0269
11.0613
9.6809
8.76933
62.7993
43.2654
32.0891
23.7125
18.2355
14.3064
11.6798
9.94101
8.80277
8.06972
42.746
26.2042
17.9726
12.7915
10.0236
8.39133
7.47311
6.91839
6.55961
6.32897
9.32681
9.18824
9.08107
9.01138
8.96314
8.93147
8.90872
8.89238
8.88005
8.86961
8.3334
8.3319
8.33039
8.32922
8.32851
8.32822
8.32824
8.3287
8.32981
8.33083
6.99883
6.75864
6.50567
6.26726
6.06893
5.91251
5.79214
5.70049
5.63113
5.58316
11.6112
10.9253
10.1515
9.37385
8.68703
8.11472
7.65549
7.29388
7.00539
6.78745
16.4402
14.9575
13.3757
11.8596
10.5721
9.52167
8.69347
8.05526
7.56698
7.21417
21.5366
18.935
16.3584
14.0119
12.1132
10.6148
9.4726
8.6237
7.98354
7.52905
27.7681
23.4445
19.5088
16.0871
13.4438
11.422
9.93332
8.86343
8.0957
7.57175
33.736
27.3833
22.0659
17.6422
14.3794
11.9551
10.2305
9.03387
8.1881
7.62142
37.3945
28.7911
22.2626
17.1544
13.6362
11.1586
9.50872
8.42151
7.70017
7.22513
24.5288
17.3348
12.8094
9.95718
8.36365
7.40491
6.83001
6.46702
6.2205
6.05873
9.05263
8.96953
8.89789
8.8468
8.80935
8.78252
8.7623
8.74711
8.73537
8.72559
8.18337
8.18352
8.18388
8.18446
8.18519
8.18598
8.18678
8.18776
8.18925
8.19101
5.60803
5.56481
5.51345
5.46127
5.41406
5.37359
5.34008
5.31312
5.29255
5.27958
7.50462
7.31357
7.06515
6.80576
6.57051
6.37231
6.21222
6.08439
5.97776
5.89479
9.9778
9.47201
8.85073
8.22745
7.67863
7.22428
6.86229
6.57992
6.36
6.20027
12.7362
11.7744
10.6616
9.59963
8.70696
7.9956
7.4505
7.04302
6.72806
6.50014
16.3274
14.6099
12.7534
11.0609
9.69832
8.64817
7.87066
7.30838
6.89758
6.61329
19.8649
17.2467
14.5835
12.2678
10.4873
9.16064
8.21193
7.55013
7.06991
6.73999
22.1186
18.4205
14.9979
12.2241
10.2382
8.84205
7.90157
7.27195
6.84163
6.55061
14.3943
11.5384
9.42795
8.05196
7.21589
6.67998
6.3328
6.10283
5.93848
5.82918
8.79752
8.7514
8.70717
8.67168
8.64333
8.6213
8.60389
8.5903
8.57954
8.57072
8.03259
8.03293
8.03349
8.03424
8.03509
8.03594
8.03675
8.03769
8.0391
8.0409
5.19672
5.18855
5.17889
5.16822
5.15758
5.14755
5.13863
5.13123
5.12617
5.12428
5.83878
5.79283
5.73044
5.6633
5.60091
5.54738
5.50337
5.46693
5.4331
5.40491
6.95009
6.79207
6.58427
6.36811
6.17122
6.00315
5.86449
5.75204
5.66098
5.59413
8.29793
7.96328
7.5444
7.132
6.7752
6.48484
6.25683
6.08147
5.93866
5.8318
10.2207
9.55381
8.76945
8.03158
7.41927
6.93862
6.57419
6.30295
6.09722
5.95213
12.1905
11.1262
9.92513
8.8493
7.99549
7.34966
6.87713
6.5387
6.28122
6.09834
13.5196
11.9507
10.3399
8.99915
8.00458
7.29195
6.79589
6.45174
6.20676
6.03686
9.42629
8.38635
7.50731
6.88475
6.46189
6.16833
5.96311
5.82082
5.71382
5.64229
8.56197
8.53742
8.51069
8.48639
8.46533
8.4478
8.43334
8.42165
8.41217
8.40451
7.87436
7.87462
7.87504
7.87561
7.87625
7.87689
7.87747
7.87817
7.87933
7.88091
5.06296
5.0612
5.05922
5.05687
5.05425
5.05148
5.04889
5.04683
5.04608
5.047
5.23564
5.22719
5.21545
5.2023
5.18989
5.17938
5.17105
5.16391
5.15497
5.14622
5.69443
5.65147
5.59145
5.5254
5.46177
5.40431
5.35412
5.31108
5.2746
5.24772
6.28733
6.18741
6.05372
5.91583
5.79084
5.68439
5.59686
5.52646
5.46469
5.41641
7.22113
6.9885
6.69975
6.41669
6.17129
5.97023
5.81042
5.68573
5.58659
5.51564
8.22905
7.83672
7.36134
6.91972
6.55423
6.26678
6.04671
5.88212
5.74897
5.65087
8.98506
8.36904
7.6962
7.11394
6.66028
6.32041
6.07144
5.8905
5.75608
5.66117
7.18611
6.82357
6.46917
6.18824
5.97534
5.81561
5.696
5.60961
5.54125
5.49571
8.33713
8.32376
8.3074
8.29094
8.27565
8.26219
8.25062
8.24096
8.23293
8.22654
7.70636
7.70653
7.70681
7.70719
7.70761
7.70801
7.70836
7.70879
7.70968
7.71102
5.0133
5.01254
5.0118
5.01097
5.00997
5.00886
5.00781
5.00711
5.00735
5.0086
5.02003
5.01896
5.01783
5.01664
5.01585
5.01577
5.01646
5.01711
5.0156
5.01305
5.20582
5.19451
5.17767
5.15771
5.13711
5.11728
5.09885
5.08211
5.06735
5.05656
5.46128
5.43457
5.39595
5.35327
5.31198
5.27471
5.24246
5.21526
5.18906
5.16741
5.89251
5.81796
5.72101
5.61959
5.52584
5.44421
5.37551
5.31906
5.27213
5.23843
6.3804
6.25265
6.08403
5.91746
5.77043
5.64768
5.54821
5.47017
5.40261
5.35087
6.8041
6.5812
6.32446
6.08759
5.89033
5.73344
5.61192
5.51943
5.44803
5.39727
6.1781
6.04682
5.9009
5.77164
5.66396
5.57724
5.50818
5.45648