/*--------------------------------*- C++ -*----------------------------------*\
| =========                 |                                                 |
| \\      /  F ield         | foam-extend: Open Source CFD                    |
|  \\    /   O peration     | Version:     4.0                                |
|   \\  /    A nd           | Web:         http://www.foam-extend.org         |
|    \\/     M anipulation  |                                                 |
\*---------------------------------------------------------------------------*/
FoamFile
{
    version     2.0;
    format      ascii;
    class       volScalarField;
    location    "2300";
    object      p;
}
// * * * * * * * * * * * * * * * * * * * * * * * * * * * * * * * * * * * * * //

dimensions      [1 -1 -2 0 0 0 0];

internalField   nonuniform List<scalar> 
34480
(
107969
107869
107829
107844
107929
108111
108455
109137
110103
110449
107828
107729
107689
107700
107780
107956
108295
108965
109999
109974
107686
107583
107543
107546
107611
107758
108056
108658
109688
109114
107612
107508
107462
107452
107495
107598
107838
108341
109304
108152
107530
107415
107361
107334
107351
107409
107591
107990
108849
107157
107547
107432
107372
107336
107334
107355
107481
107771
108491
106274
107453
107325
107258
107210
107192
107183
107261
107452
108012
105338
107541
107418
107355
107322
107319
107322
107384
107503
107881
104742
107441
107313
107244
107207
107205
107218
107271
107332
107505
103994
107534
107419
107406
107471
107610
107801
108046
108282
108453
104457
108728
108604
108559
108584
108689
108892
109228
109756
110570
111637
108521
108389
108343
108369
108483
108708
109096
109749
110889
112492
108321
108184
108137
108158
108266
108484
108879
109585
110966
112953
108193
108052
107998
108007
108100
108293
108665
109362
110882
113122
108068
107915
107853
107845
107915
108074
108408
109060
110649
113035
108046
107892
107822
107803
107856
107981
108270
108854
110447
112864
107923
107756
107679
107646
107680
107774
108020
108529
110079
112469
107987
107825
107748
107724
107765
107860
108086
108529
109982
112253
107873
107707
107624
107592
107623
107711
107919
108313
109620
111811
107955
107799
107758
107804
107937
108149
108481
108978
110232
112219
109295
109182
109143
109171
109274
109460
109745
110146
110677
111287
109082
108950
108906
108941
109065
109296
109661
110204
111019
112026
108862
108719
108674
108710
108842
109090
109499
110149
111245
112673
108704
108551
108499
108528
108655
108903
109331
110041
111360
113170
108550
108384
108325
108339
108453
108685
109109
109838
111325
113462
108498
108329
108262
108267
108368
108579
108987
109703
111302
113690
108349
108169
108095
108087
108173
108361
108745
109432
111094
113679
108391
108214
108141
108138
108227
108413
108785
109439
111103
113797
108266
108085
108005
107994
108070
108241
108593
109223
110825
113635
108333
108160
108109
108153
108299
108551
108979
109675
111241
114050
109693
109605
109575
109598
109678
109817
110015
110268
110561
110842
109514
109398
109359
109391
109501
109695
109984
110375
110881
111401
109316
109179
109135
109171
109298
109528
109885
110399
111153
111991
109154
109000
108948
108981
109114
109363
109770
110385
111382
112568
108992
108821
108761
108785
108913
109165
109598
110280
111490
113017
108924
108746
108678
108694
108816
109062
109506
110224
111611
113449
108761
108570
108496
108501
108613
108846
109286
110021
111545
113667
108787
108598
108522
108531
108646
108879
109321
110059
111663
114011
108650
108457
108377
108379
108484
108706
109137
109876
111491
114068
108703
108517
108457
108498
108651
108929
109409
110196
111803
114522
109967
109905
109884
109901
109957
110051
110178
110330
110491
110629
109833
109741
109710
109737
109823
109971
110181
110445
110748
111024
109677
109557
109518
109551
109661
109853
110138
110515
110997
111470
109529
109386
109338
109371
109496
109722
110072
110561
111247
111969
109376
109211
109154
109182
109311
109555
109952
110531
111419
112412
109303
109127
109062
109085
109215
109468
109896
110542
111618
112885
109136
108944
108873
108888
109013
109265
109710
110404
111645
113185
109153
108961
108886
108904
109034
109291
109751
110479
111844
113627
109008
108812
108734
108747
108871
109124
109585
110339
111768
113810
109050
108859
108794
108834
108991
109282
109778
110574
112026
114266
110156
110116
110102
110113
110150
110208
110285
110372
110458
110525
110064
109997
109973
109993
110056
110161
110303
110472
110650
110798
109955
109857
109825
109852
109940
110090
110302
110567
110870
111138
109831
109707
109664
109694
109802
109993
110274
110643
111101
111534
109698
109548
109497
109525
109645
109864
110202
110665
111289
111918
109632
109467
109406
109433
109560
109798
110182
110726
111517
112359
109468
109285
109218
109239
109367
109616
110031
110642
111592
112659
109483
109296
109225
109249
109384
109644
110086
110749
111834
113120
109335
109143
109068
109089
109221
109484
109937
110643
111822
113352
109370
109182
109115
109154
109309
109598
110078
110824
112047
113765
110290
110265
110257
110263
110286
110321
110366
110414
110460
110494
110229
110183
110166
110180
110223
110293
110385
110490
110593
110675
110165
110090
110066
110085
110152
110262
110413
110591
110781
110937
110067
109966
109930
109955
110043
110194
110409
110675
110977
111242
109960
109832
109787
109813
109917
110102
110374
110729
111159
111559
109907
109761
109706
109733
109849
110060
110385
110821
111388
111943
109754
109587
109526
109549
109672
109901
110266
110776
111480
112208
109773
109599
109533
109560
109691
109938
110337
110907
111737
112642
109625
109444
109375
109399
109532
109785
110204
110824
111752
112861
109658
109478
109413
109450
109598
109872
110314
110972
111952
113211
110388
110374
110369
110373
110386
110406
110432
110458
110483
110501
110348
110318
110307
110315
110343
110388
110446
110509
110569
110614
110322
110268
110249
110264
110311
110388
110491
110607
110724
110816
110247
110169
110141
110160
110228
110342
110498
110684
110882
111045
110169
110064
110027
110049
110134
110282
110492
110753
111045
111301
110132
110008
109961
109985
110085
110263
110524
110860
111260
111626
109993
109847
109793
109816
109926
110127
110432
110839
111350
111845
110021
109866
109807
109834
109954
110175
110519
110987
111605
112233
109876
109711
109649
109674
109799
110031
110398
110917
111622
112404
109909
109745
109685
109719
109854
110103
110491
111045
111801
112695
110465
110456
110454
110456
110463
110475
110489
110503
110517
110526
110435
110416
110409
110414
110432
110460
110495
110532
110567
110592
110439
110402
110389
110398
110431
110483
110550
110625
110696
110750
110382
110325
110303
110317
110367
110450
110560
110686
110813
110914
110331
110249
110220
110237
110304
110417
110572
110758
110954
111118
110311
110210
110172
110192
110274
110417
110619
110869
111146
111387
110187
110064
110019
110040
110134
110301
110546
110859
111223
111557
110228
110095
110044
110069
110174
110364
110646
111015
111464
111895
110086
109942
109888
109912
110024
110227
110534
110950
111472
112011
110124
109980
109926
109956
110076
110292
110619
111067
111633
112251
110526
110521
110520
110521
110526
110532
110540
110548
110555
110560
110500
110489
110484
110488
110498
110515
110536
110558
110578
110593
110528
110503
110494
110500
110522
110556
110599
110645
110688
110720
110483
110441
110426
110436
110471
110529
110604
110688
110769
110831
110455
110393
110371
110384
110434
110517
110629
110758
110888
110991
110450
110371
110341
110357
110422
110532
110683
110863
111052
111208
110341
110241
110204
110222
110299
110433
110622
110854
111108
111331
110396
110287
110245
110266
110354
110510
110733
111014
111334
111624
110258
110136
110091
110112
110207
110377
110625
110947
111323
111688
110304
110181
110134
110160
110262
110443
110709
111057
111470
111888
110578
110575
110575
110575
110578
110581
110585
110590
110594
110596
110550
110544
110541
110543
110549
110559
110572
110585
110596
110605
110597
110580
110575
110579
110592
110614
110641
110669
110695
110713
110556
110528
110517
110523
110547
110587
110636
110691
110743
110781
110549
110504
110488
110497
110533
110593
110670
110758
110842
110907
110556
110496
110473
110486
110535
110616
110726
110852
110979
111080
110459
110381
110352
110367
110427
110530
110671
110839
111013
111160
110530
110444
110410
110428
110499
110621
110792
110999
111222
111414
110393
110294
110257
110275
110353
110489
110682
110923
111189
111432
110449
110349
110311
110332
110416
110561
110769
111031
111325
111604
110623
110621
110621
110621
110623
110625
110627
110629
110631
110633
110589
110586
110584
110585
110589
110595
110602
110610
110616
110622
110651
110641
110637
110640
110648
110662
110678
110695
110710
110720
110610
110591
110583
110587
110603
110629
110662
110697
110729
110753
110619
110588
110576
110583
110608
110649
110702
110759
110814
110854
110635
110592
110575
110584
110620
110678
110755
110842
110926
110990
110548
110489
110467
110478
110523
110600
110702
110820
110938
111034
110635
110570
110544
110558
110612
110705
110832
110979
111132
111257
110497
110418
110390
110404
110466
110571
110715
110890
111074
111234
110566
110487
110456
110473
110539
110652
110809
111001
111205
111387
110663
110661
110662
110662
110662
110663
110665
110666
110667
110667
110619
110617
110616
110617
110619
110622
110627
110632
110636
110639
110696
110690
110688
110689
110695
110703
110712
110722
110731
110736
110649
110636
110631
110633
110644
110660
110681
110703
110724
110739
110672
110651
110643
110647
110664
110692
110726
110764
110798
110823
110693
110662
110651
110657
110682
110723
110776
110833
110888
110929
110613
110570
110554
110562
110595
110650
110721
110802
110880
110943
110717
110669
110649
110660
110701
110769
110859
110962
111065
111144
110573
110513
110492
110503
110549
110627
110732
110856
110980
111085
110657
110598
110574
110587
110637
110722
110837
110972
111111
111229
110698
110697
110698
110698
110698
110699
110699
110700
110700
110700
110641
110640
110639
110640
110641
110643
110646
110649
110652
110654
110734
110731
110730
110731
110734
110739
110744
110750
110755
110757
110676
110668
110665
110666
110672
110683
110696
110710
110723
110732
110711
110697
110692
110695
110706
110724
110746
110770
110792
110807
110734
110714
110705
110710
110727
110754
110789
110827
110863
110888
110660
110630
110619
110624
110647
110685
110734
110788
110838
110878
110780
110747
110733
110740
110770
110818
110880
110950
111018
111067
110626
110582
110566
110574
110608
110664
110738
110822
110905
110973
110729
110686
110668
110678
110715
110776
110857
110950
111042
111117
110732
110732
110732
110732
110732
110733
110733
110733
110733
110733
110656
110655
110654
110655
110655
110657
110659
110661
110663
110665
110768
110767
110766
110767
110769
110772
110775
110778
110780
110780
110695
110690
110688
110688
110692
110699
110707
110716
110723
110730
110740
110731
110728
110730
110737
110748
110762
110777
110790
110799
110762
110749
110743
110746
110757
110775
110798
110822
110845
110861
110693
110672
110665
110669
110684
110710
110742
110777
110809
110834
110830
110807
110797
110803
110823
110856
110898
110944
110988
111018
110659
110628
110617
110622
110646
110685
110735
110791
110845
110889
110788
110758
110745
110752
110778
110820
110876
110938
110998
111044
110770
110769
110769
110769
110769
110769
110769
110769
110769
110769
110661
110661
110660
110660
110661
110662
110663
110665
110666
110669
110799
110799
110798
110799
110800
110802
110803
110805
110806
110804
110707
110704
110702
110703
110705
110709
110714
110719
110724
110728
110759
110754
110752
110753
110757
110764
110773
110782
110790
110795
110779
110770
110766
110768
110775
110787
110801
110817
110831
110841
110715
110702
110697
110700
110710
110727
110747
110769
110788
110805
110868
110853
110846
110850
110864
110885
110913
110943
110972
110988
110676
110654
110646
110650
110666
110692
110725
110762
110795
110824
110842
110822
110813
110818
110835
110864
110901
110941
110980
111008
110822
110821
110822
110822
110822
110822
110822
110822
110821
110820
110655
110654
110654
110654
110654
110655
110656
110658
110659
110662
110825
110825
110825
110825
110826
110827
110828
110828
110829
110827
110714
110712
110711
110712
110713
110716
110718
110721
110724
110727
110769
110766
110764
110765
110767
110772
110777
110782
110787
110790
110784
110778
110776
110777
110781
110789
110798
110807
110816
110822
110729
110721
110718
110720
110727
110737
110750
110763
110774
110784
110892
110882
110878
110880
110889
110903
110921
110940
110959
110968
110675
110660
110655
110657
110668
110685
110706
110729
110749
110769
110907
110894
110888
110891
110902
110921
110945
110970
110995
111011
110916
110916
110916
110916
110916
110916
110916
110915
110914
110913
110629
110628
110628
110627
110628
110628
110629
110630
110632
110636
110838
110838
110837
110837
110837
110838
110839
110840
110840
110839
110717
110716
110716
110717
110718
110719
110721
110722
110723
110724
110770
110767
110766
110767
110768
110771
110774
110777
110781
110783
110779
110775
110773
110774
110777
110781
110787
110793
110799
110803
110735
110731
110729
110730
110735
110741
110749
110757
110763
110768
110890
110883
110880
110881
110886
110896
110908
110920
110934
110940
110647
110638
110635
110637
110644
110654
110668
110682
110693
110707
111006
110998
110994
110996
111003
111015
111031
111047
111064
111072
111078
111077
111077
111077
111077
111077
111077
111077
111076
111076
110568
110568
110569
110570
110570
110571
110570
110570
110570
110572
110826
110824
110822
110821
110821
110822
110823
110825
110827
110828
110720
110720
110720
110721
110722
110723
110723
110723
110723
110723
110764
110762
110761
110762
110763
110764
110766
110769
110771
110773
110768
110766
110765
110765
110767
110770
110774
110778
110782
110785
110735
110733
110732
110733
110736
110741
110746
110751
110754
110756
110847
110841
110838
110839
110843
110849
110857
110867
110877
110884
110581
110576
110575
110577
110581
110589
110597
110606
110612
110618
111163
111157
111154
111155
111160
111169
111179
111190
111203
111208
111260
111258
111256
111256
111255
111256
111257
111258
111260
111264
110485
110490
110494
110496
110497
110497
110495
110492
110488
110481
110791
110788
110785
110784
110784
110784
110786
110788
110792
110797
110725
110726
110727
110727
110728
110728
110729
110729
110728
110726
110759
110757
110757
110757
110758
110759
110761
110763
110765
110766
110761
110759
110758
110759
110760
110763
110766
110769
110772
110775
110738
110736
110735
110736
110739
110742
110746
110751
110753
110754
110784
110778
110775
110776
110779
110784
110791
110799
110808
110817
110496
110495
110494
110496
110500
110506
110513
110520
110523
110520
111330
111325
111322
111323
111328
111335
111344
111353
111363
111367
122713
123927
123751
122477
125945
127351
126951
125329
128889
130476
129888
127897
131055
132758
131984
129715
132719
134500
133553
131079
134069
135910
134952
132357
134995
136868
136043
133381
135818
137698
137035
134335
135733
137585
137067
134375
135322
137159
136900
134362
113011
113200
113238
113118
115297
115668
115726
115436
117554
118107
118165
117656
119695
120415
120460
119705
121648
122504
122518
121505
123501
124466
124445
123216
125036
126086
126035
124647
126541
127649
127580
126084
127321
128460
128389
126841
127969
129142
129119
127620
111809
111898
111925
111899
113133
113300
113340
113273
114586
114853
114905
114775
116064
116436
116496
116283
117488
117963
118021
117704
118965
119541
119591
119157
120257
120924
120965
120411
121638
122382
122412
121745
122459
123250
123273
122511
123277
124105
124146
123328
110957
110980
110991
110991
111710
111763
111783
111776
112630
112734
112767
112742
113662
113830
113879
113824
114690
114931
114993
114894
115819
116138
116210
116054
116823
117220
117299
117075
117982
118449
118531
118233
118695
119213
119300
118937
119471
120032
120136
119732
110674
110684
110689
110690
111146
111170
111181
111180
111730
111779
111799
111795
112437
112521
112553
112542
113163
113289
113334
113310
114001
114178
114235
114190
114738
114968
115038
114963
115658
115941
116020
115909
116236
116561
116653
116508
116914
117274
117385
117218
110543
110547
110549
110550
110847
110856
110861
110862
111242
111262
111272
111274
111735
111774
111793
111795
112257
112320
112349
112350
112887
112982
113023
113018
113424
113555
113607
113592
114154
114321
114384
114354
114613
114811
114888
114843
115166
115390
115482
115425
110503
110505
110506
110506
110699
110703
110706
110707
110987
110996
111002
111003
111339
111358
111369
111371
111722
111755
111773
111777
112204
112256
112283
112287
112594
112668
112704
112708
113176
113274
113320
113319
113526
113645
113702
113695
113959
114096
114163
114150
110505
110506
110506
110507
110626
110629
110630
110630
110842
110846
110849
110850
111096
111106
111112
111114
111387
111404
111415
111418
111764
111793
111809
111814
112048
112090
112114
112120
112518
112575
112605
112611
112765
112837
112875
112879
113102
113185
113230
113232
110528
110529
110529
110529
110599
110600
110601
110601
110764
110766
110768
110769
110943
110949
110952
110954
111166
111176
111182
111184
111465
111481
111491
111495
111671
111695
111710
111715
112054
112088
112108
112114
112213
112256
112281
112287
112480
112530
112559
112563
110561
110561
110561
110561
110597
110597
110598
110598
110728
110729
110730
110730
110848
110852
110854
110855
111019
111025
111029
111030
111255
111265
111271
111274
111398
111413
111422
111426
111717
111737
111750
111754
111806
111832
111848
111853
112021
112052
112070
112074
110597
110597
110597
110597
110607
110608
110608
110608
110718
110718
110719
110719
110792
110794
110795
110796
110924
110927
110930
110931
111109
111115
111119
111120
111201
111210
111215
111218
111470
111483
111490
111493
111503
111520
111530
111533
111683
111702
111713
111717
110633
110633
110633
110633
110623
110623
110624
110624
110723
110724
110724
110724
110760
110761
110762
110763
110865
110867
110868
110869
111009
111012
111015
111016
111059
111064
111068
111070
111292
111300
111305
111306
111279
111289
111296
111298
111436
111447
111455
111457
110667
110668
110667
110667
110640
110640
110640
110641
110738
110738
110738
110738
110743
110744
110745
110745
110829
110831
110831
110832
110941
110943
110945
110946
110958
110961
110964
110965
111166
111171
111174
111175
111113
111120
111124
111125
111258
111265
111270
111271
110700
110700
110700
110700
110655
110655
110655
110656
110758
110758
110758
110758
110735
110736
110736
110736
110810
110811
110811
110812
110896
110898
110899
110899
110888
110889
110891
110892
111081
111084
111086
111087
110991
110996
110998
110999
111135
111139
111142
111143
110733
110733
110733
110733
110666
110666
110666
110666
110781
110781
110781
110780
110731
110732
110732
110732
110801
110801
110801
110802
110866
110867
110868
110868
110839
110840
110841
110842
111027
111029
111030
111030
110901
110904
110906
110906
111055
111057
111059
111060
110769
110769
110769
110768
110669
110670
110670
110670
110805
110805
110805
110804
110729
110729
110729
110729
110796
110796
110796
110796
110845
110846
110846
110846
110806
110806
110807
110807
110995
110996
110997
110997
110832
110834
110835
110836
111013
111014
111015
111016
110820
110820
110820
110820
110663
110663
110663
110664
110828
110828
110827
110827
110726
110726
110726
110726
110791
110791
110792
110792
110826
110827
110827
110827
110783
110782
110783
110783
110974
110975
110975
110975
110774
110775
110776
110776
111013
111013
111014
111015
110913
110913
110912
110912
110635
110635
110636
110636
110842
110842
110842
110841
110722
110722
110722
110722
110784
110784
110784
110784
110806
110807
110807
110807
110764
110764
110764
110764
110948
110949
110950
110949
110709
110709
110710
110710
111073
111072
111073
111074
111076
111076
111076
111076
110569
110569
110569
110569
110834
110835
110836
110836
110719
110719
110719
110719
110774
110775
110775
110775
110787
110788
110788
110788
110751
110750
110750
110750
110897
110900
110900
110900
110613
110613
110613
110613
111214
111214
111214
111215
111265
111266
111266
111267
110465
110461
110460
110460
110807
110808
110809
110810
110722
110721
110721
110721
110768
110768
110768
110768
110776
110777
110777
110777
110749
110748
110748
110748
110834
110838
110839
110837
110495
110489
110488
110492
111389
111392
111392
111389
116089
113574
111649
110361
109555
109035
108680
108430
108250
108114
117145
113964
111594
110193
109367
108841
108492
108250
108082
107956
117507
114002
111325
110003
109178
108658
108308
108066
107902
107795
117491
113899
110997
109841
109035
108549
108215
107986
107828
107721
117206
113679
110689
109663
108864
108414
108094
107879
107729
107634
116837
113553
110520
109628
108831
108419
108111
107907
107760
107657
116195
113295
110229
109477
108671
108301
107998
107804
107659
107563
115774
113319
110221
109611
108792
108456
108145
107948
107790
107668
115048
112986
109909
109480
108684
108395
108075
107873
107708
107577
115487
113683
110580
110176
109257
108865
108433
108142
107906
107705
112562
111817
111156
110603
110148
109778
109478
109238
109045
108894
114185
112819
111685
110830
110186
109703
109339
109062
108849
108690
115484
113531
111989
110914
110126
109561
109151
108849
108627
108477
116472
114020
112139
110933
110064
109466
109040
108733
108507
108353
117098
114286
112135
110852
109932
109325
108897
108594
108370
108223
117573
114535
112167
110854
109904
109305
108881
108584
108362
108208
117722
114567
112022
110715
109744
109162
108742
108453
108232
108083
117932
114770
112089
110823
109841
109279
108856
108562
108333
108164
117712
114573
111846
110688
109736
109205
108776
108476
108239
108060
118118
115086
112322
111186
110159
109554
109047
108683
108397
108167
111742
111426
111073
110733
110427
110159
109929
109735
109574
109443
112913
112272
111603
111023
110549
110166
109857
109608
109408
109252
114112
113062
112037
111214
110576
110086
109709
109418
109193
109034
115225
113740
112381
111366
110605
110043
109621
109303
109060
108887
116154
114237
112571
111402
110547
109937
109490
109158
108906
108733
117027
114711
112773
111489
110564
109928
109465
109128
108872
108690
117625
114952
112774
111412
110436
109787
109317
108979
108719
108540
118276
115316
112946
111547
110538
109886
109408
109061
108795
108597
118447
115270
112813
111452
110452
109811
109321
108965
108689
108482
118951
115689
113185
111820
110764
110069
109525
109124
108814
108572
110968
110872
110737
110584
110428
110276
110135
110009
109897
109803
111702
111474
111185
110891
110613
110362
110142
109951
109791
109661
112570
112135
111626
111148
110727
110370
110072
109827
109629
109482
113507
112818
112065
111404
110848
110397
110035
109745
109515
109343
114371
113392
112386
111554
110881
110356
109945
109624
109371
109190
115265
113980
112723
111741
110969
110387
109942
109600
109332
109135
115959
114362
112863
111754
110902
110279
109808
109453
109174
108975
116751
114863
113152
111948
111036
110384
109892
109522
109233
109016
117127
114991
113149
111910
110971
110305
109795
109412
109113
108888
117733
115420
113481
112194
111202
110494
109946
109530
109209
108959
110681
110641
110579
110503
110420
110335
110252
110174
110103
110041
111154
111058
110920
110763
110600
110442
110294
110161
110045
109947
111736
111543
111286
111012
110748
110505
110288
110100
109941
109819
112434
112108
111698
111289
110912
110581
110296
110057
109858
109703
113127
112633
112048
111496
111008
110596
110252
109971
109740
109567
113900
113211
112436
111744
111154
110671
110280
109965
109710
109516
114530
113622
112650
111826
111144
110603
110172
109832
109558
109356
115301
114170
113011
112075
111315
110727
110263
109900
109611
109390
115739
114404
113104
112090
111277
110655
110165
109785
109484
109255
116338
114824
113410
112328
111462
110802
110281
109877
109559
109311
110547
110529
110500
110463
110420
110374
110328
110282
110240
110202
110853
110810
110743
110659
110566
110471
110379
110292
110213
110145
111255
111168
111037
110883
110722
110564
110415
110279
110161
110067
111759
111604
111384
111140
110895
110664
110454
110268
110108
109979
112287
112040
111709
111360
111025
110719
110450
110218
110022
109870
112914
112553
112093
111632
111205
110829
110507
110235
110009
109831
113429
112930
112328
111753
111237
110797
110428
110124
109871
109681
114112
113464
112716
112033
111437
110941
110532
110198
109927
109715
114525
113728
112853
112081
111419
110879
110438
110085
109799
109578
115046
114111
113134
112292
111579
111003
110535
110161
109861
109625
110505
110496
110482
110463
110440
110415
110389
110364
110339
110317
110702
110680
110645
110599
110546
110490
110434
110379
110329
110284
110994
110949
110878
110790
110691
110590
110491
110398
110315
110247
111356
111277
111155
111008
110851
110694
110545
110408
110286
110186
111753
111624
111434
111215
110989
110771
110569
110388
110230
110106
112247
112055
111782
111481
111182
110901
110648
110427
110237
110083
112645
112372
112003
111613
111237
110895
110594
110337
110118
109948
113222
112854
112381
111902
111452
111055
110712
110423
110182
109988
113563
113093
112519
111957
111444
111002
110626
110314
110056
109853
113988
113426
112773
112150
111591
111114
110713
110383
110113
109896
110506
110501
110494
110484
110472
110459
110444
110430
110416
110404
110628
110617
110598
110572
110543
110510
110476
110443
110412
110383
110846
110821
110781
110729
110670
110607
110543
110481
110425
110379
111107
111063
110993
110903
110803
110699
110597
110500
110413
110338
111407
111336
111224
111086
110935
110784
110638
110503
110382
110285
111797
111690
111525
111330
111123
110920
110730
110558
110406
110280
112095
111941
111713
111452
111184
110929
110694
110486
110304
110161
112571
112360
112061
111732
111404
111098
110823
110584
110380
110212
112822
112545
112174
111779
111397
111050
110743
110481
110258
110080
113160
112827
112399
111956
111535
111157
110828
110549
110315
110124
110529
110526
110522
110517
110511
110503
110495
110488
110480
110473
110600
110594
110584
110569
110553
110534
110514
110494
110475
110457
110766
110752
110729
110698
110662
110623
110583
110543
110507
110477
110950
110925
110883
110828
110765
110698
110630
110563
110502
110448
111178
111137
111069
110982
110883
110780
110678
110581
110492
110420
111486
111424
111322
111195
111055
110912
110774
110645
110528
110429
111703
111612
111470
111296
111110
110924
110748
110586
110442
110326
112095
111970
111781
111558
111324
111097
110885
110695
110529
110390
112260
112096
111858
111587
111311
111049
110808
110597
110411
110261
112530
112332
112056
111749
111442
111154
110894
110667
110472
110310
110561
110560
110558
110555
110551
110547
110543
110539
110534
110531
110598
110594
110588
110580
110571
110560
110548
110537
110525
110514
110729
110721
110707
110689
110667
110643
110618
110593
110570
110552
110853
110838
110813
110780
110740
110697
110652
110608
110566
110529
111027
111002
110960
110905
110841
110772
110703
110635
110572
110520
111268
111231
111167
111086
110992
110894
110796
110702
110616
110541
111419
111364
111274
111160
111032
110901
110772
110651
110541
110450
111744
111669
111548
111399
111237
111073
110915
110770
110640
110528
111839
111740
111588
111405
111211
111018
110836
110671
110523
110402
112058
111939
111762
111554
111336
111123
110925
110747
110590
110458
110597
110596
110595
110593
110592
110589
110587
110585
110582
110580
110608
110606
110603
110598
110593
110587
110580
110573
110566
110559
110718
110713
110705
110694
110681
110667
110651
110636
110621
110611
110795
110786
110771
110750
110726
110698
110670
110641
110613
110588
110929
110914
110888
110853
110811
110766
110720
110674
110630
110594
111117
111094
111054
111002
110940
110874
110806
110740
110678
110623
111214
111180
111123
111048
110962
110871
110779
110692
110610
110542
111487
111442
111364
111266
111155
111040
110926
110818
110720
110634
111525
111465
111368
111246
111112
110974
110840
110716
110602
110507
111708
111636
111523
111384
111233
111080
110933
110799
110678
110574
110633
110632
110632
110631
110630
110629
110627
110626
110625
110624
110624
110623
110621
110619
110615
110612
110608
110604
110600
110595
110723
110720
110715
110709
110701
110692
110683
110673
110665
110659
110762
110757
110748
110735
110720
110703
110685
110666
110648
110631
110867
110858
110842
110820
110794
110764
110734
110703
110674
110650
111014
111000
110975
110941
110901
110856
110811
110765
110722
110683
111068
111046
111010
110961
110904
110842
110778
110716
110658
110609
111302
111274
111225
111161
111086
111007
110927
110850
110778
110714
111293
111256
111194
111113
111022
110926
110830
110740
110655
110584
111452
111408
111336
111245
111142
111036
110930
110831
110741
110662
110667
110667
110667
110666
110666
110665
110664
110664
110663
110663
110641
110640
110639
110638
110636
110634
110632
110630
110627
110623
110737
110735
110732
110728
110724
110718
110713
110707
110702
110700
110745
110742
110736
110729
110719
110709
110697
110686
110674
110663
110831
110825
110815
110801
110785
110766
110746
110726
110707
110692
110944
110935
110920
110898
110872
110843
110813
110783
110753
110727
110964
110950
110927
110896
110858
110817
110774
110731
110690
110656
111173
111155
111124
111083
111033
110980
110925
110871
110821
110774
111122
111099
111059
111007
110946
110880
110814
110750
110688
110636
111269
111242
111197
111137
111069
110996
110923
110852
110787
110729
110700
110700
110700
110700
110699
110699
110699
110698
110698
110698
110656
110656
110655
110655
110654
110652
110651
110650
110648
110645
110757
110756
110754
110751
110748
110745
110742
110738
110736
110736
110736
110735
110731
110727
110721
110715
110708
110700
110693
110686
110811
110807
110801
110793
110782
110770
110758
110745
110733
110724
110898
110893
110883
110869
110853
110834
110815
110795
110775
110757
110892
110883
110868