/*--------------------------------*- C++ -*----------------------------------*\
| =========                 |                                                 |
| \\      /  F ield         | foam-extend: Open Source CFD                    |
|  \\    /   O peration     | Version:     4.0                                |
|   \\  /    A nd           | Web:         http://www.foam-extend.org         |
|    \\/     M anipulation  |                                                 |
\*---------------------------------------------------------------------------*/
FoamFile
{
    version     2.0;
    format      ascii;
    class       surfaceScalarField;
    location    "2300";
    object      phi;
}
// * * * * * * * * * * * * * * * * * * * * * * * * * * * * * * * * * * * * * //

dimensions      [1 0 -1 0 0 0 0];

internalField   nonuniform List<scalar> 
97302
(
-0.000109786
9.51854e-07
-0.000869492
0.000878768
-0.0001196
1.1412e-06
-0.000870495
0.000879168
-0.000129523
1.20032e-06
-0.00087102
0.000879742
-0.000140125
1.13836e-06
-0.000871059
0.000880522
-0.000152232
9.46263e-07
-0.000870607
0.000881768
-0.000167325
6.13904e-07
-0.00086944
0.000883919
-0.000188495
1.14805e-07
-0.000866953
0.000888008
-0.000222747
-5.95344e-07
-0.000861326
0.000896173
-0.000271325
-1.63892e-06
-0.000851538
0.000901755
-4.39585e-06
-0.000824039
-0.000352995
0.000910105
-0.000150901
1.6036e-06
-0.00116596
0.00117605
-0.000161173
1.9659e-06
-0.00116691
0.00117636
-0.000171518
2.08444e-06
-0.0011675
0.00117696
-0.000182473
1.99247e-06
-0.00116752
0.00117762
-0.000194834
1.67502e-06
-0.00116673
0.00117836
-0.000210314
1.12081e-06
-0.00116472
0.00117969
-0.000232766
2.72262e-07
-0.00116112
0.00118342
-0.000271568
-9.65795e-07
-0.00115433
0.0011935
-0.00032835
-2.89634e-06
-0.00114203
0.00120007
-7.45927e-06
-0.00110414
-0.000432769
0.00121162
-0.000191208
1.89738e-06
-0.00146133
0.00147217
-0.000201778
2.39359e-06
-0.00146233
0.00147248
-0.000212297
2.5751e-06
-0.00146296
0.00147298
-0.000223274
2.49866e-06
-0.00146275
0.00147322
-0.000235634
2.14616e-06
-0.0014614
0.00147329
-0.000251511
1.50702e-06
-0.00145874
0.00147423
-0.000275388
5.02024e-07
-0.00145486
0.0014785
-0.000318359
-9.67272e-07
-0.00144828
0.00149125
-0.000381693
-3.35265e-06
-0.00143512
0.00149891
-9.13433e-06
-0.00138641
-0.000500692
0.00150708
-0.000231437
2.08713e-06
-0.00175271
0.00176397
-0.000242301
2.72305e-06
-0.00175394
0.00176447
-0.000253115
2.98329e-06
-0.00175481
0.00176522
-0.000264406
2.94769e-06
-0.00175481
0.00176565
-0.000277164
2.58751e-06
-0.00175363
0.00176595
-0.000293713
1.89399e-06
-0.0017512
0.00176736
-0.000318864
7.6482e-07
-0.00174764
0.00177253
-0.000364969
-8.91584e-07
-0.00174142
0.00178745
-0.000432991
-3.67889e-06
-0.00172781
0.00179615
-1.06282e-05
-0.00166796
-0.000560754
0.00179721
-0.000271569
2.31996e-06
-0.00204523
0.00205669
-0.000282603
3.02517e-06
-0.00204684
0.00205757
-0.000293586
3.32316e-06
-0.00204822
0.00205886
-0.000305071
3.30382e-06
-0.00204869
0.00205982
-0.000318118
2.93614e-06
-0.00204804
0.00206074
-0.000335169
2.21102e-06
-0.00204624
0.00206297
-0.000361326
1.0119e-06
-0.00204332
0.00206923
-0.000409968
-7.45127e-07
-0.00203778
0.00208628
-0.000481932
-3.81375e-06
-0.00202453
0.00209663
-1.18626e-05
-0.00195287
-0.000615168
0.00208734
-0.000312272
2.40563e-06
-0.00233637
0.00234812
-0.000323409
3.13639e-06
-0.00233843
0.00234945
-0.00033446
3.42223e-06
-0.0023402
0.00235115
-0.000346004
3.37521e-06
-0.00234109
0.00235256
-0.000359151
2.97327e-06
-0.00234096
0.00235407
-0.000376428
2.21617e-06
-0.0023399
0.00235717
-0.000403212
9.86038e-07
-0.00233791
0.00236472
-0.000453747
-7.83355e-07
-0.00233348
0.00238405
-0.000529016
-3.91143e-06
-0.00232173
0.0023971
-1.28323e-05
-0.00223797
-0.000665773
0.0023757
-0.000352797
2.38473e-06
-0.00262732
0.0026392
-0.000363877
3.02324e-06
-0.00262998
0.00264117
-0.000374851
3.23824e-06
-0.00263232
0.00264348
-0.000386305
3.1053e-06
-0.00263367
0.00264539
-0.0003994
2.62928e-06
-0.00263412
0.00264756
-0.000416697
1.80279e-06
-0.00263388
0.00265159
-0.000443819
5.61989e-07
-0.00263302
0.00266056
-0.000495694
-1.10871e-06
-0.00263019
0.00268239
-0.000573748
-3.86037e-06
-0.00262109
0.0026991
-1.29888e-05
-0.002525
-0.00071251
0.00266392
-0.000394594
2.02543e-06
-0.00291886
0.00293116
-0.000405725
2.47472e-06
-0.00292211
0.00293379
-0.000416699
2.50335e-06
-0.00292455
0.00293626
-0.000428102
2.16457e-06
-0.00292585
0.0029382
-0.000441063
1.49451e-06
-0.0029262
0.00294029
-0.000458084
4.91254e-07
-0.00292612
0.00294445
-0.000484932
-8.16979e-07
-0.00292596
0.00295418
-0.000536998
-2.35939e-06
-0.00292457
0.00297789
-0.000616519
-4.1489e-06
-0.00291883
0.00299864
-1.21408e-05
-0.00281223
-0.00075568
0.00295055
-0.00043579
1.06862e-06
-0.00320674
0.00321918
-0.000446495
1.13607e-06
-0.00321085
0.00322289
-0.000457074
8.45146e-07
-0.00321391
0.00322615
-0.000468175
1.11571e-07
-0.00321582
0.00322897
-0.000480964
-9.47864e-07
-0.00321695
0.00323218
-0.000497828
-2.30791e-06
-0.00321788
0.00323755
-0.00052453
-3.78293e-06
-0.00321913
0.0032488
-0.000576323
-5.09785e-06
-0.00322004
0.00327457
-0.000655777
-5.50542e-06
-0.00321668
0.00329749
-1.0195e-05
-0.00309932
-0.000792426
0.00323402
-0.000477202
-0.00347532
0.00348833
-0.000488547
-0.00347892
0.0034914
-0.000499735
-0.00347963
0.00349166
-0.000511447
-0.00347707
0.00348889
-0.000524722
-0.00347191
0.00348424
-0.000541689
-0.00346521
0.00347987
-0.00056758
-0.00345815
0.00348026
-0.000616585
-0.00345221
0.00349612
-0.000689675
-0.0034486
0.00351618
-0.00333962
-0.000818675
0.00345842
1.43958e-05
8.89211e-07
-0.000861036
5.31262e-06
1.11386e-06
-0.000862525
-3.79135e-06
1.19459e-06
-0.000863111
-1.30998e-05
1.13692e-06
-0.000862887
-2.2812e-05
9.30926e-07
-0.000861825
-3.31461e-05
5.58261e-07
-0.000859664
-4.42492e-05
-1.52213e-08
-0.000855834
-5.55404e-05
-8.68316e-07
-0.000849167
-6.62353e-05
-2.19692e-06
-0.000838646
-3.96795e-06
-0.000822393
-6.39129e-05
1.54091e-05
1.51437e-06
-0.00115611
5.39081e-06
1.93063e-06
-0.00115771
-4.61707e-06
2.08433e-06
-0.00115838
-1.49319e-05
2.00511e-06
-0.00115808
-2.58188e-05
1.67107e-06
-0.00115658
-3.76405e-05
1.05996e-06
-0.0011534
-5.12334e-05
1.1e-07
-0.00114765
-6.76409e-05
-1.29498e-06
-0.0011375
-8.82615e-05
-3.54206e-06
-0.00112006
-6.6082e-06
-0.00109112
-9.86425e-05
1.67381e-05
1.8256e-06
-0.00145028
6.00732e-06
2.38963e-06
-0.00145206
-4.63074e-06
2.61313e-06
-0.00145285
-1.55081e-05
2.55085e-06
-0.00145242
-2.69626e-05
2.16969e-06
-0.00145045
-3.97278e-05
1.44601e-06
-0.00144636
-5.55495e-05
2.87846e-07
-0.00143921
-7.71564e-05
-1.42675e-06
-0.00142654
-0.000108635
-4.28262e-06
-0.0014029
-8.39502e-06
-0.00135938
-0.000133882
1.79544e-05
2.03412e-06
-0.00174096
6.74006e-06
2.75544e-06
-0.00174309
-4.38329e-06
3.0664e-06
-0.00174414
-1.58112e-05
3.05025e-06
-0.00174388
-2.79993e-05
2.65962e-06
-0.00174193
-4.19394e-05
1.87294e-06
-0.00173769
-5.9942e-05
5.57555e-07
-0.00172991
-8.61296e-05
-1.40015e-06
-0.00171526
-0.000128053
-4.79339e-06
-0.00168537
-9.90474e-06
-0.0016255
-0.000168998
1.90692e-05
2.28053e-06
-0.00203309
7.56841e-06
3.08051e-06
-0.00203567
-3.83541e-06
3.4353e-06
-0.00203719
-1.55988e-05
3.44142e-06
-0.00203732
-2.83153e-05
3.04742e-06
-0.00203571
-4.31627e-05
2.23118e-06
-0.00203175
-6.29169e-05
8.20987e-07
-0.00202383
-9.29963e-05
-1.28708e-06
-0.00200782
-0.000144891
-5.07497e-06
-0.00197235
-1.10629e-05
-0.00189521
-0.000201392
1.97732e-05
2.39887e-06
-0.00232381
8.09522e-06
3.23349e-06
-0.0023269
-3.43925e-06
3.58382e-06
-0.00232881
-1.53453e-05
3.57259e-06
-0.00232931
-2.83366e-05
3.15541e-06
-0.00232808
-4.37543e-05
2.32006e-06
-0.00232457
-6.48027e-05
8.74935e-07
-0.00231692
-9.80689e-05
-1.27386e-06
-0.00230023
-0.000159356
-5.20755e-06
-0.00226031
-1.18818e-05
-0.00216571
-0.000230799
2.01853e-05
2.36975e-06
-0.0026145
8.53023e-06
3.11054e-06
-0.0026182
-2.95396e-06
3.39533e-06
-0.00262064
-1.47989e-05
3.31094e-06
-0.00262156
-2.78483e-05
2.85241e-06
-0.00262077
-4.35536e-05
1.99037e-06
-0.00261784
-6.54979e-05
5.49376e-07
-0.00261075
-0.000101307
-1.56433e-06
-0.00259409
-0.000171274
-5.24501e-06
-0.00255109
-1.22475e-05
-0.00243911
-0.000256801
1.9927e-05
2.03451e-06
-0.0029056
8.27018e-06
2.58982e-06
-0.00290993
-3.10746e-06
2.71859e-06
-0.0029125
-1.47855e-05
2.48109e-06
-0.00291334
-2.76626e-05
1.9082e-06
-0.00291237
-4.32643e-05
9.66922e-07
-0.00290949
-6.54735e-05
-4.35068e-07
-0.00290276
-0.00010275
-2.40679e-06
-0.00288645
-0.000180118
-5.22002e-06
-0.00284148
-1.18984e-05
-0.00271328
-0.000279418
1.93966e-05
1.07419e-06
-0.00319322
8.20979e-06
1.21906e-06
-0.00319829
-2.66323e-06
1.05904e-06
-0.00320138
-1.38331e-05
4.7446e-07
-0.00320264
-2.63529e-05
-4.03692e-07
-0.00320212
-4.18587e-05
-1.58477e-06
-0.00319982
-6.44377e-05
-3.01035e-06
-0.00319398
-0.00010304
-4.67492e-06
-0.00317917
-0.000186368
-6.14869e-06
-0.00313242
-1.0075e-05
-0.00298565
-0.000301861
1.82413e-05
-0.00346152
6.80296e-06
-0.00346626
-4.11925e-06
-0.00346765
-1.52137e-05
-0.0034655
-2.74207e-05
-0.00346011
-4.23447e-05
-0.00345188
-6.39059e-05
-0.0034396
-0.000101288
-0.00341951
-0.000186015
-0.00337002
-0.0032157
-0.000320007
1.2026e-05
7.77875e-07
-0.000854365
4.42332e-06
1.01792e-06
-0.00085594
-3.29456e-06
1.10594e-06
-0.000856499
-1.10376e-05
1.04149e-06
-0.000856186
-1.86826e-05
8.17998e-07
-0.000854998
-2.59844e-05
4.19678e-07
-0.000852782
-3.23914e-05
-1.7549e-07
-0.000849252
-3.65992e-05
-1.00542e-06
-0.000843953
-3.67275e-05
-2.15387e-06
-0.000836364
-3.4321e-06
-0.000826718
-2.89704e-05
1.38781e-05
1.36261e-06
-0.0011476
4.85264e-06
1.80278e-06
-0.00114947
-4.23391e-06
1.96584e-06
-0.00115015
-1.34724e-05
1.87518e-06
-0.00114967
-2.28689e-05
1.50929e-06
-0.00114787
-3.22727e-05
8.43632e-07
-0.00114442
-4.12828e-05
-1.75253e-07
-0.00113864
-4.87473e-05
-1.61987e-06
-0.00112942
-5.22014e-05
-3.70529e-06
-0.00111506
-6.12747e-06
-0.00109587
-4.47549e-05
1.59825e-05
1.70916e-06
-0.00144011
5.7804e-06
2.30427e-06
-0.00144236
-4.41622e-06
2.53782e-06
-0.00144322
-1.48027e-05
2.45757e-06
-0.00144261
-2.54744e-05
2.02554e-06
-0.00144029
-3.64944e-05
1.20651e-06
-0.0014357
-4.79766e-05
-9.43723e-08
-0.00142781
-5.94527e-05
-1.97493e-06
-0.00141471
-6.85119e-05
-4.84506e-06
-0.00139271
-8.36502e-06
-0.00136071
-6.49451e-05
1.76321e-05
1.96827e-06
-0.00172976
6.64086e-06
2.73177e-06
-0.00173252
-4.3418e-06
3.05487e-06
-0.00173368
-1.56267e-05
3.01617e-06
-0.00173316
-2.74597e-05
2.56156e-06
-0.00173064
-4.01704e-05
1.65339e-06
-0.00172543
-5.43199e-05
1.43645e-07
-0.001716
-7.00998e-05
-2.08832e-06
-0.00169936
-8.58008e-05
-5.70497e-06
-0.00166881
-1.03337e-05
-0.0016211
-8.82322e-05
1.9037e-05
2.25991e-06
-0.00202122
7.53693e-06
3.10885e-06
-0.00202454
-3.93399e-06
3.47981e-06
-0.00202614
-1.57945e-05
3.46456e-06
-0.00202591
-2.84698e-05
3.0042e-06
-0.00202348
-4.2542e-05
2.05682e-06
-0.00201808
-5.90242e-05
4.19264e-07
-0.00200762
-7.89056e-05
-2.0573e-06
-0.00198797
-0.000101936
-6.30065e-06
-0.00194873
-1.1969e-05
-0.0018834
-0.000112116
1.99748e-05
2.42724e-06
-0.00231132
8.13793e-06
3.31522e-06
-0.00231527
-3.616e-06
3.68631e-06
-0.00231727
-1.57998e-05
3.66116e-06
-0.00231732
-2.89965e-05
3.18335e-06
-0.00231506
-4.4038e-05
2.2195e-06
-0.0023097
-6.24241e-05
5.36351e-07
-0.00229865
-8.60486e-05
-2.03834e-06
-0.00227662
-0.00011687
-6.63715e-06
-0.00222915
-1.3179e-05
-0.00214514
-0.000136227
2.05267e-05
2.42149e-06
-0.00260158
8.60927e-06
3.21556e-06
-0.00260619
-3.18701e-06
3.52704e-06
-0.00260869
-1.54208e-05
3.44209e-06
-0.00260911
-2.88413e-05
2.94748e-06
-0.00260711
-4.44906e-05
1.99703e-06
-0.00260197
-6.43528e-05
3.55195e-07
-0.0025907
-9.12579e-05
-2.20077e-06
-0.00256702
-0.000129976
-6.76521e-06
-0.00251224
-1.39482e-05
-0.00240904
-0.000159273
2.03504e-05
2.09753e-06
-0.00289221
8.40266e-06
2.70231e-06
-0.00289747
-3.31001e-06
2.8745e-06
-0.00290014
-1.54092e-05
2.67738e-06
-0.00290048
-2.8739e-05
2.12682e-06
-0.00289822
-4.45307e-05
1.17613e-06
-0.00289288
-6.52369e-05
-3.26631e-07
-0.00288138
-9.45832e-05
-2.64687e-06
-0.00285666
-0.000140684
-6.40157e-06
-0.00279575
-1.37374e-05
-0.0026736
-0.000180578
1.97372e-05
1.15101e-06
-0.0031795
8.24231e-06
1.32835e-06
-0.00318542
-2.97015e-06
1.24818e-06
-0.00318854
-1.45265e-05
7.72912e-07
-0.00318918
-2.74285e-05
2.61096e-08
-0.00318712
-4.31504e-05
-1.01322e-06
-0.00318191
-6.46501e-05
-2.33655e-06
-0.00317047
-9.64401e-05
-4.09025e-06
-0.00314594
-0.000148896
-6.37088e-06
-0.00308
-1.15126e-05
-0.00293619
-0.000200578
1.85752e-05
-0.00344765
6.99821e-06
-0.00345336
-4.10607e-06
-0.00345529
-1.54476e-05
-0.00345338
-2.79185e-05
-0.00344761
-4.30032e-05
-0.0034378
-6.37003e-05
-0.00342124
-9.54111e-05
-0.00339189
-0.00015068
-0.00332112
-0.00316254
-0.000215349
9.33374e-06
6.08987e-07
-0.000849534
3.46356e-06
8.52524e-07
-0.000850923
-2.58777e-06
9.44643e-07
-0.000851392
-8.54688e-06
8.78574e-07
-0.000851105
-1.4107e-05
6.52918e-07
-0.000850091
-1.88455e-05
2.5879e-07
-0.000848302
-2.212e-05
-3.1075e-07
-0.000845667
-2.28922e-05
-1.05789e-06
-0.000842123
-1.95794e-05
-1.9791e-06
-0.000837698
-2.86279e-06
-0.000832852
-1.05824e-05
1.1725e-05
1.11655e-06
-0.00114076
4.10708e-06
1.56695e-06
-0.00114256
-3.63944e-06
1.73521e-06
-0.0011432
-1.1377e-05
1.63709e-06
-0.00114269
-1.88894e-05
1.25542e-06
-0.00114096
-2.57877e-05
5.72173e-07
-0.00113783
-3.13124e-05
-4.44135e-07
-0.00113299
-3.39459e-05
-1.81567e-06
-0.00112603
-3.08495e-05
-3.60248e-06
-0.00111653
-5.41758e-06
-0.00110601
-1.81521e-05
1.44341e-05
1.48802e-06
-0.00143134
5.2575e-06
2.09957e-06
-0.00143372
-3.98576e-06
2.33598e-06
-0.00143458
-1.32962e-05
2.23519e-06
-0.0014339
-2.25674e-05
1.76089e-06
-0.00143153
-3.15046e-05
8.78417e-07
-0.00142707
-3.943e-05
-4.89685e-07
-0.00141984
-4.47342e-05
-2.39619e-06
-0.00140883
-4.3491e-05
-5.0352e-06
-0.00139252
-7.89245e-06
-0.00137301
-2.87081e-05
1.6521e-05
1.7997e-06
-0.00171966
6.22573e-06
2.59226e-06
-0.00172272
-4.13275e-06
2.91915e-06
-0.0017239
-1.46918e-05
2.84995e-06
-0.00172321
-2.54965e-05
2.33102e-06
-0.0017204
-3.64581e-05
1.32041e-06
-0.00171491
-4.7109e-05
-3.17938e-07
-0.00170552
-5.58654e-05
-2.67641e-06
-0.00169033
-5.78751e-05
-6.17721e-06
-0.00166566
-1.01725e-05
-0.00163381
-4.28844e-05
1.82716e-05
2.14235e-06
-0.00201013
7.1906e-06
3.02967e-06
-0.0020139
-3.92255e-06
3.40827e-06
-0.00201552
-1.53442e-05
3.35969e-06
-0.002015
-2.73114e-05
2.82344e-06
-0.00201201
-3.99855e-05
1.74827e-06
-0.00200583
-5.32037e-05
-6.65434e-08
-0.00199466
-6.55994e-05
-2.76687e-06
-0.00197548
-7.19264e-05
-7.0537e-06
-0.00194152
-1.21913e-05
-0.00189468
-5.86282e-05
1.95039e-05
2.36989e-06
-0.0022994
7.87285e-06
3.30233e-06
-0.00230391
-3.73292e-06
3.68587e-06
-0.00230594
-1.57157e-05
3.63342e-06
-0.00230561
-2.84891e-05
3.08208e-06
-0.00230254
-4.24901e-05
1.98418e-06
-0.00229593
-5.79586e-05
9.54255e-08
-0.00228334
-7.39571e-05
-2.78226e-06
-0.00226061
-8.55256e-05
-7.60606e-06
-0.00221703
-1.37656e-05
-0.00215329
-7.58002e-05
2.02603e-05
2.40819e-06
-0.00258902
8.3937e-06
3.24826e-06
-0.00259427
-3.40165e-06
3.57756e-06
-0.00259678
-1.56063e-05
3.47645e-06
-0.00259675
-2.88216e-05
2.9225e-06
-0.00259373
-4.37445e-05
1.85791e-06
-0.00258692
-6.10756e-05
2.29177e-08
-0.0025733
-8.04481e-05
-2.86588e-06
-0.00254756
-9.78691e-05
-7.85432e-06
-0.00249457
-1.48957e-05
-0.00241265
-9.31303e-05
2.02403e-05
2.11253e-06
-0.00287906
8.27097e-06
2.76001e-06
-0.00288501
-3.51552e-06
2.96235e-06
-0.00288773
-1.56848e-05
2.78441e-06
-0.00288762
-2.8951e-05
2.22416e-06
-0.00288426
-4.42601e-05
1.22691e-06
-0.00287694
-6.28396e-05
-4.00783e-07
-0.00286237
-8.50378e-05
-3.02005e-06
-0.00283431
-0.000108507
-7.33001e-06
-0.0027728
-1.483e-05
-0.00267208
-0.00011009
1.96927e-05
1.19996e-06
-0.00316593
8.11798e-06
1.40511e-06
-0.00317249
-3.22968e-06
1.38985e-06
-0.00317562
-1.49166e-05
9.99564e-07
-0.00317571
-2.77957e-05
3.46141e-07
-0.00317236
-4.30463e-05
-6.07321e-07
-0.00316483
-6.2518e-05
-1.89487e-06
-0.0031495
-8.76695e-05
-3.75171e-06
-0.00312005
-0.000117051
-6.49549e-06
-0.00305145
-1.22155e-05
-0.00292921
-0.000126645
1.86054e-05
-0.00343398
7.07013e-06
-0.00344042
-4.05843e-06
-0.00344277
-1.54504e-05
-0.00344099
-2.78755e-05
-0.00343484
-4.25528e-05
-0.00342373
-6.14329e-05
-0.00340425
-8.7067e-05
-0.00337
-0.000119681
-0.003295
-0.00315504
-0.000139403
6.84921e-06
4.23984e-07
-0.000846188
2.57477e-06
6.54575e-07
-0.000847303
-1.89879e-06
7.45266e-07
-0.000847664
-6.24106e-06
6.82933e-07
-0.000847446
-1.01074e-05
4.71106e-07
-0.000846696
-1.30928e-05
1.08886e-07
-0.000845426
-1.47037e-05
-3.95308e-07
-0.00084366
-1.43362e-05
-1.02018e-06
-0.000841471
-1.13197e-05
-1.72004e-06
-0.000838994
-2.32842e-06
-0.000836479
-5.36412e-06
9.3872e-06
8.22205e-07
-0.00113556
3.2973e-06
1.26188e-06
-0.00113708
-2.96866e-06
1.42856e-06
-0.00113762
-9.13073e-06
1.32944e-06
-0.00113718
-1.48464e-05
9.53094e-07
-0.00113573
-1.96461e-05
2.92858e-07
-0.00113322
-2.28142e-05
-6.56343e-07
-0.00112956
-2.32474e-05
-1.87265e-06
-0.00112474
-1.92825e-05
-3.31298e-06
-0.0011189
-4.63189e-06
-0.00111322
-9.76464e-06
1.24559e-05
1.18832e-06
-0.00142417
4.59119e-06
1.79645e-06
-0.00142639
-3.40646e-06
2.02941e-06
-0.00142718
-1.13542e-05
1.91306e-06
-0.00142654
-1.89769e-05
1.41643e-06
-0.00142437
-2.58024e-05
5.14963e-07
-0.00142046
-3.09545e-05
-8.37645e-07
-0.00141451
-3.28543e-05
-2.64367e-06
-0.00140616
-2.86145e-05
-4.92322e-06
-0.00139515
-7.13967e-06
-0.00138373
-1.53861e-05
1.48903e-05
1.53433e-06
-0.00171097
5.63886e-06
2.33983e-06
-0.00171401
-3.7517e-06
2.66505e-06
-0.00171515
-1.3215e-05
2.56749e-06
-0.0017144
-2.25871e-05
1.99851e-06
-0.00171161
-3.15022e-05
9.22609e-07
-0.0017064
-3.90679e-05
-7.6281e-07
-0.00169803
-4.3352e-05
-3.0999e-06
-0.00168559
-4.00333e-05
-6.26866e-06
-0.00166763
-9.53612e-06
-0.00164761
-2.38429e-05
1.69724e-05
1.91998e-06
-0.00200021
6.66625e-06
2.83358e-06
-0.00200409
-3.74498e-06
3.21497e-06
-0.00200566
-1.43386e-05
3.13178e-06
-0.00200497
-2.51208e-05
2.52619e-06
-0.00200175
-3.59142e-05
1.3475e-06
-0.00199546
-4.59408e-05
-5.75116e-07
-0.00198482
-5.30688e-05
-3.34455e-06
-0.00196811
-5.16606e-05
-7.37501e-06
-0.00194183
-1.17692e-05
-0.00191047
-3.36385e-05
1.85155e-05
2.20801e-06
-0.00228842
7.42968e-06
3.17692e-06
-0.00229317
-3.70355e-06
3.56882e-06
-0.00229516
-1.51054e-05
3.4852e-06
-0.00229457
-2.69532e-05
2.86079e-06
-0.00229103
-3.9313e-05
1.64155e-06
-0.00228386
-5.16587e-05
-3.97992e-07
-0.00227117
-6.18715e-05
-3.43059e-06
-0.00225031
-6.33677e-05
-8.12063e-06
-0.00221479
-1.35868e-05
-0.00216984
-4.50065e-05
1.95088e-05
2.30351e-06
-0.0025772
8.00602e-06
3.18581e-06
-0.00258277
-3.49342e-06
3.53013e-06
-0.00258525
-1.53157e-05
3.40847e-06
-0.00258485
-2.78316e-05
2.79064e-06
-0.00258115
-4.13652e-05
1.61009e-06
-0.00257336
-5.57434e-05
-3.88135e-07
-0.00255893
-6.90369e-05
-3.47851e-06
-0.00253422
-7.4216e-05
-8.48559e-06
-0.00248903
-1.49503e-05
-0.00242865
-5.68546e-05
1.96916e-05
2.04718e-06
-0.00286651
7.9808e-06
2.73815e-06
-0.00287285
-3.61904e-06
2.96638e-06
-0.00287557
-1.55465e-05
2.79925e-06
-0.00287508
-2.82979e-05
2.21803e-06
-0.00287094
-4.24517e-05
1.15949e-06
-0.00286234
-5.83081e-05
-5.88372e-07
-0.00284632
-7.43915e-05
-3.40772e-06
-0.00281829
-8.38707e-05
-7.91e-06
-0.0027639
-1.50069e-05
-0.00268685
-6.90447e-05
1.9269e-05
1.19999e-06
-0.00315284
7.86595e-06
1.43371e-06
-0.00315978
-3.38728e-06
1.47532e-06
-0.00316288
-1.49379e-05
1.15409e-06
-0.00316252
-2.74302e-05
5.70908e-07
-0.00315822
-4.16491e-05
-3.26952e-07
-0.00314912
-5.83926e-05
-1.60637e-06
-0.00313174
-7.72888e-05
-3.53796e-06
-0.00310103
-9.15599e-05
-6.47506e-06
-0.00303861
-1.20777e-05
-0.00294222
-8.14819e-05
1.82908e-05
-0.00342081
7.00105e-06
-0.00342769
-3.96675e-06
-0.00343033
-1.51895e-05
-0.00342862
-2.72612e-05
-0.0034222
-4.1052e-05
-0.00341027
-5.75072e-05
-0.0033894
-7.70921e-05
-0.00335396
-9.41519e-05
-0.00328442
-0.00317041
-9.08522e-05
4.81646e-06
2.51022e-07
-0.000843929
1.84261e-06
4.55705e-07
-0.000844785
-1.31461e-06
5.40057e-07
-0.000845046
-4.34623e-06
4.85522e-07
-0.0008449
-6.94558e-06
2.99508e-07
-0.000844396
-8.79001e-06
-1.29864e-08
-0.000843568
-9.55034e-06
-4.33668e-07
-0.000842466
-8.91207e-06
-9.30564e-07
-0.000841179
-6.64596e-06
-1.44728e-06
-0.000839813
-1.86579e-06
-0.000838414
-2.84603e-06
7.16927e-06
5.21028e-07
-0.00113173
2.51921e-06
9.29271e-07
-0.0011329
-2.32265e-06
1.08727e-06
-0.00113332
-7.02491e-06
9.94025e-07
-0.00113298
-1.12149e-05
6.43689e-07
-0.00113188
-1.44512e-05
4.07701e-08
-0.00113003
-1.61745e-05
-7.98192e-07
-0.00112747
-1.57044e-05
-1.82486e-06
-0.00112432
-1.22593e-05
-2.95085e-06
-0.00112084
-3.90715e-06
-0.00111779
-5.65226e-06
1.03343e-05
8.49029e-07
-0.00141853
3.86883e-06
1.43017e-06
-0.00142042
-2.77476e-06
1.65233e-06
-0.0014211
-9.29135e-06
1.5288e-06
-0.00142056
-1.53072e-05
1.03548e-06
-0.00141874
-2.0302e-05
1.62254e-07
-0.00141559
-2.34787e-05
-1.10299e-06
-0.00141103
-2.36621e-05
-2.72068e-06
-0.00140508
-1.91471e-05
-4.61159e-06
-0.001398
-6.31218e-06
-0.00139139
-9.09073e-06
1.2953e-05
1.20067e-06
-0.00170381
4.94827e-06
1.99686e-06
-0.00170658
-3.26105e-06
2.31372e-06
-0.0017076
-1.14351e-05
2.19531e-06
-0.0017069
-1.92467e-05
1.60118e-06
-0.00170437
-2.61811e-05
5.09729e-07
-0.00169981
-3.12791e-05
-1.13749e-06
-0.00169289
-3.28875e-05
-3.32953e-06
-0.00168337
-2.80243e-05
-6.07269e-06
-0.00167103
-8.68432e-06
-0.00165871
-1.45454e-05
1.52825e-05
1.61063e-06
-0.00199166
6.01528e-06
2.53123e-06
-0.00199535
-3.42941e-06
2.90928e-06
-0.00199681
-1.29319e-05
2.7964e-06
-0.00199607
-2.2288e-05
2.1416e-06
-0.00199294
-3.10797e-05
9.03746e-07
-0.00198707
-3.82931e-05
-1.04036e-06
-0.0019777
-4.18766e-05
-3.73378e-06
-0.00196412
-3.73978e-05
-7.34403e-06
-0.00194503
-1.0984e-05
-0.00192469
-2.08733e-05
1.70998e-05
1.94911e-06
-0.00227867
6.84747e-06
2.93967e-06
-0.00228333
-3.53072e-06
3.33462e-06
-0.00228521
-1.40554e-05
3.2216e-06
-0.00228447
-2.46643e-05
2.5377e-06
-0.00228082
-3.51115e-05
1.23206e-06
-0.00227375
-4.44659e-05
-8.78455e-07
-0.00226198
-5.04413e-05
-3.9112e-06
-0.00224415
-4.72128e-05
-8.23696e-06
-0.00221713
-1.2907e-05
-0.00218661
-2.85171e-05
1.83242e-05
2.10695e-06
-0.00256643
7.47565e-06
3.02217e-06
-0.00257201
-3.44823e-06
3.37784e-06
-0.00257437
-1.45843e-05
3.23589e-06
-0.00257373
-2.60513e-05
2.56243e-06
-0.00256971
-3.78166e-05
1.28982e-06
-0.00256165
-4.91485e-05
-8.07382e-07
-0.00254767
-5.76866e-05
-3.95049e-06
-0.00252565
-5.64444e-05
-8.68827e-06
-0.00248982
-1.43498e-05
-0.00244717
-3.6485e-05
1.87292e-05
1.89595e-06
-0.00285486
7.55135e-06
2.62724e-06
-0.00286128
-3.60001e-06
2.87678e-06
-0.00286392
-1.49954e-05
2.71525e-06
-0.00286317
-2.68833e-05
2.11084e-06
-0.0028586
-3.94577e-05
9.98668e-07
-0.00284947
-5.23271e-05
-8.26264e-07
-0.00283343
-6.33397e-05
-3.70945e-06
-0.00280752
-6.48614e-05
-8.09743e-06
-0.00276297
-1.44346e-05
-0.00270665
-4.49756e-05
1.84641e-05
1.14429e-06
-0.00314054
7.48873e-06
1.40501e-06
-0.00314758
-3.42743e-06
1.49498e-06
-0.00315058
-1.4571e-05
1.22822e-06
-0.00314988
-2.63522e-05
6.96463e-07
-0.00314503
-3.91567e-05
-1.6419e-07
-0.00313516
-5.29368e-05
-1.43804e-06
-0.00311735
-6.63023e-05
-3.37851e-06
-0.00308799
-7.12604e-05
-6.28868e-06
-0.00303547
-1.12875e-05
-0.00296302
-5.36119e-05
1.76233e-05
-0.00340842
6.79069e-06
-0.00341546
-3.81564e-06
-0.00341823
-1.46391e-05
-0.00341656
-2.60688e-05
-0.00341007
-3.86062e-05
-0.0033979
-5.23914e-05
-0.00337706
-6.65663e-05
-0.00334316
-7.36964e-05
-0.00328358
-0.00319582
-5.95777e-05
3.29101e-06
1.07129e-07
-0.000842406
1.28807e-06
2.78885e-07
-0.000843061
-8.66451e-07
3.53732e-07
-0.000843246
-2.92016e-06
3.09048e-07
-0.000843155
-4.63256e-06
1.54867e-07
-0.000842839
-5.77053e-06
-1.0078e-07
-0.00084233
-6.12984e-06
-4.35302e-07
-0.000841672
-5.55921e-06
-8.1541e-07
-0.000840934
-4.01135e-06
-1.18909e-06
-0.000840172
-1.47542e-06
-0.000839304
-1.64571e-06
5.24901e-06
2.4492e-07
-0.00112897
1.83116e-06
6.06138e-07
-0.00112981
-1.76728e-06
7.49635e-07
-0.00113012
-5.22957e-06
6.67607e-07
-0.00112988
-8.21492e-06
3.587e-07
-0.0011291
-1.036e-05
-1.64281e-07
-0.00112783
-1.12714e-05
-8.71256e-07
-0.00112612
-1.05667e-05
-1.70257e-06
-0.00112413
-7.94661e-06
-2.56149e-06
-0.00112209
-3.25226e-06
-0.00112042
-3.53716e-06
8.28494e-06
5.07752e-07
-0.00141423
3.1558e-06
1.03933e-06
-0.00141573
-2.1683e-06
1.24331e-06
-0.00141627
-7.33233e-06
1.12136e-06
-0.00141585
-1.19357e-05
6.56047e-07
-0.00141444
-1.54919e-05
-1.48738e-07
-0.00141205
-1.73728e-05
-1.27706e-06
-0.00140874
-1.68204e-05
-2.66092e-06
-0.00140467
-1.29824e-05
-4.17711e-06
-0.00140022
-5.46893e-06
-0.00139637
-5.777e-06
1.08999e-05
8.33915e-07
-0.00169809
4.20934e-06
1.59541e-06
-0.00170044
-2.72869e-06
1.89608e-06
-0.00170131
-9.56155e-06
1.76664e-06
-0.00170071
-1.58695e-05
1.17632e-06
-0.00169858
-2.10946e-05
1.20297e-07
-0.00169486
-2.43878e-05
-1.41652e-06
-0.00168946
-2.45458e-05
-3.37824e-06
-0.00168249
-1.98143e-05
-5.6669e-06
-0.00167428
-7.7223e-06
-0.00166673
-9.54031e-06
1.33482e-05
1.24302e-06
-0.00198453
5.27974e-06
2.14533e-06
-0.00198784
-3.0243e-06
2.51207e-06
-0.00198912
-1.12884e-05
2.37819e-06
-0.00198841
-1.91566e-05
1.70236e-06
-0.0019856
-2.60805e-05
4.59385e-07
-0.00198048
-3.10467e-05
-1.42048e-06
-0.00197273
-3.24054e-05
-3.91993e-06
-0.00196222
-2.72129e-05
-7.02888e-06
-0.00194886
-9.98091e-06
-0.00193583
-1.38199e-05
1.53595e-05
1.61344e-06
-0.00227027
6.15645e-06
2.60355e-06
-0.00227458
-3.24387e-06
2.99412e-06
-0.00227629
-1.26809e-05
2.85748e-06
-0.00227551
-2.18962e-05
2.13741e-06
-0.00227204
-3.04296e-05
7.94833e-07
-0.00226555
-3.72135e-05
-1.29763e-06
-0.00225532
-4.02433e-05
-4.19003e-06
-0.00224085
-3.52496e-05
-8.01164e-06
-0.00222114
-1.18935e-05
-0.00220079
-1.91547e-05
1.67719e-05
1.83026e-06
-0.00255692
6.82262e-06
2.76175e-06
-0.00256221
-3.28037e-06
3.12276e-06
-0.00256439
-1.34849e-05
2.96399e-06
-0.00256363
-2.36835e-05
2.25224e-06
-0.00255962
-3.35635e-05
9.27719e-07
-0.0025519
-4.21054e-05
-1.18752e-06
-0.00253924
-4.7069e-05
-4.23649e-06
-0.00252064
-4.28694e-05
-8.50777e-06
-0.00249352
-1.32791e-05
-0.00246409
-2.45658e-05
1.73923e-05
1.66403e-06
-0.00284435
6.99458e-06
2.4261e-06
-0.00285055
-3.46384e-06
2.69071e-06
-0.00285303
-1.40728e-05
2.53211e-06
-0.00285213
-2.48455e-05
1.90973e-06
-0.00284748
-3.56488e-05
7.64857e-07
-0.00283851
-4.56544e-05
-1.07954e-06
-0.00282353
-5.26156e-05
-3.8891e-06
-0.00280091
-4.99884e-05
-7.91694e-06
-0.00276618
-1.32838e-05
-0.00272615
-3.04914e-05
1.72969e-05
1.03285e-06
-0.00312932
6.99019e-06
1.31527e-06
-0.00313617
-3.35227e-06
1.4444e-06
-0.00313899
-1.38374e-05
1.21969e-06
-0.00313809
-2.46463e-05
7.26405e-07
-0.00313303
-3.58162e-05
-1.03942e-07
-0.00312312
-4.67381e-05
-1.3588e-06
-0.00310615
-5.55499e-05
-3.23903e-06
-0.00307983
-5.51157e-05
-5.95503e-06
-0.00303786
-1.01069e-05
-0.00298517
-3.61371e-05
1.66143e-05
-0.00339708
6.44294e-06
-0.00340397
-3.6006e-06
-0.00340674
-1.38042e-05
-0.00340514
-2.43479e-05
-0.0033988
-3.53956e-05
-0.00338695
-4.65283e-05
-0.00336728
-5.61803e-05
-0.00333675
-5.73755e-05
-0.00328834
-0.00322362
-3.9687e-05
2.21189e-06
-1.36709e-09
-0.000841363
8.93575e-07
1.36466e-07
-0.000841879
-5.42955e-07
2.00697e-07
-0.00084201
-1.90621e-06
1.66095e-07
-0.000841958
-3.02091e-06
4.4293e-08
-0.000841768
-3.72701e-06
-1.56024e-07
-0.000841467
-3.90063e-06
-4.12191e-07
-0.000841086
-3.47113e-06
-6.94679e-07
-0.000840669
-2.44938e-06
-9.6102e-07
-0.000840232
-1.15631e-06
-0.000839627
-9.69429e-07
3.6941e-06
1.31864e-08
-0.00112698
1.26087e-06
3.1934e-07
-0.00112756
-1.32607e-06
4.44828e-07
-0.00112778
-3.79931e-06
3.7702e-07
-0.00112762
-5.87772e-06
1.1765e-07
-0.0011271
-7.28494e-06
-3.16046e-07
-0.00112626
-7.75926e-06
-8.88369e-07
-0.00112517
-7.0973e-06
-1.53918e-06
-0.00112395
-5.21297e-06
-2.18085e-06
-0.00112276
-2.6742e-06
-0.00112183
-2.29046e-06
6.44951e-06
1.94093e-07
-0.00141101
2.5022e-06
6.58853e-07
-0.00141212
-1.63131e-06
8.38622e-07
-0.00141253
-5.60407e-06
7.2541e-07
-0.00141222
-9.04149e-06
3.07081e-07
-0.00141119
-1.15314e-05
-4.02214e-07
-0.00140947
-1.26145e-05
-1.36802e-06
-0.00140718
-1.18348e-05
-2.50942e-06
-0.00140448
-8.82517e-06
-3.69377e-06
-0.00140172
-4.65948e-06
-0.00139947
-3.74674e-06
8.8925e-06
4.68165e-07
-0.00169365
3.47471e-06
1.17094e-06
-0.00169554
-2.20633e-06
1.44764e-06
-0.00169624
-7.74964e-06
1.31696e-06
-0.00169576
-1.27102e-05
7.5757e-07
-0.00169407
-1.65607e-05
-2.19743e-07
-0.00169119
-1.8621e-05
-1.59608e-06
-0.00168717
-1.80875e-05
-3.28522e-06
-0.00168225
-1.40465e-05
-5.13903e-06
-0.00167687
-6.72512e-06
-0.00167226
-6.45157e-06
1.13189e-05
8.49656e-07
-0.00197877
4.50683e-06
1.70623e-06
-0.00198156
-2.57564e-06
2.05274e-06
-0.00198264
-9.55502e-06
1.90812e-06
-0.00198202
-1.59936e-05
1.24186e-06
-0.00197964
-2.13083e-05
4.6872e-08
-0.00197543
-2.46095e-05
-1.69787e-06
-0.00196933
-2.46916e-05
-3.9257e-06
-0.0019615
-1.98181e-05
-6.51649e-06
-0.00195236
-8.85752e-06
-0.00194406
-9.45571e-06
1.34185e-05
1.22858e-06
-0.00226325
5.39549e-06
2.19126e-06
-0.00226704
-2.87804e-06
2.56837e-06
-0.00226853
-1.11043e-05
2.41654e-06
-0.00226779
-1.8893e-05
1.68907e-06
-0.0022647
-2.56753e-05
3.63996e-07
-0.00225908
-3.04243e-05
-1.62834e-06
-0.00225064
-3.1558e-05
-4.27398e-06
-0.00223937
-2.63092e-05
-7.52891e-06
-0.00222537
-1.06702e-05
-0.00221195
-1.33373e-05
1.49469e-05
1.49329e-06
-0.00254877
6.07656e-06
2.41828e-06
-0.00255357
-3.01375e-06
2.77654e-06
-0.00255551
-1.21107e-05
2.60686e-06
-0.00255472
-2.09339e-05
1.88053e-06
-0.00255099
-2.89924e-05
5.52653e-07
-0.00254403
-3.51947e-05
-1.4995e-06
-0.00253317
-3.76499e-05
-4.33497e-06
-0.00251812
-3.24404e-05
-8.03271e-06
-0.00249823
-1.1911e-05
-0.00247821
-1.70759e-05
1.57517e-05
1.36427e-06
-0.00283514
6.33282e-06
2.14148e-06
-0.00284085
-3.22573e-06
2.41335e-06
-0.00284311
-1.28463e-05
2.25759e-06
-0.00284216
-2.2347e-05
1.62925e-06
-0.00283773
-3.13613e-05
4.82513e-07
-0.00282942
-3.88664e-05
-1.31921e-06
-0.0028162
-4.28111e-05
-3.94656e-06
-0.00279735
-3.83384e-05
-7.47072e-06
-0.00277122
-1.17994e-05
-0.00274329
-2.1309e-05
1.5817e-05
8.71257e-07