/*--------------------------------*- C++ -*----------------------------------*\
| =========                 |                                                 |
| \\      /  F ield         | foam-extend: Open Source CFD                    |
|  \\    /   O peration     | Version:     4.0                                |
|   \\  /    A nd           | Web:         http://www.foam-extend.org         |
|    \\/     M anipulation  |                                                 |
\*---------------------------------------------------------------------------*/
FoamFile
{
    version     2.0;
    format      ascii;
    class       volVectorField;
    location    "2300";
    object      U;
}
// * * * * * * * * * * * * * * * * * * * * * * * * * * * * * * * * * * * * * //

dimensions      [0 1 -1 0 0 0 0];

internalField   nonuniform List<vector> 
34480
(
(209.004 2.16692 3.26213)
(209.325 1.19979 1.52481)
(209.482 0.413941 -0.272678)
(209.488 -0.2102 -2.17599)
(209.339 -0.704979 -4.32558)
(208.997 -1.06661 -6.89878)
(208.381 -1.26871 -10.2973)
(207.215 -1.1883 -14.8664)
(204.544 -0.58994 -22.7772)
(197.606 1.98019 -50.0419)
(209.937 3.08127 2.87483)
(210.197 2.25978 1.05397)
(210.324 1.53462 -0.770451)
(210.297 0.900093 -2.66944)
(210.062 0.328128 -4.76313)
(209.558 -0.192337 -7.26132)
(208.751 -0.671378 -10.6255)
(207.459 -1.04603 -15.5989)
(204.323 -1.1458 -24.4047)
(196.164 0.637238 -55.1)
(210.627 2.71783 3.28977)
(210.861 1.83769 1.40623)
(210.955 1.06221 -0.498618)
(210.884 0.407811 -2.44284)
(210.589 -0.170641 -4.5575)
(210.061 -0.696375 -7.10227)
(209.31 -1.1858 -10.6079)
(208.166 -1.55804 -16.1046)
(204.865 -1.63492 -25.7842)
(195.655 0.361997 -59.4545)
(210.634 3.26202 3.2397)
(210.869 2.42935 1.30059)
(210.978 1.68542 -0.636599)
(210.941 1.06106 -2.60831)
(210.707 0.51232 -4.75358)
(210.292 0.0151243 -7.36189)
(209.676 -0.449763 -10.9671)
(208.696 -0.790064 -16.8196)
(205.37 -0.819315 -27.1187)
(195.356 1.32625 -62.727)
(210.793 2.72765 3.746)
(211.057 1.82091 1.76849)
(211.205 1.02624 -0.247925)
(211.229 0.376855 -2.29464)
(211.087 -0.18827 -4.53647)
(210.807 -0.691082 -7.27532)
(210.34 -1.14301 -11.0424)
(209.543 -1.43885 -17.2754)
(206.316 -1.38279 -28.2384)
(195.659 0.927201 -65.3966)
(210.679 3.41739 3.52146)
(210.954 2.5267 1.54634)
(211.121 1.74812 -0.431104)
(211.18 1.11926 -2.44659)
(211.105 0.58987 -4.65807)
(210.942 0.134531 -7.39247)
(210.627 -0.257771 -11.1655)
(210.046 -0.482207 -17.587)
(207.066 -0.320545 -29.0312)
(196.01 2.0879 -67.3684)
(210.76 2.58097 4.03749)
(211.076 1.59531 2.06146)
(211.272 0.74266 0.0419033)
(211.369 0.0527933 -2.00531)
(211.353 -0.530221 -4.26801)
(211.287 -1.0233 -7.07483)
(211.113 -1.41115 -10.9457)
(210.748 -1.57042 -17.6128)
(208.099 -1.20962 -29.6314)
(196.748 1.49058 -68.9923)
(210.588 3.3571 3.56646)
(210.908 2.35918 1.62257)
(211.084 1.52577 -0.317428)
(211.139 0.862927 -2.29882)
(211.082 0.338393 -4.47306)
(210.999 -0.0834883 -7.17432)
(210.87 -0.377901 -10.9065)
(210.662 -0.414986 -17.4914)
(208.421 0.250418 -29.6949)
(197.104 3.31554 -69.5908)
(210.533 2.04081 4.11443)
(210.897 0.925659 2.22385)
(211.103 -0.0309749 0.308374)
(211.198 -0.84515 -1.64909)
(211.191 -1.54867 -3.84201)
(211.153 -2.14745 -6.58119)
(211.092 -2.56097 -10.4057)
(211.024 -2.61205 -17.1066)
(209.111 -1.5573 -29.6788)
(197.68 2.45893 -69.5448)
(209.568 2.78735 3.53072)
(209.843 1.57013 1.59837)
(209.789 0.616368 -0.311949)
(209.431 -0.169529 -2.27864)
(208.812 -0.775512 -4.43736)
(208.027 -1.2163 -7.07432)
(207.157 -1.39999 -10.6664)
(206.371 -1.10914 -16.8185)
(204.433 0.415566 -28.5359)
(194.247 5.2807 -66.5004)
(205.89 1.91229 3.00053)
(206.368 1.10977 1.54389)
(206.555 0.426681 -0.00996801)
(206.471 -0.117267 -1.61006)
(206.093 -0.546376 -3.31979)
(205.332 -0.861179 -5.15155)
(203.984 -1.06578 -7.15905)
(201.619 -1.17165 -9.31727)
(198.153 -1.25674 -11.2449)
(193.578 -1.15891 -14.3934)
(207.188 2.86879 2.79784)
(207.62 2.16449 1.16174)
(207.792 1.51965 -0.49229)
(207.703 0.944152 -2.18912)
(207.291 0.416787 -3.99632)
(206.436 -0.0684933 -5.97179)
(204.942 -0.526806 -8.20868)
(202.357 -0.993079 -10.9581)
(198.188 -1.58352 -14.0067)
(192.504 -1.82383 -20.5815)
(208.137 2.57792 3.30698)
(208.547 1.77189 1.54462)
(208.704 1.04523 -0.256851)
(208.605 0.42309 -2.09027)
(208.168 -0.133109 -4.02984)
(207.294 -0.635889 -6.15933)
(205.81 -1.11456 -8.66766)
(203.232 -1.58582 -12.0868)
(198.688 -2.1567 -16.3331)
(192.069 -2.07079 -26.7166)
(208.381 3.17836 3.30335)
(208.796 2.40386 1.45598)
(208.975 1.69485 -0.403532)
(208.917 1.08868 -2.2971)
(208.544 0.54686 -4.31009)
(207.772 0.0576821 -6.56891)
(206.4 -0.41197 -9.29939)
(203.915 -0.85495 -13.2586)
(199.142 -1.3631 -18.4764)
(191.709 -0.933138 -32.454)
(208.734 2.6688 3.83815)
(209.177 1.80941 1.93557)
(209.395 1.04256 -0.0205201)
(209.402 0.409002 -2.00877)
(209.12 -0.146501 -4.14622)
(208.484 -0.635239 -6.58669)
(207.263 -1.09209 -9.5724)
(204.941 -1.48822 -14.0628)
(200.089 -1.90185 -20.2307)
(191.948 -1.07258 -37.693)
(208.77 3.3934 3.63405)
(209.227 2.54154 1.71972)
(209.471 1.78394 -0.206958)
(209.52 1.16407 -2.17571)
(209.312 0.635256 -4.29777)
(208.805 0.183066 -6.77308)
(207.749 -0.223748 -9.84343)
(205.647 -0.547633 -14.6622)
(200.883 -0.829744 -21.5474)
(192.218 0.365005 -42.2098)
(208.976 2.56708 4.15982)
(209.468 1.61631 2.23735)
(209.743 0.786663 0.258955)
(209.838 0.114481 -1.74966)
(209.698 -0.450421 -3.93588)
(209.305 -0.919637 -6.51574)
(208.411 -1.30969 -9.74439)
(206.555 -1.56793 -14.9177)
(201.997 -1.65591 -22.5675)
(192.908 0.00135933 -46.2449)
(208.891 3.37393 3.69553)
(209.392 2.40969 1.80334)
(209.655 1.59827 -0.0883324)
(209.725 0.950953 -2.02443)
(209.569 0.441373 -4.1204)
(209.197 0.0374449 -6.62279)
(208.397 -0.263758 -9.78123)
(206.761 -0.418189 -15.0052)
(202.532 -0.207912 -23.0525)
(193.315 1.83461 -49.2172)
(208.903 2.05542 4.24497)
(209.436 0.977377 2.40184)
(209.728 0.0661806 0.525897)
(209.833 -0.688866 -1.37774)
(209.734 -1.31833 -3.48068)
(209.437 -1.83464 -6.03041)
(208.758 -2.18994 -9.3353)
(207.35 -2.32151 -14.7935)
(203.46 -1.74177 -23.4884)
(193.992 1.003 -51.4978)
(207.981 2.86371 3.63681)
(208.458 1.69304 1.78947)
(208.574 0.796289 -0.0347536)
(208.361 0.0677952 -1.90548)
(207.833 -0.474174 -3.92985)
(207.026 -0.855598 -6.35379)
(205.826 -1.01326 -9.46965)
(204.023 -0.832082 -14.5639)
(200.282 0.222261 -23.0378)
(191.635 4.0374 -51.3445)
(203.515 1.428 2.33433)
(204.019 0.833667 1.21627)
(204.2 0.302643 -0.0132795)
(204.096 -0.131632 -1.26341)
(203.695 -0.482233 -2.55461)
(202.948 -0.746584 -3.83243)
(201.763 -0.934459 -5.04903)
(199.987 -1.07138 -6.05477)
(197.433 -1.24275 -6.49848)
(194.216 -1.43212 -6.5169)
(204.911 2.4145 2.31317)
(205.406 1.87218 0.946063)
(205.586 1.34591 -0.448846)
(205.463 0.855275 -1.8658)
(204.999 0.390194 -3.33137)
(204.11 -0.0546787 -4.84814)
(202.637 -0.492656 -6.37972)
(200.309 -0.955373 -7.86296)
(196.686 -1.55422 -8.80242)
(191.846 -2.13632 -9.81071)
(205.946 2.21235 2.94794)
(206.446 1.52918 1.39531)
(206.626 0.890992 -0.208851)
(206.501 0.327544 -1.83813)
(206.013 -0.193203 -3.53886)
(205.06 -0.681171 -5.32775)
(203.444 -1.16111 -7.21462)
(200.799 -1.66321 -9.29198)
(196.298 -2.33179 -11.0027)
(189.856 -2.91085 -13.5839)
(206.343 2.8973 2.99402)
(206.865 2.22069 1.31793)
(207.071 1.57994 -0.380996)
(206.981 1.01485 -2.11245)
(206.53 0.491938 -3.94037)
(205.614 0.00144555 -5.92307)
(203.982 -0.488517 -8.10647)
(201.169 -0.995382 -10.7405)
(195.93 -1.68051 -13.2005)
(187.994 -2.16586 -17.5586)
(206.845 2.42676 3.56859)
(207.399 1.65034 1.80527)
(207.642 0.941116 -0.0197147)
(207.608 0.340922 -1.87753)
(207.227 -0.200708 -3.86957)
(206.4 -0.692271 -6.08634)
(204.827 -1.16925 -8.60259)
(201.969 -1.63767 -11.8316)
(196.183 -2.28571 -15.13)
(186.926 -2.57732 -21.5716)
(207.011 3.20048 3.38952)
(207.585 2.41769 1.59367)
(207.854 1.70814 -0.222643)
(207.862 1.11525 -2.08453)
(207.544 0.594454 -4.09234)
(206.814 0.133431 -6.38755)
(205.341 -0.303269 -9.063)
(202.541 -0.715204 -12.7146)
(196.409 -1.27625 -16.7149)
(186.061 -1.33967 -25.3328)
(207.329 2.3907 3.93858)
(207.934 1.50311 2.11647)
(208.233 0.720429 0.231143)
(208.287 0.0788252 -1.68956)
(208.032 -0.470116 -3.78539)
(207.401 -0.934703 -6.22107)
(206.046 -1.33738 -9.12165)
(203.366 -1.66895 -13.232)
(197.059 -2.06837 -18.0273)
(185.782 -1.79895 -28.9561)
(207.337 3.23564 3.47866)
(207.949 2.33257 1.68337)
(208.243 1.56594 -0.117733)
(208.28 0.948786 -1.97019)
(208.016 0.454522 -3.98474)
(207.414 0.0568627 -6.36731)
(206.144 -0.257022 -9.26051)
(203.617 -0.487665 -13.5543)
(197.325 -0.620362 -18.8721)
(185.386 -0.0694883 -31.8724)
(207.429 1.90359 4.03262)
(208.061 0.88747 2.27488)
(208.375 0.0349622 0.472604)
(208.441 -0.660606 -1.36164)
(208.219 -1.23114 -3.38784)
(207.679 -1.68687 -5.81516)
(206.521 -1.99252 -8.87644)
(204.187 -2.12658 -13.5148)
(198.029 -1.86063 -19.642)
(185.306 -0.799202 -34.2636)
(206.573 2.76953 3.39214)
(207.152 1.67664 1.66364)
(207.338 0.850629 -0.0527187)
(207.165 0.187356 -1.8246)
(206.628 -0.293637 -3.74852)
(205.717 -0.615346 -6.03818)
(204.2 -0.726479 -8.92233)
(201.63 -0.54713 -13.3057)
(195.609 0.217614 -19.5468)
(182.827 2.30024 -34.6943)
(201.78 0.949205 1.70175)
(202.217 0.547809 0.911381)
(202.368 0.165749 0.00788416)
(202.269 -0.157754 -0.896423)
(201.921 -0.428472 -1.80008)
(201.305 -0.641046 -2.62148)
(200.394 -0.807699 -3.29565)
(199.16 -0.951944 -3.68717)
(197.601 -1.12917 -3.58048)
(195.87 -1.36476 -2.75287)
(203.102 1.9077 1.79131)
(203.569 1.53224 0.71805)
(203.732 1.13508 -0.387776)
(203.601 0.742067 -1.49715)
(203.153 0.354392 -2.60172)
(202.343 -0.0307261 -3.67095)
(201.094 -0.423944 -4.62883)
(199.302 -0.847732 -5.347)
(196.837 -1.37029 -5.40302)
(194.039 -1.93765 -4.6197)
(204.091 1.76018 2.5034)
(204.601 1.22032 1.20594)
(204.777 0.690522 -0.150927)
(204.635 0.20497 -1.51807)
(204.135 -0.259797 -2.9122)
(203.207 -0.712104 -4.31343)
(201.716 -1.17137 -5.6553)
(199.467 -1.66388 -6.84633)
(196.112 -2.29532 -7.29995)
(192.033 -2.9912 -6.924)
(204.55 2.52689 2.58692)
(205.107 1.97252 1.13161)
(205.312 1.42116 -0.354701)
(205.189 0.916478 -1.86128)
(204.689 0.433254 -3.42377)
(203.722 -0.0378089 -5.05639)
(202.094 -0.525787 -6.71334)
(199.507 -1.05313 -8.37932)
(195.291 -1.75895 -9.29345)
(189.826 -2.52532 -9.54024)
(205.136 2.10131 3.20254)
(205.737 1.43232 1.62516)
(205.977 0.800582 -0.020118)
(205.896 0.250288 -1.68752)
(205.431 -0.261074 -3.45173)
(204.488 -0.741444 -5.35628)
(202.811 -1.22378 -7.38184)
(200.007 -1.72735 -9.61119)
(195.039 -2.44166 -11.1401)
(188.235 -3.18087 -12.3678)
(205.393 2.92963 3.05247)
(206.022 2.23958 1.41819)
(206.289 1.59654 -0.243978)
(206.242 1.04597 -1.94393)
(205.816 0.549084 -3.75871)
(204.922 0.0934049 -5.78009)
(203.253 -0.35876 -8.01112)
(200.343 -0.826014 -10.6684)
(194.769 -1.50647 -12.7412)
(186.758 -2.16619 -15.1348)
(205.796 2.14626 3.63067)
(206.458 1.3434 1.94739)
(206.752 0.623589 0.194278)
(206.746 0.0244751 -1.58908)
(206.367 -0.497944 -3.52111)
(205.538 -0.951462 -5.71767)
(203.915 -1.36262 -8.22166)
(200.976 -1.74441 -11.3674)
(194.944 -2.30019 -14.1234)
(185.842 -2.77376 -17.9492)
(205.883 3.04192 3.18167)
(206.553 2.21946 1.5178)
(206.846 1.51103 -0.159455)
(206.827 0.934002 -1.88671)
(206.443 0.463468 -3.75592)
(205.63 0.0771779 -5.92614)
(204.047 -0.246817 -8.46754)
(201.146 -0.535792 -11.8564)
(194.856 -0.880536 -15.11)
(184.868 -1.19374 -20.318)
(206.044 1.70842 3.76437)
(206.724 0.770907 2.12343)
(207.033 -0.0163943 0.423787)
(207.039 -0.652802 -1.30803)
(206.688 -1.16965 -3.2103)
(205.919 -1.57408 -5.43807)
(204.393 -1.84565 -8.1433)
(201.582 -1.99532 -11.8891)
(195.221 -1.94744 -15.9861)
(184.257 -1.89914 -22.3803)
(205.256 2.64798 3.10247)
(205.889 1.64518 1.5146)
(206.107 0.893043 -0.0759855)
(205.943 0.293637 -1.72677)
(205.372 -0.131721 -3.51644)
(204.348 -0.403109 -5.61275)
(202.582 -0.481726 -8.16701)
(199.581 -0.31661 -11.7256)
(193.24 0.228227 -16.0577)
(181.785 1.20166 -22.8629)
(200.57 0.551214 1.1939)
(200.912 0.295016 0.666073)
(201.027 0.0341598 0.0357355)
(200.951 -0.195174 -0.583105)
(200.693 -0.396546 -1.18744)
(200.254 -0.562284 -1.69752)
(199.642 -0.701951 -2.06661)
(198.879 -0.830684 -2.20478)
(198.014 -0.97496 -2.02032)
(197.163 -1.14148 -1.42912)
(201.726 1.43472 1.31126)
(202.12 1.20024 0.510164)
(202.257 0.92097 -0.321307)
(202.143 0.622408 -1.14567)
(201.77 0.313765 -1.93594)
(201.121 -0.00370769 -2.64899)
(200.177 -0.334523 -3.21067)
(198.933 -0.688489 -3.5126)
(197.41 -1.09387 -3.32757)
(195.913 -1.51106 -2.51764)
(202.576 1.29297 2.05028)
(203.046 0.890896 1.01551)
(203.208 0.471104 -0.0833972)
(203.074 0.0692987 -1.18045)
(202.622 -0.32929 -2.26763)
(201.813 -0.729299 -3.30344)
(200.582 -1.14395 -4.20336)
(198.864 -1.59073 -4.83739)
(196.581 -2.12494 -4.81324)
(194.192 -2.69393 -3.92694)
(203.016 2.11762 2.14818)
(203.558 1.6914 0.93532)
(203.754 1.23788 -0.315606)
(203.625 0.803586 -1.57429)
(203.134 0.373243 -2.84714)
(202.224 -0.0596767 -4.11448)
(200.774 -0.519306 -5.29413)
(198.641 -1.02485 -6.27058)
(195.551 -1.66426 -6.46636)
(192.082 -2.36872 -5.60748)
(203.615 1.72904 2.79403)
(204.22 1.17925 1.43076)
(204.452 0.636096 -0.0067085)
(204.348 0.146262 -1.45397)
(203.857 -0.322537 -2.95362)
(202.908 -0.776266 -4.50655)
(201.316 -1.24344 -6.04462)
(198.859 -1.74638 -7.4922)
(194.995 -2.42596 -8.08605)
(190.378 -3.19349 -7.53427)
(203.913 2.60738 2.66937)
(204.56 2.0248 1.22668)
(204.821 1.46041 -0.252001)
(204.741 0.962536 -1.75783)
(204.263 0.501087 -3.33673)
(203.308 0.0649034 -5.02976)
(201.636 -0.383402 -6.78406)
(198.952 -0.870116 -8.60566)
(194.392 -1.55893 -9.55969)
(188.651 -2.35276 -9.45937)
(204.362 1.85357 3.27541)
(205.049 1.15129 1.76092)
(205.338 0.506022 0.168936)
(205.29 -0.0417136 -1.44493)
(204.839 -0.528799 -3.16838)
(203.906 -0.962192 -5.06305)
(202.204 -1.3707 -7.11179)
(199.369 -1.77932 -9.39669)
(194.213 -2.37943 -10.878)
(187.389 -3.09931 -11.502)
(204.503 2.80605 2.83912)
(205.204 2.07988 1.33375)
(205.495 1.4408 -0.193657)
(205.439 0.912321 -1.76652)
(204.98 0.473686 -3.44905)
(204.044 0.106299 -5.34439)
(202.327 -0.218422 -7.45835)
(199.42 -0.542972 -9.99062)
(193.838 -0.991038 -11.8662)
(186.055 -1.65636 -13.2453)
(204.717 1.47467 3.45715)
(205.425 0.630534 1.95849)
(205.729 -0.084265 0.386319)
(205.691 -0.659525 -1.21516)
(205.256 -1.12409 -2.95752)
(204.347 -1.48255 -4.93715)
(202.644 -1.72707 -7.22508)
(199.715 -1.89019 -10.0744)
(193.889 -1.98173 -12.6836)
(185.057 -2.39463 -14.8184)
(203.99 2.50143 2.77461)
(204.655 1.59931 1.34459)
(204.897 0.925126 -0.103822)
(204.741 0.389869 -1.61329)
(204.153 0.0174711 -3.24029)
(203.068 -0.209311 -5.10199)
(201.199 -0.264003 -7.27263)
(198.102 -0.118971 -10.0004)
(192.174 0.260025 -12.811)
(182.633 0.640339 -15.1307)
(199.738 0.251779 0.824836)
(199.992 0.0932284 0.48837)
(200.073 -0.0794478 0.0635725)
(200.022 -0.236386 -0.342733)
(199.847 -0.38197 -0.735409)
(199.559 -0.507215 -1.04651)
(199.174 -0.618364 -1.25087)
(198.722 -0.722894 -1.29412)
(198.246 -0.831533 -1.14383)
(197.79 -0.94309 -0.777494)
(200.716 1.04063 0.910769)
(201.018 0.911284 0.336642)
(201.125 0.728438 -0.260222)
(201.037 0.512698 -0.845223)
(200.753 0.277476 -1.38652)
(200.275 0.0269988 -1.84334)
(199.611 -0.237486 -2.1583)
(198.792 -0.516547 -2.25868)
(197.884 -0.815115 -2.03778)
(197.077 -1.10344 -1.43094)
(201.389 0.861811 1.63589)
(201.787 0.575299 0.842112)
(201.925 0.255088 -0.015373)
(201.812 -0.0657723 -0.863851)
(201.435 -0.395458 -1.68093)
(200.783 -0.73446 -2.41798)
(199.838 -1.08936 -2.99864)
(198.609 -1.46883 -3.31458)
(197.135 -1.89495 -3.14385)
(195.748 -2.325 -2.34645)
(201.757 1.71231 1.72022)
(202.246 1.40416 0.746075)
(202.422 1.04655 -0.269367)
(202.3 0.685782 -1.28325)
(201.859 0.315494 -2.28039)
(201.067 -0.0666728 -3.22111)
(199.87 -0.477385 -4.01849)
(198.229 -0.929132 -4.54527)
(196.095 -1.46817 -4.43721)
(193.954 -2.04042 -3.439)
(202.315 1.34339 2.37731)
(202.883 0.911182 1.23648)
(203.096 0.459753 0.0178512)
(202.986 0.03631 -1.20028)
(202.514 -0.3812 -2.43272)
(201.634 -0.795403 -3.64947)
(200.238 -1.22804 -4.7637)
(198.234 -1.69862 -5.64693)
(195.415 -2.29682 -5.77435)
(192.408 -2.96174 -4.76559)
(202.609 2.2585 2.26765)
(203.235 1.78752 1.0317)
(203.481 1.30789 -0.246702)
(203.383 0.869719 -1.542)
(202.897 0.452355 -2.87087)
(201.963 0.047601 -4.23246)
(200.422 -0.377346 -5.54363)
(198.122 -0.84893 -6.71195)
(194.64 -1.48282 -7.04633)
(190.723 -2.2261 -6.09526)
(203.069 1.53089 2.89437)
(203.746 0.936944 1.56758)
(204.02 0.37357 0.156686)
(203.944 -0.116108 -1.26724)
(203.463 -0.560581 -2.76062)
(202.51 -0.964893 -4.33686)
(200.874 -1.35672 -5.93762)
(198.341 -1.76572 -7.50447)
(194.245 -2.34293 -8.2247)
(189.395 -3.07446 -7.55847)
(203.239 2.54069 2.46812)
(203.936 1.92033 1.14006)
(204.217 1.35856 -0.218023)
(204.135 0.885314 -1.61537)
(203.638 0.485346 -3.08707)
(202.659 0.144157 -4.68429)
(200.957 -0.16873 -6.36132)
(198.267 -0.50107 -8.14039)
(193.684 -0.973163 -9.13437)
(187.953 -1.71678 -8.79326)
(203.488 1.21051 3.123)
(204.195 0.469796 1.78544)
(204.487 -0.166966 0.360723)
(204.418 -0.679377 -1.0881)
(203.934 -1.09246 -2.64479)
(202.962 -1.40827 -4.35249)
(201.235 -1.62832 -6.21893)
(198.441 -1.79468 -8.27885)
(193.522 -1.95802 -9.83213)
(186.815 -2.51395 -9.91432)
(202.812 2.33614 2.41839)
(203.481 1.54217 1.15868)
(203.733 0.94906 -0.134076)
(203.582 0.478227 -1.4855)
(202.994 0.156492 -2.92837)
(201.898 -0.0308125 -4.5321)
(200.047 -0.0680505 -6.30671)
(197.093 0.0556214 -8.29689)
(191.995 0.313729 -9.98362)
(184.567 0.412607 -10.0823)
(199.164 0.0422196 0.576314)
(199.349 -0.0564799 0.36972)
(199.405 -0.170318 0.0875996)
(199.373 -0.275705 -0.172469)
(199.262 -0.37916 -0.425554)
(199.084 -0.471294 -0.616475)
(198.854 -0.555957 -0.736415)
(198.595 -0.63542 -0.752736)
(198.334 -0.712691 -0.658273)
(198.073 -0.783925 -0.45162)
(199.986 0.740883 0.59893)
(200.204 0.682574 0.200144)
(200.282 0.572271 -0.211286)
(200.219 0.423786 -0.609878)
(200.018 0.25193 -0.966858)
(199.688 0.0623909 -1.25032)
(199.246 -0.139492 -1.42135)
(198.729 -0.349357 -1.43692)
(198.195 -0.562078 -1.25227)
(197.757 -0.754089 -0.850806)
(200.484 0.495733 1.2841)
(200.798 0.296656 0.694213)
(200.908 0.0593202 0.0456513)
(200.82 -0.189085 -0.591147)
(200.527 -0.452809 -1.18896)
(200.033 -0.729123 -1.70223)
(199.347 -1.01928 -2.07148)
(198.505 -1.32451 -2.2226)
(197.578 -1.64828 -2.04284)
(196.774 -1.95738 -1.4732)
(200.756 1.34231 1.3305)
(201.168 1.1328 0.573812)
(201.318 0.861814 -0.222845)
(201.214 0.572128 -1.01242)
(200.844 0.263981 -1.7679)
(200.199 -0.0610331 -2.44289)
(199.265 -0.411497 -2.96163)
(198.061 -0.792375 -3.22037)
(196.636 -1.22187 -3.01369)
(195.323 -1.65772 -2.19295)
(201.237 0.972918 1.97801)
(201.74 0.646689 1.05163)
(201.928 0.283321 0.0479706)
(201.823 -0.0722851 -0.948132)
(201.401 -0.433432 -1.93198)
(200.638 -0.799033 -2.85723)
(199.485 -1.18318 -3.63816)
(197.93 -1.59918 -4.14862)
(195.952 -2.0966 -4.06599)
(194.018 -2.62755 -3.11842)
(201.496 1.90647 1.86977)
(202.069 1.54197 0.841842)
(202.291 1.14737 -0.231838)
(202.189 0.772411 -1.314)
(201.731 0.405106 -2.39866)
(200.88 0.0409601 -3.45752)
(199.545 -0.345236 -4.39852)
(197.675 -0.774809 -5.09972)
(195.126 -1.31966 -5.10519)
(192.504 -1.94545 -4.03095)
(201.938 1.19712 2.50625)
(202.573 0.711267 1.37466)
(202.824 0.232415 0.155023)
(202.735 -0.195148 -1.06972)
(202.261 -0.591531 -2.32915)
(201.356 -0.959095 -3.60164)
(199.881 -1.32145 -4.80835)
(197.739 -1.70658 -5.82712)
(194.631 -2.22151 -6.09915)
(191.266 -2.86437 -5.07331)
(202.11 2.26005 2.08441)
(202.774 1.74827 0.94327)
(203.036 1.26788 -0.233734)
(202.939 0.85426 -1.44327)
(202.442 0.498003 -2.69433)
(201.488 0.188749 -3.99749)
(199.91 -0.101868 -5.27595)
(197.561 -0.417484 -6.45325)
(193.978 -0.857682 -6.88308)
(189.879 -1.53898 -5.92322)
(202.378 0.926489 2.77505)
(203.058 0.293535 1.60948)
(203.331 -0.262247 0.345816)
(203.243 -0.711106 -0.935518)
(202.746 -1.07359 -2.29249)
(201.78 -1.34933 -3.7257)
(200.146 -1.54588 -5.20097)
(197.646 -1.70581 -6.62894)
(193.704 -1.88946 -7.46368)
(188.79 -2.41852 -6.69999)
(201.74 2.16025 2.04519)
(202.387 1.47793 0.962226)
(202.636 0.967425 -0.165751)
(202.492 0.560765 -1.34767)
(201.923 0.287438 -2.59385)
(200.867 0.134993 -3.93391)
(199.131 0.110318 -5.33121)
(196.475 0.213127 -6.71445)
(192.319 0.384855 -7.61546)
(186.787 0.372419 -6.78103)
(198.758 -0.0984189 0.417734)
(198.895 -0.162641 0.29552)
(198.933 -0.2396 0.106999)
(198.914 -0.310232 -0.0578685)
(198.847 -0.383386 -0.223003)
(198.742 -0.449907 -0.343358)
(198.608 -0.512354 -0.420368)
(198.463 -0.570311 -0.43298)
(198.316 -0.623587 -0.383265)
(198.149 -0.668149 -0.273322)
(199.462 0.530857 0.367164)
(199.61 0.517107 0.0966277)
(199.664 0.458036 -0.176651)
(199.622 0.360986 -0.438044)
(199.488 0.240569 -0.664949)
(199.27 0.102785 -0.83514)
(198.988 -0.0451665 -0.92434)
(198.67 -0.196962 -0.908712)
(198.358 -0.344603 -0.77181)
(198.116 -0.470467 -0.513362)
(199.804 0.20508 1.00193)
(200.038 0.0669198 0.574446)
(200.121 -0.105814 0.0960077)
(200.056 -0.293232 -0.370847)
(199.842 -0.497885 -0.800211)
(199.487 -0.715413 -1.15465)
(199.01 -0.943698 -1.39158)
(198.451 -1.17922 -1.46531)
(197.875 -1.41687 -1.32175)
(197.405 -1.63193 -0.946275)
(199.981 1.02664 0.994424)
(200.31 0.893134 0.424312)
(200.431 0.69534 -0.180776)
(200.348 0.470242 -0.776362)
(200.055 0.222065 -1.33181)
(199.556 -0.044799 -1.80323)
(198.861 -0.332184 -2.13149)
(198.009 -0.639195 -2.24266)
(197.074 -0.967531 -2.02954)
(196.27 -1.28541 -1.42344)
(200.368 0.639365 1.61487)
(200.79 0.401743 0.883135)
(200.949 0.117776 0.0788777)
(200.857 -0.172556 -0.713942)
(200.501 -0.475982 -1.47954)
(199.875 -0.788247 -2.16744)
(198.968 -1.11675 -2.70374)
(197.808 -1.46776 -2.98656)
(196.452 -1.86373 -2.83138)
(195.217 -2.26656 -2.08447)
(200.572 1.57185 1.495)
(201.071 1.30179 0.664575)
(201.264 0.987441 -0.211154)
(201.168 0.675686 -1.08923)
(200.762 0.361493 -1.94905)
(200.029 0.0439013 -2.74882)
(198.93 -0.293816 -3.40236)
(197.471 -0.665801 -3.79552)
(195.657 -1.10977 -3.64691)
(193.921 -1.60315 -2.71213)
(200.976 0.870804 2.12889)
(201.546 0.485879 1.18903)
(201.768 0.0896234 0.16092)
(201.677 -0.27468 -0.866041)
(201.239 -0.619701 -1.90121)
(200.428 -0.944932 -2.90244)
(199.167 -1.26852 -3.78744)
(197.433 -1.61266 -4.42099)
(195.148 -2.04639 -4.44739)
(192.849 -2.56739 -3.4568)
(201.127 1.97923 1.70424)
(201.734 1.57227 0.750138)
(201.971 1.17328 -0.242477)
(201.87 0.821089 -1.26118)
(201.4 0.511649 -2.29434)
(200.524 0.238423 -3.32551)
(199.137 -0.0224006 -4.26584)
(197.18 -0.305691 -5.00172)
(194.477 -0.683474 -5.08966)
(191.603 -1.24152 -4.02925)
(201.402 0.63446 2.42778)
(202.032 0.107814 1.43658)
(202.28 -0.367057 0.340219)
(202.184 -0.753085 -0.76712)
(201.705 -1.06628 -1.9218)
(200.799 -1.3041 -3.09462)
(199.335 -1.47726 -4.22892)
(197.207 -1.62387 -5.18392)
(194.167 -1.79824 -5.56501)
(190.666 -2.23192 -4.57247)
(200.79 1.98327 1.66774)
(201.391 1.41181 0.761306)
(201.626 0.983329 -0.198181)
(201.493 0.639608 -1.20548)
(200.962 0.412133 -2.2518)
(199.986 0.290303 -3.33737)
(198.433 0.274602 -4.39688)
(196.157 0.358324 -5.31034)
(192.901 0.468975 -5.69495)
(188.926 0.424356 -4.59112)
(198.459 -0.191684 0.321238)
(198.566 -0.236908 0.25218)
(198.592 -0.291885 0.122461)
(198.581 -0.340049 0.017002)
(198.542 -0.392287 -0.0945787)
(198.482 -0.43999 -0.174426)
(198.406 -0.485204 -0.229694)
(198.324 -0.526448 -0.245346)
(198.24 -0.562495 -0.226317)
(198.121 -0.589923 -0.173595)
(199.081 0.39644 0.199341)
(199.178 0.409122 0.0189648)
(199.214 0.384543 -0.155865)
(199.188 0.32503 -0.320442)
(199.101 0.244317 -0.458631)
(198.964 0.148072 -0.556213)
(198.789 0.0435596 -0.59899)
(198.597 -0.062701 -0.574079)
(198.415 -0.162981 -0.477317)
(198.279 -0.244334 -0.311606)
(199.296 -0.0127858 0.785325)
(199.462 -0.111346 0.481271)
(199.522 -0.236283 0.134668)
(199.477 -0.374933 -0.202139)
(199.327 -0.529552 -0.507394)
(199.083 -0.695654 -0.752866)
(198.763 -0.869385 -0.909801)
(198.401 -1.04516 -0.952057)
(198.047 -1.21522 -0.854288)
(197.771 -1.36162 -0.621765)
(199.393 0.772897 0.716957)
(199.643 0.694011 0.299473)
(199.737 0.554738 -0.146008)
(199.674 0.385307 -0.581685)
(199.454 0.191762 -0.978657)
(199.084 -0.0199665 -1.30021)
(198.586 -0.247361 -1.50354)
(198 -0.486005 -1.54012)
(197.394 -0.729717 -1.35769)
(196.901 -0.954879 -0.931493)
(199.684 0.356282 1.29874)
(200.022 0.188151 0.73508)
(200.15 -0.0279385 0.106864)
(200.075 -0.258659 -0.508622)
(199.79 -0.50635 -1.09116)
(199.3 -0.764683 -1.59406)
(198.615 -1.0362 -1.95891)
(197.776 -1.32124 -2.11241)
(196.862 -1.62652 -1.95415)
(196.076 -1.92085 -1.41119)
(199.825 1.26995 1.15755)
(200.241 1.0784 0.505567)
(200.402 0.835803 -0.187943)
(200.317 0.584078 -0.879896)
(199.976 0.323111 -1.54236)
(199.374 0.0546905 -2.13059)
(198.507 -0.230079 -2.57195)
(197.408 -0.538953 -2.77553)
(196.142 -0.8865 -2.57464)
(195.002 -1.25705 -1.84121)
(200.182 0.567866 1.77713)
(200.671 0.271847 1.01644)
(200.862 -0.0475614 0.171236)
(200.776 -0.350312 -0.668547)
(200.394 -0.643113 -1.49888)
(199.702 -0.922904 -2.26931)
(198.67 -1.2025 -2.90497)
(197.318 -1.49683 -3.28523)
(195.676 -1.84685 -3.19654)
(194.124 -2.24524 -2.37596)
(200.294 1.71228 1.3425)
(200.826 1.40106 0.56696)
(201.033 1.07974 -0.24618)
(200.936 0.788138 -1.07976)
(200.515 0.526546 -1.90801)
(199.749 0.291656 -2.69978)
(198.585 0.0653629 -3.3678)
(197.018 -0.17796 -3.80025)
(195.032 -0.485222 -3.70292)
(193.052 -0.910252 -2.75638)
(200.569 0.346147 2.09523)
(201.13 -0.0808258 1.27269)
(201.348 -0.477909 0.342363)
(201.253 -0.803495 -0.592786)
(200.815 -1.06946 -1.55274)
(200.007 -1.27144 -2.49085)
(198.754 -1.4212 -3.34286)
(197.017 -1.55003 -3.9624)
(194.741 -1.70143 -4.08197)
(192.304 -2.03011 -3.1471)
(199.969 1.81517 1.29867)
(200.506 1.34963 0.562007)
(200.721 1.00025 -0.231162)
(200.599 0.71698 -1.06541)
(200.123 0.532301 -1.91751)
(199.257 0.437148 -2.76896)
(197.924 0.427812 -3.54126)
(196.053 0.494895 -4.10946)
(193.583 0.562962 -4.1792)
(190.809 0.51926 -3.1154)
(198.231 -0.255737 0.265807)
(198.319 -0.290675 0.22951)
(198.337 -0.333129 0.135444)
(198.332 -0.36726 0.0657796)
(198.309 -0.405583 -0.0140222)
(198.275 -0.440068 -0.0711494)
(198.232 -0.47268 -0.115486)
(198.186 -0.501711 -0.135261)
(198.136 -0.5258 -0.135989)
(198.042 -0.542245 -0.116909)
(198.799 0.321042 0.0781429)
(198.861 0.348889 -0.0403691)
(198.885 0.3468 -0.147161)
(198.869 0.313754 -0.245293)
(198.815 0.262516 -0.324189)
(198.731 0.198068 -0.375351)
(198.624 0.126777 -0.390995)
(198.51 0.0544849 -0.363988)
(198.404 -0.0124603 -0.295261)
(198.325 -0.0645307 -0.185918)
(198.915 -0.167853 0.624829)
(199.028 -0.24209 0.410987)
(199.07 -0.333101 0.162419)
(199.039 -0.434414 -0.0787981)
(198.938 -0.548669 -0.295644)
(198.776 -0.672235 -0.468045)
(198.568 -0.800663 -0.577349)
(198.339 -0.928184 -0.609491)
(198.122 -1.04729 -0.552176)
(197.959 -1.14539 -0.417634)
(198.954 0.579986 0.495705)
(199.136 0.537985 0.198314)
(199.206 0.443354 -0.119725)
(199.161 0.31976 -0.428858)
(199.001 0.173543 -0.704681)
(198.739 0.0111757 -0.918897)
(198.393 -0.162838 -1.04216)
(197.999 -0.342556 -1.04426)
(197.611 -0.519311 -0.902023)
(197.308 -0.67608 -0.609658)
(199.156 0.129582 1.03341)
(199.416 0.0130201 0.608799)
(199.514 -0.147631 0.129405)
(199.456 -0.326368 -0.337796)
(199.238 -0.522948 -0.772531)
(198.87 -0.730283 -1.13576)
(198.369 -0.947672 -1.38415)
(197.78 -1.1717 -1.46909)
(197.172 -1.40146 -1.33819)
(196.673 -1.61122 -0.963611)
(199.235 1.00988 0.866024)
(199.567 0.879839 0.368372)
(199.697 0.698346 -0.164731)
(199.627 0.501007 -0.69422)
(199.353 0.290708 -1.19046)
(198.879 0.0710518 -1.61236)
(198.219 -0.160745 -1.90291)
(197.416 -0.407836 -1.99704)
(196.547 -0.671407 -1.79853)
(195.804 -0.940541 -1.25419)
(199.543 0.300276 1.46154)
(199.948 0.0786047 0.861001)
(200.105 -0.172421 0.18304)
(200.031 -0.417785 -0.487132)
(199.711 -0.659864 -1.13804)
(199.146 -0.893696 -1.71956)
(198.334 -1.12783 -2.16945)
(197.313 -1.37023 -2.39227)
(196.156 -1.644 -2.26736)
(195.12 -1.9364 -1.63853)
(199.604 1.47069 1.01124)
(200.053 1.24256 0.398971)
(200.228 0.992128 -0.24674)
(200.141 0.757847 -0.908282)
(199.78 0.543083 -1.552)
(199.139 0.346966 -2.14159)
(198.2 0.15735 -2.59939)
(196.989 -0.0437164 -2.83412)
(195.562 -0.284566 -2.65417)
(194.219 -0.594699 -1.88847)
(199.876 0.0717522 1.78962)
(200.358 -0.266151 1.12316)
(200.545 -0.591285 0.350689)
(200.458 -0.8605 -0.421524)
(200.075 -1.08219 -1.20236)
(199.385 -1.25072 -1.93801)
(198.355 -1.37749 -2.56666)
(196.989 -1.48626 -2.95996)
(195.327 -1.6099 -2.94804)
(193.663 -1.84759 -2.17768)
(199.279 1.66538 0.949127)
(199.741 1.2974 0.369821)
(199.929 1.02195 -0.264876)
(199.823 0.7953 -0.933956)
(199.41 0.649803 -1.60485)
(198.672 0.57766 -2.24966)
(197.57 0.572827 -2.78834)
(196.088 0.625881 -3.11457)
(194.265 0.664552 -3.01086)
(192.377 0.633204 -2.10689)
(198.051 -0.304321 0.237521)
(198.126 -0.333698 0.220969)
(198.139 -0.369393 0.147704)
(198.137 -0.395091 0.0987316)
(198.124 -0.424483 0.0372583)
(198.105 -0.450051 -0.00770636)
(198.081 -0.473852 -0.0469002)
(198.055 -0.494296 -0.0705279)
(198.023 -0.510225 -0.0839953)
(197.944 -0.519562 -0.0851033)
(198.586 0.289517 -0.0113357)
(198.625 0.326212 -0.0878937)
(198.641 0.338498 -0.148405)
(198.631 0.323738 -0.201507)
(198.599 0.293766 -0.240981)
(198.548 0.25271 -0.262017)
(198.485 0.2058 -0.260771)
(198.417 0.157882 -0.232978)
(198.355 0.113766 -0.181729)
(198.308 0.0806428 -0.10513)
(198.624 -0.273008 0.509371)
(198.698 -0.332946 0.35927)
(198.726 -0.400598 0.181085)
(198.706 -0.474392 0.00775389)
(198.641 -0.557568 -0.147833)
(198.536 -0.647479 -0.272124)
(198.404 -0.740036 -0.353215)
(198.262 -0.830203 -0.384041)
(198.131 -0.911838 -0.357676)
(198.034 -0.976362 -0.288233)
(198.629 0.441265 0.323911)
(198.758 0.422702 0.118106)
(198.808 0.360795 -0.101829)
(198.777 0.273479 -0.314253)
(198.666 0.166555 -0.500208)
(198.485 0.0461748 -0.638991)
(198.251 -0.0827563 -0.711381)
(197.992 -0.214169 -0.69907)
(197.745 -0.339657 -0.593695)
(197.558 -0.44747 -0.395051)