/*--------------------------------*- C++ -*----------------------------------*\
| =========                 |                                                 |
| \\      /  F ield         | foam-extend: Open Source CFD                    |
|  \\    /   O peration     | Version:     4.0                                |
|   \\  /    A nd           | Web:         http://www.foam-extend.org         |
|    \\/     M anipulation  |                                                 |
\*---------------------------------------------------------------------------*/
FoamFile
{
    version     2.0;
    format      ascii;
    class       volScalarField;
    location    "400";
    object      alphat;
}
// * * * * * * * * * * * * * * * * * * * * * * * * * * * * * * * * * * * * * //

dimensions      [1 -1 -1 0 0 0 0];

internalField   nonuniform List<scalar> 
34480
(
0.00193363
0.00193129
0.00192987
0.00192951
0.00193138
0.00193803
0.00195486
0.00198787
0.00203661
0.00214941
0.0186933
0.0170338
0.0142175
0.0101398
0.00596836
0.00318867
0.00199368
0.00180773
0.00210229
0.00241196
0.0528727
0.0477637
0.0398331
0.0290261
0.0173139
0.00845525
0.00409946
0.00281712
0.00291094
0.00320123
0.0655379
0.0602463
0.0517381
0.0394454
0.0246987
0.012163
0.00544471
0.00332329
0.00331449
0.00365215
0.0710073
0.0663657
0.0584645
0.0461817
0.0300521
0.0150305
0.00645932
0.00368563
0.00366099
0.00408835
0.0728714
0.0690139
0.0618744
0.0499006
0.0331002
0.0166257
0.00701657
0.00395046
0.00405605
0.0046156
0.0711646
0.0683453
0.0623551
0.0512138
0.0344893
0.0174179
0.00731922
0.00413635
0.00441638
0.00511455
0.0594324
0.0583323
0.0546093
0.0459345
0.0313203
0.0158157
0.00669321
0.00393031
0.00449583
0.00539058
0.0189862
0.0196321
0.0199346
0.0184873
0.0136699
0.00733891
0.00340606
0.0023385
0.00321745
0.00443737
0.00182024
0.0018103
0.00180276
0.00179785
0.00179682
0.00179906
0.00180383
0.00181492
0.00182246
0.0017884
0.00194306
0.00194189
0.00194233
0.00194459
0.00194918
0.00195683
0.00197025
0.0019945
0.00203716
0.00211276
0.0174363
0.0170671
0.016421
0.0149941
0.0123521
0.0085147
0.00480519
0.00286178
0.00257802
0.0034126
0.0513751
0.049007
0.0449479
0.0386658
0.0303924
0.0207323
0.011311
0.0055367
0.00414502
0.00533905
0.0632898
0.0608855
0.0565612
0.0496675
0.0399035
0.0280435
0.015553
0.00706528
0.00492944
0.00648414
0.0682593
0.0664415
0.062814
0.0564993
0.0465325
0.0336031
0.0189495
0.00819673
0.00554987
0.00761046
0.0699073
0.0687918
0.0660511
0.0605647
0.0509487
0.0374762
0.0213267
0.00896106
0.00618781
0.00903588
0.0682365
0.0679459
0.0663665
0.0621297
0.0534499
0.0401058
0.023103
0.00952385
0.00676763
0.0104602
0.0567607
0.0575026
0.057656
0.0558343
0.0498582
0.0386544
0.0226271
0.0091479
0.00681798
0.0112591
0.0178611
0.0185719
0.0196701
0.0210105
0.0218137
0.0200988
0.0131635
0.00525714
0.00439551
0.00852349
0.00182046
0.00180956
0.00180034
0.00179353
0.00179077
0.00179223
0.00179537
0.00180139
0.00183438
0.00194773
0.00194629
0.00194602
0.0019471
0.00194994
0.00195494
0.00196238
0.00197298
0.0019883
0.0020111
0.00204457
0.0154245
0.0153525
0.0153376
0.015114
0.0142538
0.0123927
0.00971268
0.00710543
0.00547975
0.00494136
0.0478265
0.0466979
0.0444887
0.0407176
0.0352926
0.0281557
0.0199566
0.0126727
0.0085361
0.00744676
0.0586945
0.0576584
0.0553922
0.051234
0.044803
0.0360054
0.0252056
0.0150527
0.00957301
0.00867907
0.0630628
0.0625538
0.0609814
0.0575056
0.0511987
0.0418153
0.0292138
0.0165729
0.0101326
0.00976392
0.0645111
0.0645836
0.0638548
0.0613449
0.0556269
0.0461044
0.0321142
0.0173918
0.010522
0.0110487
0.0630762
0.0637521
0.0640193
0.0627778
0.0581874
0.0491349
0.0342976
0.017818
0.0107856
0.0123802
0.0525563
0.0537725
0.0551868
0.0558777
0.0538317
0.0471021
0.0333693
0.016713
0.0102844
0.0130177
0.0167526
0.0173163
0.0183013
0.0197555
0.0214449
0.022052
0.0181679
0.00952722
0.00624247
0.00926132
0.00181487
0.00180493
0.00179651
0.00179037
0.00178788
0.00179019
0.00179718
0.00180823
0.00183719
0.00193547
0.00194295
0.00194305
0.00194399
0.00194608
0.00194953
0.0019545
0.00196123
0.00197018
0.00198247
0.00200022
0.0136945
0.0136779
0.0138343
0.0140982
0.0142676
0.0140563
0.0132572
0.0119192
0.0104214
0.00928699
0.0438563
0.0433655
0.042259
0.0402119
0.037047
0.0326199
0.0271568
0.0213601
0.0164413
0.0135664
0.0534404
0.0530896
0.0519936
0.0495976
0.0456395
0.0399109
0.0325584
0.0245368
0.0179435
0.0147677
0.0571323
0.0572163
0.0567178
0.0548945
0.0510902
0.0449682
0.0363719
0.0264313
0.0185134
0.01559
0.0584145
0.0589343
0.0591313
0.0581516
0.0549007
0.0487603
0.0391757
0.0274684
0.0186491
0.0165236
0.0573395
0.0582693
0.0592314
0.0593128
0.0570587
0.0514036
0.0412222
0.0278961
0.018422
0.0173716
0.0481293
0.0493005
0.0509459
0.0524249
0.0522023
0.0485742
0.0395479
0.0260936
0.0169711
0.0173013
0.0157859
0.0161946
0.0169594
0.0181261
0.0196559
0.0209258
0.0199591
0.0146486
0.0100325
0.0116411
0.00180734
0.00179856
0.00179124
0.00178606
0.00178402
0.00178659
0.00179523
0.00181036
0.00183852
0.00191332
0.00193448
0.00193475
0.0019354
0.0019366
0.00193843
0.00194095
0.00194425
0.00194864
0.00195502
0.00196581
0.0125309
0.0124965
0.0126183
0.0129203
0.0133691
0.0138764
0.0143002
0.0144748
0.014277
0.0137753
0.0399888
0.0399
0.0395767
0.0388133
0.0374149
0.0352065
0.0322071
0.0286337
0.0248717
0.0217202
0.0482286
0.0482839
0.0479824
0.046945
0.0449377
0.0417401
0.0373963
0.0322592
0.0270032
0.0230532
0.0512426
0.0516149
0.0517646
0.0511262
0.0492466
0.0457963
0.0406709
0.0342762
0.0277732
0.0235966
0.0523862
0.053041
0.0536894
0.0536801
0.052246
0.0488519
0.0431449
0.0355576
0.027995
0.0241653
0.0517037
0.0526073
0.0537779
0.054537
0.0538675
0.0509058
0.0448971
0.0361571
0.027592
0.0244489
0.0439176
0.0448835
0.0463857
0.0480214
0.0487838
0.0474092
0.0425055
0.0338771
0.0253001
0.0233871
0.014982
0.015259
0.015815
0.016666
0.0178405
0.0191384
0.0197113
0.0178883
0.014383
0.0145979
0.00179874
0.00179115
0.00178497
0.00178079
0.00177934
0.001782
0.00179055
0.00180637
0.00183241
0.0018862
0.00192201
0.00192235
0.00192275
0.0019233
0.00192402
0.00192491
0.00192601
0.00192759
0.00193063
0.00193772
0.0119837
0.011928
0.0119751
0.01216
0.0124922
0.0129759
0.0136018
0.014329
0.0150578
0.0155955
0.036282
0.0364129
0.0365573
0.0366207
0.0364686
0.0359421
0.0349449
0.0334822
0.0316412
0.0297261
0.0432747
0.0435544
0.0437685
0.0437141
0.0431899
0.041982
0.0400193
0.0374167
0.0343775
0.0314987
0.0457466
0.046233
0.0467487
0.0469465
0.0465137
0.0451402
0.0426755
0.0392609
0.0352414
0.0317938
0.0468124
0.0474516
0.0482768
0.0488865
0.0487795
0.0474964
0.0447256
0.040591
0.0356656
0.0320452
0.0465076
0.0472784
0.0484178
0.0495091
0.0499188
0.048978
0.0461085
0.0412818
0.0353783
0.0318332
0.0401179
0.0408526
0.0420794
0.0435961
0.0448453
0.0449943
0.043063
0.0385654
0.0325423
0.0297246
0.0143458
0.0145208
0.0149063
0.0154907
0.0163108
0.0173495
0.0183592
0.018527
0.0171409
0.0168938
0.00178883
0.00178242
0.00177736
0.00177415
0.00177336
0.00177613
0.00178391
0.00179819
0.00182042
0.00185729
0.00190655
0.00190692
0.00190714
0.00190729
0.00190736
0.00190733
0.00190726
0.00190737
0.00190865
0.00191376
0.0119368
0.0118759
0.0118779
0.0119703
0.012161
0.0124606
0.0128833
0.0134463
0.014152
0.0149144
0.0330414
0.0332005
0.033446
0.0337679
0.0341295
0.0344646
0.0346941
0.0347438
0.0345551
0.0341281
0.0388312
0.0391397
0.0395208
0.0399155
0.0402194
0.0402994
0.040046
0.0394319
0.0384871
0.0373633
0.0409185
0.0413652
0.0419524
0.0425334
0.0429368
0.0429522
0.0424046
0.0412757
0.0396567
0.0379502
0.0419617
0.0424834
0.0432512
0.0440902
0.0447336
0.0448652
0.044188
0.0426492
0.0403908
0.0382625
0.0419821
0.0425722
0.043521
0.0446335
0.045593
0.0459659
0.0452845
0.0433656
0.040363
0.0378928
0.0368698
0.0373896
0.0382992
0.0395279
0.0408367
0.0417929
0.0417533
0.0402084
0.0371407
0.0349214
0.0138851
0.0139845
0.0142399
0.0146189
0.015146
0.0158498
0.0167079
0.0174585
0.0174585
0.0175448
0.00177738
0.00177211
0.00176809
0.00176575
0.00176556
0.00176838
0.00177524
0.00178722
0.0018049
0.00182939
0.00188883
0.00188921
0.00188934
0.00188925
0.00188895
0.00188844
0.00188775
0.00188712
0.00188748
0.00189148
0.0122189
0.0121653
0.01215
0.0121946
0.0123041
0.0124852
0.0127507
0.0131266
0.0136532
0.0143413
0.0307469
0.0308456
0.0310038
0.031238
0.0315574
0.0319615
0.0324336
0.0329248
0.0333389
0.0335313
0.0353311
0.0355441
0.0358319
0.0362057
0.0366453
0.0371212
0.0375892
0.0379967
0.0382726
0.0383332
0.0370461
0.03736
0.0378028
0.0383395
0.0389195
0.0394721
0.0399069
0.0401595
0.0401906
0.0400296
0.0380343
0.0383916
0.038949
0.0396666
0.0404516
0.0411793
0.0416748
0.0418215
0.0415809
0.0411713
0.03827
0.0386729
0.0393499
0.0402359
0.0412274
0.042144
0.042709
0.0427059
0.042039
0.041273
0.0342423
0.0345834
0.0351951
0.0360634
0.0371179
0.0382222
0.0390748
0.0393049
0.0385953
0.0378241
0.0135986
0.0136442
0.0138058
0.014039
0.0143545
0.0147766
0.0153268
0.0159461
0.0162302
0.0165016
0.00176418
0.00175997
0.00175688
0.00175528
0.00175553
0.00175826
0.00176413
0.00177375
0.00178701
0.00180305
0.00186932
0.00186971
0.00186978
0.00186956
0.00186907
0.00186829
0.00186728
0.00186625
0.00186609
0.00186938
0.0126903
0.0126492
0.0126302
0.0126516
0.0127176
0.0128336
0.0130115
0.0132811
0.0136999
0.0143317
0.0294543
0.0295012
0.0295742
0.0296882
0.0298574
0.0300959
0.0304112
0.0307859
0.0311515
0.031364
0.0329837
0.0330953
0.0332435
0.033451
0.0337231
0.0340711
0.0345028
0.0350034
0.0354997
0.0358333
0.0342745
0.0344549
0.034708
0.0350318
0.0354237
0.0358855
0.036415
0.0370013
0.0375836
0.0380283
0.0351171
0.0353267
0.0356551
0.0361064
0.0366634
0.0373153
0.0380305
0.0387719
0.0394629
0.0400277
0.0354275
0.0356735
0.0360911
0.0366613
0.0373713
0.0381939
0.0390527
0.039855
0.0404721
0.0409793
0.0322473
0.0324543
0.0328289
0.0333676
0.034055
0.0348867
0.0357982
0.0366541
0.0371867
0.0376213
0.0134808
0.0134891
0.0135866
0.013723
0.0139009
0.0141325
0.0144336
0.0147892
0.0149005
0.0149956
0.00174905
0.00174579
0.00174351
0.00174247
0.00174298
0.00174546
0.00175027
0.00175771
0.00176723
0.00177762
0.00184825
0.00184864
0.00184868
0.0018484
0.0018478
0.00184689
0.00184571
0.00184445
0.00184394
0.0018467
0.0132653
0.0132379
0.0132204
0.0132297
0.0132702
0.0133471
0.0134728
0.0136803
0.0140373
0.0146387
0.0288697
0.0288911
0.0289215
0.0289711
0.0290513
0.0291752
0.0293549
0.0295884
0.0298363
0.029992
0.0316
0.0316507
0.0317136
0.0318055
0.0319329
0.0321104
0.032357
0.0326806
0.0330432
0.0333193
0.0324851
0.0325765
0.0326987
0.0328531
0.0330443
0.0332854
0.0335994
0.0340109
0.0344991
0.0349304
0.033126
0.0332352
0.0334015
0.0336327
0.0339272
0.0342983
0.0347673
0.035364
0.0360689
0.0367433
0.0334016
0.0335376
0.0337661
0.0340771
0.0344763
0.0349749
0.035582
0.0363147
0.0371323
0.0379644
0.0308408
0.0309565
0.0311675
0.031467
0.031847
0.0323257
0.0329171
0.0336255
0.034338
0.0351109
0.0135237
0.0135069
0.0135624
0.0136383
0.0137335
0.0138523
0.0140019
0.0141736
0.0141213
0.0140522
0.00173183
0.00172942
0.00172779
0.00172717
0.00172777
0.00172985
0.0017336
0.00173909
0.00174564
0.00175219
0.00182568
0.00182607
0.0018261
0.00182578
0.00182513
0.00182415
0.00182288
0.00182148
0.00182072
0.00182303
0.0139038
0.0138893
0.013875
0.0138775
0.0139015
0.0139525
0.0140439
0.0142112
0.0145293
0.0151132
0.0286928
0.0287039
0.0287172
0.0287395
0.0287792
0.0288471
0.0289548
0.0291064
0.0292801
0.0293988
0.0308539
0.0308756
0.0309001
0.0309382
0.0309943
0.0310796
0.0312108
0.0314023
0.0316414
0.0318494
0.0314172
0.0314602
0.0315141
0.0315797
0.0316604
0.031766
0.0319178
0.0321456
0.0324582
0.0327736
0.0318621
0.0319144
0.0319905
0.0320955
0.0322283
0.032399
0.0326309
0.0329651
0.0334249
0.033918
0.0320537
0.0321222
0.0322363
0.0323878
0.0325816
0.0328267
0.0331421
0.0335702
0.0341338
0.0347788
0.0299371
0.0299955
0.0301059
0.0302585
0.0304446
0.0306748
0.0309687
0.0313592
0.0318253
0.0324227
0.0137194
0.013686
0.0137152
0.0137551
0.0138036
0.013861
0.0139302
0.0140041
0.0138792
0.0137541
0.00171241
0.00171071
0.0017096
0.00170926
0.00170983
0.00171146
0.0017142
0.00171803
0.00172228
0.0017262
0.0018016
0.00180199
0.00180201
0.00180168
0.001801
0.00179998
0.00179865
0.00179716
0.00179619
0.00179808
0.014596
0.014593
0.0145825
0.014581
0.0145939
0.0146268
0.0146942
0.014834
0.0151265
0.0157015
0.0287288
0.0287363
0.028743
0.028754
0.0287754
0.0288157
0.0288848
0.028989
0.0291164
0.0292095
0.0304802
0.0304895
0.0304989
0.030515
0.0305407
0.0305837
0.0306569
0.0307741
0.0309353
0.0310958
0.0308183
0.0308372
0.0308598
0.0308865
0.0309193
0.0309646
0.0310375
0.0311631
0.0313605
0.03159
0.031108
0.0311313
0.0311638
0.0312083
0.0312638
0.031336
0.0314411
0.0316124
0.0318858
0.0322208
0.0312143
0.031245
0.0312975
0.0313661
0.0314532
0.0315633
0.0317096
0.0319266
0.0322551
0.0326825
0.0294306
0.0294555
0.0295095
0.0295817
0.0296641
0.0297608
0.0298845
0.0300622
0.0303049
0.0306892
0.014062
0.0140177
0.0140311
0.0140508
0.0140743
0.0141004
0.0141301
0.0141581
0.014021
0.0139009
0.00169072
0.0016896
0.0016889
0.00168873
0.00168919
0.00169035
0.0016922
0.00169467
0.00169721
0.00169932
0.00177592
0.00177632
0.00177633
0.00177599
0.0017753
0.00177425
0.00177289
0.00177132
0.00177017
0.00177164
0.015351
0.0153581
0.0153516
0.0153481
0.0153533
0.0153733
0.0154238
0.0155444
0.0158204
0.0163946
0.0288702
0.0288764
0.0288806
0.0288866
0.028899
0.0289241
0.0289703
0.0290443
0.0291399
0.0292124
0.0303087
0.030313
0.0303168
0.030324
0.0303365
0.0303595
0.030402
0.0304757
0.0305857
0.0307089
0.0305016
0.0305092
0.0305182
0.0305291
0.030543
0.0305638
0.0306014
0.030674
0.0308013
0.0309695
0.0306832
0.0306928
0.0307059
0.030724
0.0307466
0.0307766
0.0308243
0.0309131
0.0310761
0.0313049
0.0307256
0.0307368
0.0307587
0.0307882
0.0308265
0.0308758
0.0309437
0.0310538
0.0312427
0.0315232
0.0292165
0.029223
0.0292477
0.0292795
0.0293123
0.0293472
0.0293914
0.0294631
0.02958
0.0298258
0.0145508
0.0144994
0.0145035
0.0145126
0.0145233
0.0145346
0.0145461
0.0145545
0.0144355
0.0143433
0.00166671
0.00166605
0.00166564
0.00166557
0.00166588
0.00166662
0.00166773
0.00166914
0.00167045
0.00167131
0.00174855
0.00174894
0.00174896
0.00174861
0.0017479
0.00174684
0.00174545
0.00174383
0.00174251
0.00174355
0.0161905
0.0162068
0.0162043
0.0162002
0.0162003
0.0162112
0.0162494
0.0163566
0.0166232
0.017205
0.0290613
0.029067
0.0290702
0.0290738
0.0290813
0.0290974
0.0291287
0.0291821
0.0292545
0.0293102
0.0302406
0.030243
0.0302449
0.0302482
0.0302545
0.0302669
0.0302917
0.0303377
0.0304118
0.0305037
0.030345
0.0303473
0.0303507
0.0303554
0.030362
0.0303728
0.0303938
0.030437
0.0305192
0.0306399
0.0304572
0.0304608
0.0304657
0.0304731
0.0304824
0.0304953
0.0305177
0.0305648
0.0306624
0.0308176
0.0304621
0.0304639
0.0304717
0.030484
0.0305015
0.0305252
0.0305594
0.0306183
0.030729
0.0309134
0.0292035
0.0292008
0.0292111
0.0292241
0.0292351
0.0292444
0.0292557
0.0292805
0.0293344
0.0294956
0.0151929
0.0151367
0.0151357
0.0151394
0.0151442
0.0151488
0.0151526
0.0151534
0.0150661
0.0150075
0.00164034
0.00164004
0.00163984
0.00163981
0.00163998
0.00164035
0.00164088
0.0016415
0.00164194
0.00164196
0.00171936
0.00171976
0.00171977
0.00171942
0.0017187
0.00171763
0.00171622
0.00171454
0.00171306
0.00171366
0.0171466
0.0171714
0.0171732
0.0171695
0.0171665
0.0171711
0.0172005
0.0172985
0.0175614
0.0181607
0.0292738
0.0292793
0.029282
0.0292845
0.0292891
0.0292995
0.029321
0.0293597
0.0294149
0.0294573
0.030222
0.0302237
0.0302249
0.0302265
0.0302296
0.030236
0.0302498
0.0302775
0.0303257
0.0303911
0.0302744
0.0302746
0.0302756
0.0302779
0.0302816
0.0302879
0.0303002
0.0303261
0.0303777
0.0304608
0.0303441
0.0303451
0.0303469
0.03035
0.0303542
0.0303601
0.0303712
0.0303963
0.0304536
0.0305558
0.0303334
0.0303312
0.0303328
0.030338
0.030347
0.0303601
0.0303795
0.030413
0.0304784
0.0305973
0.0293186
0.0293118
0.0293155
0.0293203
0.0293229
0.0293231
0.0293225
0.029328
0.0293517
0.029459
0.0160072
0.0159477
0.0159441
0.0159453
0.0159475
0.0159494
0.0159501
0.0159485
0.0158965
0.0158704
0.00161162
0.00161157
0.00161152
0.00161151
0.00161155
0.00161163
0.00161172
0.00161177
0.00161161
0.00161107
0.00168828
0.00168867
0.00168868
0.00168832
0.0016876
0.00168652
0.00168509
0.00168336
0.00168172
0.00168185
0.0182628
0.0182958
0.0183024
0.0183002
0.0182957
0.0182962
0.0183192
0.0184109
0.0186751
0.0193044
0.0294927
0.0294979
0.0295003
0.0295022
0.0295053
0.029512
0.0295267
0.0295549
0.0295975
0.0296303
0.0302247
0.0302261
0.0302271
0.0302279
0.0302291
0.0302321
0.0302392
0.0302548
0.0302843
0.0303282
0.0302474
0.0302468
0.030247
0.0302483
0.0302506
0.0302546
0.030262
0.030277
0.0303079
0.0303617
0.030291
0.0302911
0.0302918
0.0302932
0.0302953
0.0302984
0.030304
0.0303172
0.0303496
0.0304135
0.0302789
0.0302755
0.0302748
0.0302772
0.0302825
0.0302909
0.0303031
0.0303232
0.0303612
0.0304347
0.0295066
0.0294985
0.0294995
0.0295009
0.0295009
0.0294988
0.0294952
0.029494
0.0295037
0.0295756
0.01703
0.0169684
0.0169635
0.0169637
0.0169648
0.0169657
0.0169652
0.0169628
0.016942
0.0169449
0.00158055
0.00158068
0.00158073
0.00158072
0.00158065
0.00158052
0.0015803
0.00157996
0.00157938
0.00157847
0.00165526
0.00165566
0.00165567
0.0016553
0.00165458
0.00165348
0.00165204
0.00165027
0.00164848
0.00164811
0.0195977
0.0196392
0.0196513
0.0196516
0.0196475
0.0196458
0.0196644
0.0197513
0.0200203
0.0206961
0.0297079
0.0297126
0.0297149
0.0297164
0.0297185
0.029723
0.029733
0.0297535
0.0297867
0.0298138
0.0302345
0.0302358
0.0302365
0.0302369
0.0302372
0.0302382
0.0302413
0.0302492
0.0302658
0.0302929
0.0302406
0.0302399
0.0302399
0.0302407
0.0302422
0.0302448
0.0302492
0.0302575
0.0302747
0.0303066
0.0302676
0.0302674
0.0302677
0.0302685
0.0302697
0.0302715
0.0302745
0.0302811
0.0302981
0.0303352
0.0302606
0.0302573
0.0302561
0.0302573
0.0302609
0.0302667
0.0302747
0.0302868
0.0303081
0.0303508
0.0297257
0.0297181
0.0297179
0.0297182
0.0297177
0.029716
0.0297129
0.0297103
0.029714
0.0297626
0.0183242
0.0182617
0.0182564
0.0182562
0.0182568
0.0182573
0.0182562
0.0182532
0.0182473
0.0182753
0.0015472
0.00154746
0.00154758
0.00154756
0.00154742
0.00154714
0.0015467
0.00154609
0.00154524
0.00154409
0.00162055
0.00162089
0.00162089
0.00162053
0.00161979
0.00161869
0.00161723
0.00161543
0.00161349
0.00161259
0.0212317
0.0212825
0.0213011
0.0213054
0.0213039
0.0213029
0.0213185
0.0214005
0.0216743
0.0224151
0.0299092
0.0299131
0.029915
0.0299163
0.0299179
0.0299209
0.0299278
0.0299423
0.0299681
0.0299924
0.0302443
0.0302453
0.0302458
0.0302459
0.0302459
0.030246
0.0302469
0.0302502
0.0302584
0.0302733
0.0302418
0.0302412
0.0302412
0.0302416
0.0302427
0.0302443
0.0302468
0.030251
0.0302597
0.0302764
0.0302577
0.0302575
0.0302577
0.0302581
0.0302589
0.03026
0.0302615
0.0302646
0.0302727
0.0302919
0.0302555
0.0302529
0.0302519
0.0302526
0.030255
0.0302589
0.030264
0.030271
0.0302821
0.0303046
0.029942
0.0299359
0.0299354
0.0299355
0.0299353
0.0299344
0.0299325
0.0299306
0.0299316
0.0299652
0.0199967
0.0199349
0.01993
0.0199297
0.01993
0.01993
0.0199283
0.0199244
0.0199154
0.0199402
0.00151179
0.00151212
0.00151228
0.00151226
0.00151206
0.00151168
0.00151111
0.00151033
0.00150931
0.00150801
0.00158411
0.00158453
0.00158454
0.00158418
0.00158346
0.00158236
0.00158091
0.0015791
0.00157706
0.00157563
0.0233094
0.0233595
0.0233757
0.0233787
0.0233768
0.0233763
0.0233916
0.0234669
0.0237365
0.0245717
0.0300831
0.0300858
0.0300871
0.030088
0.0300892
0.0300914
0.0300958
0.0301054
0.0301241
0.0301466
0.0302508
0.0302514
0.0302517
0.0302518
0.0302517
0.0302516
0.0302517
0.0302527
0.0302558
0.0302623
0.0302453
0.0302449
0.0302449
0.0302452
0.0302458
0.0302468
0.0302482
0.0302502
0.030254
0.0302614
0.0302537
0.0302536
0.0302537
0.030254
0.0302545
0.0302552
0.030256
0.0302573
0.0302605
0.0302689
0.0302513
0.0302496
0.030249
0.0302495
0.030251
0.0302533
0.0302562
0.0302598
0.030265
0.0302752
0.0301245
0.0301206
0.0301203
0.0301204
0.0301205
0.0301202
0.0301193
0.0301183
0.0301179
0.0301403
0.0222346
0.022177
0.0221731
0.0221728
0.0221727
0.0221721
0.0221699
0.022165
0.0221541
0.0221689
0.0014745
0.00147487
0.00147505
0.00147502
0.00147478
0.00147435
0.0014737
0.00147283
0.00147172
0.00147037
0.0015455
0.00154587
0.00154588
0.00154554
0.00154483
0.00154376
0.00154233
0.00154056
0.00153847
0.00153661
0.0261538
0.0261946
0.0262051
0.0262061
0.0262036
0.0262008
0.0262056
0.0262478
0.0264462
0.0272964
0.0302138
0.030215
0.0302157
0.0302163
0.0302172
0.0302186
0.0302211
0.0302261
0.0302366
0.0302534
0.0302548
0.0302551
0.0302552
0.0302553
0.0302553
0.0302553
0.0302554
0.0302556
0.0302564
0.0302581
0.0302505
0.0302502
0.0302502
0.0302504
0.0302508
0.0302514
0.0302523
0.0302534
0.030255
0.0302576
0.0302537
0.0302536
0.0302537
0.0302539
0.0302542
0.0302548
0.0302554
0.0302561
0.0302575
0.0302604
0.0302475
0.0302466
0.0302462
0.0302465
0.0302474
0.0302488
0.0302505
0.0302524
0.0302547
0.0302584
0.0302466
0.030245
0.030245
0.0302452
0.0302454
0.0302455
0.0302454
0.0302455
0.0302463
0.0302592
0.0254006
0.0253563
0.025354
0.0253537
0.0253534
0.0253527
0.0253507
0.0253465
0.0253369
0.0253402
0.00143471
0.00143508
0.00143526
0.00143522
0.00143498
0.00143452
0.00143384
0.00143294
0.00143181
0.00143048
0.00239451
0.00245971
0.00243188
0.00231832
0.00225326
0.00223882
0.00220542
0.00216262
0.00281037
0.00279914
0.00275903
0.00267213
0.00314778
0.00314231
0.00309603
0.00299051
0.00347582
0.00347189
0.00341919
0.00330546
0.00380766
0.00379778
0.0037385
0.00363213
0.00407273
0.00405926
0.00399979
0.00389898
0.00418438
0.00416804
0.00411247
0.00402394
0.00369393
0.00366175
0.00359782
0.00350828
0.00257646
0.00263074
0.00266501
0.0026703
0.00206876
0.00211859
0.00213732
0.00211516
0.00421701
0.00435537
0.00429137
0.00399013
0.00657258
0.00665091
0.00649108
0.00602179
0.00809259
0.00815146
0.00795372
0.00747187
0.0098008
0.00992957
0.00973798
0.00926097
0.0120955
0.0123436
0.0121752
0.0117568
0.0144085
0.0147561
0.0146411
0.0143917
0.0159492
0.016347
0.0162549
0.0161156
0.0134004
0.0137283
0.0135925
0.013367
0.00241606
0.00244005
0.00243585
0.00241157
0.00195335
0.00197645
0.00198245
0.00197079
0.00487435
0.00507269
0.00514851
0.0053041
0.00736169
0.00755771
0.00755949
0.00766546
0.00874238
0.00892187
0.00891503
0.00897112
0.0101637
0.0103983
0.0104506
0.0105677
0.0120964
0.0124883
0.0126784
0.0129054
0.0142599
0.0148149
0.015132
0.0155012
0.0157675
0.0164274
0.0168038
0.0172086
0.012414
0.012952
0.0132107
0.0133964
0.0021825
0.00220443
0.00221001
0.0022036
0.00190098
0.00191243
0.00191473
0.00190736
0.00841472
0.00841611
0.00870803
0.00944051
0.0121702
0.0121544
0.0125286
0.0135048
0.0133896
0.013452
0.0138991
0.0149876
0.0144407
0.0146135
0.0151504
0.0163588
0.0158228
0.0161455
0.0168082
0.0181418
0.0173003
0.0177905
0.0185878
0.0200028
0.0180108
0.0186268
0.0194718
0.0208083
0.0131391
0.0136728
0.014284
0.015064
0.00203967
0.00205383
0.0020627
0.00206866
0.00186755
0.00187492
0.0018757
0.00186963
0.012883
0.0128494
0.013111
0.0137358
0.0201683
0.0200588
0.0205247
0.021614
0.0213678
0.0213836
0.0220067
0.0233115
0.0220441
0.0222413
0.0230144
0.024435
0.0229854
0.0234025
0.0243412
0.0258454
0.0237609
0.0243582
0.0253922
0.0268686
0.0233339
0.0240517
0.0250784
0.0263841
0.0153266
0.0158853
0.0165099
0.0170901
0.00196285
0.00197268
0.00198025
0.00198668
0.00184108
0.00184681
0.00184703
0.00184167
0.0145206
0.0145082
0.0146064
0.0148772
0.0285865
0.0283688
0.0285943
0.0292447
0.0301484
0.0299898
0.0303496
0.0312013
0.0303964
0.0303604
0.0308286
0.031761
0.030778
0.0309114
0.0315087
0.0325122
0.03077
0.0310416
0.0317038
0.0326831
0.0290238
0.0294
0.0300508
0.030891
0.016988
0.0172479
0.0175405
0.017757
0.00190823
0.00191454
0.0019203
0.00192616
0.00181827
0.00182333
0.00182337
0.00181842
0.0135576
0.0135784
0.0136093
0.0137241
0.0335371
0.0333559
0.0333258
0.0334633
0.0367061
0.0365201
0.0365531
0.0368086
0.0371443
0.0369829
0.0370643
0.0373839
0.0373746
0.0372846
0.0374467
0.0378452
0.0369361
0.0369076
0.0371124
0.0375245
0.0340678
0.0341055
0.0343066
0.0346354
0.0175689
0.0175898
0.0175714
0.017465
0.00186714
0.00187115
0.00187538
0.00188031
0.00179682
0.00180149
0.00180147
0.00179681
0.0128658
0.0128969
0.0129132
0.0129749
0.0330847
0.0329123
0.0327666
0.0326864
0.0380773
0.0379016
0.0377413
0.0376361
0.0397247
0.0395505
0.0394045
0.039326
0.0407957
0.0406452
0.0405493
0.0405446
0.0407611
0.0406156
0.0405401
0.0405667
0.0372995
0.0371719
0.0370806
0.0370486
0.0166805
0.0166086
0.0164493
0.0161956
0.00183352
0.00183602
0.00183907
0.00184309
0.0017754
0.00177977
0.00177974
0.00177533
0.0127772
0.0128062
0.0128178
0.0128539
0.0309443
0.0307968
0.0306639
0.0305809
0.035671
0.0355062
0.0353062
0.0351197
0.0378915
0.0377209
0.0374957
0.0372701
0.0399387
0.0397959
0.0396014
0.0394093
0.040879
0.0407449
0.0405667
0.0403974
0.0375466
0.0374133
0.0372145
0.0369967
0.0151751
0.0150956
0.0149342
0.0146978
0.0018039
0.00180539
0.00180754
0.00181072
0.00175335
0.00175745
0.00175742
0.00175326
0.0129943
0.0130134
0.0130223
0.0130468
0.0296243
0.0295191
0.0294301
0.0293824
0.0332159
0.0330969
0.0329443
0.0327975
0.0348376
0.0346955
0.0344949
0.034286
0.0366968
0.0365622
0.0363574
0.036138
0.0379689
0.0378442
0.0376419
0.0374185
0.0352018
0.0350859
0.0348736
0.0346153
0.014177
0.0141095
0.0139823
0.013807
0.00177594
0.00177677
0.00177824
0.0017807
0.00173028
0.00173412
0.0017341
0.00173019
0.0133633
0.0133733
0.0133807
0.0134007
0.0290788
0.0290074
0.0289527
0.0289307
0.0318071
0.0317382
0.0316405
0.0315408
0.0327368
0.0326452
0.0325053
0.0323544
0.0338931
0.033792
0.0336317
0.0334581
0.034777
0.0346708
0.0344965
0.0343048
0.0325106
0.0324133
0.0322316
0.0320126
0.0138675
0.0138179
0.0137232
0.0135956
0.00174834
0.00174875
0.00174974
0.00175161
0.00170592
0.0017095
0.00170949
0.00170586
0.0138336
0.0138386
0.0138451
0.0138636
0.0289237
0.0288738
0.0288412
0.0288356
0.0310944
0.0310607
0.0310019
0.030935
0.0316005
0.0315518
0.0314636
0.0313608
0.0322324
0.032172
0.0320646
0.0319424
0.0326956
0.0326241
0.0324998
0.0323611
0.0307778
0.0307106
0.0305771
0.0304141
0.0140338
0.0140023
0.013934
0.0138388
0.00172042
0.00172056
0.00172121
0.00172262
0.00168009
0.0016834
0.00168339
0.00168005
0.0144021
0.0144025
0.014408
0.0144257
0.0289519
0.0289149
0.0288959
0.0289007
0.0307282
0.0307152
0.030681
0.0306358
0.0310057
0.0309847
0.0309318
0.0308627
0.0313425
0.0313128
0.0312461
0.0311632
0.031557
0.031517
0.031437
0.031343
0.0299273
0.0298899
0.0298005
0.0296848
0.0145074
0.0144918
0.014444
0.014371
0.00169174
0.00169171
0.00169213
0.00169318
0.00165263
0.00165564
0.00165563
0.0016526
0.0150791
0.015077
0.0150813
0.0150972
0.0290707
0.0290414
0.0290306
0.0290417
0.0305297
0.0305275
0.0305082
0.0304777
0.0306842
0.0306786
0.0306481
0.0306022
0.0308649
0.0308538
0.0308144
0.0307593
0.0309564
0.0309376
0.0308894
0.0308282
0.0296038
0.0295879
0.0295317
0.0294515
0.0152057
0.0152032
0.0151709
0.0151133
0.00166197
0.00166185
0.00166211
0.00166289
0.00162339
0.00162607
0.00162607
0.00162337
0.015889
0.0158878
0.015891
0.0159023
0.0292383
0.0292139
0.029208
0.0292226
0.0304157
0.0304181
0.0304075
0.0303873
0.0305019
0.0305035
0.0304867
0.0304569
0.0306006
0.0305992
0.0305769
0.0305413
0.0306378
0.0306308
0.0306033
0.0305652
0.0295629
0.02956
0.0295265
0.0294722
0.0161029
0.0161108
0.01609
0.0160432
0.00163082
0.00163067
0.00163083
0.00163139
0.00159225
0.00159458
0.00159457
0.00159224
0.0168713
0.0168774
0.0168795
0.0168801
0.0294343
0.0294137
0.0294106
0.0294262
0.0303471
0.0303506
0.030345
0.030332
0.0303938
0.0303976
0.0303888
0.0303703
0.030449
0.0304513
0.0304393
0.0304173
0.0304658
0.0304641
0.0304494
0.0304272
0.0296669
0.0296705
0.0296516
0.0296157
0.0172102
0.0172259
0.0172134
0.0171745
0.0015981
0.00159794
0.00159804
0.00159843
0.00155917
0.00156111
0.00156111
0.00155916
0.018087
0.0181135
0.0181146
0.0180918
0.0296459
0.0296294
0.0296279
0.029642
0.0303052
0.0303079
0.030305
0.0302973
0.0303279
0.0303313
0.0303268
0.0303162
0.030359
0.0303617
0.0303555
0.0303428
0.0303701
0.0303701
0.0303627
0.030351
0.0298372
0.0298431
0.029833
0.0298097
0.0185668
0.0185866
0.0185802
0.0185488
0.00156368
0.00156354
0.0015636
0.00156387
0.00152431
0.00152583
0.00152583
0.00152431
0.0196362
0.0197103
0.0197107
0.0196378
0.02986
0.0298489
0.0298483
0.0298584
0.0302797
0.0302812
0.0302797
0.0302757
0.0302879
0.0302897
0.0302876
0.0302823
0.0303047
0.0303062
0.0303032
0.0302966
0.0303137
0.0303136
0.0303101
0.0303047
0.0300219
0.0300277
0.0300224
0.0300073
0.0202353
0.02025
0.020248
0.0202301
0.00152762
0.00152751
0.00152754
0.00152772
0.001488
0.00148906
0.00148906
0.001488
0.0217054
0.0218789
0.0218789
0.0217058
0.0300579
0.0300535
0.0300533
0.0300574
0.0302647
0.0302651
0.0302644
0.0302628
0.0302654
0.0302659
0.0302649
0.0302629
0.0302733
0.0302735
0.030272
0.0302693
0.0302775
0.030277
0.0302755
0.0302736
0.0301796
0.030184
0.0301809
0.0301709
0.0224519
0.0224618
0.022461
0.02245
0.00149009
0.00149003
0.00149004
0.00149014
0.0014497
0.00145028
0.00145029
0.0014497
0.0247312
0.0250632
0.0250632
0.0247312
0.030214
0.0302154
0.0302154
0.030214
0.030258
0.0302578
0.0302575
0.0302572
0.0302577
0.0302573
0.0302569
0.0302567
0.0302604
0.0302597
0.030259
0.0302584
0.0302576
0.030257
0.0302564
0.0302562
0.0302762
0.0302772
0.0302749
0.03027
0.0255623
0.0255629
0.0255629
0.0255627
0.0014504
0.0014504
0.00145041
0.00145044
0.00223381
0.00211559
0.00204873
0.00201233
0.001992
0.00197733
0.00196488
0.0019542
0.00194536
0.00193826
0.00287518
0.00279868
0.00474762
0.00949492
0.0143107
0.0180886
0.0202437
0.0209146
0.0206187
0.0198103
0.0043503
0.00621348
0.0127132
0.0223704
0.0332588
0.0427661
0.0499055
0.0543595
0.0561977
0.055645
0.00671054
0.010116
0.0191702
0.0313734
0.0440129
0.0545889
0.0623057
0.0670256
0.0689071
0.0683556
0.0112093
0.0139067
0.0243055
0.0373269
0.0502249
0.060804
0.0682881
0.0725991
0.0740571
0.0734598
0.0149481
0.0177498
0.0278236
0.0410562
0.0539232
0.064253
0.0711453
0.0747515
0.0756026
0.0749005
0.0175793
0.0201609
0.0289115
0.0423233
0.0549894
0.0647575
0.0706676
0.0732803
0.0733838
0.0726029
0.0190466
0.0202411
0.02646
0.0386217
0.0491297
0.0564871