/*--------------------------------*- C++ -*----------------------------------*\
| =========                 |                                                 |
| \\      /  F ield         | foam-extend: Open Source CFD                    |
|  \\    /   O peration     | Version:     4.0                                |
|   \\  /    A nd           | Web:         http://www.foam-extend.org         |
|    \\/     M anipulation  |                                                 |
\*---------------------------------------------------------------------------*/
FoamFile
{
    version     2.0;
    format      ascii;
    class       volScalarField;
    location    "400";
    object      divFlux;
}
// * * * * * * * * * * * * * * * * * * * * * * * * * * * * * * * * * * * * * //

dimensions      [1 -3 -1 0 0 0 0];

internalField   nonuniform List<scalar> 
34480
(
0.216705
0.0676653
0.0701951
0.065527
0.0600081
0.0546134
0.0494645
0.0447215
0.0405921
0.0370759
0.0604467
0.0300438
0.030625
0.0299258
0.0292367
0.0282537
0.0267564
0.0248509
0.0228204
0.0208758
0.0160342
0.0103497
0.010627
0.0108676
0.0112711
0.0115977
0.0115604
0.0110914
0.010337
0.00945799
0.00551907
0.00401643
0.00409422
0.0042152
0.00443537
0.00466653
0.00476293
0.00465284
0.00437129
0.00398262
0.00214356
0.00167166
0.00168561
0.00172713
0.00181716
0.00192537
0.00198705
0.00195994
0.00184626
0.0016769
0.000913003
0.000742764
0.000741058
0.000753689
0.000789374
0.000836544
0.00086643
0.000857889
0.000807303
0.000733466
0.000423567
0.000353416
0.000348539
0.000351068
0.00036498
0.000385454
0.00039939
0.000396561
0.000373125
0.000339835
0.000226278
0.000190577
0.000184865
0.000183222
0.000187682
0.000195954
0.000201954
0.000200876
0.000189653
0.000173514
0.000167132
0.000139784
0.000131867
0.000125848
0.000122849
0.000121994
0.00012128
0.000119092
0.000112965
0.000104311
0.000135407
0.000114078
0.000106693
0.000100175
9.49174e-05
9.08987e-05
8.80236e-05
8.59436e-05
8.29814e-05
7.85354e-05
0.281585
0.0797009
0.082395
0.0778103
0.0721569
0.0670786
0.0627009
0.0592384
0.0570397
0.0600398
0.0857535
0.0389508
0.0397033
0.0388674
0.0379372
0.0371059
0.0363238
0.0354689
0.034649
0.036824
0.0246234
0.0148311
0.0152465
0.0155858
0.0161606
0.0167077
0.0171001
0.0172287
0.0170531
0.0181096
0.00937545
0.00645855
0.00657342
0.00676005
0.00709418
0.00747996
0.00778566
0.00794256
0.00787828
0.00829192
0.00401647
0.00299506
0.0030076
0.00307458
0.00321903
0.00341604
0.00358202
0.00367504
0.00363551
0.00377719
0.00187668
0.00147162
0.00145947
0.0014785
0.00153885
0.00163303
0.00171676
0.00176388
0.0017338
0.00177348
0.000950498
0.000769506
0.000753652
0.000755551
0.000780919
0.000825813
0.000869133
0.000894326
0.000873583
0.000880339
0.00055917
0.000459928
0.000443245
0.000437418
0.000445665
0.000466059
0.000488594
0.000503216
0.00048918
0.000485533
0.000474866
0.000390359
0.000366642
0.000348688
0.000337873
0.0003347
0.000337551
0.000341716
0.000330213
0.000323695
0.000426248
0.000354861
0.000332124
0.000312721
0.000297273
0.000287785
0.000284476
0.000285519
0.000279229
0.000274328
0.285771
0.0691986
0.0728026
0.0694934
0.0655387
0.0622033
0.0596775
0.0582157
0.0584904
0.611141
0.0836721
0.0320245
0.032946
0.0319879
0.031061
0.0306472
0.0306844
0.0310896
0.0321713
0.338726
0.0224351
0.0114615
0.0117249
0.0117569
0.0119587
0.012372
0.0130052
0.0137469
0.0146547
0.0716021
0.00801721
0.00472615
0.00476682
0.00477598
0.00489984
0.00512987
0.00547888
0.0058999
0.00638449
0.00746149
0.00321572
0.00207628
0.00206042
0.00204374
0.00208382
0.00218418
0.002347
0.0025562
0.00279435
0.00329619
0.00140233
0.000963399
0.000942093
0.00092337
0.000931018
0.000973265
0.00104821
0.0011504
0.00126549
0.00149868
0.000661727
0.000474793
0.00045803
0.000443476
0.000441005
0.00045851
0.00049417
0.000546061
0.000604006
0.000717073
0.000360419
0.000265469
0.000252573
0.000240872
0.000235235
0.000241293
0.000258436
0.000286093
0.000317621
0.00037911
0.000270784
0.000200132
0.000188854
0.000177734
0.000169089
0.000166325
0.000170226
0.000182132
0.000200123
0.000243711
0.000207323
0.000152618
0.000144362
0.000136512
0.000130389
0.000127667
0.000127874
0.000132781
0.00014612
0.000192233
0.291612
0.0633556
0.0671879
0.0649116
0.0620013
0.0596036
0.0579307
0.0571456
0.163081
0.497454
0.0866943
0.03047
0.0313951
0.0303121
0.0292203
0.0285866
0.0284613
0.0288707
0.0299095
0.386913
0.023289
0.0110919
0.0113089
0.0111897
0.0111823
0.0113864
0.0118411
0.0125253
0.0134442
0.335147
0.00839603
0.00467404
0.00469857
0.0046523
0.00468954
0.00481983
0.00508007
0.00546016
0.00595139
0.246787
0.00339357
0.00209296
0.00207115
0.00203509
0.00204293
0.00210075
0.00222425
0.00241311
0.00265724
0.107322
0.00148693
0.000985213
0.000961442
0.00093503
0.000931059
0.000954597
0.00101255
0.00110618
0.00122708
0.00142399
0.00070312
0.000490665
0.000472842
0.000454694
0.000448051
0.000457005
0.000485048
0.000533541
0.000596142
0.000693052
0.000382053
0.000275919
0.000262802
0.000249566
0.000242326
0.000244208
0.000257641
0.000283955
0.000318912
0.00037249
0.000281461
0.00020581
0.000195323
0.000184494
0.000176198
0.000172204
0.000174693
0.000186118
0.000206478
0.000246099
0.000213143
0.000155602
0.000148063
0.000140735
0.000135433
0.000132798
0.000133298
0.000139026
0.000154067
0.000197105
0.291345
0.0568593
0.0608412
0.0593637
0.0571726
0.0553209
0.0540207
0.0992623
0.194078
0.372735
0.0879268
0.0283596
0.0293591
0.0283644
0.0272749
0.026472
0.0260324
0.0260158
0.0754367
0.311785
0.0239323
0.0105882
0.0107869
0.0105708
0.0104142
0.0104147
0.0106084
0.0110085
0.0115968
0.290264
0.00873068
0.00456848
0.00458697
0.00450453
0.00446809
0.00450562
0.00464322
0.00488691
0.00522646
0.275396
0.00355865
0.00208514
0.00206345
0.00201449
0.00199583
0.00201335
0.00208278
0.00220938
0.00238736
0.230113
0.00156625
0.000995069
0.000972064
0.000941769
0.000927966
0.000934206
0.000967942
0.0010331
0.00112579
0.183769
0.000741548
0.000500175
0.000483087
0.000463976
0.000453755
0.00045505
0.000471832
0.00050684
0.00055733
0.0915812
0.000401173
0.000282143
0.000269881
0.000256838
0.00024848
0.000246908
0.000254811
0.000274338
0.000303874
0.0259872
0.000289258
0.000207424
0.000198095
0.000188311
0.00018063
0.000176122
0.000176867
0.000185502
0.000203399
0.000235512
0.000217032
0.000155412
0.000148703
0.000142081
0.000137347
0.000134885
0.000135573
0.000141325
0.000155527
0.000193489
0.284808
0.049881
0.0538232
0.052926
0.0512468
0.0497443
0.060413
0.0993692
0.146494
0.232292
0.0867653
0.0256799
0.0267459
0.0259422
0.0249801
0.0241816
0.0236031
0.0232791
0.0887073
0.21567
0.0242491
0.0099316
0.0101256
0.00985629
0.00960603
0.0094627
0.00945005
0.00957828
0.00981289
0.200884
0.00897508
0.00439774
0.00441655
0.0043037
0.00421491
0.00417977
0.00421428
0.00432312
0.00448852
0.213982
0.00369182
0.00204762
0.00202871
0.00197
0.0019292
0.00191428
0.0019371
0.00200099
0.00209809
0.209557
0.00163269
0.000990972
0.000970309
0.000937347
0.000915104
0.000907001
0.000919281
0.000954896
0.00101013
0.212149
0.000774118
0.000502797
0.000487337
0.000467931
0.000454689
0.000449596
0.000456159
0.000476684
0.000509358
0.177092
0.000416835
0.000284359
0.000273407
0.000260948
0.000251867
0.000247608
0.000250528
0.000262562
0.000283131
0.168659
0.000294494
0.000206152
0.000198015
0.000189238
0.000182215
0.000177643
0.000177188
0.00018293
0.000196419
0.116622
0.000219388
0.000153226
0.000147347
0.000141388
0.000137093
0.000134821
0.000135543
0.000140793
0.000152923
0.0834275
0.272669
0.0427991
0.0465257
0.0460287
0.044728
0.0434818
0.0624735
0.0811058
0.105648
0.147428
0.0832006
0.0226064
0.0236882
0.0230799
0.022288
0.0215942
0.021041
0.0206402
0.0698934
0.139652
0.0241017
0.00912049
0.00932412
0.00904882
0.00876425
0.00854818
0.00841587
0.00837214
0.0196865
0.132958
0.00907566
0.00415344
0.00417841
0.00405178
0.00393403
0.00385263
0.00381734
0.0038297
0.00386795
0.150709
0.00376993
0.00197378
0.00195967
0.0018963
0.00184096
0.00180447
0.00179379
0.00181025
0.00184385
0.159866
0.00167649
0.000969262
0.000952046
0.000918007
0.000890052
0.000871819
0.00086814
0.000880453
0.000904245
0.181893
0.000796731
0.000496771
0.000483488
0.000464395
0.000449102
0.000439438
0.000438228
0.000446912
0.000463654
0.17249
0.000427334
0.000281864
0.000272439
0.000260794
0.000251409
0.000245382
0.000244599
0.000250412
0.000262318
0.192396
0.000296627
0.000202021
0.000195044
0.000187171
0.000180747
0.000176351
0.000175254
0.000178814
0.000188018
0.168202
0.000219931
0.000149202
0.000144135
0.000138761
0.000134813
0.000132675
0.000133269
0.000137713
0.000147438
0.14391
0.255932
0.0359465
0.0393293
0.0390994
0.0380931
0.0412821
0.0529328
0.0599894
0.0743657
0.0932218
0.0776347
0.0193671
0.020406
0.0199593
0.0193229
0.0187488
0.018277
0.0179112
0.043719
0.082983
0.0233272
0.00816059
0.00837889
0.00813397
0.0078639
0.00763786
0.00746661
0.00735286
0.0181226
0.0841772
0.00896777
0.0038293
0.00386547
0.00374261
0.00361941
0.00352033
0.00345119
0.00341221
0.00338262
0.100721
0.00376859
0.00185893
0.00185196
0.00178939
0.00172982
0.00168317
0.00165356
0.00164123
0.00163607
0.112876
0.00168782
0.000927284
0.000914308
0.000881427
0.000851239
0.000827866
0.000814408
0.000811345
0.000813993
0.139938
0.00080527
0.000480676
0.000469894
0.000451828
0.000435889
0.000423802
0.000417612
0.000418028
0.000423097
0.13945
0.000430933
0.000274015
0.000266181
0.000255533
0.000246348
0.00023954
0.000236459
0.000237877
0.000243115
0.171449
0.000294949
0.000194852
0.000188963
0.000181891
0.000176009
0.000171894
0.000170495
0.000172593
0.000178595
0.156591
0.000218207
0.000143252
0.000138958
0.000134102
0.000130431
0.000128374
0.00012871
0.000132196
0.000139611
0.138724
0.235661
0.0295691
0.0325329
0.0324754
0.0331677
0.0343814
0.0415037
0.0424721
0.0526217
0.0596052
0.0706185
0.0161729
0.0171247
0.0168039
0.0162972
0.0158275
0.0154351
0.0151226
0.0247963
0.0478165
0.0218905
0.0070871
0.00731162
0.00711117
0.00687886
0.00667705
0.00651463
0.00639348
0.0116039
0.0499854
0.00860934
0.00342954
0.00347663
0.0033683
0.00325526
0.00315925
0.00308383
0.00302891
0.00297639
0.0637081
0.00366985
0.00170331
0.0017037
0.00164674
0.00159032
0.00154312
0.00150742
0.00148297
0.00146067
0.0755228
0.00165914
0.000864417
0.000855744
0.000825603
0.000796574
0.000772536
0.000755133
0.000744378
0.000735901
0.102765
0.000796432
0.00045398
0.000445711
0.00042926
0.000413974
0.000401465
0.000393008
0.000388797
0.000386886
0.103909
0.000426226
0.00026055
0.000254244
0.000244687
0.000236116
0.00022935
0.000225244
0.00022411
0.000225109
0.139775
0.000288828
0.000184559
0.000179665
0.000173308
0.000167921
0.000164104
0.000162539
0.000163645
0.000167461
0.121615
0.000213754
0.000135299
0.000131725
0.000127331
0.000123904
0.000121892
0.000121899
0.000124403
0.000129797
0.112873
0.21285
0.0238207
0.0263361
0.0263844
0.027114
0.026286
0.0312176
0.0290351
0.0375229
0.0382554
0.0626777
0.0131779
0.0140156
0.0137916
0.0133939
0.0130147
0.0126932
0.0124325
0.0125383
0.0268946
0.0199166
0.00596859
0.00618564
0.00602824
0.0058367
0.00566721
0.00552807
0.0054206
0.00599111
0.0276949
0.00801152
0.00297604
0.00302956
0.00293894
0.00284172
0.00275744
0.00268865
0.00263513
0.0025812
0.037162
0.00347086
0.00151397
0.00152024
0.00147087
0.00142101
0.00137829
0.00134396
0.00131761
0.00129127
0.0467636
0.0015876
0.000782886
0.000777945
0.000751351
0.000725326
0.000703184
0.000685778
0.000672874
0.000660549
0.0717427
0.000768496
0.000417343
0.000411296
0.000396738
0.000382864
0.000371237
0.000362492
0.000356555
0.000351564
0.0711779
0.000412377
0.000241712
0.000236768
0.000228304
0.000220558
0.000214311
0.000210047
0.000207799
0.000206642
0.107128
0.00027781
0.00017124
0.00016724
0.000161539
0.000156624
0.000153082
0.000151387
0.000151741
0.00015401
0.0836762
0.000206193
0.000125363
0.000122445
0.000118485
0.000115297
0.000113322
0.000112995
0.000114594
0.000118303
0.0836103
0.188368
0.0187669
0.0208347
0.0209382
0.0207642
0.019993
0.0229543
0.0191083
0.0270913
0.0244901
0.0542546
0.0104754
0.0111856
0.0110351
0.0107294
0.0104297
0.0101723
0.0099606
0.00976855
0.0144659
0.0175867
0.00487711
0.00507539
0.0049552
0.00480088
0.00466212
0.00454688
0.00445618
0.00436793
0.0146349
0.00722456
0.00250076
0.00255552
0.00248205
0.00240098
0.00232988
0.00227086
0.0022237
0.00217462
0.0197417
0.0031836
0.00130342
0.00131344
0.00127189
0.00122931
0.00119242
0.00116201
0.00113767
0.00111238
0.0265676
0.00147566
0.000687535
0.00068545
0.000662579
0.000640021
0.000620633
0.000604861
0.000592412
0.000579805
0.0477644
0.000721659
0.000372563
0.000368359
0.000355679
0.000343531
0.000333243
0.000325137
0.000319045
0.000313249
0.0437128
0.000389255
0.000218241
0.000214442
0.000207026
0.000200172
0.000194605
0.000190564
0.00018798
0.00635279
0.0783194
0.000261698
0.000155207
0.000151995
0.000146928
0.000142483
0.000139207
0.000137403
0.000137155
0.000138249
0.0519927
0.000195268
0.000113602
0.000111273
0.000107732
0.000104803
0.000102888
0.000102274
0.000103115
0.000105484
0.0582735
0.163363
0.0144993
0.0161609
0.0162975
0.0160022
0.0156085
0.0168605
0.0149059
0.0201046
0.0156444
0.0457188
0.00811282
0.0086929
0.00859601
0.00836622
0.00813469
0.00793335
0.0077661
0.00761182
0.00752454
0.015069
0.00386567
0.00403803
0.00394896
0.0038277
0.00371684
0.00362381
0.00354955
0.00347539
0.00753252
0.00631052
0.00203385
0.00208571
0.00202788
0.00196202
0.00190355
0.00185442
0.00181447
0.00177172
0.00897607
0.00282838
0.00108559
0.00109741
0.0010634
0.00102792
0.000996873
0.000970844
0.000949497
0.000926678
0.0137249
0.0013297
0.00058442
0.000584327
0.000565122
0.000546017
0.000529455
0.000515697
0.000504483
0.000550788
0.0309194
0.000657867
0.000322239
0.000319476
0.00030866
0.000298244
0.000289346
0.000282132
0.000276436
0.000270723
0.0230513
0.000357443
0.000191267
0.000188427
0.000182018
0.000176073
0.000171182
0.000167472
0.000164847
0.0100939
0.0560369
0.000240605
0.000136973
0.000134445
0.000130003
0.000126062
0.000123079
0.00012122
0.000120521
0.000120729
0.0279398
0.000180911
0.000100319
9.84987e-05
9.5388e-05
9.2751e-05
9.09393e-05
9.01213e-05
9.03817e-05
9.17395e-05
0.0389299
0.137096
0.0106585
0.0119163
0.0120541
0.0118725
0.0116234
0.0123675
0.0112123
0.0155812
0.0111169
0.0373688
0.00610761
0.00656538
0.00650867
0.00634234
0.00616867
0.00601436
0.0058833
0.00575888
0.00566687
0.0125041
0.00296644
0.00310918
0.0030454
0.00295289
0.00286679
0.00279378
0.00273477
0.00267456
0.00406669
0.00532931
0.00159816
0.00164419
0.0016002
0.00154828
0.00150159
0.00146194
0.00142922
0.00139334
0.00248754
0.00242842
0.000872879
0.000884937
0.000857989
0.000829275
0.00080386
0.000782243
0.000764174
0.000744363
0.00621096
0.00115847
0.000479621
0.000480781
0.000465125
0.000449366
0.000435561
0.000423886
0.000414139
0.0012737
0.0198654
0.000580374
0.000269254
0.000267585
0.000258594
0.000249872
0.000242338
0.000236079
0.000230961
0.000225637
0.00880561
0.000318178
0.000162166
0.000160116
0.000154709
0.000149659
0.000145438
0.000142108
0.000139576
0.0121097
0.0404772
0.000214993
0.000117227
0.000115293
0.000111489
0.000108085
0.000105423
0.000103602
0.000102628
0.000102218
0.0104954
0.000163273
8.59526e-05
8.45722e-05
8.18976e-05
7.95939e-05
7.79321e-05
7.70075e-05
7.68684e-05
0.0011382
0.0254233
0.118921
0.00838326
0.00931903
0.00930951
0.00899149
0.00858697
0.00929094
0.00783871
0.0123676
0.00740012
0.0294567
0.00441667
0.00476124
0.00473479
0.00462755
0.00451538
0.00441853
0.00433976
0.00426625
0.00420671
0.0100021
0.00219435
0.00230718
0.00226389
0.00219636
0.00213221
0.00207709
0.00203177
0.00249665
0.00278057
0.00433425
0.00120877
0.00124722
0.00121507
0.00117565
0.00113968
0.00110881
0.001083
0.00105404
0.000975069
0.00200705
0.000675013
0.000686127
0.000665577
0.000643158
0.000623076
0.000605768
0.000591063
0.000574563
0.00229388
0.000971772
0.000378512
0.00038031
0.00036801
0.000355442
0.000344309
0.000334736
0.00032658
0.00193026
0.0129355
0.000493313
0.00021642
0.000215535
0.000208315
0.00020124
0.000195049
0.000189793
0.000185367
0.000180623
0.000166205
0.000273238
0.000132397
0.000130984
0.000126564
0.000122401
0.000118861
0.000115967
0.00531964
0.0137432
0.0304164
0.000185687
9.67858e-05
9.53584e-05
9.2204e-05
8.93499e-05
8.70539e-05
8.53639e-05
8.42764e-05
8.35083e-05
8.27698e-05
0.000142764
7.10521e-05
7.004e-05
6.78158e-05
6.58703e-05
6.44038e-05
6.34712e-05
6.30963e-05
0.00213628
0.0166703
0.0778455
0.00488297
0.00627647
0.00692598
0.00747873
0.00783212
0.00937482
0.00811049
0.013871
0.00809722
0.0223823
0.00313675
0.00334861
0.00328897
0.00316355
0.00303226
0.00291428
0.00281366
0.00272075
0.00262878
0.00861203
0.00190773
0.0019542
0.00206177
0.00215522
0.00234958
0.00262538
0.00293759
0.00375253
0.00282201
0.00337193
0.000874076
0.000904097
0.000881708
0.000853144
0.000826717
0.000803778
0.000784349
0.000762011
0.000698896
0.0015864
0.000498847
0.000508197
0.000493224
0.000476471
0.000461282
0.000448028
0.000436601
0.000423483
0.00073384
0.00077978
0.000285423
0.000287361
0.000278118
0.000268516
0.00025991
0.000252399
0.000245882
0.00259238
0.0087894
0.000401336
0.000166241
0.000165871
0.000160317
0.000154807
0.000149928
0.000145701
0.000142054
0.000138036
0.0001256
0.00338987
0.00210378
0.00112095
0.00119302
0.0021966
0.0041415
0.00716906
0.0104059
0.0156347
0.024576
0.00015385
7.65181e-05
7.551e-05
7.29985e-05
7.07006e-05
6.88042e-05
6.73362e-05
6.62686e-05
6.53583e-05
6.37521e-05
0.000120048
5.62321e-05
5.55166e-05
5.37439e-05
5.21688e-05
5.09387e-05
5.00802e-05
4.9607e-05
0.00256542
0.0111299
0.083949
0.00193385
0.00305995
0.00376835
0.00404667
0.00396096
0.00316854
0.0030928
0.00374977
0.00178107
0.0162306
0.00224093
0.00255551
0.00268576
0.00274329
0.0027576
0.00274181
0.00270456
0.00264655
0.00257884
0.00953658
0.00458388
0.00450835
0.00458476
0.00460094
0.00466724
0.00477556
0.0049263
0.00540032
0.00375371
0.00248528
0.000598806
0.000620271
0.000605258
0.000585462
0.000566968
0.00055086
0.000537177
0.000521144
0.00047383
0.00118674
0.000348723
0.000355874
0.000345551
0.000333697
0.000322808
0.000313192
0.000304779
0.000294897
0.000597153
0.000592364
0.000203528
0.000205237
0.000198667
0.000191719
0.000185417
0.000543758
0.00153747
0.00312521
0.00636911
0.000309283
0.000120765
0.000120677
0.000116632
0.000112568
0.000108923
0.00010571
0.000102875
9.9665e-05
8.95149e-05
0.010539
0.0100878
0.00966438
0.00978587
0.0104396
0.0115902
0.0133595
0.0149773
0.0183459
0.0221463
0.000120932
5.72884e-05
5.66084e-05
5.47126e-05
5.29601e-05
5.14824e-05
5.02859e-05
4.93487e-05
4.84609e-05
4.64473e-05
9.60344e-05
4.2117e-05
4.16277e-05
4.02915e-05
3.90857e-05
3.81157e-05
3.73951e-05
3.69273e-05
0.00199412
0.00692263
0.26728
0.0277484
0.0294252
0.0271781
0.0240693
0.020906
0.0179516
0.0152861
0.0181176
0.0108461
0.00630177
0.000312277
0.000466195
0.000586837
0.00061338
0.000551386
0.000423966
0.00025416
6.10785e-05
0.000112546
0.0105856
0.007477
0.00730647
0.00737224
0.00737896
0.00739837
0.00743535
0.0075261
0.00776307
0.00571271
0.00169581
0.000379984
0.000393823
0.0003847
0.000372162
0.000360136
0.000349389
0.000340041
0.000328917
0.000295862
0.000825396
0.000226417
0.000231217
0.0002246
0.000216845
0.000209646
0.000203217
0.000197506
0.000190606
0.00102777
0.0013152
0.000841253
0.000742272
0.000773198
0.000968016
0.00130089
0.00176216
0.00225404
0.00315431
0.004715
0.00022187
8.14883e-05
8.14987e-05
7.87612e-05
7.59748e-05
7.34446e-05
7.1179e-05
6.91365e-05
6.67503e-05
5.90367e-05
0.0168177
0.0168975
0.016877
0.0170135
0.0174249
0.0180834
0.0190769
0.0198159
0.0221241
0.0225019
8.85498e-05
3.98694e-05
3.94323e-05
3.8102e-05
3.68595e-05
3.57927e-05
3.48993e-05
3.41612e-05
3.3409e-05
3.13991e-05
7.18205e-05
2.92859e-05
2.8957e-05
2.8023e-05
2.71699e-05
2.64676e-05
2.592e-05
2.55306e-05
0.000258884
0.00288826
1.01962
0.0343119
0.0343097
0.0294465
0.0240759
0.0191977
0.015001
0.011443
0.00290821
0.00584149
0.0175516
0.00602536
0.00578639
0.0052683
0.00464662
0.00400067
0.00336985
0.00276922
0.002193
0.00167073
0.012279
0.0101003
0.00981342
0.00981643
0.00983915
0.00987819
0.00994323
0.0100794
0.0101789
0.00815381
0.0010526
0.000218786
0.000226913
0.000221374
0.000213364
0.000205353
0.000197805
0.00019063
0.000181566
0.000157965
0.000586474
0.000193522
0.000185339
0.000211385
0.000274571
0.000368706
0.000486889
0.000612291
0.000861811
0.00117836
0.00143558
0.00113455
0.00110689
0.00111691
0.00120127
0.0013463
0.00154868
0.0017688
0.00224981
0.00299487
0.000143322
4.93162e-05
4.93003e-05
4.76382e-05
4.59271e-05
4.43576e-05
4.29269e-05
4.16079e-05
4.00031e-05
3.46856e-05
0.0210517
0.0213845
0.0216042
0.0217335
0.0219723
0.0223243
0.0228467
0.0232056
0.0248768
0.0233987
5.83874e-05
2.48891e-05
2.4617e-05
2.37823e-05
2.29945e-05
2.23082e-05
2.17189e-05
2.12107e-05
2.06586e-05
1.89706e-05
4.86117e-05
1.82159e-05
1.79923e-05
1.74102e-05
1.68747e-05
1.64253e-05
9.96763e-05
0.00092433
0.00105334
0.00218619
1.53744
0.0268835
0.0257362
0.0231917
0.0204772
0.0180626
0.015772
0.012499
0.022193
0.0125771
0.00954803
0.00659556
0.00562117
0.00453362
0.00352491
0.0026374
0.00186548
0.00118704
0.000572868
4.13692e-05
0.0105192
0.0100946
0.00993045
0.00989466
0.00991299
0.00993614
0.00998721
0.0100931
0.0100153
0.00853832
0.000522652
9.94832e-05
0.000102776
0.000101904
0.000100759
0.000100113
0.000100138
0.000100917
0.000101287
9.27824e-05
0.000362701
0.000163947
0.00017559
0.000190578
0.000217779
0.000254543
0.000299764
0.000350623
0.000451091
0.00057994
0.000411538
0.000251065
0.000248381
0.000247978
0.000268672
0.000307861
0.000367093
0.000441031
0.000649315
0.00104999
7.70676e-05
2.44983e-05
2.43917e-05
2.35602e-05
2.27057e-05
2.19128e-05
2.11776e-05
2.04795e-05
1.95764e-05
1.64476e-05
0.0181056
0.0182841
0.0184906
0.0185688
0.0186691
0.0188086
0.0190215
0.0192182
0.0202836
0.0189518
3.20242e-05
1.27454e-05
1.2576e-05
1.21468e-05
1.17427e-05
1.13865e-05
1.10745e-05
1.07955e-05
1.04645e-05
9.30958e-06
0.0143456
0.0139287
0.014059
0.0139718
0.0140278
0.0141471
0.0143018
0.0146903
0.0146215
0.0152517
0.344528
0.019088
0.0209716
0.0230279
0.0249108
0.0265834
0.027932
0.030209
0.0338727
0.0432616
0.00214944
0.0018095
0.00156227
0.00126721
0.00098369
0.000725216
0.000490605
0.000273521
6.49197e-05
0.000132366
0.00501756
0.00473979
0.00478358
0.00477871
0.00483567
0.0049085
0.00500981
0.00513105
0.00514425
0.00483421
0.000160395
3.36129e-05
3.3019e-05
3.10167e-05
2.87445e-05
2.64342e-05
2.41026e-05
2.17186e-05
1.88739e-05
1.36803e-05
8.25273e-05
2.1168e-05
2.1158e-05
2.05315e-05
1.98479e-05
1.92077e-05
2.51474e-05
3.57982e-05
5.92522e-05
0.000207323
4.43114e-05
1.31396e-05
1.29787e-05
1.25224e-05
1.20558e-05
1.16181e-05
1.12052e-05
1.08029e-05
1.02345e-05
0.000211846
2.47887e-05
8.31417e-06
8.16354e-06
7.86991e-06
7.58192e-06
7.31284e-06
7.05721e-06
6.80622e-06
6.45247e-06
5.1617e-06
0.00660666
0.00656839
0.00660148
0.00661684
0.00663672
0.00666559
0.00671477
0.00678903
0.00714168
0.00729516
1.05674e-05
4.42982e-06
4.32317e-06
4.17281e-06
4.03543e-06
3.914e-06
3.80596e-06
3.70478e-06
3.57328e-06
3.04447e-06
0.0384721
0.037339
0.0373436
0.0373095
0.0373591
0.037461
0.0375998
0.0378112
0.0378874
0.038965
16.1292
15.1007
16.9306
22.0692
14.7894
13.4625
16.5096
24.8833
15.8405
11.7522
18.1138
30.1138
16.1027
10.0985
19.7016
34.3581
16.8186
9.25882
21.5881
42.6745
15.6154
7.60382
18.2575
39.7958
13.9439
6.16239
15.3977
36.3023
12.0304
4.85147
12.6149
31.6422
9.76729
3.52137
10.0024
26.7403
7.17707
2.15786
7.41226
21.4822
1.96218
0.750357
0.126291
0.959333
2.8099
0.847355
0.0904173
0.457827
3.70876
0.959976
0.0472506
0.783859
4.63158
0.793893
0.10611
1.53064
5.41848
0.588099
0.134367
1.20022
5.86339
0.160983
0.00528004
0.00553056
6.06302
0.00233331
0.00267662
0.00273946
6.16808
0.00136077
0.00152409
0.00154153
6.08225
0.000993
0.00110765
0.00112054
5.63145
0.00100386
0.00117508
0.0011856
2.17958
2.0153
1.83906
2.09707
2.5256
1.96506
1.65508
1.99231
3.01662
2.05038
1.80574
2.16976
3.54815
2.13956
2.08292
2.59779
4.13736
2.2859
2.30432
3.0366
4.67313
2.46788
2.52052
3.41346
5.01082
2.51096
2.42374
3.32347
5.25589
2.5073
2.22543
3.16897
5.4915
2.43913
2.00142
3.00064
5.94167
2.48037
2.00558
2.70923
0.755784
0.812482
0.79967
0.784445
0.899596
0.726892
0.677012
0.70847
1.16063
0.79895
0.732026
0.813672
1.46628
0.897919
0.78721
0.956525
1.79783
0.99078
0.809095
1.06398
2.11573
1.06012
0.768468
1.10668
2.38389
1.08939
0.658015
1.07781
2.62833
1.10587
0.508671
1.019
2.79299
1.0038
0.240061
0.871309
2.66913
0.649023
0.000885431
0.567695
0.461201
0.504737
0.501044
0.49055
0.502385
0.438585
0.428496
0.44434
0.612237
0.472617
0.436415
0.464516
0.769758
0.550443
0.473793
0.518788
0.958547
0.63766
0.504427
0.579073
1.174
0.739291
0.530095
0.63663
1.37712
0.815192
0.506419
0.648985
1.59154
0.892865
0.46343
0.654047
1.78252
0.911274
0.333239
0.60783
1.80293
0.821968
0.159218
0.548295
0.257376
0.279811
0.283755
0.280866
0.287402
0.2548
0.252436
0.262704
0.335244
0.261335
0.243866
0.257355
0.418656
0.309594
0.266589
0.278409
0.522117
0.365689
0.284816
0.302528
0.645324
0.434861
0.302561
0.32852
0.767035
0.49213
0.293685
0.333265
0.909291
0.561063
0.279887
0.342578
1.04176
0.601121
0.203446
0.322803
1.00406
0.553643
0.117017
0.342671
0.156619
0.16674
0.170249
0.16975
0.17075
0.152041
0.14962
0.153749
0.19988
0.152476
0.141361
0.146332
0.248308
0.181798
0.155281
0.151546
0.312949
0.219911
0.170091
0.163097
0.393245
0.272809
0.191269
0.181462
0.471973
0.318731
0.196055
0.187169
0.570083
0.379057
0.203245
0.20195
0.663467
0.428186
0.167918
0.20003
0.614504
0.412279
0.148346
0.255566
0.0972555
0.101148
0.103247
0.103249
0.0957088
0.0833786
0.0808588
0.0812449
0.120441
0.0870509
0.0789493
0.0806556
0.150287
0.104987
0.0870308
0.0791176
0.193507
0.130479
0.0979678
0.0850422
0.24749
0.168361
0.116338
0.0971214
0.298334
0.20096
0.123927
0.100658
0.366407
0.248591
0.138387
0.115814
0.428232
0.29234
0.124197
0.121837
0.378611
0.287606
0.137033
0.185022
0.0620732
0.0629669
0.0640262
0.064045
0.0515864
0.0431473
0.0409833
0.0393827
0.071691
0.0478593
0.0419248
0.042251
0.0908664
0.0594051
0.0466666
0.0385239
0.122008
0.0774947
0.0550915
0.0428305
0.160996
0.105878
0.0710222
0.0524021
0.194859
0.128501
0.0782196
0.0543985
0.24416
0.165752
0.0947349
0.0692806
0.278868
0.195764
0.0870496
0.07389
0.239313
0.196917
0.112467
0.131611
0.0401824
0.0397111
0.040167
0.0401486
0.0258081
0.0203419
0.0187098
0.0161539
0.041444
0.0244198
0.0202222
0.0202199
0.0527215
0.0312375
0.0222879
0.0149977
0.07549
0.0440469
0.0284015
0.0183678
0.104598
0.0657558
0.0416477
0.0263745
0.127181
0.0809316
0.046765
0.0268044
0.164204
0.110177
0.0628258
0.0411885
0.178875
0.1254
0.0546397
0.0401822
0.151619
0.130972
0.0832659
0.0895995
0.0260476
0.0251065
0.0252444
0.0251826
0.0128652
0.00932706
0.0093145
0.0093882
0.0236207
0.01142
0.00859765
0.00891098
0.0287537
0.014498
0.00842358
0.0024111
0.0450669
0.0231346
0.0124547
0.0048484
0.066484
0.0393726
0.0228369
0.0111117
0.0805707
0.04861
0.0252572
0.00960712
0.109252
0.0717796
0.0399217
0.0232876
0.112916
0.0769478
0.0305654
0.0179406
0.0950931
0.084688
0.0570823
0.0579076
0.0168457
0.0157296
0.0157011
0.0154861
0.00979484
0.007047
0.00704272
0.00712896
0.0134792
0.00463413
0.0028205
0.00364526
0.0141562
0.00506024
0.00139739
0.00149442
0.0258187
0.0107429
0.00369528
0.00082095
0.041155
0.0224837
0.0114602
0.00299058
0.0485623
0.0269168
0.0112911
0.000270647
0.0713827
0.0454049
0.0242906
0.0122528
0.0694415
0.0445679
0.0141783
0.00428784
0.0583139
0.0530908
0.0366361
0.0351896
0.0128533
0.0113201
0.0113361
0.0112779
0.00720713
0.0051453
0.00514247
0.00522701
0.00799097
0.00202111
0.00202735
0.00215379
0.00547497
0.00103726
0.00103439
0.0011146
0.0140973
0.00389085
0.000577601
0.000620796
0.0248781
0.0122074
0.00509683
0.000355107
0.0272808
0.0130548
0.00291058
0.000210625
0.0460916
0.0280886
0.0144463
0.00635926
0.040654
0.0233129
0.00362679
0.000140575
0.0346262
0.0322168
0.0221539
0.0198741
0.00824416
0.00716517
0.00715695
0.00713538
0.00528344
0.00377516
0.0037763
0.00384661
0.00528248
0.00142258
0.00142959
0.00152969
0.00143171
0.000735632
0.000735563
0.000799218
0.00732151
0.000507999
0.0004155
0.000450624
0.0147688
0.00629704
0.00186417
0.000261264
0.0135278
0.00461705
0.000146945
0.000156906
0.0297558
0.0172465
0.00869163
0.00382624
0.0215958
0.00964313
0.000106797
0.000105441
0.019676
0.0188659
0.0126193
0.0101692
0.00940495
0.00798556
0.00778363
0.00753484
0.00312315
0.00221495
0.00223852
0.00232757
0.00424789
0.000969631
0.000975336
0.00185205
0.000986539
0.000497509
0.000499089
0.000547314
0.00375908
0.000286505
0.000284834
0.000311991
0.00879894
0.00319963
0.000535771
0.000183171
0.00496065
0.000106123
0.000103176
0.000111314
0.019741
0.01093
0.00574451
0.00338891
0.00905003
0.00110172
7.54358e-05
7.5645e-05
0.010231
0.0103318
0.00645029
0.00413705
0.00174004
0.000603421
0.000127573
0.000849668
0.00304777
0.00214929
0.00206649
0.00201434
0.00424753
0.000875923
0.000674241
0.00289545
0.000639661
0.000317763
0.000319897
0.000354334
0.00220683
0.00018412
0.000183869
0.000203647
0.00550879
0.00182125
0.0002844
0.000120999
0.000161167
6.97414e-05
6.8149e-05
7.43875e-05
0.0143687
0.00790338
0.00487871
0.00445146
0.000880468
5.26351e-05
5.03133e-05
5.13017e-05
0.00348603
0.00406919
0.00168753
6.7044e-05
0.0106636
0.007344
0.00580933
0.00427624
0.000437431
0.000437823
0.000693817
0.00101175
0.00527249
0.0022731
0.00215725
0.00451485
0.000380274
0.000187438
0.000189254
0.000211082
0.00171684
0.00010914
0.000109622
0.000123023
0.00373261
0.00128807
0.000438628
0.000255941
0.000100314
4.21655e-05
4.14684e-05
4.58738e-05
0.0126547
0.0074327
0.00574088
0.00688961
7.17027e-05
3.23274e-05
3.10481e-05
3.2228e-05
9.2441e-05
5.28803e-05
5.24323e-05
4.37457e-05
0.00420914
0.00156995
0.000270083
0.00215228
0.00112374
0.000544381
7.11625e-05
0.000463651
0.00719309
0.00439049
0.00437109
0.00688844
0.000182087
8.74351e-05
8.8028e-05
0.000100012
0.00144383
9.17567e-05
5.77389e-05
0.000192972
0.00246471
0.000843186
0.000388474
0.000553356
5.44075e-05
2.24221e-05
2.22651e-05
2.50362e-05
0.0133118
0.00842011
0.00750504
0.0100728
3.96808e-05
1.75823e-05