/*--------------------------------*- C++ -*----------------------------------*\
| =========                 |                                                 |
| \\      /  F ield         | foam-extend: Open Source CFD                    |
|  \\    /   O peration     | Version:     4.0                                |
|   \\  /    A nd           | Web:         http://www.foam-extend.org         |
|    \\/     M anipulation  |                                                 |
\*---------------------------------------------------------------------------*/
FoamFile
{
    version     2.0;
    format      ascii;
    class       volScalarField;
    location    "400";
    object      k;
}
// * * * * * * * * * * * * * * * * * * * * * * * * * * * * * * * * * * * * * //

dimensions      [0 2 -2 0 0 0 0];

internalField   nonuniform List<scalar> 
34480
(
8.60431
8.59892
8.59678
8.59522
8.59775
8.61989
8.70219
8.92034
9.37456
10.2655
27.922
29.767
32.2906
35.321
39.0984
45.2117
58.6982
89.7103
144.605
206.646
53.3542
56.0263
59.3194
63.003
67.082
72.9122
85.8664
121.718
199.978
303.775
54.5004
58.0111
62.3937
67.4674
73.0089
79.9443
93.3239
131.435
225.475
364.751
51.2151
55.4096
60.8115
67.2744
74.4441
82.8522
97.3898
138.477
249.062
426.563
46.1485
50.4595
56.2362
63.4781
71.8613
81.8038
98.3561
144.475
275.337
495.84
40.2315
44.3397
50.0739
57.5821
66.716
77.8934
96.2117
146.322
294.427
554.161
30.7846
34.1367
38.9844
45.6817
54.2958
65.4278
83.9794
134.518
289.379
572.572
13.2995
14.595
16.6318
19.8117
24.6121
31.9061
44.9657
80.9125
197.63
432.282
9.06868
9.05704
9.06344
9.09419
9.15791
9.24934
9.35226
9.50297
9.84383
10.3668
8.50912
8.50911
8.51826
8.53619
8.56251
8.59909
8.66147
8.7827
9.01695
9.47736
19.9801
21.313
23.4998
26.5394
30.3965
34.8
40.4171
53.4738
88.9076
167.635
40.0725
42.3151
45.3853
49.2335
53.8851
59.5264
66.0749
80.5315
130.346
259.501
42.03
44.9359
48.8652
53.8333
59.7502
66.7581
74.6409
90.2633
150.264
319.651
40.3313
43.7655
48.5128
54.6315
61.9962
70.4818
79.7799
96.8401
168.181
382.958
37.0353
40.5474
45.5923
52.3766
60.8267
70.6655
81.5191
101.095
187.415
458.508
32.8846
36.2197
41.2142
48.2012
57.2745
68.1108
80.3032
101.96
201.459
524.912
25.6338
28.2906
32.4465
38.6211
47.0872
57.6612
69.9561
91.9494
196.907
550.347
11.6634
12.5715
14.1213
16.7548
21.1373
27.7075
36.1382
51.0801
126.704
407.512
8.93226
8.9131
8.90777
8.92407
8.97701
9.06816
9.16574
9.26331
9.6127
10.482
8.40841
8.40814
8.41468
8.42947
8.45358
8.48757
8.53524
8.60795
8.72757
8.92612
13.8724
14.6429
15.9666
17.9041
20.5155
23.7925
27.935
33.9594
44.4208
61.6595
28.5199
30.1587
32.4683
35.4076
38.9413
43.1778
48.2282
55.7608
72.1799
105.783
30.9643
33.1262
36.1649
40.0891
44.7602
50.2194
56.402
65.2726
87.5816
140.266
30.5836
33.168
36.8976
41.8218
47.8044
54.6699
62.1369
72.322
101.274
177.965
28.7877
31.4562
35.4686
41.0328
48.0944
56.314
65.2529
77.3252
115.106
223.35
26.1819
28.7411
32.7647
38.584
46.3307
55.6042
65.8372
79.5436
126.026
268.456
20.9593
22.9789
26.31
31.4627
38.7625
47.9709
58.5161
72.8603
124.72
293.416
10.293
10.9426
12.0999
14.1034
17.5508
22.9346
30.2408
40.4766
77.8382
212.737
8.81596
8.79386
8.78206
8.78681
8.81944
8.88624
8.97388
9.05237
9.23105
9.78099
8.29973
8.29954
8.30381
8.31405
8.33141
8.35682
8.39186
8.44047
8.51383
8.63953
9.84379
10.2116
10.8525
11.8538
13.2957
15.2266
17.7247
20.9191
25.0984
30.3816
19.5555
20.5876
22.0539
23.9544
26.3
29.1592
32.623
37.0542
43.6475
54.0821
22.0028
23.4186
25.4428
28.0919
31.2845
35.0969
39.5641
45.214
54.5698
72.3422
22.4872
24.2279
26.8058
30.2396
34.4393
39.369
44.9548
51.8247
64.4465
92.4747
21.8088
23.6407
26.4823
30.4771
35.5898
41.6746
48.5725
57.0528
74.2694
116.996
20.4249
22.2181
25.1353
29.4177
35.1798
42.2194
50.277
60.1279
82.0089
141.784
16.943
18.3612
20.7802
24.5926
30.0882
37.186
45.6402
56.172
81.4082
155.944
9.13669
9.58133
10.3943
11.7813
14.1556
17.9689
23.598
31.2945
49.5849
109.183
8.68196
8.66045
8.64712
8.64655
8.66595
8.71234
8.78696
8.86987
8.98241
9.32148
8.17992
8.1796
8.18199
8.18809
8.19844
8.21366
8.23496
8.26521
8.31257
8.40154
7.50242
7.65434
7.90862
8.32481
8.94498
9.8136
10.976
12.4299
14.0705
15.7545
13.3507
13.9258
14.7385
15.8045
17.1466
18.8091
20.8414
23.2785
26.0954
29.3549
15.422
16.2536
17.4449
19.0194
20.9449
23.2885
26.1103
29.5328
33.8134
39.7632
16.3037
17.3669
18.9628
21.0966
23.7159
26.8593
30.5568
35.0045
41.0461
51.1958
16.3197
17.4665
19.2824
21.8536
25.1574
29.1875
33.9571
39.7532
48.3613
65.1618
15.7781
16.9347
18.8605
21.7005
25.539
30.3396
36.0755
43.0424
54.2472
79.2276
13.6521
14.5811
16.1937
18.7457
22.4464
27.3519
33.472
41.0927
54.3064
86.9574
8.17359
8.46546
9.00841
9.9065
11.3952
13.7922
17.5272
22.8898
32.4348
58.1828
8.54185
8.52169
8.5082
8.50472
8.51548
8.54595
8.60132
8.67583
8.76552
8.9755
8.04862
8.04824
8.0496
8.05333
8.05962
8.0687
8.08127
8.09971
8.13149
8.19939
6.25065
6.30999
6.40026
6.55361
6.78207
7.10352
7.53748
8.08117
8.67282
9.21375
9.46345
9.75505
10.1594
10.6946
11.3791
12.2359
13.2837
14.5006
15.7564
16.8784
10.9917
11.4385
12.073
12.9235
13.9829
15.2888
16.8759
18.7561
20.8085
22.9754
11.9203
12.5207
13.4232
14.6356
16.1358
17.9669
20.1592
22.7647
25.7839
29.6923
12.2704
12.9367
14.0019
15.521
17.4863
19.9396
22.9223
26.5406
31.0417
37.9623
12.2217
12.9207
14.0977
15.8332
18.1894
21.2058
24.9241
29.4638
35.4521
46.2178
11.0597
11.6378
12.6427
14.2239
16.5156
19.6271
23.6544
28.7425
35.9212
50.4906
7.38438
7.56984
7.91941
8.47561
9.35762
10.7462
12.9362
16.2003
21.1735
32.2048
8.39428
8.3761
8.36354
8.35914
8.36547
8.38625
8.42591
8.48494
8.55768
8.68458
7.90602
7.9056
7.90637
7.90879
7.91295
7.91893
7.92721
7.93972
7.96321
8.01871
5.60912
5.63186
5.6615
5.71536
5.79568
5.90785
6.05776
6.24338
6.4406
6.61052
7.23886
7.37372
7.55173
7.786
8.08897
8.47447
8.95356
9.51083
10.0662
10.4853
8.24465
8.46316
8.76536
9.17587
9.69585
10.3464
11.1481
12.0994
13.093
13.9576
9.02936
9.34416
9.8091
10.4322
11.2103
12.1705
13.3355
14.7263
16.2489
17.8631
9.46973
9.83144
10.405
11.2253
12.2925
13.6489
15.3287
17.3863
19.7677
22.7595
9.65123
10.0506
10.7192
11.6963
13.0235
14.7534
16.9306
19.6242
22.8635
27.6316
9.11185
9.45704
10.0461
10.9568
12.2616
14.0594
16.4451
19.5243
23.4492
30.0255
6.75703
6.87084
7.08795
7.41839
7.91643
8.66839
9.82408
11.5605
14.007
18.5949
8.23812
8.22227
8.21128
8.20715
8.21158
8.22704
8.2564
8.30131
8.35808
8.4326
7.75287
7.75243
7.75286
7.75456
7.75757
7.76197
7.76812
7.77769
7.79677
7.84475
5.28766
5.29632
5.30523
5.32432
5.35393
5.39614
5.45347
5.52525
5.60221
5.66726
6.0568
6.11602
6.18694
6.27694
6.39336
6.54527
6.7418
6.97964
7.22258
7.39358
6.65878
6.75707
6.88542
7.06063
7.28461
7.56994
7.93206
8.37566
8.84816
9.22464
7.23583
7.39061
7.60954
7.89713
8.25563
8.7004
9.24983
9.92322
10.6706
11.3882
7.63405
7.81945
8.10407
8.50699
9.02976
9.70069
10.5464
11.6071
12.8358
14.2049
7.87998
8.09786
8.45297
8.95969
9.64133
10.5369
11.6808
13.1262
14.8352
17.0317
7.70467
7.90445
8.23186
8.72209
9.40567
10.3464
11.6111
13.284
15.3649
18.3998
6.27189
6.33895
6.46914
6.65805
6.92881
7.31712
7.88466
8.71782
9.832
11.6894
8.07226
8.0589
8.04974
8.04644
8.05021
8.06271
8.08565
8.12021
8.16246
8.20736
7.58974
7.58928
7.58953
7.59082
7.59319
7.5967
7.60168
7.60955
7.6258
7.66839
5.12815
5.1313
5.13349
5.14066
5.15304
5.17183
5.19889
5.23465
5.27564
5.31192
5.45618
5.48256
5.50985
5.54169
5.58253
5.6386
5.71745
5.82176
5.93793
6.02426
5.7902
5.83239
5.88225
5.94995
6.03631
6.14879
6.29906
6.49618
6.72214
6.90499
6.17459
6.24783
6.34417
6.46485
6.61158
6.7923
7.02098
7.31717
7.67014
8.00971
6.48198
6.5734
6.70553
6.88713
7.11803
7.41235
7.78914
8.2813
8.88252
9.53221
6.70785
6.8228
7.00136
7.24528
7.56503
7.981
8.51549
9.21063
10.0608
11.0958
6.72316
6.83644
7.0107
7.25969
7.59146
8.03754
8.63521
9.44429
10.4778
11.8919
5.9075
5.94493
6.02016
6.12411
6.26675
6.46096
6.72901
7.10776
7.59591
8.35371
7.89574
7.88482
7.87751
7.87518
7.87872
7.88922
7.90764
7.93458
7.96561
7.99422
7.41689
7.41642
7.41657
7.41762
7.4196
7.42257
7.42681
7.43354
7.44767
7.48582
5.04864
5.04958
5.04976
5.05284
5.05914
5.06958
5.08577
5.10869
5.13724
5.16461
5.15671
5.1692
5.18008
5.19107
5.20508
5.22653
5.26139
5.31414
5.3809
5.43848
5.32922
5.34724
5.36571
5.39055
5.42206
5.46478
5.52715
5.61853
5.7366
5.84296
5.56656
5.60089
5.64188
5.68943
5.74425
5.8104
5.89751
6.02218
6.19164
6.3711
5.7825
5.82678
5.88556
5.96253
6.05625
6.17261
6.32347
6.53328
6.81738
7.14159
5.95809
6.01745
6.10378
6.21461
6.35396
6.52963
6.75375
7.05583
7.45399
7.95258
6.06017
6.12377
6.21346
6.33407
6.48506
6.6788
6.93275
7.2833
7.76155
8.42717
5.64218
5.66138
5.70305
5.75797
5.83109
5.92617
6.05078
6.22088
6.43892
6.77536
7.70776
7.6991
7.69348
7.69202
7.69533
7.70413
7.71887
7.73971
7.76234
7.78155
7.2343
7.23384
7.23394
7.23483
7.23655
7.23915
7.24284
7.24869
7.26104
7.2952
5.00797
5.00804
5.00773
5.00937
5.01332
5.02035
5.03195
5.04936
5.07255
5.09655
5.00868
5.015
5.0197
5.02358
5.0286
5.03786
5.05587
5.08707
5.1316
5.17635
5.08986
5.09774
5.10447
5.1135
5.125
5.14182
5.16988
5.21703
5.28663
5.35904
5.22646
5.24263
5.2599
5.27801
5.29726
5.3199
5.35233
5.40701
5.49589
5.60542
5.36922
5.39061
5.41616
5.44751
5.48322
5.52574
5.58217
5.66931
5.80728
5.98545
5.49288
5.52299
5.56355
5.61186
5.66947
5.73884
5.82619
5.95042
6.13488
6.39066
5.62592
5.66156
5.70655
5.76261
5.82739
5.90492
6.00314
6.14263
6.35638
6.68515
5.45533
5.4637
5.48556
5.5133
5.54995
5.59605
5.65408
5.73165
5.83422
6.00269
7.50773
7.50105
7.49687
7.49606
7.49905
7.50624
7.51777
7.53358
7.54991
7.56319
7.04182
7.04137
7.04145
7.04222
7.04374
7.04603
7.04928
7.05438
7.06513
7.09551
4.98602
4.98578
4.98546
4.98655
4.98941
4.99474
5.00392
5.01836
5.03866
5.0611
4.93605
4.93939
4.94163
4.94311
4.94513
4.94982
4.96045
4.98085
5.01278
5.04902
4.96857
4.97217
4.97468
4.97801
4.98235
4.98951
5.00346
5.03021
5.07462
5.12747
5.04091
5.04852
5.05579
5.06257
5.06903
5.0765
5.08908
5.11544
5.1668
5.24053
5.13161
5.142
5.15297
5.16534
5.17814
5.19249
5.21271
5.24984
5.32154
5.42977
5.21302
5.22791
5.2464
5.26675
5.28965
5.31593
5.3489
5.40029
5.49003
5.6343
5.35018
5.37023
5.39236
5.41733
5.44316
5.471
5.50476
5.55622
5.65242
5.82938
5.32832
5.33053
5.34112
5.35445
5.37267
5.39535
5.4232
5.46018
5.51159
5.60522
7.29522
7.29021
7.28719
7.28682
7.28938
7.29506
7.30384
7.31554
7.32722
7.33655
6.83922
6.83879
6.83885
6.83953
6.84087
6.84289
6.84574
6.85014
6.8594
6.88609
4.97315
4.97283
4.97263
4.97347
4.97569
4.97994
4.98753
5
5.0184
5.03997
4.90071
4.90249
4.90365
4.90431
4.90531
4.90805
4.91487
4.92882
4.95226
4.98155
4.90905
4.91085
4.91187
4.91314
4.91483
4.91808
4.92548
4.94136
4.97047
5.00944
4.9428
4.9463
4.94934
4.95189
4.95403
4.95655
4.96197
4.97594
5.00736
5.05871
4.99913
5.00423
5.00893
5.01367
5.01787
5.02212
5.029
5.04548
5.08491
5.15447
5.05039
5.0574
5.06546
5.07374
5.08262
5.09247
5.10511
5.12761
5.17435
5.26191
5.1804
5.19179
5.20252
5.21309
5.22221
5.23019
5.23907
5.25573
5.29954
5.40252
5.24506
5.244
5.24841
5.25449
5.26379
5.27572
5.29027
5.30953
5.33712
5.39292
7.07004
7.06637
7.06424
7.06414
7.06621
7.07056
7.07705
7.08551
7.09383
7.10046
6.62626
6.62587
6.62592
6.62651
6.62768
6.62943
6.6319
6.63565
6.64347
6.66654
4.96473
4.96445
4.96438
4.96507
4.96681
4.97024
4.97658
4.98751
5.00446
5.02555
4.88368
4.88461
4.88525
4.88564
4.88628
4.88807
4.89262
4.9023
4.91951
4.94282
4.88108
4.88212
4.88264
4.88314
4.88377
4.88524
4.88917
4.89858
4.91749
4.94569
4.89303
4.89453
4.89578
4.89678
4.89758
4.89862
4.90133
4.90921
4.92872
4.96424
4.92779
4.93033
4.93238
4.93414
4.93533
4.93625
4.93837
4.94588
4.96807
5.01331
4.95954
4.96253
4.96575
4.96903
4.97254
4.97651
4.98188
4.99272
5.0184
5.07319
5.07863
5.08516
5.09034
5.09451
5.09698
5.0978
5.098
5.10156
5.12105
5.18382
5.19232
5.1897
5.19088
5.19353
5.1987
5.20591
5.21474
5.22627
5.24212
5.27675
6.83217
6.82954
6.82807
6.8281
6.8297
6.83291
6.83758
6.84357
6.8495
6.85426
6.40275
6.40241
6.40245
6.40296
6.40395
6.40545
6.40754
6.41067
6.41711
6.43659
4.95853
4.95836
4.95839
4.95896
4.96031
4.96302
4.96827
4.97783
4.99352
5.01437
4.87562
4.87608
4.87647
4.87677
4.87727
4.87855
4.88166
4.88837
4.90087
4.91908
4.86872
4.86944
4.86978
4.86998
4.87015
4.87072
4.87268
4.87802
4.8899
4.90959
4.8692
4.86976
4.87024
4.87069
4.87111
4.87174
4.87332
4.87789
4.8898
4.91362
4.8908
4.89208
4.89301
4.89367
4.89393
4.89393
4.89443
4.89786
4.91021
4.93912
4.91096
4.91193
4.913
4.91429
4.91588
4.91788
4.92074
4.92663
4.94114
4.97525
5.01828
5.02205
5.02453
5.026
5.02616
5.02496
5.02281
5.02199
5.02977
5.06884
5.15971
5.15653
5.1561
5.15725
5.16059
5.16576
5.17214
5.18017
5.18981
5.2118
6.58174
6.5799
6.57891
6.57898
6.58017
6.58246
6.58574
6.58988
6.59412
6.59755
6.16858
6.1683
6.16834
6.16876
6.16958
6.17082
6.17254
6.17506
6.18019
6.19613
4.95349
4.95344
4.95354
4.95401
4.95501
4.95707
4.96129
4.9695
4.98394
5.00468
4.87194
4.87217
4.87242
4.8727
4.87315
4.87411
4.87628
4.88091
4.88988
4.90386
4.86377
4.86434
4.86461
4.86468
4.86465
4.86475
4.86557
4.86836
4.8754
4.88848
4.85888
4.859
4.85917
4.85941
4.85972
4.8602
4.86122
4.86385
4.87083
4.88602
4.87242
4.87307
4.87352
4.87378
4.87382
4.87367
4.87371
4.87522
4.88182
4.89957
4.88608
4.88611
4.88628
4.88682
4.88775
4.8891
4.89102
4.89458
4.90279
4.92341
4.98139
4.98354
4.9847
4.98512
4.98471
4.98337
4.98119
4.9794
4.98157
5.00619
5.13946
5.13627
5.1351
5.13563
5.13817
5.14239
5.1476
5.15385
5.15991
5.17409
6.31907
6.31781
6.31715
6.31723
6.31807
6.31965
6.32188
6.32469
6.32767
6.33016
5.92382
5.9236
5.92364
5.92397
5.92462
5.9256
5.92694
5.92888
5.93277
5.94527
4.94904
4.94911
4.94928
4.94963
4.9503
4.95176
4.95497
4.96175
4.97469
4.99526
4.87037
4.87048
4.87066
4.87093
4.87135
4.87212
4.87367
4.87686
4.88319
4.8938
4.8621
4.86256
4.86278
4.8628
4.86269
4.86258
4.86278
4.86403
4.86785
4.87596
4.8553
4.85527
4.85531
4.85546
4.8557
4.85608
4.85673
4.8582
4.86202
4.87105
4.86381
4.86415
4.86438
4.86451
4.86451
4.86442
4.86436
4.86496
4.86823
4.87846
4.87364
4.87331
4.87317
4.87344
4.87411
4.87514
4.87656
4.87879
4.88333
4.89515
4.95638
4.95754
4.95804
4.9581
4.95772
4.95681
4.95526
4.95374
4.95344
4.96924
5.12573
5.12281
5.12136
5.12166
5.12378
5.12742
5.13188
5.137
5.14077
5.15004
6.04464
6.04381
6.04339
6.04346
6.04402
6.04507
6.04653
6.04837
6.05038
6.05215
5.66881
5.66868
5.66871
5.66896
5.66944
5.67015
5.67113
5.67251
5.67524
5.68443
4.94468
4.94485
4.94504
4.94528
4.94566
4.94654
4.94874
4.95393
4.9649
4.98478
4.86971
4.86977
4.86992
4.87016
4.87054
4.87117
4.8723
4.87449
4.87887
4.88678
4.86157
4.86191
4.86208
4.86208
4.86197
4.8618
4.86173
4.86215
4.86393
4.86847
4.85493
4.85487
4.85488
4.85497
4.85514
4.8554
4.85579
4.85654
4.85844
4.86327
4.86025
4.86044
4.86057
4.86064
4.86066
4.8606
4.86052
4.86069
4.8621
4.86744
4.86704
4.86666
4.86649
4.86664
4.86711
4.86785
4.86882
4.87014
4.87247
4.87871
4.9362
4.93682
4.937
4.93698
4.93676
4.93625
4.93533
4.93431
4.93317
4.94352
5.11334
5.11083
5.10938
5.10958
5.11136
5.11445
5.11819
5.1223
5.12438
5.13053
5.75926
5.75874
5.75849
5.75854
5.75889
5.75954
5.76044
5.76158
5.76282
5.76396
5.40429
5.40421
5.40421
5.40437
5.40468
5.40514
5.40578
5.40667
5.40836
5.41457
4.93876
4.93897
4.93917
4.93929
4.93942
4.9398
4.94102
4.9444
4.95267
4.97057
4.86942
4.86944
4.86955
4.86974
4.87006
4.87056
4.87137
4.87281
4.87566
4.88122
4.86106
4.86127
4.86138
4.86139
4.86132
4.86119
4.86107
4.86111
4.86174
4.86384
4.85601
4.85596
4.85596
4.85601
4.85611
4.85626
4.85647
4.8568
4.8576
4.85979
4.85928
4.8594
4.85948
4.85952
4.85953
4.85948
4.8594
4.85937
4.85981
4.86214
4.8627
4.86243
4.86232
4.86241
4.86269
4.86312
4.86364
4.86427
4.86527
4.86812
4.91697
4.91737
4.91747
4.91746
4.91732
4.91699
4.91641
4.91572
4.9146
4.92113
5.09403
5.09194
5.09069
5.09081
5.09218
5.09457
5.09741
5.10033
5.10094
5.10473
5.4639
5.46361
5.46348
5.4635
5.4637
5.46405
5.46455
5.46518
5.46586
5.46653
5.13019
5.13013
5.13014
5.13022
5.13038
5.13062
5.13095
5.13139
5.13218
5.13597
4.92337
4.92354
4.92368
4.92373
4.9237
4.92375
4.92413
4.92559
4.9302
4.94308
4.8687
4.8687
4.86877
4.86891
4.86914
4.8695
4.87003
4.87087
4.87242
4.87556
4.86046
4.86055
4.86061
4.86062
4.8606
4.86054
4.86047
4.86043
4.86053
4.86113
4.85777
4.85775
4.85775
4.85777
4.85782
4.85789
4.85798
4.85811
4.85836
4.85909
4.85961
4.85968
4.85973
4.85975
4.85974
4.85971
4.85964
4.85957
4.85961
4.86032
4.86
4.85988
4.85983
4.85987
4.86
4.86018
4.86037
4.86057
4.86085
4.86174
4.89594
4.89624
4.89636
4.89637
4.89625
4.89597
4.89555
4.89508
4.89457
4.89797
5.04294
5.04124
5.04036
5.04037
5.04121
5.04269
5.04444
5.04609
5.04574
5.04717
5.15876
5.15862
5.15856
5.15857
5.15864
5.15878
5.15898
5.15924
5.15953
5.15986
12.0774
12.4765
12.2732
11.3002
199.619
192.185
188.077
183.087
308.366
298.029
289.562
275.689
385.318
373.503
359.529
341.151
466.089
451.194
430.285
407.724
551.517
530.855
502.081
476.195
623.864
598.837
564.999
536.234
652.552
625.676
590.636
562.511
510.969
485.839
454.42
428.473
13.467
13.6136
13.5129
13.3733
10.0312
10.3742
10.5141
10.3607
225.364
201.042
194.844
188.117
361.474
327.668
316.268
294.371
464.146
429.637
409.433
374.906
582.738
546.999
511.222
458.981
725.009
681.184
620.217
551.381
853.904
803.282
723.867
633.646
922.138
868.728
779.016
676.088
746.377
699.237
617.758
521.543
13.2267
13.2292
12.9728
12.5561
9.09501
9.25299
9.29455
9.202
77.8072
78.2659
74.3485
67.1716
136.5
135.545
126.826
111.655
186.455
183.798
170.725
148.868
245.881
242.05
223.779
192.46
323.352
319.263
294.892
252.476
405.344
399.805
367.502
312.992
462.993
455.645
417.26
353.943
370.392
361.737
327.079
269.56
10.8824
10.9385
10.8791
10.7345
8.77856
8.8554
8.86628
8.80533
32.6771
32.2957
31.3705
29.9308
59.6514
58.4549
55.6582
51.9882
82.383
80.2593
75.6744
69.6097
109.237
106.009
99.0149
89.7281
144.144
139.771
129.949
117.033
182.37
176.894
164.241
147.693
210.62
204.29
189.541
169.953
161.091
154.857
142.65
125.243
9.76467
9.80383
9.81177
9.79486
8.55268
8.60362
8.60492
8.55398
16.1679
16.0491
15.7369
15.4035
30.5617
30.1384
29.1336
27.9116
42.2605
41.5387
39.8887
37.8433
56.0261
55.0371
52.6053
49.4686
74.0986
73.0055
69.8133
65.4861
93.8062
92.6728
88.7525
83.1792
107.972
106.924
102.563
95.8889
78.3393
77.3459
74.115
68.0694
9.15133
9.18078
9.20217
9.21517
8.35989
8.40105
8.39975
8.35528
9.14671
9.03669
8.92543
8.87603
16.9417
16.6382
16.186
15.7304
23.3344
22.8854
22.1712
21.4218
30.8059
30.2691
29.2656
28.1172
40.6468
40.145
38.9199
37.3807
51.2352
50.8329
49.42
47.449
58.3871
58.1739
56.7225
54.3859
39.7262
39.5534
38.6664
36.6304
8.7393
8.75592
8.7749
8.7971
8.18047
8.21781
8.21634
8.17622
6.52673
6.45327
6.40486
6.40857
10.3713
10.1728
9.9338
9.72419
13.8753
13.587
13.2155
12.873
18.0043
17.6665
17.1582
16.6348
23.4882
23.1772
22.5866
21.9098
29.3023
29.061
28.4106
27.5639
32.9738
32.8719
32.2528
31.2865
21.4158
21.3844
21.0918
20.3486
8.43161
8.44045
8.45558
8.47956
8.00283
8.03758
8.03641
7.99961
5.62953
5.58478
5.55859
5.56497
7.29445
7.17033
7.03463
6.92625
9.09685
8.91198
8.69816
8.5196
11.3098
11.084
10.7877
10.5106
14.3272
14.0985
13.7521
13.4016
17.5069
17.299
16.9165
16.4889
19.4233
19.288
18.9288
18.4631
12.6896
12.6399
12.496
12.2129
8.18088
8.18488
8.19626
8.21847
7.82006
7.85235
7.85151
7.81766
5.30654
5.28083
5.26561
5.26876
5.96778
5.89488
5.81657
5.75584
6.81668
6.70451
6.57992
6.48177
7.92138
7.77751
7.59942
7.44276
9.50152
9.34252
9.12769
8.92929
11.1831
11.0204
10.7766
10.5371
12.2093
12.0791
11.8446
11.5911
8.68456
8.62978
8.53822
8.42016
7.95652
7.95751
7.96563
7.98452
7.62943
7.65921
7.65863
7.62764
5.17636
5.16239
5.15348
5.15427
5.4138
5.37247
5.32652
5.28982
5.79666
5.73157
5.65898
5.60273
6.31718
6.23053
6.12389
6.03233
7.09773
6.99512
6.86207
6.7454
7.93779
7.82336
7.66723
7.52667
8.50714
8.40482
8.24921
8.10081
6.87672
6.82974
6.76521
6.70726
7.73966
7.73879
7.74431
7.75958
7.42955
7.45679
7.45641
7.42828
5.11689
5.11015
5.10499
5.10421
5.17021
5.14752
5.12027
5.09686
5.34054
5.30392
5.26149
5.22778
5.58248
5.53254
5.46886
5.41345
5.96134
5.89936
5.81808
5.74745
6.36744
6.29389
6.19603
6.11149
6.70258
6.63266
6.53156
6.44044
6.02838
5.99289
5.94742
5.9145
7.52063
7.51871
7.52231
7.53429
7.21964
7.24431
7.24408
7.21884
5.0856
5.08343
5.0805
5.07848
5.05257
5.04073
5.0246
5.00921
5.12431
5.10435
5.07958
5.05879
5.23644
5.20866
5.17076
5.13633
5.42375
5.38805
5.33888
5.29506
5.62282
5.57826
5.51803
5.46625
5.83842
5.79479
5.73052
5.67263
5.6048
5.57927
5.54823
5.52868
7.29531
7.29289
7.29516
7.30438
6.99929
7.02126
7.02112
6.9988
5.06639
5.06734
5.06571
5.06251
4.98962
4.98407
4.97465
4.96434
5.01364
5.00325
4.98897
4.976
5.06393
5.04916
5.02689
5.00534
5.15881
5.13914
5.10982
5.08239
5.26042
5.23451
5.19812
5.16631
5.41431
5.38891
5.34896
5.31154
5.38229
5.36413
5.34373
5.33275
7.0618
7.05925
7.06063
7.0676
6.76808
6.78726
6.78717
6.76779
5.05289
5.05619
5.0553
5.05082
4.95252
4.95054
4.94518
4.93813
4.95259
4.94755
4.9395
4.93143
4.97284
4.96549
4.95271
4.93935
5.02185
5.0116
4.99453
4.9775
5.07672
5.06219
5.04076
5.02157
5.19795
5.18425
5.16008
5.13584
5.26124
5.2481
5.23521
5.23013
6.81905
6.81662
6.81743
6.82261
6.52573
6.54206
6.54201
6.52556
5.04243
5.04778
5.0473
5.04133
4.92888
4.92887
4.92592
4.92098
4.91664
4.91444
4.91003
4.90506
4.92224
4.91891
4.91182
4.90373
4.94806
4.9431
4.9335
4.92317
4.98011
4.97225
4.96009
4.94895
5.08318
5.0766
5.06248
5.04686
5.19344
5.18357
5.17578
5.17475
6.56644
6.56429
6.56474
6.5685
6.27208
6.28555
6.28552
6.27199
5.03382
5.04122
5.04095
5.03323
4.91307
4.91411
4.91257
4.90895
4.89444
4.89363
4.89128
4.88828
4.89302
4.89168
4.8879
4.8832
4.90696
4.90476
4.89957
4.89354
4.92758
4.92348
4.91689
4.91079
5.01923
5.01678
5.00885
4.99878
5.15397
5.14619
5.14173
5.14336
6.30362
6.30185
6.30208
6.30473
6.00717
6.01782
6.0178
6.00712
5.02639
5.03593
5.03578
5.02604
4.90222
4.90382
4.90307
4.90023
4.88041
4.8802
4.87899
4.87723
4.87585
4.87535
4.87343
4.87087
4.88356
4.88262
4.87994
4.8766
4.89793
4.89583
4.89246
4.88937
4.98029
4.9801
4.97581
4.96915
5.12902
5.12269
5.1203
5.12348
6.03054
6.02918
6.02928
6.03107
5.73141
5.73933
5.73932
5.73139
5.0191
5.03076
5.03067
5.01888
4.89439
4.89625
4.89593
4.89354
4.87146
4.87147
4.87087
4.86987
4.86599
4.86574
4.8648
4.86356
4.87028
4.86981
4.86846
4.86677
4.88018
4.87913
4.87749
4.87605
4.95226
4.95318
4.95084
4.94613
5.10959
5.10451
5.10334
5.10705
5.74754
5.74659
5.74662
5.74775
5.44566
5.45103
5.45103
5.44565
5.00828
5.02146
5.0214
5.00812
4.88768
4.88948
4.88936
4.88737
4.86557
4.86562
4.86533
4.8648
4.8609
4.86067
4.86023
4.85976
4.86321
4.86284
4.86216
4.86143
4.86873
4.86821
4.86746
4.86683
4.92669
4.92778
4.92638
4.92294
5.08525
5.0818
5.08132
5.08437
5.45558
5.45506
5.45506
5.45563
5.15
5.15325
5.15324
5.15
4.97772
4.98998
4.98994
4.97762
4.87986
4.88099
4.88095
4.87977
4.86174
4.86174
4.86161
4.8614
4.85923
4.859
4.85879
4.85871
4.86033
4.85999
4.85965
4.85942
4.86183
4.86159
4.86128
4.86105
4.89904
4.89911
4.89814
4.89645
5.03089
5.03009
5.03004
5.031
5.15465
5.15449
5.15448
5.15464
10.1988
9.42388
9.03251
8.87802
8.81136
8.76111
8.71323
8.67068
8.63795
8.61636
182.994
97.0273
60.5041
48.638
42.0278
36.8036
32.7185
29.7059
27.8448
27.2044
255.999
119.856
86.1828
72.2174
64.8618
59.545
55.8606
53.3952
51.9642
51.869
307.542
134.064
97.4848
79.6564
69.6435
62.6528
57.8847
54.6831
52.7078
52.5701
380.228
157.877
108.927
85.201
71.532
62.4271
56.2685
52.1343
49.4252
49.0469
450.283
192.867
121.454
90.4743
72.7088
61.3281
53.6089
48.426
44.9542
44.1446
513.174
220.828
126.264
90.761
70.3807
57.7608
49.1913
43.4879
39.604
38.4869
544.112
223.803
114.563
79.4013
59.0956
47.0532
39.0541
33.9511
30.5689
29.4779
410.413
139.124
57.3997
36.4157
24.9661
19.1648
15.9066
14.1707
13.0948
12.7399
13.1348
10.5423
9.82896
9.5528
9.38138
9.27106
9.19926
9.14915
9.10917
9.08035
9.75858
9.18279
8.91417
8.78
8.70192
8.6452
8.59882
8.56152
8.53442
8.5174
121.815
67.966
47.1454
37.7155
32.0185
27.6941
24.3439
21.8668
20.2997
19.6368
174.039
93.3147
68.6383
56.943
50.2937
45.6042
42.3669
40.2441
39.0552
38.9246
209.793
107.548
78.7276
63.6651
54.9106
48.943
44.9235
42.3029
40.7328
40.5484
261.146
126.414
88.7965
68.9198
57.3655
49.762
44.6831
41.3588
39.1834
38.7218
342.051
154.721
100.681
74.6285
59.6514
50.0855
43.6533
39.403
36.5144
35.6102
412.691
179.188
106.595
76.3332
58.9816
48.2408
41.0013
36.2478
32.9303
31.6994
454.17
184.876
98.8254
68.2222
50.6134
40.1788
33.2942
28.9566
26.0037
24.8171
343.35
116.93
50.8049
32.1075
22.0907
17.0377
14.1998
12.7049
11.7484
11.36
11.8889
10.1955
9.62064
9.37925
9.23187
9.13562
9.0713
9.02494
8.98635
8.95431
9.04075
8.81153
8.68353
8.6085
8.55266
8.50758
8.4716
8.44426
8.4254
8.41403
52.3926
40.1629
32.2828
26.6048
22.3636
19.1577
16.7937
15.1284
14.1169
13.693
81.854
60.9927
49.4745
41.5671
36.3057
32.6189
30.1233
28.5357
27.7103
27.6689
104.013
73.1846
57.8404
47.2751
40.5372
35.9767
32.9329
30.9984
29.9188
29.8482
129.181
86.6306
65.6883
51.8211
43.1753
37.4571
33.6495
31.205
29.6776
29.3787
166.419
105.731
75.2013
57.1388
45.9343
38.6549
33.7457
30.537
28.4129
27.7355
208.006
123.087
80.612
59.5464
46.3761
38.0617
32.4391
28.7855
26.2807
25.3162
236.283
127.637
75.64
54.1939
40.5505
32.347
26.9303
23.5576
21.3039
20.3791
173.554
78.5438
38.3228
25.6179
18.08
14.3201
12.1946
11.0731
10.3607
10.0808
10.5148
9.74398
9.38136
9.20207
9.08559
9.00769
8.95273
8.91101
8.87342
8.84078
8.66994
8.54825
8.47487
8.427
8.38973
8.36012
8.33721
8.32032
8.30909
8.30278
27.7261
23.8703
20.2017
17.0342
14.5501
12.6978
11.3786
10.4816
9.95817
9.74971
45.8216
38.7564
32.8721
28.134
24.6863
22.2301
20.5647
19.5175
19.0021
19.006
59.0954
48.3351
39.6062
33.0085
28.4762
25.3606
23.2693
21.9544
21.2633
21.2562
74.0681
58.4136
45.7659
36.9592
31.088
27.1393
24.4999
22.827
21.8342
21.6717
95.7225
72.032
53.3654
41.6955
33.9186
28.7582
25.2588
22.992
21.5448
21.0982
119.95
84.0784
58.2305
44.3689
35.0039
28.972
24.8811
22.2526
20.5056
19.8388
136.467
87.1538
55.4815
41.1329
31.2183
25.1851
21.2084
18.7669
17.185
16.5502
97.1418
51.4416
27.7463
19.6282
14.4806
11.9248
10.4531
9.66914
9.17387
8.98953
9.75263
9.34591
9.12595
8.99854
8.91252
8.85153
8.80613
8.77026
8.73597
8.70553
8.39847
8.32099
8.27918
8.25157
8.23036
8.21356
8.20049
8.19084
8.18463
8.18148
15.1029
13.6729
12.0878
10.6724
9.55331
8.72529
8.14326
7.7506
7.52836
7.44941
26.1222
23.3408
20.4952
18.0768
16.1961
14.8136
13.8654
13.2738
13.0001
13.0282
34.6367
30.137
25.5454
21.9515
19.3011
17.4227
16.1443
15.3438
14.9442
14.9662
44.2394
37.1848
30.2024
25.1939
21.6204
19.1547
17.495
16.4545
15.8663
15.7933
57.7832
46.6034
36.0681
29.1371
24.1946
20.8275
18.5283
17.0505
16.1398
15.8724
72.5134
54.8596
40.2321
31.686
25.5305
21.4715
18.7098
16.9557
15.8258
15.4027
82.2302
57.0337
39.0897
29.9607
23.2931
19.1751
16.4658
14.825
13.7941
13.3948
55.8262
32.2172
19.647
14.8088
11.6213
10.0052
9.04218
8.51986
8.18964
8.07336
9.22034
9.00465
8.88408
8.79885
8.73755
8.6902
8.65283
8.62219
8.59148
8.56369
8.19026
8.13284
8.10585
8.08922
8.0769
8.06713
8.05949
8.05392
8.05059
8.0493
8.97119
8.51776
7.94232
7.41767
7.00017
6.69041
6.47098
6.32018
6.23811
6.21765
15.1468
14.0514
12.7977
11.6785
10.768
10.0909
9.6317
9.35452
9.24224
9.28346
20.3051
18.3864
16.2126
14.4174
13.0196
12.0087
11.3187
10.8917
10.6926
10.7297
26.159
22.9014
19.4536
16.8191
14.8405
13.4497
12.5153
11.9401
11.6323
11.6172
34.4175
29.0315
23.6742
19.8225
16.9339
14.9193
13.5403
12.6625
12.1394
12.0009
43.1649
34.462
26.922
21.9554
18.2216
15.7007
13.9841
12.9068
12.2314
11.9886
48.6927
36.0214
26.7059
21.2019
17.0737
14.4758
12.769
11.7465
11.1209
10.8926
31.465
19.9771
14.0189
11.3349
9.51653
8.5446
7.93888
7.60184
7.3875
7.31675
8.82699
8.7213
8.65861
8.60294
8.55916
8.52224
8.49152
8.46557
8.43862
8.41385
8.01139
7.96298
7.9423
7.9308
7.92269
7.91639
7.91155
7.9082
7.90648
7.90621
6.50186
6.37157
6.1809
6.00326
5.85963
5.75082
5.67163
5.61558
5.58774
5.58793
9.49099
9.05531
8.54292
8.07353
7.68879
7.40892
7.22789
7.12765
7.10114
7.14222
12.4008
11.5805
10.6206
9.79038
9.1304
8.65399
8.33379
8.14052
8.06121
8.10127
15.755
14.2701
12.6797
11.3889
10.4003
9.70596
9.24777
8.97487
8.84051
8.85648
20.5757
18.0537
15.4903
13.4802
11.9355
10.8456
10.1034
9.63653
9.36792
9.31165
25.6111
21.4768
17.797
15.0814
13.0011
11.5726
10.6026
10.001
9.63186
9.50861
28.6803
22.5949
18.0072
14.8941
12.551
11.0472
10.0589
9.47071
9.119
9.00279
18.128
13.0124
10.4188
9.01777
8.0376
7.47203
7.10232
6.89015
6.75399
6.7122
8.52247
8.47583
8.44335
8.40688
8.37516
8.34636
8.32132
8.29967
8.27661
8.25511
7.83985
7.79608
7.7786
7.76956
7.76349
7.75892
7.75556
7.7534
7.75254
7.75281
5.60545
5.56349
5.49269
5.42594
5.37155
5.32997
5.29927
5.27737
5.26856
5.27403
6.81936
6.65223
6.46027
6.28396
6.14273
6.04604
5.99028
5.96675
5.97284
6.00551
8.30018
7.97127
7.58174
7.23632
6.96294
6.76953
6.64343
6.57044
6.54853
6.58264
10.0795
9.44179
8.76014
8.18841
7.75406
7.45514
7.26468
7.15775
7.11366
7.13978
12.759
11.6464
10.4847
9.52015
8.77649
8.25148
7.89695
7.67643
7.55505
7.54258
15.5591
13.7041
11.985
10.6139
9.56115
8.83037
8.33518
8.0308
7.84709
7.79349
17.2483
14.4999
12.3364
10.7159
9.50166
8.70466
8.17778
7.865
7.68281
7.63284
11.3364
9.3052
8.24009
7.53932
7.02773
6.70522
6.48421
6.35282
6.2674
6.24304
8.26705
8.24926
8.2315
8.20722
8.18397
8.16166
8.14155
8.12382
8.10467
8.08656
7.66509
7.62505
7.60971
7.6021
7.59714
7.59353
7.59098
7.58946
7.58905
7.58957
5.27535
5.25355
5.21766
5.18505
5.15929
5.14019
5.12631
5.11666
5.11403
5.11951
5.69567
5.62357
5.54857
5.4822
5.43266
5.40326
5.39147
5.39283
5.40585
5.42856
6.37173
6.24509
6.09672
5.96473
5.86224
5.79231
5.7491
5.72608
5.72507
5.7499
7.21915
6.96573
6.70128
6.47741
6.31134
6.20139
6.13577
6.10376
6.09748
6.1218
8.60299
8.154
7.67208
7.25781
6.93928
6.71447
6.56351
6.47073
6.42345
6.4292
10.0762
9.31139
8.56763
7.94482
7.46577
7.12833
6.89828
6.7578
6.67443
6.65593
11.0084
9.869
8.91992
8.1555
7.58038
7.19092
6.9303
6.77621
6.69036
6.6754
8.10182
7.37977
6.95408
6.61303
6.35046
6.16905
6.03866
5.95798
5.90436
5.88988
8.03425
8.02864
8.01809