/*--------------------------------*- C++ -*----------------------------------*\
| =========                 |                                                 |
| \\      /  F ield         | foam-extend: Open Source CFD                    |
|  \\    /   O peration     | Version:     4.0                                |
|   \\  /    A nd           | Web:         http://www.foam-extend.org         |
|    \\/     M anipulation  |                                                 |
\*---------------------------------------------------------------------------*/
FoamFile
{
    version     2.0;
    format      ascii;
    class       volScalarField;
    location    "400";
    object      MaU;
}
// * * * * * * * * * * * * * * * * * * * * * * * * * * * * * * * * * * * * * //

dimensions      [0 0 0 0 0 0 0];

internalField   nonuniform List<scalar> 
34480
(
0.585085
0.59046
0.595786
0.601263
0.607249
0.613688
0.618813
0.617003
0.599112
0.540012
0.588234
0.594643
0.600769
0.606725
0.613023
0.62019
0.627667
0.631627
0.624556
0.577672
0.588971
0.596204
0.6033
0.610399
0.617883
0.626497
0.636356
0.644694
0.645832
0.610345
0.588262
0.596942
0.605572
0.614316
0.623442
0.633635
0.645408
0.657
0.66459
0.637981
0.587714
0.597624
0.607502
0.617599
0.628129
0.639686
0.653011
0.667235
0.680315
0.660991
0.586211
0.597068
0.60785
0.618916
0.630449
0.643016
0.657486
0.673841
0.691838
0.679268
0.58538
0.596795
0.608021
0.619532
0.631499
0.644508
0.659576
0.677611
0.7002
0.694134
0.584216
0.595839
0.607132
0.618622
0.63045
0.643195
0.658025
0.67691
0.703701
0.704456
0.584484
0.596034
0.607176
0.618489
0.630074
0.642374
0.656515
0.675488
0.706059
0.712865
0.580656
0.592209
0.603334
0.614496
0.625569
0.63677
0.649079
0.666243
0.699236
0.713078
0.562468
0.565593
0.567614
0.568198
0.566969
0.563179
0.555598
0.542598
0.520028
0.470115
0.571476
0.57612
0.57981
0.582154
0.582828
0.581214
0.57589
0.564762
0.544814
0.495287
0.575808
0.581528
0.586524
0.590581
0.593324
0.594294
0.59217
0.5844
0.568368
0.520935
0.57741
0.584616
0.591282
0.597232
0.60212
0.605448
0.606042
0.60129
0.589073
0.544585
0.578379
0.586848
0.594873
0.602353
0.609017
0.614306
0.617186
0.615164
0.606579
0.565292
0.578017
0.587499
0.59655
0.605182
0.613161
0.61998
0.62472
0.625151
0.620043
0.582015
0.578017
0.58814
0.59778
0.607069
0.615818
0.623622
0.62974
0.632395
0.630924
0.597097
0.577401
0.58784
0.59772
0.607255
0.616279
0.624483
0.631334
0.635696
0.637979
0.609507
0.577749
0.588171
0.598024
0.60759
0.616759
0.625233
0.63251
0.638054
0.64412
0.621177
0.574277
0.584706
0.594628
0.604187
0.613164
0.621222
0.62799
0.633362
0.642665
0.626495
0.545265
0.547049
0.547494
0.54639
0.543364
0.537912
0.529339
0.516824
0.498958
0.472876
0.557163
0.560417
0.562471
0.562932
0.561338
0.556922
0.548571
0.534766
0.513284
0.480041
0.563774
0.568218
0.571634
0.57371
0.573945
0.571532
0.565018
0.552205
0.52999
0.491392
0.567135
0.573033
0.578077
0.58198
0.584199
0.583886
0.579369
0.567905
0.545693
0.502971
0.569352
0.576507
0.582929
0.588368
0.59233
0.593907
0.591329
0.581477
0.559976
0.514574
0.569972
0.578174
0.585686
0.592338
0.597697
0.600841
0.599995
0.591854
0.571594
0.524835
0.570698
0.579602
0.587807
0.595242
0.601543
0.605842
0.606456
0.600125
0.581738
0.535044
0.570621
0.579923
0.588495
0.596351
0.603179
0.608197
0.609877
0.605224
0.589187
0.543777
0.571261
0.580599
0.589216
0.597188
0.60431
0.609893
0.612519
0.609452
0.596096
0.552017
0.568349
0.57768
0.586378
0.594368
0.601358
0.606699
0.609418
0.607164
0.596497
0.553905
0.532668
0.5336
0.533325
0.531723
0.528611
0.523797
0.517154
0.508763
0.498815
0.486889
0.545268
0.547395
0.548296
0.547677
0.545192
0.540365
0.532629
0.521451
0.506361
0.487402
0.553101
0.556383
0.558506
0.559148
0.557872
0.554024
0.54668
0.534703
0.516859
0.492108
0.557692
0.562331
0.565915
0.568117
0.56838
0.565915
0.55945
0.547243
0.527251
0.497028
0.560908
0.566757
0.571645
0.575256
0.577002
0.575974
0.570631
0.558686
0.537263
0.502369
0.562379
0.569274
0.575249
0.580037
0.583063
0.58334
0.579144
0.567748
0.54547
0.506745
0.563765
0.571397
0.57812
0.583736
0.58772
0.589069
0.585976
0.575447
0.553092
0.511778
0.564191
0.572283
0.579458
0.585593
0.590221
0.592371
0.590245
0.580745
0.559002
0.516222
0.565046
0.573239
0.58053
0.586843
0.591828
0.594617
0.593504
0.585326
0.564932
0.521019
0.562501
0.570715
0.578134
0.584538
0.58954
0.592286
0.591417
0.58409
0.565636
0.520932
0.52453
0.525029
0.524625
0.523275
0.520927
0.517561
0.513262
0.508383
0.50366
0.499443
0.536152
0.537511
0.537811
0.536874
0.534507
0.530485
0.524611
0.51683
0.507362
0.497085
0.544085
0.546448
0.547702
0.547591
0.545807
0.541939
0.535517
0.526128
0.513621
0.498797
0.549241
0.552803
0.555265
0.556329
0.555548
0.552332
0.54589
0.535339
0.51999
0.500377
0.553065
0.557748
0.561363
0.563601
0.56392
0.561581
0.555483
0.544246
0.526487
0.502242
0.555138
0.560829
0.565464
0.568752
0.570107
0.56867
0.563079
0.551479
0.531702
0.503124
0.557024
0.563463
0.568849
0.572934
0.575139
0.574531
0.569562
0.557987
0.536831
0.504628
0.557864
0.564804
0.570688
0.575323
0.578167
0.578264
0.573963
0.562729
0.540857
0.505817
0.55894
0.566041
0.572097
0.576954
0.580157
0.580822
0.577323
0.566903
0.545179
0.507801
0.556709
0.563865
0.570088
0.575084
0.578393
0.579124
0.575858
0.565963
0.545174
0.506014
0.519732
0.520017
0.519692
0.518754
0.517211
0.515104
0.512564
0.509956
0.508082
0.507622
0.52956
0.530414
0.530447
0.529564
0.527684
0.524739
0.52071
0.515697
0.509995
0.504259
0.536829
0.538483
0.539185
0.538757
0.537015
0.533746
0.528775
0.522048
0.513784
0.504807
0.541997
0.544658
0.54629
0.546653
0.545439
0.542273
0.536745
0.528533
0.517625
0.505029
0.546063
0.549719
0.552308
0.553563
0.553056
0.550263
0.544513
0.535128
0.521703
0.505294
0.548487
0.553079
0.55657
0.558688
0.558922
0.556614
0.550834
0.540517
0.524714
0.504414
0.550709
0.556031
0.560229
0.563052
0.563952
0.562168
0.556548
0.545652
0.52788
0.503972
0.551852
0.557695
0.562399
0.565745
0.567194
0.565921
0.560612
0.549491
0.530273
0.50322
0.55311
0.559164
0.564081
0.567673
0.569442
0.568591
0.563766
0.552931
0.533088
0.503392
0.551117
0.557256
0.562369
0.566131
0.568055
0.567315
0.562642
0.551962
0.532248
0.500495
0.517229
0.517411
0.517207
0.516631
0.515708
0.514484
0.513071
0.511781
0.51138
0.512847
0.525066
0.525603
0.525555
0.524875
0.523539
0.521548
0.518944
0.515839
0.512445
0.509134
0.531243
0.532377
0.532756
0.53227
0.530823
0.528328
0.524748
0.520156
0.514798
0.509209
0.536014
0.537954
0.539006
0.538996
0.537736
0.535018
0.530672
0.524646
0.517146
0.508959
0.540003
0.54279
0.544593
0.545202
0.544318
0.541609
0.536721
0.5294
0.519691
0.50861
0.542541
0.546163
0.548722
0.549985
0.54956
0.546991
0.541714
0.533217
0.521255
0.507036
0.544933
0.54924
0.552427
0.554266
0.554301
0.551965
0.546493
0.537082
0.523067
0.505737
0.546258
0.55108
0.554748
0.557045
0.557492
0.555445
0.549965
0.539959
0.524253
0.504051
0.547646
0.552715
0.55662
0.559164
0.55987
0.558082
0.552782
0.542643
0.525936
0.503325
0.545823
0.550999
0.555111
0.557835
0.558703
0.557019
0.551769
0.541502
0.52442
0.499959
0.516136
0.516266
0.516158
0.515833
0.515313
0.514635
0.513882
0.513308
0.513635
0.516101
0.522165
0.522505
0.522454
0.521989
0.52111
0.519835
0.518211
0.51632
0.514287
0.512295
0.527116
0.527881
0.528083
0.527659
0.526566
0.524782
0.522322
0.519272
0.515805
0.512212
0.531247
0.53263
0.533294
0.533123
0.532013
0.529868
0.526641
0.522381
0.517297
0.511872
0.53492
0.536995
0.538222
0.538442
0.53747
0.535118
0.531233
0.525773
0.518918
0.511375
0.537373
0.540165
0.541994
0.542673
0.54193
0.539478
0.535021
0.528373
0.519602
0.50966
0.539785
0.543195
0.545555
0.546671
0.546198
0.543751
0.538876
0.5312
0.52057
0.50814
0.541167
0.545065
0.547857
0.549344
0.549141
0.546783
0.541668
0.53321
0.520952
0.506144
0.542632
0.546794
0.549824
0.551539
0.551525
0.549284
0.544118
0.535267
0.521919
0.505158
0.540916
0.545194
0.548429
0.550312
0.550438
0.548258
0.543045
0.533891
0.519934
0.501687
0.515826
0.515925
0.515878
0.515705
0.515424
0.515061
0.514674
0.514472
0.515141
0.518124
0.520391
0.520607
0.520576
0.520283
0.519736
0.518951
0.517961
0.516816
0.515578
0.514323
0.524173
0.524684
0.524794
0.524472
0.5237
0.522481
0.520841
0.518844
0.516588
0.514204
0.527572
0.528539
0.528954
0.528744
0.527856
0.526259
0.523958
0.521021
0.517596
0.513935
0.530779
0.532291
0.53311
0.533124
0.532227
0.530329
0.527386
0.523442
0.518672
0.513496
0.532999
0.535104
0.536383
0.536693
0.535862
0.533728
0.530165
0.525154
0.51886
0.511907
0.535312
0.537953
0.53966
0.540278
0.539566
0.537286
0.533205
0.527202
0.519357
0.510501
0.536637
0.53972
0.541797
0.542695
0.542128
0.539788
0.535332
0.528508
0.519249
0.508539
0.538129
0.541475
0.543773
0.544863
0.544418
0.542086
0.537437
0.530103
0.519835
0.507657
0.536465
0.539925
0.542412
0.543645
0.543301
0.540978
0.536204
0.528485
0.51756
0.504274
0.515895
0.515974
0.515959
0.515872
0.515724
0.515533
0.515341
0.515323
0.51613
0.51937
0.519362
0.519502
0.519489
0.519315
0.518987
0.518515
0.517919
0.517222
0.51645
0.51562
0.522131
0.522468
0.522534
0.52231
0.521793
0.520989
0.519919
0.518619
0.517132
0.515493
0.52482
0.525485
0.525745
0.525556
0.524894
0.523756
0.522164
0.520175
0.51787
0.515351
0.527493
0.528573
0.529113
0.529038
0.528291
0.52684
0.524692
0.521912
0.518626
0.515042
0.529393
0.530944
0.531822
0.531922
0.531141
0.5294
0.526671
0.523004
0.51856
0.513692
0.531523
0.533523
0.534732
0.535032
0.534266
0.5323
0.529043
0.524505
0.518835
0.512557
0.532696
0.53508
0.53659
0.537086
0.536371
0.534254
0.530573
0.525269
0.518451
0.510785
0.534178
0.536808
0.538511
0.539156
0.538501
0.536319
0.532377
0.526552
0.518882
0.510169
0.532517
0.53525
0.537117
0.537874
0.537279
0.535061
0.530948
0.524724
0.516456
0.506964
0.516108
0.516173
0.516173
0.51613
0.516053
0.515954
0.515862
0.515926
0.516764
0.52011
0.518801
0.518891
0.518889
0.518791
0.518599
0.518319
0.51796
0.517529
0.517032
0.516453
0.52074
0.52096
0.521003
0.520858
0.520524
0.520008
0.51932
0.518475
0.517478
0.51631
0.52281
0.52326
0.523425
0.523278
0.52281
0.522028
0.520955
0.519624
0.518071
0.5163
0.524946
0.525702
0.526054
0.525956
0.525378
0.524317
0.522797
0.520877
0.518631
0.516126
0.526488
0.527607
0.528201
0.528194
0.527532
0.526185
0.524168
0.521552
0.518456
0.515043
0.528393
0.529873
0.530713
0.530826
0.530117
0.528521
0.526024
0.522689
0.518665
0.514234
0.529342
0.531141
0.532216
0.532456
0.531734
0.529946
0.527037
0.523046
0.518132
0.512695
0.530793
0.532812
0.534044
0.53439
0.533683
0.531787
0.528602
0.524139
0.518549
0.512394
0.529096
0.5312
0.532569
0.532994
0.532311
0.530348
0.526978
0.522149
0.516064
0.509393
0.516341
0.516395
0.5164
0.516381
0.51634
0.516288
0.516246
0.516339
0.517148
0.520507
0.518516
0.518574
0.518578
0.518524
0.518413
0.518247
0.518029
0.517756
0.517424
0.516999
0.519795
0.519938
0.519967
0.519877
0.519668
0.519343
0.518906
0.518354
0.517673
0.516815
0.521376
0.521676
0.521781
0.521676
0.521359
0.520838
0.520129
0.519249
0.518198
0.516929
0.523009
0.523528
0.523756
0.523665
0.523243
0.522495
0.521449
0.520147
0.518623
0.516855
0.524202
0.524991
0.525386
0.525337
0.524815
0.523816
0.522372
0.520547
0.518418
0.516022
0.525869
0.526939
0.527512
0.527527
0.52693
0.525696
0.523848
0.521461
0.518651
0.515536
0.526544
0.527869
0.528618
0.528707
0.528061
0.526631
0.52442
0.521504
0.518033
0.514208
0.527966
0.529478
0.530349
0.530508
0.529845
0.528292
0.525823
0.52251
0.518523
0.514226
0.526199
0.527776
0.528755
0.528965
0.528301
0.526667
0.524022
0.520399
0.516033
0.511416
0.516535
0.51658
0.516587
0.516578
0.516557
0.516529
0.516509
0.516605
0.517348
0.520656
0.518389
0.518427
0.518433
0.518403
0.518339
0.51824
0.518104
0.517927
0.517695
0.517369
0.519142
0.519234
0.519254
0.519201
0.519073
0.518872
0.518595
0.518234
0.51776
0.517111
0.520373
0.520569
0.520637
0.520566
0.520358
0.520019
0.519559
0.518983
0.51827
0.517344
0.521559
0.521908
0.522055
0.521983
0.521687
0.521176
0.520474
0.519607
0.518579
0.517323
0.522439
0.522983
0.523242
0.523183
0.522793
0.522081
0.521076
0.519831
0.518385
0.516703
0.523882
0.524638
0.525022
0.524993
0.524523
0.523609
0.522284
0.520617
0.518686
0.516506
0.524253
0.525205
0.525715
0.525724
0.52519
0.524099
0.522477
0.520404
0.517998
0.515331
0.525668
0.526773
0.527375
0.527426
0.526859
0.525647
0.523804
0.521415
0.518629
0.515662
0.523801
0.524949
0.525632
0.525714
0.525131
0.523838
0.521842
0.519208
0.516148
0.513
0.516666
0.516706
0.516712
0.516708
0.516695
0.51668
0.51667
0.516754
0.51741
0.520609
0.518352
0.518377
0.518383
0.518367
0.518329
0.518268
0.518182
0.518063
0.517896
0.517638
0.51867
0.518728
0.518742
0.518711
0.518634
0.518511
0.518337
0.5181
0.517766
0.517267
0.519684
0.519811
0.519854
0.519809
0.519676
0.51946
0.519167
0.518793
0.518309
0.517626
0.520485
0.520715
0.520809
0.520756
0.520556
0.520217
0.519756
0.519188
0.518502
0.517605
0.521105
0.521472
0.521639
0.521586
0.521308
0.520815
0.520135
0.519303
0.518335
0.517157
0.522354
0.522875
0.523128
0.523085
0.522734
0.522082
0.521161
0.520023
0.518719
0.517203
0.522405
0.52307
0.52341
0.523383
0.522969
0.522169
0.521017
0.519582
0.517948
0.516108
0.523857
0.524644
0.52505
0.525047
0.524595
0.523689
0.52236
0.520684
0.518777
0.51675
0.521856
0.522666
0.523131
0.523143
0.522669
0.521691
0.520238
0.518379
0.516283
0.514172
0.516725
0.51676
0.516764
0.516763
0.516755
0.516746
0.51674
0.516806
0.517359
0.520389
0.518376
0.518392
0.518396
0.518387
0.518364
0.518327
0.518271
0.518189
0.518065
0.517858
0.518299
0.518335
0.518344
0.518327
0.518281
0.518207
0.518099
0.517943
0.517708
0.517322
0.519222
0.519303
0.519331
0.519303
0.51922
0.519085
0.518901
0.518661
0.518335
0.517827
0.519695
0.519843
0.519902
0.519866
0.519735
0.519515
0.519219
0.518854
0.518401
0.51776
0.520115
0.520357
0.520463
0.520421
0.52023
0.5199
0.51945
0.518906
0.518269
0.517447
0.521203
0.521553
0.521717
0.521677
0.521426
0.520977
0.520354
0.519596
0.518732
0.517686
0.520929
0.52138
0.521601
0.521564
0.521258
0.520693
0.519899
0.518932
0.517844
0.516591
0.522484
0.523031
0.523298
0.523273
0.522932
0.522281
0.521354
0.520209
0.51893
0.517561
0.5203
0.520853
0.521162
0.521142
0.520778
0.520068
0.519048
0.517772
0.51637
0.514978
0.516695
0.516725
0.516728
0.516728
0.516723
0.516717
0.516712
0.516759
0.517197
0.51999
0.518453
0.518464
0.518467
0.518461
0.518447
0.518423
0.518387
0.51833
0.518238
0.51807
0.517978
0.517999
0.518005
0.517995
0.517968
0.517923
0.517857
0.517757
0.517592
0.517296
0.518923
0.518974
0.518991
0.518975
0.518924
0.518842
0.518729
0.518578
0.518361
0.517986
0.519123
0.519216
0.519252
0.519228
0.519143
0.519004
0.518817
0.518587
0.518293
0.517839
0.519404
0.519559
0.519625
0.519594
0.519467
0.519251
0.518961
0.518612
0.5182
0.517634
0.520356
0.520585
0.520689
0.520656
0.520485
0.520185
0.519775
0.519283
0.518723
0.51801
0.519757
0.520055
0.520194
0.520158
0.519941
0.519555
0.519024
0.518388
0.517678
0.516842
0.521501
0.521871
0.522043
0.522012
0.521768
0.521318
0.52069
0.519928
0.51909
0.518173
0.519046
0.519412
0.519611
0.519582
0.519316
0.51882
0.518126
0.517275
0.51636
0.51546
0.51651
0.516535
0.516538
0.516538
0.516536
0.516532
0.516528
0.516558
0.516876
0.519343
0.518601
0.518608
0.51861
0.518607
0.518598
0.518583
0.51856
0.518522
0.518455
0.518321
0.517678
0.517689
0.517692
0.517686
0.517669
0.517642
0.517602
0.517538
0.517426
0.517205
0.51874
0.518772
0.518783
0.518774
0.518744
0.518696
0.518628
0.518537
0.518397
0.518127
0.518725
0.518782
0.518804
0.518787
0.518733
0.518646
0.51853
0.518387
0.5182
0.517883
0.518924
0.519022
0.519062
0.51904
0.518957
0.518819
0.518635
0.518415
0.518154
0.517769
0.519753
0.519898
0.519963
0.519938
0.519825
0.519631
0.519369
0.519057
0.518704
0.518228
0.518852
0.519042
0.519128
0.519097
0.518948
0.518691
0.518342
0.517932
0.517477
0.516933
0.520878
0.521121
0.521229
0.521202
0.521033
0.520732
0.52032
0.519825
0.519289
0.518678
0.517963
0.518197
0.518321
0.518292
0.518106
0.517772
0.517313
0.516759
0.516176
0.515606
0.515966
0.515996
0.515999
0.516
0.515999
0.515997
0.515995
0.516011
0.516208
0.518234
0.51888
0.518886
0.518887
0.518886
0.518882
0.518875
0.518862
0.518839
0.518794
0.518693
0.517419
0.517423
0.517424
0.517418
0.517405
0.517387
0.51736
0.517319
0.517245
0.517084
0.518638
0.518659
0.518667
0.518662
0.518645
0.518618
0.518579
0.518527
0.518443
0.518259
0.518478
0.518512
0.518524
0.518513
0.518478
0.518423
0.51835
0.518261
0.518145
0.517931
0.518646
0.518706
0.51873
0.518714
0.518661
0.518573
0.518456
0.518318
0.518154
0.5179
0.519353
0.519444
0.519483
0.519465
0.519392
0.519268
0.519104
0.51891
0.518694
0.518388
0.518252
0.518372
0.518423
0.518399
0.518299
0.518128
0.5179
0.517634
0.51734
0.516992
0.520642
0.520797
0.520864
0.520842
0.52073
0.520533
0.520268
0.519953
0.519618
0.519207
0.516813
0.516962
0.517037
0.517014
0.516887
0.516665
0.516367
0.51601
0.515644
0.515284
0.514793
0.514801
0.514799
0.514795
0.514787
0.514777
0.514765
0.514758
0.514834
0.516241
0.519443
0.519449
0.519451
0.519453
0.519455
0.519457
0.519457
0.519452
0.519431
0.519369
0.517299
0.517299
0.517296
0.517288
0.517276
0.517258
0.517235
0.517203
0.517151
0.517037
0.518577
0.518591
0.518596
0.518594
0.518585
0.518569
0.518548
0.518521
0.518477
0.518366
0.518355
0.518376
0.518382
0.518373
0.518349
0.518312
0.518263
0.518206
0.518133
0.517996
0.518527
0.518565
0.518579
0.518568
0.518532
0.518473
0.518396
0.518306
0.518201
0.518039
0.519123
0.51918
0.519204
0.519191
0.519142
0.519061
0.518955
0.518833
0.518701
0.518514
0.518099
0.518178
0.51821
0.518192
0.518122
0.518006
0.51785
0.517666
0.51746
0.517226
0.520912
0.521009
0.521051
0.521034
0.520958
0.520828
0.520657
0.520457
0.520253
0.519978
0.515269
0.515375
0.515423
0.515406
0.515319
0.515169
0.514969
0.51473
0.514486
0.514238
0.512993
0.512995
0.512983
0.512965
0.512938
0.512903
0.512859
0.512805
0.512749
0.513238
0.520382
0.520389
0.520394
0.520401
0.520412
0.520426
0.520445
0.520467
0.520489
0.520497
0.517395
0.517393
0.517388
0.517378
0.517364
0.517344
0.517319
0.517286
0.517242
0.517158
0.518496
0.518505
0.518509
0.518507
0.5185
0.518489
0.518475
0.518459
0.518439
0.518389
0.518291
0.518305
0.518308
0.518301
0.518282
0.518253
0.518215
0.51817
0.518119
0.518037
0.518477
0.518504
0.518514
0.518505
0.518477
0.518433
0.518374
0.518306
0.518229
0.518126
0.518983
0.519024
0.51904
0.51903
0.518993
0.518932
0.518854
0.518764
0.518672
0.518561
0.518402
0.518463
0.518486
0.518471
0.518418
0.518329
0.51821
0.518065
0.517895
0.517703
0.521683
0.521751
0.521781
0.521767
0.52171
0.521614
0.521491
0.521353
0.521228
0.521082
0.513345
0.513449
0.51349
0.513478
0.513412
0.513298
0.513145
0.512961
0.512764
0.512538
0.33678
0.245333
0.240863
0.334615
0.330472
0.237155
0.230673
0.330778
0.322833
0.227907
0.218715
0.29865
0.31246
0.215571
0.20163
0.263585
0.301732
0.205154
0.188538
0.243233
0.292129
0.199254
0.183543
0.239184
0.28198
0.193374
0.178009
0.230299
0.26958
0.185035
0.169438
0.216889
0.256985
0.176883
0.160758
0.202566
0.244755
0.169437
0.150693
0.183279
0.368291
0.332529
0.325929
0.347827
0.370832
0.329749
0.321184
0.342211
0.370534
0.324548
0.309155
0.325937
0.368373
0.317634
0.295894
0.306264
0.3639
0.308706
0.281572
0.286703
0.356287
0.29725
0.265584
0.264905
0.349793
0.288662
0.254872
0.252096
0.343017
0.280648
0.245061
0.23906
0.336552
0.273396
0.236095
0.226169
0.330323
0.265364
0.224971
0.208783
0.437936
0.424882
0.420448
0.426061
0.439602
0.422343
0.416438
0.422734
0.437033
0.416918
0.408918
0.412681
0.432519
0.409357
0.398563
0.399788
0.427001
0.401077
0.3881
0.387849
0.419812
0.391441
0.376665
0.374859
0.412922
0.382429
0.365948
0.361876
0.405276
0.372984
0.354771
0.348081
0.398318
0.364964
0.345155
0.335361
0.392824
0.35958
0.337209
0.32156
0.467274
0.462603
0.460429
0.460696
0.470187
0.46212
0.458856
0.460116
0.468037
0.458173
0.453482
0.453662
0.4641
0.452207
0.445882
0.444902
0.459214
0.445335
0.437463
0.435276
0.452114
0.436232
0.426799
0.423238
0.44508
0.427326
0.416365
0.411164
0.437189
0.417755
0.405306
0.398289
0.429666
0.409169
0.395414
0.386144
0.421883
0.401756
0.386383
0.372613
0.485808
0.484605
0.483348
0.482024
0.489161
0.485074
0.483014
0.482962
0.487365
0.482181
0.479202
0.478408
0.484195
0.4777
0.47363
0.47192
0.480302
0.472459
0.467272
0.464576
0.474383
0.46513
0.458762
0.454953
0.4683
0.457644
0.450063
0.445015
0.461369
0.449404
0.440637
0.43425
0.455092
0.442233
0.432403
0.424262
0.448807
0.436189
0.425124
0.413212
0.496229
0.496599
0.495876
0.494071
0.500042
0.497767
0.496508
0.496266
0.498539
0.49555
0.493674
0.492928
0.49601
0.492162
0.489531
0.488116
0.492865
0.488101
0.484665
0.482513
0.487823
0.482072
0.477771
0.474806
0.482598
0.475848
0.470662
0.466822
0.476612
0.468917
0.462864
0.458089
0.471477
0.46315
0.456345
0.450314
0.465969
0.457857
0.450287
0.441523
0.502488
0.503637
0.50322
0.501251
0.506674
0.505327
0.504567
0.504389
0.505394
0.503549
0.502374
0.501883
0.503424
0.501009
0.499315
0.498353
0.500953
0.497922
0.495664
0.494171
0.496769
0.493071
0.490202
0.488122
0.492441
0.488064
0.484571
0.481878
0.487428
0.482406
0.478306
0.474968
0.483442
0.478015
0.473412
0.46921
0.478725
0.473427
0.468336
0.462271
0.506303
0.507873
0.507633
0.505593
0.510732
0.509888
0.50943
0.509355
0.509699
0.508495
0.507761
0.507506
0.508211
0.506618
0.50553
0.504953
0.506318
0.504307
0.502827
0.501876
0.502893
0.50043
0.498524
0.49716
0.499396
0.496476
0.49414
0.492353
0.49526
0.491912
0.489164
0.486942
0.492315
0.488728
0.485662
0.482873
0.488247
0.484747
0.481372
0.477364
0.508708
0.510524
0.510387
0.508297
0.51325
0.512689
0.512414
0.51242
0.51245
0.511629
0.511173
0.511084
0.511387
0.510297
0.5096
0.509296
0.509994
0.508618
0.507648
0.507084
0.507246
0.505559
0.504294
0.503441
0.504512
0.502515
0.500953
0.499809
0.501149
0.498872
0.497034
0.495597
0.499121
0.496709
0.494673
0.492871
0.495586
0.493249
0.491016
0.488423
0.510272
0.512245
0.512167
0.510034
0.514831
0.514437
0.514271
0.514331
0.514201
0.513615
0.513331
0.51335
0.513497
0.512726
0.512279
0.512156
0.512526
0.511558
0.510923
0.510621
0.510373
0.50919
0.50835
0.507846
0.508324
0.506928
0.505884
0.505179
0.505618
0.504038
0.502808
0.501906
0.504339
0.502684
0.501328
0.500191
0.501255
0.49968
0.498197
0.496537
0.511329
0.513407
0.513363
0.51119
0.515839
0.515548
0.515448
0.515538
0.515313
0.514877
0.514701
0.514785
0.514898
0.514333
0.514046
0.514039
0.514258
0.513557
0.513142
0.513011
0.512612
0.511764
0.511206
0.510936
0.511165
0.51017
0.509472
0.509063
0.508995
0.507878
0.507054
0.50651
0.508312
0.507157
0.506249
0.505549
0.505604
0.504534
0.503546
0.502488
0.512071
0.51422
0.514195
0.511989
0.516499
0.516273
0.516213
0.516318
0.516017
0.51568
0.515571
0.51569
0.515833
0.515406
0.515223
0.515284
0.515429
0.514909
0.514638
0.514615
0.514197
0.513576
0.513207
0.513087
0.51326
0.512537
0.512071
0.511857
0.511503
0.510699
0.510147
0.509839
0.511305
0.510485
0.509877
0.509461
0.508889
0.508158
0.507499
0.506828
0.512616
0.51481
0.514795
0.512568
0.516949
0.516767
0.516731
0.51684
0.516457
0.516189
0.516122
0.516256
0.516467
0.516135
0.516019
0.516118
0.51621
0.515816
0.51564
0.515682
0.515305
0.514842
0.514599
0.514574
0.514787
0.514253
0.513943
0.513854
0.51332
0.512734
0.512365
0.51221
0.513531
0.51294
0.512534
0.512303
0.511315
0.510815
0.510376
0.509955
0.513038
0.515247
0.515238
0.51301
0.517279
0.517129
0.517107
0.517213
0.516723
0.516505
0.516465
0.516601
0.516911
0.516649
0.516576
0.516692
0.516722
0.516419
0.516306
0.516384
0.51607
0.51572
0.515561
0.515594
0.515886
0.515487
0.515283
0.515272
0.514594
0.514162
0.513917
0.513858
0.515167
0.514736
0.514467
0.514354
0.513055
0.512712
0.512422
0.512163
0.513385
0.515571
0.515566
0.513369
0.517549
0.517423
0.51741
0.517508
0.516868
0.51669
0.516665
0.516795
0.517241
0.517031
0.516986
0.517105
0.517055
0.516818
0.516747
0.51684
0.516596
0.516328
0.516226
0.516289
0.516668
0.516368
0.516235
0.516269
0.515444
0.515123
0.514963
0.514963
0.516363
0.516044
0.515868
0.515831
0.514245
0.51401
0.513821
0.513666
0.513681
0.515791
0.515788
0.513673
0.517805
0.5177
0.517692
0.51778
0.516921
0.516775
0.516761
0.516878
0.517507
0.517338
0.51731
0.517423
0.517275
0.517089
0.517045
0.517141
0.516964
0.516759
0.516694
0.51677
0.517224
0.516997
0.516912
0.516968
0.515971
0.515733
0.515629
0.515661
0.517248
0.51701
0.516896
0.516905
0.514985
0.514825
0.514703
0.514614
0.5139
0.515856
0.515855
0.513896
0.518098
0.518011
0.518005
0.518081
0.5169
0.516783
0.516775
0.516875
0.51774
0.517606
0.51759
0.517689
0.517436
0.517292
0.517264
0.517354
0.517246
0.517089
0.517048
0.517125
0.517625
0.517455
0.517401
0.517465
0.516275
0.516098
0.516033
0.516079
0.517949
0.517767
0.517695
0.517731
0.515304
0.515196
0.515118
0.515071
0.513882
0.515572
0.515571
0.51388
0.518509
0.518439
0.518436
0.518498
0.516844
0.516752
0.516747
0.51683
0.517956
0.517853
0.517843
0.517925
0.517582
0.517472
0.517455
0.517533
0.517497
0.517378
0.517353
0.517422
0.517937
0.517811
0.517777
0.517837
0.516495
0.516363
0.516322
0.516371
0.518619
0.518478
0.518433
0.518483
0.515098
0.515025
0.514977
0.514953
0.513269
0.514525
0.514525
0.513268
0.519222
0.519171
0.519169
0.519215
0.516851
0.51678
0.516777
0.516843
0.518144
0.518069
0.518063
0.518125
0.517735
0.517653
0.517642
0.517704
0.517738
0.51765
0.517634
0.517691
0.518194
0.518104
0.518083
0.51813
0.516828
0.516727
0.5167
0.516749
0.519505
0.519392
0.519363
0.519417
0.514117
0.514067
0.514037
0.514024
0.511991
0.512548
0.512548
0.51199
0.520423
0.520406
0.520404
0.520418
0.517018
0.516964
0.516963
0.517012
0.518251
0.518204
0.5182
0.518238
0.517858
0.517803
0.517795
0.517837
0.51792
0.51786
0.517849
0.517887
0.518362
0.518303
0.518288
0.518316
0.51735
0.517265
0.517246
0.517293
0.520808
0.520731
0.520709
0.520743
0.512413
0.512372
0.51235
0.512346
0.485531
0.519527
0.53292
0.541167
0.548458
0.555675
0.562392
0.568542
0.574275
0.579707
0.472791
0.495525
0.514591
0.529119
0.54109
0.551022
0.559744
0.567611
0.574879
0.581658
0.452508
0.477769
0.504861
0.521942
0.536273
0.547831
0.557831
0.566721
0.57474
0.581929
0.427385
0.45876
0.490552
0.510982
0.527548
0.540923
0.552483
0.562746
0.57198
0.580124
0.401027
0.441588
0.477699
0.501506
0.520129
0.53519
0.548101
0.559539
0.569788
0.57868
0.368247
0.424625
0.464664
0.491894
0.512402
0.529034
0.543154
0.555635
0.566799
0.57639
0.337688
0.411351
0.45444
0.484972
0.506958
0.524927
0.540008
0.553302
0.565093
0.575084
0.307973
0.399308
0.444785
0.478517
0.50179
0.521021
0.536932
0.550899
0.563189
0.573571
0.279929
0.390941
0.43764
0.474506
0.498976
0.519535
0.536187
0.550668
0.563141
0.573688
0.245624
0.381283
0.4272
0.466566
0.492286
0.514048
0.531551
0.546772
0.559751
0.570702
0.423424
0.464308
0.489703
0.508128
0.521896
0.532535
0.541039
0.547984
0.553736
0.558501
0.415008
0.458445
0.488102
0.508823
0.523938
0.53556
0.545038
0.553058
0.560008
0.566083
0.407244
0.454099
0.486789
0.508014
0.523828
0.536206
0.546483
0.555308
0.563011
0.5697
0.395199
0.444144
0.478757
0.501263
0.518421
0.53209
0.543619
0.553642
0.562497
0.570174
0.380685
0.432431
0.469623
0.494185
0.512962
0.528034
0.540771
0.551888
0.561742
0.570218
0.360778
0.418565
0.458876
0.486058
0.506524
0.523018
0.536903
0.54903
0.559807
0.569031
0.33785
0.406943
0.44996
0.479959
0.501863
0.519624
0.534455
0.547385
0.558817
0.568507
0.313894
0.396062
0.441241
0.474117
0.497272
0.516217
0.531848
0.545426
0.557367
0.567484
0.2906
0.388643
0.434538
0.470357
0.494599
0.514738
0.531056
0.545129
0.557274
0.567637
0.26393
0.380688
0.424667
0.462888
0.488204
0.509465
0.526566
0.541329
0.55396
0.564787
0.454109
0.472527
0.487364
0.500019
0.510787
0.519831
0.527343
0.533517
0.538501
0.542386
0.444149
0.467195
0.486445
0.502126
0.514922
0.525432
0.534172
0.54151
0.547693
0.552878
0.436695
0.462994
0.48518
0.502429
0.516375
0.527792
0.53737
0.54555
0.552588
0.558586
0.42651
0.454325
0.478793
0.497606
0.51289
0.525515
0.536261
0.545585
0.553762
0.560796
0.414203
0.44406
0.47111
0.491866
0.508692
0.522644
0.534563
0.544964
0.554158
0.562058
0.397416
0.431583
0.461516
0.484647
0.503125
0.518462
0.531532
0.542951
0.553098
0.561808
0.379017
0.420712
0.453243
0.478967
0.498936
0.515549
0.529601
0.54185
0.552701
0.561957
0.359263
0.410482
0.4451
0.473504
0.494769
0.512547
0.527411
0.540314
0.551696
0.56142
0.340032
0.403717
0.438928
0.470162
0.492502
0.511377
0.52688
0.540245
0.551834
0.561833
0.318781
0.396998
0.430241
0.463737
0.486923
0.50671
0.522831
0.536747
0.548713
0.559091
0.476853
0.483526
0.491315
0.499373
0.506912
0.513587
0.519305
0.524066
0.527875
0.53073
0.466964
0.478575
0.490515
0.501517
0.511223
0.519606
0.526774
0.532848
0.537915
0.542053
0.460624
0.47452
0.488949
0.501774
0.512899
0.522451
0.530669
0.537746
0.543805
0.548897
0.451491
0.46688
0.483344
0.497831
0.510401
0.521253
0.530694
0.538951
0.546173
0.552342
0.440909
0.45785
0.476463
0.492829
0.506972
0.519192
0.52985
0.539218
0.547494
0.554587
0.427034
0.446581
0.467586
0.486177
0.502002
0.515643
0.5275
0.537928
0.547197
0.555159
0.411895
0.436319
0.459664
0.48071
0.49812
0.513098
0.526004
0.537313
0.547343
0.555923
0.395398
0.426521
0.451811
0.475417
0.494219
0.510395
0.524156
0.536153
0.546755
0.555847
0.379188
0.419786
0.445762
0.472137
0.492073
0.509324
0.523733
0.536205
0.547057
0.556448
0.361598
0.413013
0.437628
0.466164
0.486887
0.504971
0.519936
0.532898
0.544096
0.553855
0.494135
0.495021
0.498302
0.502703
0.507277
0.511585
0.515427
0.518703
0.521336
0.523274
0.485213
0.490684
0.497347
0.504234
0.510825
0.516855
0.522208
0.526836
0.530709
0.533832
0.480091
0.486852
0.495335
0.503934
0.512043
0.519413
0.525975
0.531726
0.536667
0.540794
0.472582
0.480153
0.490192
0.500381
0.509973
0.518711
0.526555
0.533525
0.539643
0.544854
0.463801
0.472238
0.483918
0.495832
0.50698
0.517117
0.526222
0.534343
0.541545
0.547715
0.452236
0.462174
0.475692
0.489602
0.502407
0.513987
0.524336
0.533563
0.541794
0.548877
0.439855
0.452714
0.468155
0.484288
0.498712
0.511672
0.523134
0.533297
0.542345
0.550107
0.426279
0.443526
0.460639
0.479113
0.494978
0.509164
0.521531
0.532426