/*--------------------------------*- C++ -*----------------------------------*\
| =========                 |                                                 |
| \\      /  F ield         | foam-extend: Open Source CFD                    |
|  \\    /   O peration     | Version:     4.0                                |
|   \\  /    A nd           | Web:         http://www.foam-extend.org         |
|    \\/     M anipulation  |                                                 |
\*---------------------------------------------------------------------------*/
FoamFile
{
    version     2.0;
    format      ascii;
    class       volScalarField;
    location    "400";
    object      p;
}
// * * * * * * * * * * * * * * * * * * * * * * * * * * * * * * * * * * * * * //

dimensions      [1 -1 -2 0 0 0 0];

internalField   nonuniform List<scalar> 
34480
(
111571
111272
111029
110859
110796
110883
111211
111787
112213
114688
111096
110659
110261
109910
109638
109492
109571
109952
110017
111600
110911
110351
109814
109297
108814
108417
108212
108315
107946
108420
110888
110192
109514
108833
108152
107516
107035
106845
106019
105363
110916
110109
109325
108517
107684
106853
106139
105671
104399
102709
111045
110162
109303
108406
107464
106490
105595
104879
103172
100542
111035
110104
109209
108269
107275
106226
105217
104298
102180
98642
111157
110217
109317
108380
107395
106345
105303
104252
101749
97247.5
110968
110042
109162
108273
107363
106397
105398
104279
101425
95983.9
111088
110155
109265
108384
107530
106685
105845
104877
101897
95484
113230
113059
112976
113003
113183
113565
114233
115302
116948
119656
112411
112112
111888
111757
111764
111981
112527
113564
115310
118659
111992
111573
111216
110928
110744
110743
111072
111953
113621
117335
111792
111239
110740
110296
109926
109706
109796
110469
111975
115873
111699
111034
110422
109850
109327
108918
108785
109229
110514
114422
111734
110986
110289
109620
108981
108420
108095
108308
109321
113057
111662
110855
110108
109380
108672
108012
107542
107542
108251
111672
111740
110910
110139
109390
108658
107956
107402
107226
107610
110588
111552
110717
109940
109197
108490
107815
107247
106954
107006
109584
111629
110792
110003
109255
108564
107946
107454
107209
107061
109416
114504
114419
114428
114549
114807
115229
115845
116689
117804
119219
113541
113352
113253
113267
113430
113791
114421
115398
116820
118837
112967
112669
112456
112343
112370
112603
113144
114134
115741
118301
112627
112207
111865
111615
111492
111573
111980
112913
114618
117652
112429
111900
111448
111080
110823
110755
111017
111850
113578
116980
112376
111761
111222
110758
110391
110194
110316
111022
112711
116358
112243
111563
110965
110436
109993
109700
109702
110272
111863
115612
112280
111566
110931
110365
109880
109527
109441
109881
111319
115047
112100
111369
110713
110128
109629
109260
109134
109478
110715
114436
112156
111420
110748
110148
109641
109280
109167
109513
110575
114357
115346
115304
115336
115454
115668
115985
116410
116943
117568
118235
114421
114301
114266
114331
114520
114857
115370
116084
117004
118062
113802
113590
113464
113441
113551
113841
114368
115198
116384
117880
113391
113071
112838
112707
112713
112920
113410
114300
115709
117656
113128
112706
112374
112142
112044
112153
112578
113478
115058
117424
113014
112508
112091
111771
111580
111594
111941
112817
114515
117245
112836
112263
111784
111399
111136
111070
111341
112169
113927
116943
112838
112225
111702
111273
110962
110838
111042
111804
113562
116784
112651
112016
111468
111013
110675
110522
110684
111386
113079
116508
112683
112041
111476
111005
110655
110494
110643
111324
112915
116558
115867
115846
115877
115965
116113
116319
116581
116887
117220
117550
115074
115000
114994
115068
115232
115494
115857
116320
116863
117423
114486
114338
114269
114289
114421
114687
115112
115713
116487
117346
114053
113815
113662
113607
113679
113919
114371
115085
116091
117293
113757
113428
113191
113057
113058
113249
113699
114492
115711
117267
113602
113194
112880
112672
112603
112737
113166
114008
115414
117316
113394
112920
112545
112276
112148
112228
112625
113490
115044
117263
113370
112852
112433
112120
111945
111980
112341
113203
114855
117348
113179
112636
112188
111848
111645
111650
111985
112830
114514
117282
113194
112642
112176
111820
111601
111594
111912
112743
114396
117417
116163
116151
116173
116229
116320
116443
116592
116760
116934
117100
115535
115489
115493
115554
115676
115858
116097
116382
116695
116996
115024
114923
114886
114922
115041
115253
115564
115970
116453
116948
114610
114437
114339
114327
114421
114642
115011
115538
116216
116953
114310
114059
113893
113824
113878
114088
114493
115125
116001
117009
114135
113812
113582
113455
113462
113649
114072
114791
115861
117155
113911
113525
113239
113061
113024
113183
113611
114395
115640
117218
113871
113441
113111
112893
112819
112949
113372
114196
115582
117425
113677
113220
112863
112618
112518
112628
113042
113888
115363
117468
113682
113214
112839
112578
112462
112559
112963
113813
115307
117642
116317
116310
116323
116355
116407
116476
116558
116648
116739
116823
115846
115817
115823
115867
115948
116066
116216
116387
116567
116734
115435
115366
115347
115382
115476
115632
115848
116113
116411
116702
115064
114941
114879
114888
114979
115162
115442
115814
116260
116717
114783
114594
114482
114453
114526
114722
115055
115532
116140
116795
114607
114356
114190
114119
114167
114364
114738
115312
116092
116967
114378
114070
113857
113746
113766
113955
114359
115016
115962
117069
114331
113982
113729
113584
113578
113756
114176
114897
115990
117322
114137
113760
113482
113313
113287
113454
113883
114650
115852
117407
114138
113749
113452
113269
113229
113388
113814
114600
115849
117590
116390
116385
116392
116410
116438
116475
116519
116566
116614
116657
116050
116032
116036
116064
116115
116188
116278
116378
116481
116575
115739
115693
115683
115711
115780
115888
116032
116202
116386
116560
115425
115338
115299
115315
115392
115532
115735
115991
116283
116570
115177
115039
114963
114956
115030
115195
115454
115801
116218
116646
115013
114823
114706
114671
114735
114915
115224
115664
116219
116810
114790
114550
114395
114331
114380
114569
114919
115444
116141
116910
114746
114468
114278
114188
114222
114413
114793
115390
116219
117168
114555
114250
114038
113928
113949
114137
114537
115189
116126
117251
114556
114239
114010
113887
113898
114082
114488
115167
116160
117425
116422
116419
116422
116431
116446
116465
116488
116513
116538
116560
116181
116170
116172
116189
116219
116262
116315
116373
116431
116484
115962
115931
115925
115945
115992
116064
116157
116264
116377
116483
115704
115644
115620
115636
115695
115797
115938
116111
116301
116484
115498
115398
115348
115352
115416
115546
115738
115985
116268
116550
115355
115214
115133
115119
115184
115336
115578
115904
116295
116695
115147
114963
114852
114819
114879
115048
115335
115739
116243
116776
115113
114896
114757
114705
114758
114938
115261
115734
116348
117016
114926
114684
114526
114459
114505
114690
115038
115565
116272
117074
114931
114678
114506
114429
114468
114654
115012
115570
116330
117233
116437
116435
116436
116441
116448
116458
116470
116483
116496
116508
116266
116259
116259
116269
116287
116311
116341
116374
116408
116438
116123
116103
116099
116112
116142
116188
116247
116313
116383
116447
115917
115876
115861
115874
115916
115987
116083
116197
116320
116436
115755
115684
115651
115658
115710
115806
115944
116115
116306
116491
115637
115535
115479
115477
115534
115655
115837
116072
116343
116613
115448
115311
115232
115218
115277
115418
115643
115944
116302
116669
115429
115265
115165
115138
115196
115353
115614
115975
116420
116887
115248
115061
114946
114908
114964
115130
115417
115827
116346
116909
115263
115065
114938
114893
114946
115115
115416
115855
116419
117054
116448
116447
116447
116449
116453
116458
116464
116471
116478
116483
116322
116318
116318
116323
116333
116347
116364
116383
116402
116419
116241
116228
116225
116233
116252
116281
116317
116357
116399
116438
116077
116050
116040
116050
116079
116126
116190
116264
116342
116416
115956
115907
115886
115893
115932
116001
116097
116213
116339
116460
115865
115792
115755
115758
115805
115895
116028
116193
116378
116559
115696
115596
115542
115538
115590
115702
115870
116088
116339
116590
115697
115575
115505
115494
115549
115677
115878
116146
116462
116784
115523
115381
115299
115280
115336
115475
115701
116010
116382
116772
115549
115399
115307
115284
115339
115484
115723
116057
116465
116906
116461
116460
116460
116461
116463
116465
116469
116472
116476
116478
116363
116360
116360
116363
116368
116376
116386
116396
116407
116417
116329
116321
116319
116324
116335
116352
116374
116399
116424
116448
116197
116179
116173
116179
116198
116230
116270
116317
116367
116414
116113
116080
116066
116072
116100
116147
116212
116289
116372
116451
116046
115996
115971
115976
116011
116077
116170
116284
116408
116528
115898
115826
115790
115791
115833
115917
116040
116194
116365
116535
115921
115833
115784
115781
115829
115928
116078
116271
116491
116710
115751
115646
115589
115581
115631
115742
115913
116138
116400
116667
115792
115681
115617
115607
115657
115774
115957
116203
116491
116793
116479
116478
116478
116478
116479
116480
116482
116483
116486
116487
116394
116392
116392
116394
116397
116401
116407
116413
116419
116424
116399
116393
116392
116395
116401
116412
116425
116440
116455
116469
116286
116275
116271
116275
116287
116307
116333
116363
116394
116423
116234
116212
116203
116208
116227
116259
116302
116352
116405
116456
116188
116154
116138
116142
116168
116214
116278
116355
116437
116516
116058
116009
115984
115987
116020
116080
116167
116273
116389
116502
116105
116042
116010
116011
116049
116123
116231
116365
116516
116663
115936
115861
115822
115820
115861
115946
116071
116230
116411
116591
115996
115916
115872
115869
115911
116001
116137
116312
116511
116715
116502
116501
116501
116501
116501
116502
116503
116503
116505
116505
116419
116418
116418
116419
116421
116423
116426
116430
116433
116437
116456
116452
116451
116453
116457
116463
116471
116480
116489
116497
116354
116347
116344
116347
116354
116367
116383
116401
116420
116439
116329
116314
116309
116312
116325
116345
116373
116405
116439
116472
116299
116276
116265
116269
116287
116319
116361
116411
116465
116516
116185
116151
116135
116138
116162
116204
116263
116335
116411
116486
116254
116211
116190
116193
116221
116274
116350
116441
116542
116638
116083
116030
116004
116005
116037
116099
116187
116298
116420
116539
116165
116109
116079
116080
116113
116180
116276
116398
116532
116668
116531
116530
116530
116530
116530
116530
116531
116531
116532
116531
116439
116439
116439
116440
116441
116442
116444
116446
116448
116450
116506
116504
116503
116504
116506
116510
116515
116520
116525
116530
116406
116401
116399
116401
116406
116413
116423
116434
116446
116458
116402
116393
116390
116392
116400
116413
116431
116451
116473
116493
116383
116368
116362
116365
116377
116398
116425
116458
116492
116525
116283
116261
116251
116254
116270
116299
116338
116385
116434
116483
116375
116346
116333
116336
116356
116393
116444
116505
116571
116633
116196
116160
116143
116145
116168
116212
116272
116347
116427
116506
116305
116267
116248
116250
116275
116322
116389
116471
116559
116647
116567
116567
116567
116567
116567
116567
116567
116566
116567
116566
116455
116455
116455
116455
116456
116457
116458
116459
116461
116462
116552
116551
116550
116551
116552
116555
116557
116560
116564
116567
116446
116443
116442
116443
116445
116450
116456
116463
116470
116477
116459
116454
116452
116453
116458
116467
116478
116491
116504
116516
116447
116437
116433
116435
116443
116457
116475
116495
116517
116538
116360
116346
116339
116342
116352
116371
116397
116427
116458
116489
116471
116453
116445
116447
116462
116486
116520
116560
116603
116641
116279
116254
116244
116246
116262
116292
116332
116381
116433
116484
116425
116400
116387
116390
116408
116440
116484
116538
116595
116652
116621
116620
116620
116620
116619
116619
116619
116618
116619
116617
116463
116463
116464
116464
116464
116465
116465
116466
116467
116468
116594
116594
116593
116594
116595
116596
116598
116600
116603
116604
116477
116475
116475
116475
116477
116479
116483
116487
116491
116495
116502
116499
116498
116499
116502
116507
116514
116522
116531
116539
116492
116486
116484
116485
116490
116499
116510
116524
116537
116550
116419
116410
116406
116407
116415
116427
116443
116461
116481
116501
116545
116534
116528
116531
116540
116557
116579
116605
116632
116655
116333
116317
116310
116312
116323
116343
116369
116401
116433
116467
116538
116521
116514
116516
116528
116550
116579
116614
116650
116685
116712
116712
116712
116711
116711
116711
116710
116710
116710
116707
116457
116457
116457
116457
116457
116457
116457
116458
116458
116458
116628
116628
116628
116628
116629
116631
116632
116634
116636
116638
116503
116502
116501
116502
116503
116504
116506
116508
116511
116513
116532
116530
116530
116530
116533
116536
116541
116546
116551
116556
116521
116518
116516
116517
116521
116526
116534
116542
116551
116559
116462
116456
116454
116455
116460
116467
116477
116489
116501
116513
116587
116580
116577
116578
116585
116596
116611
116628
116647
116661
116353
116343
116339
116340
116347
116360
116377
116397
116417
116441
116668
116658
116653
116655
116663
116677
116696
116719
116742
116764
116869
116869
116869
116870
116871
116872
116873
116874
116876
116874
116419
116418
116419
116418
116418
116417
116417
116416
116415
116414
116641
116641
116641
116642
116643
116645
116647
116649
116651
116654
116527
116526
116526
116526
116527
116528
116529
116530
116531
116532
116552
116551
116551
116551
116553
116556
116559
116563
116567
116571
116539
116537
116536
116537
116539
116543
116548
116554
116561
116567
116492
116488
116487
116488
116491
116496
116503
116511
116519
116527
116582
116577
116575
116576
116581
116589
116600
116613
116627
116639
116325
116319
116316
116317
116322
116331
116342
116355
116368
116384
116844
116836
116833
116834
116840
116850
116863
116879
116896
116913
117052
117052
117054
117056
117058
117062
117067
117072
117079
117086
116355
116354
116354
116353
116352
116351
116348
116345
116342
116335
116633
116633
116634
116634
116636
116637
116639
116642
116646
116650
116555
116554
116554
116554
116554
116555
116556
116557
116559
116560
116570
116569
116569
116570
116571
116573
116576
116580
116584
116588
116556
116554
116553
116554
116556
116559
116564
116569
116575
116581
116518
116515
116514
116514
116517
116522
116528
116535
116542
116548
116547
116542
116540
116541
116545
116552
116561
116572
116585
116600
116266
116261
116259
116260
116264
116272
116281
116291
116300
116307
117031
117022
117019
117020
117025
117033
117045
117059
117074
117093
129663
133020
133080
131290
130286
134062
134061
132471
130707
134704
135431
134099
130906
135119
136589
135482
131312
135757
137922
137175
132079
136742
139503
139436
132717
137480
140624
141105
133249
138000
141363
142289
132770
137406
140901
142233
131253
135652
139247
141087
122876
124352
124729
123984
123258
124982
125517
124901
123579
125532
126240
125892
123933
126078
127059
126979
124386
126667
127846
127935
124896
127238
128518
128710
125324
127680
129006
129396
125862
128196
129551
130140
125897
128168
129580
130388
125635
127855
129428
130472
120500
121151
121337
121109
120750
121554
121840
121693
121027
122000
122427
122375
121354
122502
123095
123159
121793
123096
123831
124011
122388
123827
124685
124984
122887
124425
125372
125796
123516
125119
126134
126689
123801
125406
126464
127144
124028
125574
126641
127404
118751
119053
119169
119107
118861
119251
119441
119437
119067
119562
119839
119905
119338
119946
120322
120477
119701
120415
120882
121127
120202
121015
121567
121912
120642
121541
122172
122626
121236
122203
122900
123465
121546
122543
123290
123952
121799
122796
123576
124305
117790
117937
118005
117994
117805
118008
118124
118156
117936
118208
118381
118462
118154
118500
118740
118884
118464
118887
119193
119403
118917
119416
119787
120069
119324
119894
120327
120686
119892
120523
121010
121448
120217
120880
121407
121914
120516
121185
121738
122290
117218
117293
117332
117334
117190
117299
117370
117403
117262
117417
117526
117594
117425
117630
117787
117900
117680
117939
118142
118305
118067
118380
118631
118846
118413
118777
119075
119345
118923
119335
119674
120000
119222
119662
120033
120405
119518
119970
120363
120765
116884
116924
116946
116951
116838
116900
116943
116967
116881
116972
117041
117089
116993
117119
117221
117301
117197
117360
117496
117611
117521
117722
117893
118045
117803
118042
118245
118436
118250
118523
118758
118987
118502
118798
119056
119315
118773
119080
119353
119631
116689
116710
116723
116727
116633
116668
116694
116711
116666
116721
116764
116797
116738
116816
116882
116937
116896
117001
117090
117169
117159
117290
117405
117510
117376
117534
117673
117805
117758
117940
118101
118259
117954
118153
118331
118508
118191
118399
118588
118777
116578
116589
116596
116599
116517
116537
116552
116564
116547
116581
116608
116629
116588
116638
116680
116717
116710
116778
116837
116891
116920
117007
117084
117156
117079
117184
117279
117369
117402
117524
117634
117742
117535
117670
117792
117912
117739
117880
118009
118137
116517
116523
116528
116530
116456
116467
116476
116484
116486
116507
116524
116538
116502
116534
116562
116585
116595
116640
116679
116715
116762
116819
116871
116920
116871
116941
117006
117067
117142
117225
117300
117373
117217
117308
117392
117473
117392
117487
117576
117663
116489
116492
116495
116496
116428
116435
116440
116445
116463
116476
116486
116495
116457
116478
116495
116511
116528
116557
116583
116607
116658
116696
116731
116763
116725
116772
116816
116857
116955
117011
117062
117112
116979
117041
117099
117154
117132
117197
117257
117316
116482
116483
116485
116486
116421
116424
116428
116431
116463
116471
116478
116483
116440
116453
116464
116474
116495
116514
116531
116546
116593
116619
116642
116664
116625
116657
116686
116714
116824
116862
116897
116930
116807
116849
116888
116925
116944
116988
117029
117068
116489
116490
116491
116491
116425
116427
116429
116431
116479
116484
116488
116491
116439
116447
116454
116461
116485
116497
116508
116518
116558
116575
116590
116604
116561
116582
116602
116620
116739
116764
116787
116810
116685
116713
116739
116764
116815
116844
116872
116898
116506
116507
116507
116508
116436
116437
116438
116440
116504
116507
116509
116511
116449
116454
116458
116462
116490
116498
116505
116511
116544
116555
116565
116574
116525
116539
116551
116564
116689
116705
116721
116735
116603
116621
116639
116655
116733
116752
116771
116788
116532
116533
116533
116533
116448
116448
116449
116450
116535
116537
116538
116539
116463
116466
116469
116472
116505
116510
116514
116518
116543
116550
116556
116562
116508
116517
116525
116533
116666
116677
116687
116696
116548
116561
116572
116582
116689
116702
116714
116725
116567
116567
116567
116568
116459
116458
116459
116460
116570
116572
116573
116573
116480
116482
116483
116485
116524
116527
116530
116532
116549
116554
116558
116561
116505
116510
116515
116520
116663
116670
116676
116682
116513
116521
116528
116535
116678
116686
116693
116701
116618
116617
116617
116618
116463
116463
116463
116464
116608
116609
116609
116609
116497
116498
116499
116500
116544
116546
116547
116549
116558
116561
116563
116565
116509
116513
116516
116519
116670
116674
116678
116682
116486
116491
116496
116500
116700
116705
116710
116715
116708
116707
116707
116708
116453
116452
116452
116454
116641
116642
116642
116642
116513
116514
116514
116515
116560
116562
116563
116563
116565
116567
116568
116570
116518
116519
116522
116524
116673
116676
116679
116681
116453
116457
116460
116462
116773
116775
116778
116782
116879
116876
116876
116879
116408
116406
116406
116408
116658
116659
116660
116659
116532
116532
116532
116533
116574
116575
116575
116576
116571
116573
116574
116574
116528
116530
116531
116533
116654
116657
116658
116659
116390
116393
116395
116396
116919
116921
116923
116925
117107
117105
117105
117107
116323
116318
116318
116323
116655
116657
116657
116655
116559
116559
116559
116560
116591
116592
116593
116593
116585
116586
116587
116588
116549
116550
116551
116553
116619
116623
116624
116623
116294
116293
116294
116299
117102
117105
117106
117107
122484
119399
117445
115929
114842
114017
113354
112803
112334
111926
123856
120312
117889
116234
115024
114095
113329
112674
112100
111577
124890
121066
118283
116606
115306
114286
113430
112687
112029
111458
126200
122059
119091
117288
115862
114731
113769
112925
112164
111523
127598
123070
119916
117929
116375
115129
114072
113143
112296
111613
129214
124130
120823
118623
116954
115599
114457
113456
112539
111804
130678
124861
121504
119063
117304
115845
114631
113566
112594
111834
132210
125608
122261
119581
117754
116201
114930
113811
112804
111992
133173
125866
122567
119697
117828
116195
114874
113708
112686
111832
134133
126350
123110
120087
118144
116426
115039
113816
112761
111865
121880
119822
118334
117164
116216
115438
114797
114269
113838
113492
122572
120262
118483
117094
115995
115110
114379
113764
113245
112793
123312
120761
118710
117215
116019
115054
114248
113560
112964
112451
124075
121515
119276
117667
116370
115312
114413
113631
112935
112343
124945
122367
119931
118176
116765
115604
114614
113749
112965
112319
126139
123322
120721
118787
117263
115999
114925
113985
113129
112422
127389
124025
121341
119195
117573
116209
115059
114055
113138
112395
128791
124767
122056
119692
117995
116541
115332
114271
113314
112519
129813
125047
122367
119829
118084
116552
115290
114182
113203
112366
130914
125409
122831
120153
118346
116743
115432
114279
113279
112415
120402
119391
118443
117599
116867
116243
115719
115287
114942
114680
120928
119678
118464
117410
116521
115778
115155
114630
114194
113828
121527
120081
118633
117432
116431
115595
114888
114285
113770
113333
122232
120698
119085
117767
116659
115726
114923
114225
113611
113088
123061
121429
119658
118200
116975
115936
115039
114253
113549
112963
124135
122310
120389
118758
117412
116267
115280
114416
113635
112981
125266
123018
120985
119149
117691
116441
115374
114441
113595
112897
126574
123786
121689
119640
118094
116752
115620
114628
113736
112984
127551
124133
122039
119819
118215
116791
115601
114557
113636
112843
128541
124509
122481
120123
118458
116968
115735
114653
113712
112894
118864
118421
117932
117444
116983
116566
116200
115892
115645
115462
119204
118636
117967
117307
116695
116148
115668
115256
114914
114631
119689
119002
118161
117348
116607
115950
115375
114876
114451
114091
120321
119558
118585
117643
116785
116020
115343
114746
114221
113772
121080
120226
119124
118042
117061
116186
115409
114720
114103
113584
122057
121044
119813
118569
117462
116477
115607
114834
114136
113544
123051
121737
120390
118955
117728
116634
115676
114830
114061
113419
124234
122510
121080
119445
118119
116928
115900
114990
114171
113473
125126
122915
121454
119647
118244
116965
115873
114911
114059
113322
126009
123319
121867
119922
118458
117120
115990
114995
114124
113365
117902
117703
117457
117188
116917
116659
116425
116224
116061
115941
118097
117842
117488
117095
116700
116325
115982
115681
115429
115222
118445
118131
117665
117148
116635
116153
115714
115325
114989
114706
118956
118604
118045
117414
116786
116195
115652
115162
114731
114360
119592
119192
118538
117782
117036
116334
115689
115106
114581
114137
120418
119928
119175
118277
117409
116596
115855
115184
114576
114056
121246
120570
119716
118652
117663
116740
115907
115158
114477
113902
122264
121314
120378
119138
118044
117022
116113
115299
114564
113931
123033
121739
120755
119352
118169
117057
116082
115215
114443
113774
123785
122140
121138
119608
118366
117199
116189
115290
114499
113809
117299
117209
117088
116946
116795
116646
116506
116383
116283
116208
117400
117288
117104
116878
116635
116392
116162
115955
115780
115636
117631
117497
117248
116935
116598
116262
115944
115654
115401
115187
118015
117874
117566
117163
116726
116289
115873
115488
115146
114850
118521
118369
117997
117494
116951
116411
115895
115418
114986
114618
119194
119008
118564
117947
117294
116648
116037
115473
114959
114515
119854
119574
119051
118299
117532
116779
116077
115433
114844
114344
120701
120260
119668
118770
117899
117050
116270
115559
114914
114356
121323
120667
120022
118980
118017
117080
116234
115471
114788
114195
121930
121042
120371
119221
118203
117215
116335
115542
114838
114223
116937
116896
116836
116763
116681
116599
116519
116448
116388
116344
116978
116927
116831
116704
116559
116407
116260
116125
116010
115913
117129
117076
116945
116760
116545
116319
116096
115889
115706
115551
117401
117357
117192
116941
116647
116336
116027
115736
115474
115246
117787
117754
117550
117226
116844
116441
116043
115665
115321
115026
118320
118287
118037
117627
117151
116654
116166
115706
115283
114916
118828
118762
118456
117941
117365
116771
116195
115657
115162
114739
119516
119372
119012
118384
117713
117029
116377
115773
115222
114742
119993
119730
119320
118573
117816
117051
116337
115683
115092
114579
120468
120070
119633
118801
117993
117181
116434
115751
115140
114604
116722
116704
116674
116637
116594
116549
116505
116465
116432
116406
116722
116700
116650
116579
116495
116404
116313
116229
116156
116094
116828
116810
116740
116631
116496
116348
116198
116056
115929
115820
117012
117007
116920
116766
116572
116356
116135
115922
115729
115559
117299
117315
117206
117001
116738
116446
116147
115858
115592
115363
117712
117745
117610
117344
117006
116633
116255
115890
115553
115258
118090
118123
117953
117610
117189
116731
116273
115836
115431
115083
118642
118649
118440
118013
117511
116974
116446
115946
115487
115086
118988
118938
118688
118170
117593
116986
116400
115854
115356
114923
119357
119239
118966
118383
117761
117113
116496
115922
115403
114948
116598
116589
116575
116556
116534
116510
116487
116465
116446
116432
116573
116563
116538
116499
116451
116398
116344
116293
116249
116209
116652
116646
116609
116545
116462
116368
116270
116175
116090
116016
116770
116778
116731
116638
116512
116366
116212
116062
115924
115801
116981
117011
116953
116824
116646
116439
116222
116008
115809
115637
117298
117350
117280
117108
116872
116600
116315
116035
115774
115544
117570
117637
117546
117321
117020
116677
116322
115978
115655
115378
118010
118079
117964
117679
117312
116902
116486
116084
115713
115386
118244
118292
118147
117797
117369
116901
116434
115990
115581
115225
118532
118552
118391
117994
117529
117025
116529
116060
115631
115254
116529
116526
116518
116509
116498
116485
116473
116461
116451
116443
116491
116487
116474
116453
116427
116397
116365
116335
116308
116284
116552
116552
116532
116495
116445
116386
116324
116263
116207
116159
116621
116632
116607
116550
116470
116374
116270
116167
116071
115985
116777
116805
116775
116694
116575
116433
116279
116125
115980
115855
117018
117068
117032
116922
116761
116567
116358
116150
115954
115779
117206
117275
117229
117082
116870
116620
116353
116089
115840
115625
117559
117641
117581
117394
117132
116827
116508
116195
115903
115644
117700
117781
117702
117471
117162
116810
116448
116097
115770
115485
117930
118004
117914
117651
117313
116931
116544
116171
115825
115521
116496
116495
116491
116487
116481
116474
116467
116461
116455
116451
116451
116450
116443
116432
116417
116400
116383
116365
116350
116334
116504
116505
116494
116473
116443
116407
116368
116330
116294
116264
116535
116544
116531
116497
116446
116384
116316
116247
116183
116124
116648
116671
116656
116605
116528
116431
116325
116217
116115
116027
116830
116871
116853
116784
116675
116540
116391
116240
116097
115969
116952
117010
116988
116894
116748
116569
116374
116177
115990
115829
117239
117314
117284
117164
116981
116760
116522
116285
116061
115861
117307
117389
117349
117199
116982
116724
116450
116181
115927
115705
117496
117581
117535
117364
117124
116843
116549
116260
115989
115750
116485
116485
116483
116481
116478
116475
116471
116468
116465
116463
116436
116436
116433
116427
116419
116409
116399
116390
116380
116370
116488
116490
116484
116471
116454
116432
116408
116385
116362
116344
116490
116497
116490
116469
116438
116399
116355
116310
116268
116228
116573
116590
116582
116551
116501
116437
116366
116292
116222
116161
116708
116739
116731
116687
116615
116523
116420
116313
116212
116120
116778
116823
116813
116753
116654
116529
116390
116248
116112
115994
117016
117077
117064
116987
116862
116706
116534
116358
116193
116043
117027
117097
117079
116983
116833
116649
116448
116247
116054
115887
117190
117265
117245
117136
116970
116768
116550
116333
116127
115945
116491
116491
116490
116489
116488
116486
116484
116482
116480
116479
116436
116436
116435
116431
116427
116422
116417
116411
116406
116399
116493
116495
116491
116484
116474
116461
116446
116432
116418
116407
116471
116476
116472
116460
116441
116417
116389
116360
116333
116307
116535
116547
116543
116524
116492
116451
116403
116354
116307
116267
116634
116656
116652
116625
116578
116517
116447
116374
116304
116240
116663
116695
116692
116654
116588
116503
116406
116306
116210
116126
116867
116913
116908
116860
116776
116668
116547
116421
116302
116193
116832
116886
116879
116818
116717
116588
116445
116299
116157
116035
116980
117040
117033
116964
116852
116710
116554
116395
116243
116109
116507
116508
116507
116507
116506
116505
116504
116503
116502
116502
116444
116444
116443
116442
116439
116437
116434
116431
116428
116423
116512
116513
116511
116507
116501
116493
116484
116475
116467
116461
116469
116472
116470
116463
116451
116436
116419
116402
116385
116368
116522
116530
116528
116516
116496
116469
116439
116407
116376
116350
116592
116607
116606
116589
116559
116519
116473
116424
116377
116333
116592
116614
116613