/*--------------------------------*- C++ -*----------------------------------*\
| =========                 |                                                 |
| \\      /  F ield         | foam-extend: Open Source CFD                    |
|  \\    /   O peration     | Version:     4.0                                |
|   \\  /    A nd           | Web:         http://www.foam-extend.org         |
|    \\/     M anipulation  |                                                 |
\*---------------------------------------------------------------------------*/
FoamFile
{
    version     2.0;
    format      ascii;
    class       surfaceScalarField;
    location    "400";
    object      phi;
}
// * * * * * * * * * * * * * * * * * * * * * * * * * * * * * * * * * * * * * //

dimensions      [1 0 -1 0 0 0 0];

internalField   nonuniform List<scalar> 
97302
(
-0.000106799
4.38417e-06
-0.000582604
0.00059869
-0.000129945
4.88689e-06
-0.000586589
0.000604847
-0.000156994
5.36379e-06
-0.00058991
0.000611595
-0.000189774
5.84144e-06
-0.000592462
0.000619401
-0.00023076
6.33518e-06
-0.000594181
0.000628832
-0.000282916
6.82285e-06
-0.000594355
0.000639688
-0.000348858
7.21126e-06
-0.000590921
0.000649652
-0.000427745
7.27965e-06
-0.000579307
0.000650915
-0.000515457
6.65134e-06
-0.000549376
0.000630437
4.31286e-06
-0.000468661
-0.000648574
0.000597465
-0.000135627
6.31429e-06
-0.000811313
0.000825782
-0.000154287
7.26634e-06
-0.000817832
0.000834111
-0.000176078
8.0361e-06
-0.000823505
0.000842624
-0.000202788
8.6662e-06
-0.000828097
0.000851981
-0.000237402
9.18778e-06
-0.000831816
0.000863577
-0.000284216
9.59294e-06
-0.000834571
0.000878615
-0.000348549
9.78556e-06
-0.000834532
0.000896292
-0.000433164
9.4931e-06
-0.000826449
0.00090885
-0.00053314
8.13088e-06
-0.000797787
0.000896284
3.97916e-06
-0.00069218
-0.000701969
0.000861343
-0.000166487
6.5032e-06
-0.00103846
0.00105177
-0.000181937
7.81722e-06
-0.00104755
0.00106245
-0.00020018
8.85442e-06
-0.00105593
0.00107336
-0.000222863
9.65461e-06
-0.00106345
0.00108514
-0.000253115
1.02517e-05
-0.00107018
0.00109937
-0.000296008
1.06491e-05
-0.00107658
0.00111842
-0.000358624
1.07521e-05
-0.0010815
0.00114315
-0.000446676
1.02476e-05
-0.00107934
0.00116664
-0.000554848
8.34237e-06
-0.00105571
0.00116367
2.5174e-06
-0.000930395
-0.00074975
0.00112676
-0.000198999
6.46938e-06
-0.00126325
0.00127574
-0.000213352
8.0092e-06
-0.00127632
0.00129048
-0.000230369
9.20134e-06
-0.00128875
0.00130542
-0.000251506
1.0081e-05
-0.00130041
0.00132112
-0.000279746
1.06695e-05
-0.00131116
0.00133898
-0.000320432
1.09612e-05
-0.00132153
0.00136191
-0.000381831
1.08653e-05
-0.00133109
0.00139238
-0.000472013
1.00535e-05
-0.00133479
0.00142517
-0.000585408
7.49973e-06
-0.00131727
0.00143151
-2.37464e-07
-0.0011738
-0.000797335
0.00138848
-0.000234174
6.4385e-06
-0.00148829
0.00150029
-0.000248028
8.02709e-06
-0.00150578
0.00151962
-0.000264458
9.21041e-06
-0.00152267
0.00153909
-0.000284776
1.00317e-05
-0.00153878
0.00155915
-0.000311782
1.04999e-05
-0.00155391
0.00158109
-0.000350911
1.06017e-05
-0.00156838
0.00160787
-0.000411282
1.02552e-05
-0.0015824
0.00164338
-0.000502927
9.14562e-06
-0.00159184
0.00168439
-0.000620443
6.00176e-06
-0.00158077
0.00169979
-3.65047e-06
-0.00141824
-0.000845201
0.00164641
-0.000272107
6.48017e-06
-0.00171137
0.00172301
-0.000285649
7.93912e-06
-0.00173348
0.00174711
-0.000301688
8.95233e-06
-0.00175481
0.00177111
-0.000321408
9.57366e-06
-0.0017753
0.00179547
-0.000347437
9.80372e-06
-0.00179466
0.00182139
-0.00038518
9.63423e-06
-0.00181311
0.00185182
-0.000444325
9.01187e-06
-0.00183129
0.00189168
-0.000536621
7.70543e-06
-0.00184626
0.00193999
-0.000657534
4.2875e-06
-0.0018419
0.00196452
-6.74833e-06
-0.00165865
-0.00089492
0.00189913
-0.000312189
6.70463e-06
-0.00193407
0.00194539
-0.000325533
7.81857e-06
-0.00196035
0.00197381
-0.000341266
8.49742e-06
-0.00198558
0.00200177
-0.000360439
8.77032e-06
-0.0020098
0.00202977
-0.000385459
8.63134e-06
-0.00203275
0.00205894
-0.000421556
8.08781e-06
-0.00205453
0.00209218
-0.000478699
7.17304e-06
-0.00207639
0.00213537
-0.000570061
5.82514e-06
-0.00209699
0.00219024
-0.000692195
2.62086e-06
-0.00210084
0.00222464
-8.92632e-06
-0.00189845
-0.000938361
0.00214679
-0.000355337
6.49154e-06
-0.00215737
0.00216876
-0.000368333
7.09113e-06
-0.00218733
0.00220106
-0.000383686
7.38521e-06
-0.00221573
0.0022322
-0.000402336
7.3169e-06
-0.00224292
0.00226303
-0.000426397
6.84459e-06
-0.00226855
0.0022944
-0.000460685
5.96739e-06
-0.00229262
0.00232903
-0.000515069
4.83618e-06
-0.0023169
0.00237362
-0.00060385
3.64071e-06
-0.00234253
0.00243349
-0.000724934
1.33242e-06
-0.00235664
0.00247901
-9.40269e-06
-0.00213923
-0.000976156
0.00239093
-0.000399313
4.73837e-06
-0.00238047
0.00239231
-0.00041151
4.66667e-06
-0.00241304
0.00242766
-0.000426286
4.50493e-06
-0.00244377
0.00246142
-0.000444688
4.11974e-06
-0.00247363
0.00249523
-0.000468524
3.46002e-06
-0.0025024
0.00252962
-0.000501769
2.48782e-06
-0.00252949
0.00256622
-0.000553471
1.41764e-06
-0.002556
0.00261112
-0.000638632
6.53673e-07
-0.00258577
0.00267392
-0.000756568
-1.73648e-07
-0.00261173
0.00273118
-8.63152e-06
-0.00238515
-0.00100622
0.00263403
-0.000443667
-0.00258813
0.00260106
-0.00045448
-0.00262357
0.00263905
-0.000468069
-0.00265702
0.00267512
-0.000485633
-0.00268934
0.00271103
-0.000508916
-0.00271986
0.0027466
-0.000541335
-0.00274789
0.0027828
-0.000590429
-0.00277441
0.00282492
-0.000670479
-0.00280634
0.00288705
-0.000781661
-0.00284894
0.00295995
-0.00263693
-0.00102752
0.00287415
1.66038e-05
4.45088e-06
-0.000567969
-4.51341e-06
4.9502e-06
-0.000570421
-2.81309e-05
5.39275e-06
-0.000571685
-5.48581e-05
5.77693e-06
-0.000571511
-8.56435e-05
6.09484e-06
-0.000569491
-0.000121402
6.30944e-06
-0.000564905
-0.000162046
6.34673e-06
-0.000556625
-0.000204378
6.06101e-06
-0.000543035
-0.000238541
5.19872e-06
-0.000520412
3.22448e-06
-0.000479546
-0.000230881
2.79502e-05
6.37153e-06
-0.000796785
9.38749e-06
7.38155e-06
-0.0008017
-1.16528e-05
8.18908e-06
-0.000805261
-3.58077e-05
8.80565e-06
-0.00080697
-6.43691e-05
9.22158e-06
-0.000806381
-9.94952e-05
9.40515e-06
-0.000802541
-0.000143367
9.28168e-06
-0.000793596
-0.000195916
8.66455e-06
-0.000776503
-0.000250242
7.20028e-06
-0.000745462
3.99724e-06
-0.000682441
-0.000260754
3.85225e-05
6.52072e-06
-0.00102428
2.21586e-05
7.98363e-06
-0.00103179
3.24123e-06
9.15172e-06
-0.00103798
-1.90336e-05
1.00341e-05
-0.0010424
-4.6139e-05
1.06218e-05
-0.00104447
-8.09013e-05
1.08771e-05
-0.00104329
-0.000127359
1.0719e-05
-0.00103648
-0.000188608
9.91954e-06
-0.00101935
-0.000261719
7.98849e-06
-0.000983382
3.57005e-06
-0.00089739
-0.000294296
4.83552e-05
6.31308e-06
-0.00124938
3.25391e-05
8.1194e-06
-0.00126064
1.40396e-05
9.56356e-06
-0.00127066
-8.01979e-06
1.0647e-05
-0.00127896
-3.51683e-05
1.13572e-05
-0.00128475
-7.04387e-05
1.16305e-05
-0.00128701
-0.000119126
1.13733e-05
-0.00128306
-0.000187455
1.03409e-05
-0.00126689
-0.000277222
7.91278e-06
-0.00122743
2.18496e-06
-0.00111774
-0.000331897
5.58904e-05
6.05263e-06
-0.00147455
4.01556e-05
8.04791e-06
-0.00148998
2.16578e-05
9.62367e-06
-0.00150423
-5.25262e-07
1.07898e-05
-0.00151674
-2.79242e-05
1.15276e-05
-0.00152668
-6.36726e-05
1.17599e-05
-0.00153276
-0.000113957
1.13767e-05
-0.00153212
-0.000187837
1.01376e-05
-0.00151776
-0.000291848
7.2891e-06
-0.00147614
2.92461e-07
-0.00134221
-0.000365983
6.09454e-05
5.81617e-06
-0.00169769
4.51911e-05
7.8352e-06
-0.00171751
2.66334e-05
9.39587e-06
-0.00173602
4.35675e-06
1.05227e-05
-0.00175275
-2.31591e-05
1.11918e-05
-0.00176681
-5.91277e-05
1.13304e-05
-0.00177671
-0.000110339
1.08249e-05
-0.00177953
-0.00018835
9.48155e-06
-0.00176759
-0.000304324
6.46394e-06
-0.0017251
-1.50314e-06
-0.00156666
-0.000394518
6.34607e-05
5.67258e-06
-0.00192041
4.76829e-05
7.50425e-06
-0.00194424
2.9145e-05
8.8962e-06
-0.00196654
6.96614e-06
9.85855e-06
-0.00198695
-2.03398e-05
1.03617e-05
-0.00200461
-5.59475e-05
1.03386e-05
-0.00201793
-0.000107066
9.71458e-06
-0.00202416
-0.000187516
8.40623e-06
-0.00201547
-0.000313266
5.61225e-06
-0.00197424
-2.90501e-06
-0.00179294
-0.000417377
6.32777e-05
5.07453e-06
-0.00214345
4.77662e-05
6.50918e-06
-0.00217083
2.95318e-05
7.652e-06
-0.00219626
7.7198e-06
8.44268e-06
-0.0022197
-1.90533e-05
8.8289e-06
-0.00224024
-5.37794e-05
8.71874e-06
-0.00225627
-0.000103788
8.10613e-06
-0.00226528
-0.000184912
7.05419e-06
-0.00226005
-0.000318659
5.11278e-06
-0.00222239
-3.23653e-06
-0.00202123
-0.000436332
6.0945e-05
3.01663e-06
-0.00236593
4.63088e-05
3.82939e-06
-0.00239572
2.89264e-05
4.58148e-06
-0.00242331
7.74685e-06
5.12636e-06
-0.00244914
-1.86587e-05
5.44042e-06
-0.00247261
-5.29109e-05
5.39403e-06
-0.00249192
-0.000101669
5.02714e-06
-0.00250416
-0.000182161
4.51862e-06
-0.00250275
-0.000322504
4.13455e-06
-0.00247041
-2.40954e-06
-0.00225234
-0.000456139
5.77268e-05
-0.00257392
4.42476e-05
-0.00260626
2.81337e-05
-0.00263633
8.22235e-06
-0.0026643
-1.69649e-05
-0.00268923
-5.00634e-05
-0.0027094
-9.66657e-05
-0.00272278
-0.000174233
-0.00272426
-0.00031872
-0.00270032
-0.0024763
-0.000481754
1.01347e-05
4.42167e-06
-0.00055605
-7.6908e-06
4.8658e-06
-0.000557462
-2.69955e-05
5.22095e-06
-0.000557601
-4.7671e-05
5.47744e-06
-0.000556313
-6.94602e-05
5.61289e-06
-0.000553314
-9.16958e-05
5.57722e-06
-0.000548246
-0.000112909
5.2968e-06
-0.000540709
-0.000130261
4.67604e-06
-0.000530358
-0.000137628
3.60411e-06
-0.000516649
1.98089e-06
-0.000498355
-0.000120798
2.06812e-05
6.45957e-06
-0.000783552
3.46735e-06
7.39662e-06
-0.000787017
-1.57593e-05
8.10938e-06
-0.000788923
-3.70249e-05
8.59337e-06
-0.000788821
-6.04079e-05
8.81789e-06
-0.000786203
-8.58598e-05
8.71584e-06
-0.000780227
-0.000112595
8.19043e-06
-0.000769754
-0.000138161
7.10262e-06
-0.000753363
-0.000156179
5.28374e-06
-0.000729124
2.54845e-06
-0.000694773
-0.000144413
3.13272e-05
6.80418e-06
-0.00101056
1.52028e-05
8.20772e-06
-0.00101647
-3.26406e-06
9.29372e-06
-0.00102069
-2.44509e-05
1.00593e-05
-0.00102268
-4.88359e-05
1.04631e-05
-0.00102173
-7.71245e-05
1.04244e-05
-0.00101671
-0.000109582
9.81098e-06
-0.00100565
-0.000144604
8.41191e-06
-0.000985634
-0.000176064
5.92804e-06
-0.000952565
1.96434e-06
-0.000899434
-0.000173436
4.14897e-05
6.6811e-06
-0.00123553
2.54986e-05
8.45698e-06
-0.00124489
6.82338e-06
9.84986e-06
-0.00125254
-1.50871e-05
1.08511e-05
-0.00125784
-4.10178e-05
1.14088e-05
-0.00125976
-7.21415e-05
1.14138e-05
-0.00125688
-0.00010974
1.06956e-05
-0.00124635
-0.000153604
8.97804e-06
-0.00122359
-0.000198989
5.81387e-06
-0.00118193
5.35506e-07
-0.0011072
-0.000208093
4.97049e-05
6.45231e-06
-0.0014606
3.35707e-05
8.4552e-06
-0.00147384
1.45422e-05
1.00224e-05
-0.00148538
-8.05091e-06
1.11497e-05
-0.00149445
-3.52467e-05
1.17834e-05
-0.00149986
-6.85875e-05
1.17917e-05
-0.00149979
-0.000110337
1.09695e-05
-0.00149064
-0.000162011
8.98478e-06
-0.00146609
-0.000220985
5.21137e-06
-0.00141656
-1.39299e-06
-0.0013184
-0.000242866
5.55806e-05
6.19173e-06
-0.00168367
3.93128e-05
8.25668e-06
-0.00170104
2.00375e-05
9.8537e-06
-0.00171658
-3.01549e-06
1.09916e-05
-0.00172954
-3.10329e-05
1.16175e-05
-0.00173863
-6.59021e-05
1.15951e-05
-0.00174164
-0.000110814
1.07064e-05
-0.00173435
-0.000169218
8.6011e-06
-0.0017088
-0.000241288
4.4893e-06
-0.00165231
-3.16665e-06
-0.00152947
-0.000276704
5.89531e-05
5.94422e-06
-0.00190631
4.26333e-05
7.85254e-06
-0.00192751
2.331e-05
9.32164e-06
-0.00194669
1.52866e-07
1.03529e-05
-0.00196316
-2.81074e-05
1.08932e-05
-0.00197563
-6.36185e-05
1.08085e-05
-0.00198164
-0.000110405
9.90238e-06
-0.00197657
-0.000173979
7.86465e-06
-0.00195116
-0.000257906
3.81566e-06
-0.00188964
-4.60449e-06
-0.0017427
-0.000306706
5.95049e-05
5.21406e-06
-0.00212906
4.34794e-05
6.72462e-06
-0.00215367
2.44934e-05
7.9447e-06
-0.00217589
1.66935e-06
8.82298e-06
-0.00219534
-2.62815e-05
9.30563e-06
-0.0022107
-6.16275e-05
9.24678e-06
-0.00221936
-0.000109006
8.51062e-06
-0.00221651
-0.000175986
6.87363e-06
-0.00219208
-0.000270446
3.62682e-06
-0.00212774
-4.99403e-06
-0.00195823
-0.000333052
5.75527e-05
3.14399e-06
-0.0023509
4.23884e-05
3.9932e-06
-0.00237783
2.43326e-05
4.78481e-06
-0.0024021
2.30764e-06
5.37583e-06
-0.00242367
-2.5181e-05
5.77237e-06
-0.00244159
-6.03996e-05
5.82952e-06
-0.00245328
-0.000107926
5.49687e-06
-0.00245362
-0.000176755
4.64437e-06
-0.00243169
-0.000279861
3.10709e-06
-0.00236679
-3.91887e-06
-0.00217588
-0.000357403
5.46984e-05
-0.00255891
4.0586e-05
-0.00258815
2.37785e-05
-0.00261474
3.10449e-06
-0.00263825
-2.29019e-05
-0.00265745
-5.66699e-05
-0.0026698
-0.00010268
-0.00267127
-0.000170643
-0.00265165
-0.000278286
-0.00258957
-0.00238344
-0.000375066
6.36634e-06
4.1375e-06
-0.000547498
-7.29124e-06
4.50903e-06
-0.000548313
-2.16079e-05
4.76699e-06
-0.000548051
-3.61823e-05
4.90186e-06
-0.00054664
-5.04255e-05
4.89305e-06
-0.000543964
-6.34537e-05
4.70229e-06
-0.00053992
-7.39397e-05
4.28356e-06
-0.000534506
-7.99109e-05
3.58931e-06
-0.000527976
-7.82661e-05
2.58721e-06
-0.000520881
1.33505e-06
-0.000513253
-6.47025e-05
1.49755e-05
6.24064e-06
-0.000772504
2.42952e-07
7.07405e-06
-0.000774849
-1.58782e-05
7.66053e-06
-0.000775695
-3.30456e-05
7.9904e-06
-0.000774742
-5.07533e-05
8.03152e-06
-0.000771634
-6.81019e-05
7.71718e-06
-0.000765894
-8.35309e-05
6.96944e-06
-0.000757011
-9.44167e-05
5.714e-06
-0.000744602
-9.62921e-05
3.91779e-06
-0.000728579
1.706e-06
-0.000709776
-8.16594e-05
2.47748e-05
6.84435e-06
-0.000998076
9.80131e-06
8.1419e-06
-0.00100257
-7.07544e-06
9.09602e-06
-0.00100525
-2.58175e-05
9.69601e-06
-0.00100565
-4.62372e-05
9.8876e-06
-0.00100317
-6.78468e-05
9.57981e-06
-0.000996966
-8.92969e-05
8.64723e-06
-0.000985874
-0.00010757
6.94224e-06
-0.00096859
-0.000116576
4.3387e-06
-0.00094398
9.31959e-07
-0.000912082
-0.000103152
3.46354e-05
6.88122e-06
-0.00122232
1.91739e-05
8.57254e-06
-0.00122986
1.28497e-06
9.85274e-06
-0.00123541
-1.92234e-05
1.07072e-05
-0.00123834
-4.24483e-05
1.10567e-05
-0.00123771
-6.8298e-05
1.07765e-05
-0.00123223
-9.58213e-05
9.68369e-06
-0.00121986
-0.000122052
7.54581e-06
-0.00119796
-0.00013997
4.1078e-06
-0.00116378
-5.97778e-07
-0.00111542
-0.000130224
4.3088e-05
6.7441e-06
-0.00144693
2.70998e-05
8.69647e-06
-0.00145798
8.32683e-06
1.01885e-05
-0.00146694
-1.36021e-05
1.12072e-05
-0.00147302
-3.91123e-05
1.16642e-05
-0.00147496
-6.84989e-05
1.14007e-05
-0.00147103
-0.000101398
1.01772e-05
-0.00145824
-0.000135336
7.66973e-06
-0.00143228
-0.000163071
3.44316e-06
-0.00138816
-2.62342e-06
-0.00132061
-0.000158835
4.94864e-05
6.50415e-06
-0.00166967
3.31285e-05
8.55619e-06
-0.00168455
1.3759e-05
1.01223e-05
-0.00169714
-9.14864e-06
1.12008e-05
-0.00170663
-3.63009e-05
1.17023e-05
-0.00171152
-6.8391e-05
1.14509e-05
-0.0017096
-0.000105774
1.01703e-05
-0.00169696
-0.000146884
7.46599e-06
-0.00166749
-0.000185029
2.70433e-06
-0.00161342
-4.50887e-06
-0.00152448
-0.000188131
5.35423e-05
6.19409e-06
-0.00189206
3.7009e-05
8.12053e-06
-0.00191054
1.73924e-05
9.59711e-06
-0.00192655
-5.95731e-06
1.06195e-05
-0.00193923
-3.39734e-05
1.11056e-05
-0.00194702
-6.77284e-05
1.08718e-05
-0.0019473
-0.000108377
9.63642e-06
-0.00193539
-0.000155642
6.97623e-06
-0.0019034
-0.000204223
2.08268e-06
-0.00184043
-6.04396e-06
-0.00172933
-0.000216053
5.47813e-05
5.36232e-06
-0.00211443
3.84993e-05
6.90285e-06
-0.00213617
1.91549e-05
8.13676e-06
-0.00215509
-4.02195e-06
9.02069e-06
-0.00217057
-3.2116e-05
9.49073e-06
-0.002181
-6.6498e-05
9.36477e-06
-0.00218348
-0.000109082
8.41293e-06
-0.0021727
-0.000161162
6.23425e-06
-0.00213926
-0.000219867
2.03901e-06
-0.00206899
-6.43638e-06
-0.00193595
-0.000241762
5.34732e-05
3.26474e-06
-0.00233559
3.80031e-05
4.13473e-06
-0.00235959
1.95824e-05
4.93585e-06
-0.00238048
-2.73414e-06
5.52375e-06
-0.00239785
-3.0336e-05
5.91183e-06
-0.00241041
-6.48928e-05
5.94692e-06
-0.00241531
-0.000108756
5.52764e-06
-0.00240687
-0.000164495
4.34383e-06
-0.00237406
-0.00023234
1.95403e-06
-0.00229886
-5.02623e-06
-0.00214421
-0.000265418
5.11479e-05
-0.00254336
3.66544e-05
-0.00256953
1.94516e-05
-0.0025926
-1.5049e-06
-0.00261177
-2.75324e-05
-0.00262551
-6.05006e-05
-0.00263089
-0.000103341
-0.0026229
-0.000160009
-0.00259064
-0.000233695
-0.00251393
-0.00234118
-0.000280986
4.20822e-06
3.6816e-06
-0.000542001
-5.57549e-06
3.97945e-06
-0.000542508
-1.55752e-05
4.15438e-06
-0.000542206
-2.53413e-05
4.20129e-06
-0.000541075
-3.43153e-05
4.10754e-06
-0.000539097
-4.18046e-05
3.8527e-06
-0.000536283
-4.6976e-05
3.41826e-06
-0.000532753
-4.88576e-05
2.7913e-06
-0.000528886
-4.6215e-05
1.97416e-06
-0.000525497
1.03217e-06
-0.000523069
-3.74299e-05
1.07347e-05
5.76962e-06
-0.000763967
-1.0841e-06
6.48402e-06
-0.000765535
-1.3743e-05
6.94053e-06
-0.000765822
-2.67536e-05
7.13265e-06
-0.000764662
-3.94446e-05
7.03589e-06
-0.000761871
-5.08407e-05
6.60367e-06
-0.000757248
-5.95826e-05
5.79369e-06
-0.000750644
-6.3897e-05
4.58864e-06
-0.000742085
-6.15988e-05
3.03396e-06
-0.000731937
1.32217e-06
-0.000721173
-5.04904e-05
1.92314e-05
6.62305e-06
-0.000987384
6.06332e-06
7.78147e-06
-0.000990698
-8.5148e-06
8.58147e-06
-0.000992315
-2.41618e-05
9.00728e-06
-0.000991873
-4.03225e-05
9.00787e-06
-0.00098898
-5.60635e-05
8.50432e-06
-0.000983125
-6.97848e-05
7.40986e-06
-0.000973769
-7.89199e-05
5.65711e-06
-0.000960523
-7.96423e-05
3.25141e-06
-0.000943475
4.48646e-07
-0.000923917
-6.69325e-05
2.83125e-05
6.85457e-06
-0.00121031
1.40139e-05
8.41819e-06
-0.0012162
-2.30116e-06
9.54829e-06
-0.00122006
-2.05004e-05
1.02247e-05
-0.00122136
-4.01913e-05
1.03599e-05
-0.00121937
-6.05858e-05
9.8347e-06
-0.00121316
-7.99872e-05
8.5002e-06
-0.00120155
-9.51841e-05
6.21229e-06
-0.00118332
-0.000100762
2.89278e-06
-0.00115784
-1.14062e-06
-0.00112654
-8.80526e-05
3.65913e-05
6.84972e-06
-0.00143402
2.13221e-05
8.70215e-06
-0.00144299
3.56076e-06
1.00707e-05
-0.0014497
-1.67498e-05
1.09351e-05
-0.00145342
-3.94758e-05
1.11842e-05
-0.00145306
-6.4081e-05
1.0657e-05
-0.00144725
-8.89988e-05
9.13264e-06
-0.00143395
-0.000110673
6.36783e-06
-0.00141076
-0.000122358
2.13856e-06
-0.00137572
-3.23926e-06
-0.00132981
-0.000111063
4.31986e-05
6.66892e-06
-0.00165611
2.72497e-05
8.65751e-06
-0.00166855
8.47163e-06
1.01394e-05
-0.00167843
-1.33785e-05
1.11036e-05
-0.00168495
-3.84606e-05
1.14306e-05
-0.00168668
-6.65576e-05
1.09291e-05
-0.00168178
-9.64498e-05
9.31921e-06
-0.00166726
-0.000124614
6.25973e-06
-0.00163922
-0.000143456
1.34051e-06
-0.00159378
-5.21983e-06
-0.00153065
-0.000135304
4.77288e-05
6.33574e-06
-0.00187801
3.1406e-05
8.23412e-06
-0.0018938
1.20931e-05
9.6651e-06
-0.00190676
-1.06216e-05
1.06189e-05
-0.00191603
-3.71929e-05
1.09845e-05
-0.00192
-6.77756e-05
1.05523e-05
-0.00191634
-0.000101683
9.00843e-06
-0.00190117
-0.000135842
5.93206e-06
-0.00186892
-0.000162466
7.09349e-07
-0.00181318
-6.82412e-06
-0.00173122
-0.00015898
4.95556e-05
5.4283e-06
-0.00209986
3.33714e-05
6.96785e-06
-0.00211872
1.4168e-05
8.17635e-06
-0.0021344
-8.63394e-06
9.01616e-06
-0.00214616
-3.5742e-05
9.40366e-06
-0.00215231
-6.76783e-05
9.13663e-06
-0.00215012
-0.000104401
7.9353e-06
-0.00213491
-0.000143678
5.34412e-06
-0.00209939
-0.000178442
6.82396e-07
-0.0020342
-7.22997e-06
-0.00193273
-0.000181249
4.89352e-05
3.32637e-06
-0.00232029
3.34642e-05
4.20485e-06
-0.00234136
1.50891e-05
4.9981e-06
-0.00235892
-6.91872e-06
5.56047e-06
-0.00237239
-3.3625e-05
5.89775e-06
-0.0023802
-6.60238e-05
5.84866e-06
-0.00237962
-0.000104743
5.27165e-06
-0.00236549
-0.000148438
3.78865e-06
-0.00232881
-0.000191311
9.30138e-07
-0.00225623
-5.57868e-06
-0.00213524
-0.000201931
4.71294e-05
-0.00252764
3.25484e-05
-0.00255074
1.53103e-05
-0.00257036
-5.42572e-06
-0.00258548
-3.06889e-05
-0.00259435
-6.16767e-05
-0.00259405
-9.97249e-05
-0.00257958
-0.000145047
-0.00254153
-0.000193597
-0.00246445
-0.00232597
-0.000214377
2.97837e-06
3.14128e-06
-0.000538865
-3.67974e-06
3.37388e-06
-0.000539224
-1.03688e-05
3.48901e-06
-0.000539006
-1.67109e-05
3.48508e-06
-0.000538218
-2.22866e-05
3.35748e-06
-0.000536879
-2.66389e-05
3.09959e-06
-0.000535031
-2.93025e-05
2.71067e-06
-0.0005328
-2.98461e-05
2.19443e-06
-0.000530537
-2.78309e-05
1.55952e-06
-0.000529071
8.43039e-07
-0.000529242
-2.25005e-05
7.68196e-06
5.12851e-06
-0.00075783
-1.30876e-06
5.72261e-06
-0.000758893
-1.07576e-05
6.06461e-06
-0.000758949
-2.01739e-05
6.15307e-06
-0.000757914
-2.89466e-05
5.97487e-06
-0.000755715
-3.62993e-05
5.50647e-06
-0.000752303
-4.12881e-05
4.7366e-06
-0.000747681
-4.28821e-05
3.68275e-06
-0.000741979
-4.01511e-05
2.41871e-06
-0.000735526
1.11938e-06
-0.000728947
-3.26525e-05
1.47403e-05
6.17596e-06
-0.000978728
3.71931e-06
7.17711e-06
-0.000981132
-8.2776e-06
7.82127e-06
-0.000982075
-2.07695e-05
8.09255e-06
-0.00098132
-3.30857e-05
7.95173e-06
-0.000978641
-4.42656e-05
7.34245e-06
-0.000973781
-5.29652e-05
6.22003e-06
-0.000966552
-5.74294e-05
4.57981e-06
-0.000956956
-5.5617e-05
2.49999e-06
-0.000945369
2.51076e-07
-0.000932821
-4.58436e-05
2.27461e-05
6.6018e-06
-0.00119988
1.00868e-05
8.00604e-06
-0.00120437
-4.14746e-06
8.96792e-06
-0.00120698
-1.95939e-05
9.46438e-06
-0.00120729
-3.56097e-05
9.41507e-06
-0.00120482
-5.1158e-05
8.72149e-06
-0.00119899
-6.45474e-05
7.28506e-06
-0.00118922
-7.32229e-05
5.04871e-06
-0.00117511
-7.37609e-05
2.05804e-06
-0.00115686
-1.29808e-06
-0.00113611
-6.26408e-05
3.05102e-05
6.74936e-06
-0.00142228
1.64658e-05
8.46022e-06
-0.0014294
3.24208e-07
9.67238e-06
-0.00143426
-1.7708e-05
1.03599e-05
-0.00143628
-3.71182e-05
1.04071e-05
-0.00143464
-5.69407e-05
9.66869e-06
-0.00142837
-7.52975e-05
7.97319e-06
-0.00141628
-8.89335e-05
5.17868e-06
-0.00139725
-9.29262e-05
1.23739e-06
-0.00137091
-3.37594e-06
-0.00133943
-8.12295e-05
3.70265e-05
6.65719e-06
-0.00164341
2.19759e-05
8.53673e-06
-0.00165358
4.41613e-06
9.89191e-06
-0.00166109
-1.5623e-05
1.07042e-05
-0.00166525
-3.78496e-05
1.08386e-05
-0.00166488
-6.14721e-05
1.0111e-05
-0.0016586
-8.46291e-05
8.27851e-06
-0.00164441
-0.000103598
5.09998e-06
-0.00162017
-0.000112087
3.83481e-07
-0.00158444
-5.37386e-06
-0.00153971
-0.000101031
4.18006e-05
6.34002e-06
-0.00186457
2.61351e-05
8.16806e-06
-0.00187776
7.72178e-06
9.50952e-06
-0.00188796
-1.35938e-05
1.0349e-05
-0.00189436
-3.77998e-05
1.05557e-05
-0.00189551
-6.43837e-05
9.91818e-06
-0.00188957
-9.17174e-05
8.13748e-06
-0.0018737
-0.000115929
4.86801e-06
-0.00184447
-0.000129683
-2.73556e-07
-0.00179877
-6.98553e-06
-0.00173886
-0.000120424
4.40667e-05
5.39145e-06
-0.0020857
2.83706e-05
6.90008e-06
-0.00210176
9.83939e-06
8.05027e-06
-0.00211441
-1.18734e-05
8.80827e-06
-0.00212291
-3.70412e-05
9.07062e-06
-0.00212565
-6.54953e-05
8.63246e-06
-0.00212038
-9.60318e-05
7.206e-06
-0.00210344
-0.000125002
4.37019e-06
-0.00206993
-0.000144655
-3.55076e-07
-0.00201447
-7.41113e-06
-0.00193829
-0.000138671
4.40729e-05
3.32106e-06
-0.00230534
2.89396e-05
4.19221e-06
-0.00232351
1.1059e-05
4.95943e-06
-0.00233795
-1.0047e-05
5.47562e-06
-0.00234795
-3.50075e-05
5.73324e-06
-0.0023519
-6.41528e-05
5.56939e-06
-0.00234741
-9.6952e-05
4.82391e-06
-0.00233031
-0.000130264
3.12308e-06
-0.00229425
-0.000156284
1.03062e-07
-0.00223067
-5.63988e-06
-0.00213819
-0.000155108
4.27432e-05
-0.00251213
2.83923e-05
-0.0025322
1.15203e-05
-0.00254853
-8.48665e-06
-0.00256
-3.22779e-05
-0.00256483
-6.03933e-05
-0.00256037
-9.28863e-05
-0.00254226
-0.00012786
-0.00250343
-0.000158425
-0.00243378
-0.0023263
-0.00016374
2.21785e-06
2.59139e-06
-0.000537332
-2.15666e-06
2.77078e-06
-0.00053762
-6.5123e-06
2.84768e-06
-0.000537498
-1.05699e-05
2.82243e-06
-0.000536983
-1.40441e-05
2.69596e-06
-0.000536101
-1.66533e-05
2.46962e-06
-0.000534891
-1.8149e-05
2.15118e-06
-0.000533455
-1.83503e-05
1.74932e-06
-0.000532084
-1.71124e-05
1.26733e-06
-0.000531576
7.09277e-07
-0.000533088
-1.39744e-05
5.49051e-06
4.40475e-06
-0.000753706
-1.06529e-06
4.88747e-06
-0.000754454
-7.85668e-06
5.13846e-06
-0.000754448
-1.4459e-05
5.16073e-06
-0.00075365
-2.03894e-05
4.95115e-06
-0.00075204
-2.51004e-05
4.50365e-06
-0.000749625
-2.80026e-05
3.82691e-06
-0.000746455
-2.85429e-05
2.95447e-06
-0.000742644
-2.63588e-05
1.96138e-06
-0.000738404
9.84433e-07
-0.000734066
-2.15147e-05
1.11815e-05
5.56682e-06
-0.000972087
2.35104e-06
6.40708e-06
-0.000973821
-7.12379e-06
6.90834e-06
-0.00097437
-1.67489e-05
7.05869e-06
-0.000973593
-2.58947e-05
6.83313e-06
-0.000971377
-3.37525e-05
6.19881e-06
-0.000967619
-3.93354e-05
5.14372e-06
-0.000962286
-4.15504e-05
3.70003e-06
-0.000955486
-3.93873e-05
1.97268e-06
-0.000947543
1.94829e-07
-0.000939056
-3.2362e-05
1.79864e-05
6.15674e-06
-0.00119122
7.22746e-06
7.38337e-06
-0.00119459
-4.70734e-06
8.17568e-06
-0.00119631
-1.73426e-05
8.511e-06
-0.0011961
-2.99697e-05
8.32618e-06
-0.00119368
-4.15759e-05
7.55024e-06
-0.00118874
-5.07577e-05
6.13194e-06
-0.00118103
-5.57276e-05
4.078e-06
-0.00117052
-5.45315e-05
1.50138e-06
-0.00115759
-1.23274e-06
-0.00114336
-4.58524e-05
2.49947e-05
6.4543e-06
-0.00141203
1.25387e-05
7.99259e-06
-0.00141756
-1.59095e-06
9.03124e-06
-0.00142099
-1.70156e-05
9.54136e-06
-0.00142189
-3.30453e-05
9.41916e-06
-0.0014197
-4.85806e-05
8.54636e-06
-0.00141383
-6.18742e-05
6.8091e-06
-0.00140367
-7.03972e-05
4.15388e-06
-0.0013888
-7.09754e-05
6.52066e-07
-0.00136948
-3.20873e-06
-0.00134749
-6.09321e-05
3.1164e-05
6.46608e-06
-0.00163191
1.74183e-05
8.19828e-06
-0.00164004
1.55788e-06
9.39752e-06
-0.0016456
-1.61712e-05
1.00401e-05
-0.00164802
-3.519e-05
9.99317e-06
-0.00164644
-5.44328e-05
9.09675e-06
-0.0016399
-7.19492e-05
7.16539e-06
-0.00162725
-8.45584e-05
4.06242e-06
-0.00160747
-8.77709e-05
-2.30658e-07
-0.00158034
-5.14047e-06
-0.00154842
-7.7126e-05
3.5957e-05
6.1977e-06
-0.00185207
2.1355e-05
7.91711e-06
-0.00186288
4.34912e-06
9.13494e-06
-0.0018707
-1.49802e-05
9.8309e-06
-0.00187482
-3.62656e-05
9.869e-06
-0.0018741
-5.85974e-05
9.05634e-06
-0.00186719
-8.00145e-05
7.14133e-06
-0.00185226
-9.68728e-05
3.88116e-06
-0.00182743
-0.000103403
-8.98844e-07
-0.00179157
-6.68719e-06
-0.00174784
-9.28727e-05
3.84922e-05
5.24207e-06
-0.00207229
2.36602e-05
6.68977e-06
-0.0020857
6.28521e-06
7.75375e-06
-0.00209565
-1.374e-05
8.40328e-06
-0.00210146
-3.63041e-05
8.52244e-06
-0.00210174
-6.07615e-05
7.92101e-06
-0.00209479
-8.53537e-05
6.33918e-06
-0.00207804
-0.000106261
3.43844e-06
-0.00204858
-0.000116783
-1.04912e-06
-0.00200379
-7.12115e-06
-0.0019471
-0.000107536
3.902e-05
3.24348e-06
-0.00229105
2.45636e-05
4.08863e-06
-0.00230646
7.60555e-06
4.81173e-06
-0.00231805
-1.20767e-05
5.26451e-06
-0.00232513
-3.46795e-05
5.42703e-06
-0.0023262
-5.99765e-05
5.14356e-06
-0.00231934
-8.67395e-05
4.26031e-06
-0.00230147
-0.000111381
2.45646e-06
-0.00226862
-0.00012651
-4.83146e-07
-0.00221611
-5.34971e-06
-0.00214658
-0.000119882
3.8105e-05
-0.00249719
2.43056e-05
-0.00251431
8.1945e-06
-0.00252761
-1.06068e-05
-0.00253593
-3.23631e-05
-0.00253765
-5.70596e-05
-0.00253053
-8.38793e-05
-0.00251118
-0.000110015
-0.00247484
-0.000128417
-0.00241586
-0.00233439
-0.000125669
1.69622e-06
2.08225e-06
-0.000536779
-1.11466e-06
2.22009e-06
-0.000537029
-3.90961e-06
2.27438e-06
-0.000536977
-6.49578e-06
2.24592e-06
-0.000536642
-8.68752e-06
2.13871e-06
-0.000536048
-1.03144e-05
1.95765e-06
-0.000535222
-1.12432e-05
1.71315e-06
-0.000534239
-1.13994e-05
1.41314e-06
-0.000533341
-1.07402e-05
1.05259e-06
-0.000533288
6.05898e-07
-0.000535501
-8.93358e-06
3.90856e-06
3.67254e-06
-0.000751118
-7.12009e-07
4.05795e-06
-0.000751671
-5.45549e-06
4.24134e-06
-0.000751672
-9.98612e-06
4.22842e-06
-0.000751102
-1.39481e-05
4.0231e-06
-0.000749962
-1.69721e-05
3.62974e-06
-0.000748273
-1.87012e-05
3.06651e-06
-0.000746079
-1.88463e-05
2.37037e-06
-0.000743456
-1.72856e-05
1.60702e-06
-0.000740519
8.78265e-07
-0.000737414
-1.42089e-05
8.39969e-06
4.86788e-06
-0.000967236
1.57807e-06
5.55493e-06
-0.000968496
-5.65297e-06
5.93424e-06
-0.000968831
-1.28537e-05
5.99914e-06
-0.000968163
-1.95035e-05
5.73755e-06
-0.000966442
-2.49894e-05
5.13603e-06
-0.000963639
-2.86354e-05
4.20346e-06
-0.000959777
-2.97828e-05
2.9877e-06
-0.000954956
-2.79342e-05
1.59275e-06
-0.000949377
2.0384e-07
-0.000943326
-2.29892e-05
1.40061e-05
5.57192e-06
-0.00118434
5.1932e-06
6.61618e-06
-0.00118684
-4.46428e-06
7.24965e-06
-0.00118797
-1.44722e-05
7.45366e-06
-0.00118755
-2.41713e-05
7.1851e-06
-0.00118543
-3.27038e-05
6.40112e-06
-0.00118147
-3.90105e-05
5.08733e-06
-0.00117561
-4.19123e-05
3.28796e-06
-0.00116792
-4.03338e-05
1.13926e-06
-0.00115871
-1.04925e-06
-0.00114861
-3.38243e-05
2.01216e-05
5.99609e-06
-0.00140339
9.44842e-06
7.34339e-06
-0.00140761
-2.50455e-06
8.20614e-06
-0.00140999
-1.52704e-05
8.5555e-06
-0.00141022
-2.81294e-05
8.30888e-06
-0.00140797
-4.00462e-05
7.3809e-06
-0.0014029
-4.95809e-05
5.71025e-06
-0.00139476
-5.4918e-05
3.30641e-06
-0.00138349
-5.41222e-05
3.02962e-07
-0.00136944
-2.86333e-06
-0.00135376
-4.60384e-05
2.57499e-05
6.11055e-06
-0.00162182
1.35881e-05
7.66711e-06
-0.0016282
-2.75383e-07
8.69566e-06
-0.00163222
-1.54509e-05
9.16986e-06
-0.00163346
-3.12324e-05
8.9732e-06
-0.00163132
-4.65074e-05
7.97998e-06
-0.00162523
-5.95285e-05
6.06728e-06
-0.00161458
-6.78384e-05
3.18485e-06
-0.00159904
-6.84668e-05
-5.73884e-07
-0.00157884
-4.66177e-06
-0.00155582
-5.92611e-05
3.03636e-05
5.91263e-06
-0.0018408
1.71449e-05
7.4914e-06
-0.00184949
1.91611e-06
8.56325e-06
-0.00185533
-1.50561e-05
9.10458e-06
-0.00185778
-3.31885e-05
8.98813e-06
-0.00185598
-5.14101e-05
8.05406e-06
-0.00184905
-6.78078e-05
6.11492e-06
-0.00183591
-7.93617e-05
3.02884e-06
-0.00181572
-8.19426e-05
-1.22414e-06
-0.00178834
-6.08069e-06
-0.00175637
-7.19918e-05
3.29985e-05
4.97795e-06
-0.00205992
1.93535e-05
6.33651e-06
-0.0020709
3.52184e-06
7.2932e-06
-0.00207855
-1.43889e-05
7.82051e-06
-0.00208226
-3.39827e-05
7.80063e-06
-0.00208096
-5.43516e-05
7.07133e-06
-0.00207344
-7.3612e-05
5.42566e-06
-0.00205809
-8.83782e-05
2.62437e-06
-0.00203341
-9.35135e-05
-1.42429e-06
-0.00199846
-6.49706e-06
-0.0019565
-8.36946e-05
3.39219e-05
3.09224e-06
-0.00227773
2.04542e-05
3.89198e-06
-0.00229054
4.79014e-06
4.55499e-06
-0.00229965
-1.30598e-05
4.93296e-06
-0.00230439