/*--------------------------------*- C++ -*----------------------------------*\
| =========                 |                                                 |
| \\      /  F ield         | foam-extend: Open Source CFD                    |
|  \\    /   O peration     | Version:     4.0                                |
|   \\  /    A nd           | Web:         http://www.foam-extend.org         |
|    \\/     M anipulation  |                                                 |
\*---------------------------------------------------------------------------*/
FoamFile
{
    version     2.0;
    format      ascii;
    class       volScalarField;
    location    "400";
    object      rho;
}
// * * * * * * * * * * * * * * * * * * * * * * * * * * * * * * * * * * * * * //

dimensions      [1 -3 0 0 0 0 0];

internalField   nonuniform List<scalar> 
34480
(
1.37888
1.3773
1.37646
1.37667
1.37851
1.38253
1.3893
1.39706
1.39818
1.41246
1.37481
1.37185
1.36936
1.36753
1.36695
1.36851
1.37336
1.38123
1.38234
1.39093
1.37216
1.36793
1.36403
1.36051
1.35773
1.35674
1.35907
1.36539
1.36454
1.36444
1.37095
1.36555
1.36045
1.35548
1.35086
1.34755
1.34734
1.35156
1.348
1.33836
1.3704
1.36409
1.35817
1.35217
1.34623
1.34109
1.33875
1.34088
1.33445
1.31597
1.37086
1.36398
1.35754
1.35086
1.34404
1.33762
1.33365
1.33385
1.32449
1.2982
1.3699
1.36268
1.35606
1.34911
1.34195
1.3349
1.32992
1.32854
1.3164
1.2826
1.37059
1.36343
1.35689
1.35012
1.34316
1.33619
1.33092
1.3285
1.31377
1.27192
1.3679
1.36096
1.35472
1.34862
1.34274
1.33692
1.33223
1.32934
1.31251
1.26294
1.3657
1.35865
1.3523
1.34635
1.34114
1.33666
1.33362
1.3323
1.31589
1.25942
1.39336
1.39217
1.39174
1.39224
1.39408
1.39762
1.40355
1.41275
1.42619
1.44518
1.38734
1.38501
1.38334
1.3824
1.38265
1.38483
1.38995
1.39935
1.41475
1.44124
1.38352
1.38002
1.37708
1.3747
1.3732
1.37344
1.37682
1.38529
1.40076
1.43175
1.38156
1.37686
1.37265
1.3689
1.36574
1.36396
1.3652
1.372
1.38657
1.42029
1.38074
1.37503
1.36983
1.36496
1.36043
1.35689
1.35604
1.36084
1.37372
1.40816
1.3811
1.37466
1.36873
1.363
1.35743
1.35247
1.34979
1.35245
1.36296
1.39589
1.38023
1.37327
1.36688
1.36062
1.35443
1.34852
1.34447
1.34515
1.35295
1.38292
1.38101
1.37385
1.36726
1.36082
1.35443
1.34814
1.34325
1.34229
1.34717
1.37311
1.37865
1.37145
1.36479
1.35847
1.35246
1.34664
1.34176
1.33975
1.34185
1.36498
1.37626
1.36902
1.36225
1.35588
1.35005
1.34484
1.3408
1.33939
1.34041
1.36444
1.40404
1.40351
1.40374
1.4049
1.40719
1.41077
1.41586
1.4226
1.43114
1.44116
1.39705
1.39567
1.39505
1.39534
1.39687
1.4
1.40529
1.41326
1.42455
1.43998
1.39194
1.38958
1.38795
1.38716
1.38754
1.38968
1.39439
1.40277
1.41599
1.43636
1.38876
1.38531
1.38258
1.38063
1.37975
1.38062
1.38427
1.39232
1.40667
1.43145
1.38698
1.38256
1.37888
1.37594
1.37391
1.37352
1.37594
1.38321
1.39799
1.42628
1.38653
1.38136
1.37693
1.37316
1.3702
1.36867
1.36987
1.37608
1.39069
1.42134
1.38511
1.37936
1.3744
1.37006
1.36645
1.36407
1.36423
1.3693
1.3832
1.41488
1.38555
1.37949
1.3742
1.36954
1.36556
1.36267
1.36207
1.36604
1.37871
1.41033
1.38347
1.37722
1.37168
1.36683
1.3628
1.3599
1.35911
1.36239
1.37346
1.40551
1.38106
1.37475
1.36905
1.36403
1.35988
1.35702
1.35645
1.36004
1.36994
1.40381
1.4108
1.41053
1.41085
1.41184
1.41357
1.41608
1.4194
1.42355
1.42837
1.43312
1.40443
1.40357
1.40339
1.404
1.4056
1.40834
1.4124
1.41796
1.42498
1.4327
1.39912
1.39747
1.39654
1.39643
1.3974
1.39982
1.40415
1.41086
1.4203
1.43169
1.3954
1.39282
1.391
1.39002
1.39016
1.39196
1.39607
1.40342
1.41492
1.43021
1.39311
1.38963
1.38697
1.38516
1.38445
1.38547
1.38909
1.39663
1.40976
1.42875
1.39214
1.38793
1.38455
1.38201
1.38053
1.38076
1.38376
1.39114
1.40541
1.42765
1.39037
1.38556
1.38163
1.37853
1.37645
1.37601
1.37839
1.38541
1.40037
1.42523
1.39053
1.38535
1.38103
1.37755
1.37507
1.37415
1.37599
1.38251
1.39761
1.42446
1.38843
1.38302
1.37842
1.37468
1.372
1.37092
1.37256
1.37874
1.39346
1.42254
1.3859
1.38042
1.37565
1.37175
1.36893
1.36777
1.36934
1.37555
1.38968
1.42145
1.41492
1.41479
1.41506
1.41575
1.4169
1.41847
1.42046
1.42284
1.42555
1.42828
1.40984
1.40931
1.40933
1.40996
1.41129
1.41334
1.41613
1.41959
1.4236
1.42761
1.40493
1.40381
1.40331
1.40353
1.40462
1.40676
1.41011
1.41479
1.42074
1.42712
1.40111
1.39922
1.39805
1.39768
1.39833
1.40032
1.40399
1.4097
1.41765
1.42687
1.39858
1.3959
1.39403
1.39303
1.39312
1.39477
1.3985
1.40496
1.41479
1.427
1.39728
1.39392
1.39141
1.3898
1.38934
1.39055
1.39416
1.40109
1.4126
1.42777
1.39528
1.39132
1.38829
1.38617
1.38522
1.38601
1.38941
1.39661
1.40951
1.42747
1.39524
1.39089
1.38745
1.38496
1.38364
1.38407
1.38722
1.39447
1.40833
1.42878
1.39314
1.38854
1.38482
1.38205
1.3805
1.38075
1.38381
1.39111
1.40542
1.42855
1.39057
1.38588
1.38198
1.37906
1.37735
1.37748
1.38043
1.38774
1.40197
1.42787
1.41724
1.41717
1.41734
1.41776
1.41844
1.41935
1.42047
1.42178
1.42336
1.42513
1.41361
1.41329
1.41335
1.41385
1.41481
1.4162
1.41799
1.42007
1.42231
1.4244
1.40947
1.40871
1.40845
1.40876
1.40972
1.41138
1.41377
1.41683
1.42042
1.42397
1.40588
1.40452
1.40378
1.40374
1.40453
1.40633
1.40925
1.41336
1.41857
1.42408
1.40336
1.40133
1.40005
1.39956
1.40006
1.40183
1.40512
1.41016
1.41706
1.42479
1.40192
1.39928
1.39746
1.39651
1.39665
1.39827
1.40177
1.4076
1.41617
1.42629
1.3998
1.3966
1.39431
1.39294
1.39274
1.39416
1.39777
1.4042
1.41435
1.4269
1.39965
1.39606
1.39338
1.39167
1.39118
1.3924
1.39601
1.40287
1.41431
1.42919
1.39757
1.39372
1.39077
1.38881
1.3881
1.38919
1.39286
1.40007
1.41241
1.42975
1.39502
1.39106
1.38794
1.38584
1.38499
1.38596
1.38956
1.39688
1.40952
1.42918
1.41848
1.41843
1.41853
1.41877
1.41915
1.41965
1.42025
1.42098
1.42196
1.42328
1.41616
1.41596
1.41602
1.41635
1.41698
1.41786
1.41896
1.42018
1.42144
1.42256
1.41292
1.4124
1.41227
1.41256
1.4133
1.4145
1.41612
1.41808
1.42022
1.42221
1.40974
1.40878
1.40832
1.40842
1.40918
1.41064
1.41282
1.41567
1.41901
1.42232
1.40743
1.40592
1.40505
1.40488
1.40552
1.40713
1.4098
1.41355
1.41825
1.42316
1.406
1.40397
1.40267
1.40216
1.40262
1.40428
1.40734
1.41193
1.41807
1.42479
1.40388
1.40134
1.39965
1.39882
1.39907
1.4007
1.40406
1.4094
1.41699
1.42565
1.40369
1.4008
1.39875
1.39764
1.39769
1.39927
1.40282
1.40877
1.41765
1.42826
1.40166
1.3985
1.39621
1.39488
1.39476
1.39629
1.4
1.40647
1.41641
1.42906
1.39917
1.3959
1.39346
1.392
1.39176
1.39322
1.39693
1.4036
1.41403
1.42849
1.41913
1.4191
1.41915
1.41927
1.41947
1.41974
1.42006
1.42047
1.42112
1.42224
1.41784
1.41772
1.41775
1.41796
1.41834
1.41887
1.41952
1.42021
1.42091
1.4215
1.41548
1.41513
1.41506
1.41529
1.41582
1.41664
1.4177
1.41893
1.4202
1.42133
1.4128
1.41213
1.41184
1.41199
1.41261
1.41372
1.41529
1.41722
1.41935
1.42135
1.41081
1.40971
1.40913
1.40911
1.40974
1.41108
1.41314
1.41584
1.41901
1.42213
1.4095
1.40797
1.40706
1.40683
1.4074
1.4089
1.41141
1.41489
1.4192
1.42365
1.40747
1.4055
1.40427
1.4038
1.40427
1.40588
1.40876
1.41299
1.41851
1.42443
1.40732
1.40503
1.40351
1.40283
1.40319
1.40483
1.40802
1.4129
1.41956
1.42701
1.40534
1.4028
1.40107
1.40022
1.40047
1.40212
1.40554
1.41098
1.41865
1.42771
1.40298
1.40033
1.39846
1.3975
1.39766
1.39929
1.40276
1.40846
1.41665
1.42705
1.4195
1.41948
1.41951
1.41957
1.41967
1.4198
1.41998
1.42022
1.42069
1.4217
1.41895
1.41887
1.41889
1.41901
1.41924
1.41954
1.4199
1.42029
1.42067
1.42096
1.41737
1.41714
1.4171
1.41725
1.41761
1.41814
1.41882
1.41957
1.42032
1.42094
1.41519
1.41472
1.41454
1.41468
1.41515
1.41594
1.41703
1.41831
1.41967
1.42088
1.41357
1.41278
1.41239
1.41245
1.41298
1.41402
1.41554
1.41745
1.41957
1.42156
1.41245
1.41132
1.41069
1.41062
1.41117
1.41242
1.41437
1.41694
1.41993
1.42288
1.41056
1.40907
1.40819
1.40796
1.40849
1.40991
1.41226
1.41549
1.41944
1.42347
1.41051
1.40875
1.40763
1.40725
1.40775
1.40927
1.41196
1.4158
1.42068
1.42585
1.4086
1.4066
1.40532
1.40481
1.40525
1.40684
1.40977
1.41413
1.41987
1.42626
1.40641
1.40431
1.4029
1.40232
1.4027
1.4043
1.40733
1.41196
1.41816
1.42552
1.41977
1.41976
1.41977
1.4198
1.41985
1.41992
1.42001
1.42016
1.42053
1.42148
1.4197
1.41966
1.41966
1.41973
1.41986
1.42003
1.42023
1.42043
1.42063
1.42076
1.41877
1.41862
1.41859
1.41869
1.41891
1.41925
1.41966
1.42011
1.42054
1.42086
1.41702
1.4167
1.41659
1.41669
1.41703
1.41757
1.4183
1.41913
1.41998
1.4207
1.41578
1.41522
1.41497
1.41504
1.41546
1.41623
1.41731
1.41862
1.42002
1.42128
1.41488
1.41407
1.41364
1.41364
1.41412
1.4151
1.41655
1.41839
1.42045
1.42239
1.41317
1.41206
1.41144
1.41135
1.41186
1.41303
1.41485
1.41724
1.42003
1.42276
1.41327
1.41193
1.41114
1.41095
1.41147
1.41278
1.41492
1.41784
1.42135
1.42491
1.41143
1.40989
1.40896
1.40869
1.40919
1.41059
1.41298
1.41634
1.42052
1.42496
1.40945
1.40782
1.40679
1.40646
1.40694
1.40838
1.41088
1.41449
1.41905
1.42419
1.42003
1.42003
1.42004
1.42005
1.42007
1.42011
1.42016
1.42025
1.42056
1.42148
1.42024
1.42022
1.42022
1.42025
1.42032
1.42041
1.42052
1.42063
1.42072
1.42077
1.41982
1.41972
1.4197
1.41976
1.4199
1.4201
1.42035
1.42061
1.42084
1.42099
1.41841
1.4182
1.41813
1.4182
1.41843
1.41879
1.41926
1.41979
1.42031
1.42072
1.41753
1.41714
1.41698
1.41704
1.41735
1.41789
1.41864
1.41952
1.42043
1.42121
1.41685
1.41628
1.41599
1.41602
1.4164
1.41713
1.41818
1.41947
1.42086
1.42212
1.41532
1.41452
1.4141
1.41408
1.41451
1.41542
1.41678
1.41851
1.42043
1.42226
1.4156
1.41462
1.41406
1.41399
1.41446
1.41552
1.41716
1.4193
1.42178
1.4242
1.41383
1.41267
1.41201
1.41188
1.41237
1.41353
1.41539
1.4179
1.42088
1.42392
1.4121
1.41087
1.41013
1.40997
1.41045
1.41166
1.41363
1.41635
1.41962
1.42316
1.42033
1.42033
1.42034
1.42034
1.42035
1.42037
1.4204
1.42046
1.42072
1.42162
1.42066
1.42065
1.42065
1.42067
1.4207
1.42075
1.42081
1.42086
1.4209
1.4209
1.42064
1.42057
1.42056
1.42059
1.42067
1.42079
1.42094
1.42108
1.4212
1.42125
1.41946
1.41933
1.41928
1.41933
1.41948
1.41971
1.42001
1.42034
1.42065
1.42087
1.4189
1.41864
1.41853
1.41858
1.4188
1.41917
1.41967
1.42025
1.42083
1.4213
1.41842
1.41802
1.41783
1.41788
1.41816
1.41869
1.41942
1.42029
1.42122
1.42201
1.41707
1.4165
1.41622
1.41624
1.41658
1.41726
1.41824
1.41945
1.42076
1.42196
1.41755
1.41684
1.41646
1.41645
1.41684
1.41766
1.41887
1.4204
1.42211
1.42372
1.41582
1.41497
1.41452
1.41447
1.41489
1.41581
1.41721
1.41902
1.4211
1.42316
1.41438
1.41347
1.41296
1.41289
1.41332
1.41429
1.41578
1.41776
1.42006
1.42247
1.42068
1.42068
1.42069
1.42069
1.42069
1.4207
1.42072
1.42076
1.42098
1.42186
1.42101
1.421
1.421
1.42101
1.42103
1.42106
1.42109
1.42111
1.42112
1.4211
1.4213
1.42126
1.42125
1.42127
1.42132
1.42139
1.42147
1.42155
1.4216
1.42159
1.42028
1.42019
1.42016
1.42019
1.42029
1.42043
1.42062
1.42082
1.421
1.4211
1.41997
1.4198
1.41973
1.41977
1.41992
1.42017
1.42049
1.42086
1.42123
1.4215
1.41966
1.41939
1.41927
1.41931
1.41951
1.41988
1.42037
1.42096
1.42156
1.42205
1.41848
1.41808
1.41789
1.41792
1.41818
1.41867
1.41935
1.42018
1.42105
1.42183
1.41914
1.41865
1.4184
1.41842
1.41873
1.41932
1.42019
1.42125
1.42241
1.42346
1.41745
1.41684
1.41653
1.41653
1.41687
1.41756
1.41857
1.41985
1.42127
1.42264
1.41633
1.41567
1.41533
1.41531
1.41567
1.4164
1.4175
1.4189
1.42047
1.42208
1.42109
1.42109
1.42109
1.42109
1.4211
1.4211
1.4211
1.42113
1.42133
1.42217
1.42131
1.42131
1.42131
1.42132
1.42133
1.42134
1.42135
1.42136
1.42136
1.42133
1.42187
1.42184
1.42184
1.42185
1.42187
1.42191
1.42196
1.422
1.42202
1.42198
1.42091
1.42085
1.42084
1.42085
1.42091
1.421
1.42112
1.42124
1.42134
1.42137
1.42082
1.42072
1.42067
1.4207
1.4208
1.42096
1.42117
1.4214
1.42162
1.42176
1.42063
1.42046
1.42038
1.42041
1.42055
1.4208
1.42112
1.42151
1.42189
1.42218
1.41959
1.41933
1.4192
1.41923
1.41942
1.41975
1.42022
1.42077
1.42134
1.42183
1.42045
1.42012
1.41995
1.41998
1.42021
1.42063
1.42123
1.42195
1.42272
1.42338
1.41874
1.41831
1.41811
1.41813
1.41838
1.41888
1.41959
1.42047
1.42142
1.42232
1.41799
1.41753
1.4173
1.41731
1.41759
1.41812
1.41889
1.41985
1.42091
1.42197
1.42155
1.42155
1.42156
1.42156
1.42155
1.42155
1.42156
1.42158
1.42174
1.42253
1.42157
1.42157
1.42158
1.42158
1.42159
1.42159
1.4216
1.4216
1.42159
1.42156
1.42238
1.42236
1.42236
1.42236
1.42238
1.4224
1.42243
1.42245
1.42245
1.4224
1.42141
1.42138
1.42136
1.42138
1.42141
1.42147
1.42153
1.4216
1.42166
1.42166
1.4215
1.42143
1.42141
1.42143
1.42149
1.42159
1.42172
1.42187
1.422
1.42207
1.42139
1.42128
1.42123
1.42125
1.42134
1.42151
1.42172
1.42196
1.42221
1.42237
1.42047
1.4203
1.42022
1.42025
1.42037
1.4206
1.4209
1.42126
1.42163
1.42193
1.42151
1.42129
1.42119
1.42121
1.42138
1.42167
1.42207
1.42254
1.42305
1.42345
1.41974
1.41945
1.41932
1.41934
1.41953
1.41987
1.42035
1.42094
1.42156
1.42214
1.41941
1.4191
1.41895
1.41897
1.41917
1.41955
1.42008
1.42072
1.42141
1.4221
1.42209
1.42209
1.4221
1.42209
1.42209
1.42209
1.42209
1.4221
1.42223
1.42296
1.42178
1.42179
1.42179
1.4218
1.4218
1.4218
1.42181
1.42181
1.4218
1.42176
1.42285
1.42284
1.42284
1.42284
1.42285
1.42287
1.42288
1.42289
1.42289
1.42284
1.42182
1.4218
1.42179
1.42179
1.42181
1.42185
1.42189
1.42193
1.42195
1.42194
1.42204
1.422
1.42198
1.42199
1.42203
1.4221
1.42218
1.42227
1.42235
1.42238
1.42197
1.42189
1.42187
1.42188
1.42194
1.42205
1.42218
1.42234
1.42249
1.42258
1.42117
1.42106
1.42101
1.42103
1.42112
1.42126
1.42146
1.42169
1.42191
1.4221
1.42237
1.42222
1.42216
1.42218
1.4223
1.42249
1.42276
1.42306
1.42339
1.42362
1.42048
1.42029
1.4202
1.42022
1.42035
1.42059
1.4209
1.42129
1.42169
1.42206
1.42068
1.42047
1.42038
1.4204
1.42055
1.4208
1.42115
1.42157
1.42201
1.42244
1.4228
1.4228
1.4228
1.42279
1.42279
1.42278
1.42278
1.42278
1.42288
1.42352
1.42193
1.42193
1.42194
1.42194
1.42194
1.42194
1.42195
1.42194
1.42194
1.42191
1.42328
1.42328
1.42328
1.42328
1.42329
1.4233
1.42331
1.42332
1.42331
1.42327
1.42215
1.42214
1.42213
1.42214
1.42215
1.42217
1.42219
1.42221
1.42222
1.4222
1.42245
1.42243
1.42242
1.42243
1.42245
1.42249
1.42255
1.4226
1.42265
1.42266
1.42238
1.42234
1.42232
1.42233
1.42237
1.42244
1.42253
1.42263
1.42272
1.42277
1.42172
1.42165
1.42162
1.42164
1.42169
1.42178
1.42191
1.42205
1.42219
1.42229
1.42301
1.42292
1.42289
1.4229
1.42298
1.42311
1.42328
1.42348
1.42369
1.42382
1.42097
1.42085
1.42079
1.42081
1.4209
1.42105
1.42126
1.4215
1.42175
1.42199
1.42192
1.42179
1.42173
1.42175
1.42185
1.42202
1.42224
1.42251
1.42279
1.42306
1.42388
1.42388
1.42388
1.42387
1.42387
1.42387
1.42386
1.42386
1.42391
1.42442
1.42193
1.42193
1.42194
1.42194
1.42194
1.42194
1.42194
1.42193
1.42193
1.4219
1.42362
1.42362
1.42362
1.42363
1.42364
1.42365
1.42366
1.42367
1.42367
1.42364
1.42244
1.42243
1.42243
1.42243
1.42243
1.42244
1.42246
1.42247
1.42247
1.42245
1.42275
1.42273
1.42273
1.42274
1.42275
1.42278
1.42282
1.42286
1.42289
1.42289
1.42266
1.42263
1.42262
1.42263
1.42266
1.4227
1.42276
1.42283
1.42289
1.42292
1.42213
1.42209
1.42207
1.42208
1.42212
1.42218
1.42226
1.42235
1.42243
1.42249
1.42336
1.4233
1.42328
1.42329
1.42334
1.42343
1.42355
1.42368
1.42383
1.42391
1.42115
1.42107
1.42104
1.42105
1.42111
1.42121
1.42134
1.4215
1.42166
1.42182
1.42337
1.42328
1.42325
1.42326
1.42333
1.42344
1.42359
1.42377
1.42394
1.42411
1.42559
1.42558
1.42559
1.42559
1.4256
1.42561
1.42562
1.42563
1.42568
1.42603
1.42163
1.42163
1.42163
1.42163
1.42162
1.42162
1.42161
1.4216
1.42159
1.42155
1.42374
1.42375
1.42375
1.42376
1.42377
1.42378
1.4238
1.42382
1.42383
1.42383
1.42272
1.42271
1.42271
1.42271
1.42271
1.42272
1.42273
1.42273
1.42274
1.42272
1.42296
1.42295
1.42295
1.42296
1.42297
1.42299
1.42302
1.42305
1.42308
1.42308
1.42285
1.42283
1.42282
1.42283
1.42285
1.42288
1.42292
1.42297
1.42302
1.42305
1.42244
1.42241
1.4224
1.42241
1.42243
1.42248
1.42253
1.42259
1.42265
1.4227
1.42326
1.42321
1.4232
1.42321
1.42325
1.42331
1.4234
1.4235
1.42362
1.4237
1.42089
1.42084
1.42082
1.42083
1.42087
1.42094
1.42103
1.42114
1.42123
1.42135
1.42527
1.4252
1.42518
1.42519
1.42523
1.42531
1.42542
1.42555
1.42569
1.42582
1.42744
1.42745
1.42746
1.42747
1.4275
1.42754
1.42758
1.42764
1.4277
1.42792
1.42112
1.42111
1.42111
1.4211
1.42109
1.42108
1.42105
1.42103
1.42099
1.4209
1.42368
1.42368
1.42368
1.42369
1.4237
1.42371
1.42373
1.42376
1.42379
1.42382
1.42303
1.42302
1.42302
1.42302
1.42303
1.42303
1.42304
1.42305
1.42306
1.42306
1.42316
1.42315
1.42315
1.42316
1.42317
1.42319
1.42321
1.42324
1.42328
1.42331
1.42303
1.42302
1.42301
1.42302
1.42304
1.42306
1.4231
1.42315
1.4232
1.42324
1.42272
1.42269
1.42268
1.42269
1.42271
1.42275
1.4228
1.42286
1.42292
1.42297
1.4229
1.42287
1.42285
1.42286
1.42289
1.42295
1.42303
1.42312
1.42324
1.42336
1.4204
1.42036
1.42034
1.42035
1.42038
1.42044
1.42052
1.42061
1.42068
1.42072
1.42722
1.42714
1.42711
1.42711
1.42716
1.42723
1.42733
1.42745
1.42758
1.42775
1.53949
1.55609
1.55142
1.5413
1.55067
1.57019
1.56358
1.55408
1.55619
1.57663
1.57667
1.56511
1.55916
1.58085
1.58762
1.57458
1.56469
1.58843
1.60196
1.59139
1.57488
1.60115
1.62109
1.61805
1.58326
1.6109
1.63475
1.63683
1.59
1.61786
1.64379
1.64947
1.58572
1.61279
1.63972
1.64836
1.56863
1.59359
1.62104
1.63348
1.45963
1.47001
1.47323
1.46875
1.46608
1.47843
1.48322
1.48009
1.46911
1.48332
1.48899
1.48825
1.47225
1.48792
1.49583
1.49709
1.47598
1.49259
1.50215
1.50456
1.4796
1.49653
1.50692
1.50974
1.48258
1.49961
1.51054
1.51554
1.48716
1.504
1.51524
1.52223
1.48714
1.50325
1.51495
1.52385
1.48425
1.49918
1.51188
1.52215
1.44754
1.45214
1.45333
1.45204
1.4527
1.45818
1.46023
1.45999
1.45517
1.46203
1.46532
1.46565
1.45776
1.46603
1.47072
1.47188
1.4614
1.47094
1.47688
1.47915
1.46642
1.4771
1.4842
1.4876
1.47034
1.48181
1.4897
1.49418
1.47578
1.48772
1.49615
1.50172
1.47788
1.48972
1.49836
1.50477
1.4788
1.48996
1.49808
1.50412
1.43395
1.43632
1.43718
1.43661
1.43783
1.44048
1.44195
1.44223
1.43972
1.44318
1.44534
1.4462
1.44188
1.4462
1.44917
1.45083
1.44487
1.45001
1.45372
1.45618
1.44895
1.45482
1.45922
1.46257
1.45231
1.4588
1.46382
1.46813
1.45736
1.46431
1.46982
1.47507
1.45936
1.46647
1.47229
1.47821
1.45915
1.46636
1.47221
1.47789
1.42724
1.42863
1.42912
1.42873
1.43011
1.43148
1.43235
1.43272
1.43122
1.43314
1.43446
1.43523
1.43296
1.43546
1.4373
1.43861
1.43563
1.43871
1.44107
1.44293
1.43948
1.44312
1.44599
1.44845
1.44273
1.44689
1.4502
1.4533
1.44773
1.45231
1.45601
1.45975
1.45007
1.45483
1.45877
1.46292
1.45045
1.45536
1.45928
1.46306
1.42315
1.42408
1.42436
1.424
1.4256
1.42631
1.42683
1.42717
1.42609
1.42716
1.42799
1.42862
1.42736
1.42882
1.43002
1.43102
1.42958
1.43145
1.43301
1.43441
1.43288
1.43515
1.43707
1.4389
1.43564
1.43828
1.44054
1.44282
1.44021
1.44317
1.44572
1.44845
1.44246
1.44562
1.44837
1.45134
1.44287
1.44624
1.44903
1.45166
1.42087
1.42158
1.42174
1.42135
1.42314
1.42352
1.42384
1.42409
1.42335
1.42395
1.42447
1.42493
1.42416
1.42504
1.42582
1.42653
1.42596
1.42712
1.42816
1.42916
1.42873
1.43018
1.43148
1.43278
1.43096
1.43269
1.43424
1.43584
1.43503
1.437
1.43876
1.44067
1.43699
1.43914
1.44105
1.44309
1.43728
1.43959
1.44155
1.44332
1.41962
1.42022
1.42031
1.41989
1.42176
1.42196
1.42215
1.42234
1.42193
1.42226
1.42259
1.42292
1.42239
1.42291
1.42341
1.42392
1.42379
1.42451
1.4252
1.4259
1.42604
1.42696
1.42784
1.42875
1.42771
1.42883
1.42989
1.43102
1.43122
1.43253
1.43375
1.43508
1.43276
1.43421
1.43555
1.43696
1.43284
1.43442
1.4358
1.43701
1.419
1.41956
1.41961
1.41916
1.42105
1.42114
1.42125
1.42139
1.42124
1.42143
1.42164
1.42187
1.42145
1.42175
1.42208
1.42244
1.42254
1.42299
1.42345
1.42394
1.42434
1.42494
1.42553
1.42617
1.42552
1.42625
1.42698
1.42777
1.42852
1.42939
1.43023
1.43115
1.42954
1.43052
1.43146
1.43243
1.42942
1.4305
1.43146
1.43229
1.41879
1.41933
1.41936
1.41887
1.42075
1.42078
1.42084
1.42095
1.42099
1.42108
1.42121
1.42138
1.42099
1.42116
1.42137
1.42163
1.42185
1.42213
1.42243
1.42278
1.42328
1.42366
1.42406
1.42451
1.42404
1.42452
1.42502
1.42557
1.4266
1.42717
1.42776
1.4284
1.42711
1.42777
1.42842
1.4291
1.42684
1.42757
1.42824
1.42882
1.41883
1.41938
1.41939
1.41888
1.4207
1.42069
1.42073
1.42082
1.42101
1.42105
1.42113
1.42126
1.42083
1.42092
1.42106
1.42125
1.42152
1.42168
1.42188
1.42213
1.42264
1.42287
1.42314
1.42347
1.42305
1.42336
1.4237
1.42409
1.42526
1.42563
1.42603
1.42649
1.42532
1.42575
1.4262
1.42668
1.42497
1.42547
1.42593
1.42633
1.41905
1.41961
1.41962
1.41908
1.4208
1.42078
1.4208
1.42087
1.42122
1.42122
1.42127
1.42136
1.42088
1.42092
1.421
1.42114
1.42144
1.42153
1.42166
1.42184
1.4223
1.42244
1.42262
1.42285
1.42242
1.42261
1.42284
1.42312
1.42436
1.4246
1.42487
1.42519
1.42405
1.42434
1.42464
1.42498
1.42371
1.42404
1.42436
1.42463
1.4194
1.41996
1.41997
1.41942
1.42098
1.42095
1.42097
1.42103
1.42153
1.42151
1.42154
1.42162
1.42105
1.42105
1.42111
1.42121
1.42153
1.42157
1.42166
1.42179
1.42218
1.42225
1.42237
1.42254
1.42207
1.42218
1.42233
1.42253
1.42383
1.42397
1.42415
1.42438
1.4232
1.42337
1.42358
1.42382
1.42293
1.42315
1.42336
1.42355
1.41985
1.42042
1.42042
1.41986
1.42121
1.42117
1.42118
1.42123
1.42191
1.42189
1.4219
1.42196
1.42129
1.42128
1.42131
1.42139
1.42174
1.42175
1.42181
1.42191
1.42222
1.42225
1.42233
1.42245
1.42193
1.42199
1.42209
1.42223
1.42357
1.42365
1.42377
1.42394
1.42265
1.42276
1.42289
1.42306
1.42254
1.42269
1.42283
1.42296
1.42039
1.42096
1.42096
1.42039
1.42144
1.4214
1.42141
1.42145
1.42233
1.42231
1.42232
1.42236
1.42156
1.42154
1.42156
1.42162
1.42202
1.42201
1.42204
1.42212
1.42235
1.42236
1.42241
1.4225
1.42195
1.42197
1.42203
1.42214
1.42353
1.42357
1.42365
1.42377
1.42233
1.42239
1.42248
1.42259
1.42248
1.42257
1.42266
1.42275
1.42103
1.42158
1.42158
1.42103
1.42164
1.42161
1.42161
1.42165
1.42278
1.42275
1.42276
1.4228
1.42184
1.42181
1.42182
1.42188
1.42231
1.4223
1.42232
1.42237
1.42253
1.42253
1.42256
1.42263
1.42206
1.42206
1.4221
1.42218
1.42364
1.42366
1.42371
1.42379
1.42215
1.42218
1.42223
1.42232
1.42269
1.42275
1.4228
1.42286
1.42185
1.42236
1.42237
1.42185
1.42179
1.42175
1.42175
1.42179
1.42323
1.42321
1.42321
1.42324
1.42211
1.42208
1.42209
1.42213
1.4226
1.42258
1.42259
1.42263
1.42272
1.42271
1.42273
1.42277
1.42223
1.42222
1.42225
1.42231
1.42381
1.42382
1.42385
1.42391
1.42202
1.42203
1.42207
1.42213
1.42321
1.42324
1.42328
1.42332
1.4231
1.42354
1.42354
1.4231
1.42178
1.42175
1.42175
1.42178
1.42362
1.42361
1.42361
1.42363
1.42237
1.42235
1.42235
1.42238
1.42284
1.42283
1.42283
1.42286
1.42287
1.42286
1.42288
1.42291
1.42242
1.42241
1.42242
1.42247
1.42391
1.42392
1.42394
1.42397
1.42182
1.42182
1.42184
1.42188
1.4242
1.42422
1.42424
1.42427
1.42518
1.42548
1.42548
1.42518
1.42143
1.4214
1.4214
1.42143
1.42383
1.42383
1.42383
1.42383
1.42265
1.42263
1.42263
1.42266
1.42305
1.42304
1.42304
1.42306
1.42302
1.42301
1.42302
1.42304
1.42262
1.42261
1.42262
1.42266
1.42377
1.42378
1.42379
1.42381
1.4213
1.4213
1.42131
1.42135
1.42588
1.4259
1.42591
1.42593
1.42778
1.4279
1.4279
1.42778
1.42073
1.42067
1.42067
1.42073
1.42384
1.42385
1.42385
1.42384
1.42301
1.423
1.423
1.42302
1.42329
1.42329
1.4233
1.42331
1.42324
1.42324
1.42324
1.42326
1.42293
1.42292
1.42293
1.42296
1.42349
1.42352
1.42353
1.42353
1.42049
1.42045
1.42047
1.42053
1.42783
1.42785
1.42787
1.42787
1.47306
1.4488
1.431
1.41602
1.40558
1.39814
1.39242
1.38788
1.38421
1.38122
1.48665
1.45457
1.43231
1.41724
1.40654
1.39855
1.39214
1.38682
1.38231
1.37833
1.49235
1.45859
1.43375
1.41911
1.40794
1.3993
1.39216
1.38608
1.38079
1.37633
1.50118
1.46503
1.43885
1.42349
1.41135
1.40186
1.39388
1.38698
1.38082
1.37582
1.5108
1.47196
1.44441
1.42762
1.41447
1.40406
1.39533
1.38777
1.38091
1.37568
1.5215
1.47935
1.45081
1.43226
1.41825
1.40698
1.39762
1.38953
1.38217
1.37656
1.53145
1.48349
1.45516
1.43447
1.41985
1.40774
1.39786
1.38931
1.38157
1.37582
1.54312
1.48805
1.46063
1.43777
1.42282
1.41
1.39977
1.39086
1.38293
1.37678
1.54946
1.48753
1.46129
1.43677
1.42181
1.40848
1.39802
1.38884
1.3809
1.37439
1.55487
1.48729
1.46212
1.43613
1.42079
1.40681
1.39588
1.38627
1.37818
1.37141
1.46058
1.4463
1.43512
1.42598
1.41828
1.41179
1.40638
1.4019
1.39828
1.39542
1.4685
1.45163
1.43795
1.42674
1.41758
1.41005
1.40382
1.3986
1.39424
1.39046
1.4754
1.45652
1.44037
1.42802
1.41789
1.40962
1.40271
1.39682
1.39174
1.38737
1.48167
1.46308
1.4451
1.43171
1.4207
1.41165
1.40395
1.39725
1.39128
1.38623
1.4887
1.47042
1.45065
1.43601
1.42404
1.41413
1.40564
1.39823
1.39146
1.38598
1.49845
1.4785
1.45743
1.44128
1.42838
1.41758
1.40839
1.40034
1.39294
1.38693
1.50842
1.48415
1.46266
1.44464
1.4309
1.41922
1.40936
1.40074
1.39278
1.38647
1.52031
1.49051
1.4691
1.44913
1.43479
1.42232
1.41195
1.40283
1.39452
1.38768
1.52829
1.49213
1.47107
1.44963
1.43496
1.42185
1.41103
1.40147
1.39298
1.38571
1.53538
1.49266
1.47204
1.44934
1.43411
1.42039
1.40914
1.39922
1.3906
1.38314
1.45074
1.44344
1.43593
1.42912
1.42317
1.41808
1.4138
1.41026
1.40746
1.40537
1.4561
1.44693
1.43732
1.42877
1.42148
1.41536
1.41022
1.40589
1.40232
1.39934
1.46138
1.45066
1.43901
1.42911
1.42078
1.4138
1.40788
1.40284
1.39856
1.39494
1.46727
1.45584
1.44276
1.43185
1.4226
1.41476
1.408
1.40212
1.39695
1.39258
1.47416
1.46202
1.44766
1.43556
1.42529
1.41652
1.40893
1.4023
1.39631
1.39141
1.48295
1.46945
1.45396
1.44038
1.42908
1.41939
1.41104
1.40373
1.39708
1.39158
1.49214
1.47525
1.45903
1.44361
1.43134
1.42072
1.41165
1.40373
1.39648
1.3906
1.50331
1.48198
1.46546
1.44812
1.43511
1.42368
1.41405
1.40559
1.39793
1.39152
1.51102
1.48458
1.46813
1.44936
1.4359
1.42376
1.41359
1.40463
1.39667
1.38984
1.5171
1.48563
1.46924
1.44925
1.43518
1.42243
1.41186
1.40256
1.39445
1.38743
1.43815
1.43468
1.43087
1.42712
1.42358
1.42033
1.41747
1.41504
1.41309
1.41166
1.4412
1.43736
1.43244
1.42739
1.42262
1.41827
1.41443
1.41111
1.40836
1.40608
1.4454
1.44071
1.43435
1.42796
1.42201
1.41666
1.41196
1.40788
1.4044
1.40146
1.45064
1.44541
1.43798
1.43047
1.42347
1.41718
1.41157
1.40661
1.40226
1.39854
1.45707
1.45112
1.44266
1.43395
1.42588
1.41862
1.41214
1.40638
1.40119
1.39687
1.46533
1.45807
1.44866
1.43854
1.4294
1.42118
1.41389
1.4074
1.40151
1.39655
1.47353
1.4638
1.45356
1.44175
1.43157
1.42238
1.41432
1.40718
1.40064
1.39525
1.48377
1.47067
1.45989
1.44629
1.43527
1.42523
1.41654
1.40882
1.40183
1.3959
1.49081
1.47392
1.46285
1.44783
1.43616
1.42533
1.41604
1.40782
1.40049
1.39417
1.49579
1.4752
1.46375
1.44752
1.43524
1.42387
1.41424
1.40572
1.39825
1.39176
1.43118
1.42912
1.42704
1.42497
1.42292
1.42097
1.41918
1.41763
1.41638
1.41546
1.43262
1.431
1.42849
1.42559
1.42259
1.41969
1.417
1.41462
1.41264
1.41099
1.43549
1.43347
1.43011
1.42617
1.42216
1.41833
1.41481
1.41168
1.40898
1.40669
1.43967
1.43741
1.43332
1.42841
1.42341
1.41863
1.41421
1.4102
1.40666
1.40361
1.44504
1.44242
1.43761
1.43165
1.42563
1.41988
1.41456
1.40973
1.40536
1.40169
1.45201
1.44867
1.44312
1.43596
1.4289
1.4222
1.41605
1.41046
1.40538
1.40104
1.45882
1.45398
1.44769
1.43908
1.43097
1.42331
1.41635
1.41008
1.40432
1.39951
1.46769
1.46061
1.45374
1.4436
1.4346
1.42606
1.41843
1.41155
1.40531
1.39996
1.47376
1.4641
1.45679
1.44531
1.43552
1.42616
1.4179
1.41052
1.40392
1.39821
1.47763
1.46528
1.45748
1.44488
1.43453
1.42468
1.4161
1.40845
1.4017
1.39582
1.42679
1.42536
1.42418
1.42307
1.42195
1.42085
1.41981
1.41889
1.41813
1.41757
1.42739
1.42675
1.42551
1.4239
1.4221
1.42026
1.41849
1.41688
1.41553
1.4144
1.42917
1.42845
1.42676
1.42446
1.4219
1.41928
1.41678
1.41448
1.41247
1.41076
1.43227
1.43153
1.4294
1.42635
1.42294
1.41947
1.41612
1.41301
1.41023
1.40781
1.43654
1.43575
1.43313
1.42925
1.42495
1.42058
1.41638
1.41246
1.40889
1.40587
1.44222
1.44117
1.43801
1.43319
1.42795
1.42269
1.41767
1.413
1.40873
1.40504
1.44761
1.44581
1.44206
1.43609
1.42988
1.4237
1.41787
1.41251
1.40757
1.4034
1.45502
1.45194
1.44768
1.44047
1.43338
1.42635
1.41983
1.41386
1.40842
1.40371
1.45994
1.45528
1.45056
1.44215
1.43423
1.4264
1.41927
1.41281
1.40699
1.40196
1.46259
1.45614
1.451
1.44166
1.43323
1.42495
1.41752
1.4108
1.40482
1.39962
1.42425
1.42309
1.42235
1.42175
1.42115
1.42055
1.41997
1.41945
1.41901
1.41868
1.42436
1.42413
1.42351
1.42263
1.42157
1.42045
1.41934
1.41831
1.41743
1.41668
1.42546
1.4253
1.42449
1.42317
1.42158
1.41985
1.41812
1.4165
1.41506
1.41383
1.4276
1.42754
1.42648
1.42464
1.42239
1.41995
1.4175
1.41516
1.41306
1.4112
1.43087
1.43093
1.42957
1.42713
1.42414
1.42093
1.41771
1.41463
1.41181
1.4094
1.43536
1.43544
1.43373
1.43059
1.42683
1.42282
1.41884
1.41506
1.41157
1.40853
1.43946
1.43929
1.43716
1.43315
1.42854
1.42369
1.41896
1.4145
1.41036
1.40686
1.44553
1.44476
1.44222
1.43726
1.43184
1.42622
1.42081
1.41576
1.41114
1.40711
1.44929
1.44767
1.44469
1.43873
1.43254
1.42619
1.42021
1.41471
1.4097
1.40537
1.45087
1.44819
1.44487
1.4382
1.43156
1.4248
1.41853
1.41278
1.40761
1.40311
1.4228
1.42176
1.42126
1.42092
1.42061
1.42029
1.41997
1.41968
1.41943
1.41924
1.42259
1.42254
1.42224
1.42177
1.42117
1.42051
1.41984
1.41921
1.41866
1.41818
1.42337
1.42344
1.42305
1.42231
1.42133
1.42021
1.41906
1.41795
1.41696
1.41611
1.42476
1.42497
1.42446
1.42337
1.4219
1.42023
1.41849
1.41679
1.41525
1.41388
1.4272
1.4276
1.42693
1.42542
1.42338
1.42107
1.41867
1.41633
1.41417
1.41231
1.43068
1.43123
1.43037
1.42836
1.42571
1.42273
1.41967
1.41669
1.41393
1.4115
1.43368
1.43425
1.43312
1.43049
1.42714
1.42344
1.4197
1.4161
1.41274
1.40987
1.4386
1.43897
1.43755
1.43423
1.4302
1.42581
1.42146
1.41731
1.41349
1.41013
1.44131
1.44127
1.43947
1.43537
1.43068
1.42568
1.42081
1.41624
1.41205
1.40842
1.44207
1.44147
1.43943
1.43481
1.42974
1.42438
1.41924
1.41443
1.41008
1.40627
1.42202
1.42105
1.42066
1.42047
1.4203
1.42014
1.41997
1.41981
1.41968
1.41957
1.42162
1.42165
1.42152
1.42128
1.42095
1.42057
1.42018
1.4198
1.41948
1.41917
1.42223
1.42237
1.42221
1.42179
1.4212
1.42049
1.41975
1.41902
1.41836
1.4178
1.42309
1.42337
1.42314
1.42249
1.42154
1.42042
1.41922
1.41803
1.41694
1.41596
1.42492
1.42538
1.42506
1.42412
1.42275
1.42113
1.41939
1.41767
1.41606
1.41468
1.42758
1.42824
1.42783
1.42656
1.42472
1.42255
1.42026
1.41799
1.41587
1.41399
1.42969
1.43048
1.42992
1.42821
1.42583
1.42307
1.42019
1.41737
1.41471
1.41244
1.43366
1.43448
1.43373
1.43153
1.42861
1.42528
1.42187
1.41856
1.41548
1.41277
1.43544
1.43608
1.43505
1.4323
1.42885
1.42502
1.42116
1.41747
1.41405
1.41109
1.43564
1.43601