/*--------------------------------*- C++ -*----------------------------------*\
| =========                 |                                                 |
| \\      /  F ield         | foam-extend: Open Source CFD                    |
|  \\    /   O peration     | Version:     4.0                                |
|   \\  /    A nd           | Web:         http://www.foam-extend.org         |
|    \\/     M anipulation  |                                                 |
\*---------------------------------------------------------------------------*/
FoamFile
{
    version     2.0;
    format      ascii;
    class       volScalarField;
    location    "400";
    object      T;
}
// * * * * * * * * * * * * * * * * * * * * * * * * * * * * * * * * * * * * * //

dimensions      [0 0 0 1 0 0 0];

internalField   nonuniform List<scalar> 
34480
(
281.244
280.814
280.372
279.899
279.366
278.773
278.235
278.123
278.96
282.23
280.878
280.376
279.875
279.359
278.784
278.095
277.315
276.694
276.634
278.882
280.952
280.397
279.83
279.234
278.569
277.755
276.754
275.737
274.968
276.195
281.141
280.483
279.801
279.08
278.281
277.326
276.129
274.777
273.373
273.638
281.323
280.571
279.787
278.953
278.03
276.942
275.573
273.923
271.93
271.284
281.556
280.726
279.86
278.936
277.915
276.718
275.209
273.303
270.753
269.193
281.73
280.845
279.924
278.943
277.86
276.595
274.993
272.875
269.798
267.321
281.897
280.98
280.031
279.023
277.918
276.636
275.01
272.762
269.198
265.754
281.971
281.044
280.083
279.055
277.922
276.62
274.988
272.659
268.598
264.165
282.732
281.81
280.846
279.815
278.689
277.422
275.868
273.615
269.154
263.526
282.46
282.275
282.156
282.123
282.2
282.433
282.896
283.683
285.021
287.789
281.636
281.358
281.137
280.998
280.963
281.067
281.397
282.083
283.301
286.171
281.362
281.018
280.718
280.476
280.315
280.264
280.406
280.903
281.938
284.853
281.256
280.821
280.418
280.058
279.764
279.568
279.544
279.863
280.698
283.576
281.189
280.676
280.188
279.732
279.326
279.007
278.84
278.992
279.626
282.435
281.204
280.629
280.077
279.548
279.058
278.642
278.356
278.355
278.793
281.52
281.2
280.585
279.995
279.423
278.884
278.403
278.029
277.886
278.108
280.677
281.239
280.603
279.996
279.407
278.848
278.339
277.916
277.661
277.645
279.938
281.243
280.605
279.995
279.397
278.82
278.285
277.825
277.482
277.182
279.05
281.929
281.292
280.678
280.079
279.51
278.996
278.561
278.217
277.622
278.733
283.466
283.364
283.339
283.404
283.582
283.899
284.394
285.109
286.113
287.538
282.489
282.298
282.177
282.152
282.249
282.514
283.01
283.815
285.037
286.85
282.091
281.827
281.624
281.502
281.492
281.642
282.039
282.807
284.11
286.278
281.889
281.536
281.233
281
280.869
280.895
281.178
281.881
283.219
285.684
281.754
281.324
280.936
280.607
280.369
280.279
280.447
281.064
282.391
285.082
281.714
281.22
280.764
280.36
280.035
279.847
279.91
280.43
281.708
284.552
281.668
281.13
280.631
280.177
279.792
279.532
279.504
279.916
281.103
284.017
281.671
281.108
280.585
280.103
279.684
279.377
279.282
279.591
280.645
283.541
281.643
281.076
280.547
280.054
279.611
279.264
279.105
279.31
280.189
283.003
282.274
281.709
281.175
280.68
280.243
279.907
279.736
279.881
280.554
283.15
284.184
284.132
284.149
284.241
284.419
284.692
285.066
285.536
286.093
286.766
283.183
283.06
283.008
283.045
283.192
283.474
283.921
284.557
285.399
286.429
282.719
282.526
282.402
282.365
282.444
282.674
283.108
283.806
284.823
286.188
282.448
282.174
281.961
281.832
281.819
281.971
282.361
283.086
284.247
285.94
282.257
281.909
281.617
281.402
281.3
281.368
281.697
282.418
283.684
285.669
282.169
281.757
281.398
281.111
280.931
280.92
281.183
281.882
283.218
285.453
282.085
281.628
281.223
280.883
280.644
280.568
280.766
281.42
282.778
285.199
282.057
281.572
281.138
280.766
280.486
280.36
280.5
281.094
282.43
284.968
282.015
281.522
281.079
280.693
280.387
280.218
280.293
280.807
282.064
284.677
282.61
282.116
281.666
281.273
280.964
280.794
280.849
281.302
282.423
285.019
284.636
284.61
284.633
284.71
284.842
285.031
285.271
285.543
285.811
286.068
283.707
283.629
283.613
283.667
283.804
284.034
284.369
284.807
285.333
285.894
283.241
283.104
283.032
283.039
283.145
283.371
283.744
284.282
284.987
285.804
282.941
282.733
282.588
282.527
282.575
282.767
283.147
283.761
284.637
285.727
282.717
282.441
282.228
282.096
282.08
282.222
282.588
283.251
284.277
285.636
282.595
282.258
281.983
281.788
281.709
281.8
282.14
282.833
283.987
285.601
282.483
282.1
281.779
281.535
281.405
281.447
281.753
282.452
283.699
285.532
282.432
282.019
281.667
281.389
281.219
281.218
281.485
282.169
283.468
285.476
282.378
281.954
281.59
281.296
281.102
281.064
281.282
281.918
283.214
285.361
282.938
282.512
282.138
281.835
281.633
281.589
281.788
282.387
283.616
285.828
284.896
284.881
284.9
284.952
285.039
285.157
285.298
285.443
285.553
285.604
284.082
284.033
284.032
284.082
284.189
284.356
284.584
284.864
285.181
285.497
283.657
283.562
283.522
283.547
283.649
283.837
284.122
284.504
284.968
285.464
283.359
283.205
283.111
283.09
283.162
283.347
283.669
284.14
284.758
285.457
283.124
282.91
282.759
282.686
282.717
282.884
283.222
283.767
284.533
285.449
282.982
282.713
282.508
282.384
282.372
282.511
282.855
283.46
284.368
285.505
282.852
282.539
282.291
282.124
282.072
282.182
282.52
283.164
284.193
285.537
282.784
282.44
282.161
281.962
281.878
281.957
282.278
282.94
284.058
285.583
282.721
282.363
282.07
281.855
281.75
281.802
282.094
282.741
283.9
285.576
283.251
282.888
282.584
282.358
282.243
282.287
282.567
283.201
284.345
286.112
285.024
285.015
285.027
285.059
285.111
285.179
285.258
285.33
285.358
285.299
284.335
284.305
284.308
284.346
284.422
284.534
284.68
284.854
285.042
285.225
283.975
283.911
283.889
283.917
284
284.143
284.346
284.606
284.906
285.216
283.702
283.591
283.53
283.531
283.605
283.762
284.011
284.354
284.777
285.232
283.473
283.312
283.207
283.172
283.225
283.383
283.666
284.087
284.637
285.255
283.326
283.116
282.967
282.893
282.919
283.071
283.38
283.871
284.553
285.346
283.187
282.936
282.749
282.642
282.641
282.78
283.103
283.652
284.454
285.423
283.11
282.828
282.613
282.478
282.452
282.575
282.9
283.486
284.388
285.518
283.04
282.743
282.512
282.362
282.32
282.427
282.742
283.337
284.299
285.565
283.543
283.24
282.997
282.835
282.784
282.884
283.194
283.794
284.772
286.124
285.073
285.067
285.073
285.091
285.12
285.158
285.2
285.233
285.219
285.103
284.497
284.478
284.481
284.507
284.557
284.628
284.719
284.825
284.938
285.049
284.209
284.166
284.154
284.179
284.241
284.342
284.481
284.653
284.847
285.047
283.974
283.895
283.857
283.867
283.931
284.054
284.237
284.479
284.765
285.067
283.764
283.645
283.574
283.562
283.618
283.754
283.977
284.288
284.676
285.096
283.623
283.462
283.357
283.318
283.361
283.504
283.761
284.142
284.639
285.194
283.484
283.287
283.15
283.085
283.113
283.257
283.54
283.983
284.587
285.28
283.405
283.179
283.016
282.929
282.942
283.081
283.38
283.869
284.567
285.392
283.331
283.088
282.911
282.811
282.812
282.944
283.246
283.759
284.521
285.456
283.809
283.56
283.37
283.26
283.252
283.38
283.685
284.214
285.006
286.011
285.078
285.073
285.075
285.085
285.101
285.121
285.143
285.155
285.121
284.974
284.596
284.584
284.585
284.602
284.633
284.677
284.732
284.796
284.865
284.935
284.375
284.346
284.34
284.358
284.402
284.471
284.563
284.676
284.802
284.935
284.182
284.128
284.104
284.116
284.167
284.257
284.388
284.553
284.746
284.95
284
283.914
283.867
283.866
283.918
284.026
284.194
284.418
284.686
284.976
283.873
283.753
283.679
283.662
283.71
283.833
284.037
284.322
284.677
285.065
283.741
283.589
283.491
283.455
283.497
283.629
283.864
284.207
284.65
285.144
283.665
283.488
283.368
283.316
283.349
283.485
283.742
284.133
284.657
285.254
283.59
283.397
283.263
283.2
283.226
283.362
283.631
284.052
284.634
285.313
284.045
283.845
283.701
283.629
283.649
283.784
284.06
284.502
285.118
285.85
285.06
285.056
285.057
285.062
285.07
285.081
285.092
285.093
285.051
284.888
284.652
284.644
284.645
284.655
284.673
284.7
284.733
284.772
284.815
284.862
284.49
284.471
284.467
284.48
284.509
284.554
284.615
284.688
284.771
284.863
284.338
284.3
284.286
284.296
284.334
284.398
284.488
284.6
284.73
284.87
284.187
284.125
284.095
284.099
284.141
284.224
284.346
284.503
284.688
284.888
284.079
283.99
283.94
283.935
283.979
284.079
284.234
284.442
284.692
284.964
283.957
283.843
283.774
283.757
283.801
283.913
284.1
284.357
284.677
285.028
283.891
283.754
283.668
283.639
283.68
283.802
284.013
284.315
284.699
285.127
283.816
283.665
283.567
283.53
283.567
283.693
283.92
284.252
284.685
285.171
284.249
284.092
283.985
283.941
283.975
284.103
284.339
284.693
285.158
285.681
285.034
285.03
285.03
285.032
285.037
285.042
285.048
285.045
285.001
284.829
284.683
284.678
284.678
284.683
284.694
284.71
284.73
284.754
284.782
284.814
284.568
284.556
284.553
284.561
284.58
284.609
284.648
284.695
284.751
284.817
284.451
284.426
284.417
284.425
284.451
284.495
284.556
284.631
284.718
284.817
284.331
284.288
284.268
284.274
284.306
284.366
284.452
284.56
284.687
284.827
284.243
284.18
284.146
284.147
284.184
284.261
284.375
284.523
284.697
284.887
284.135
284.051
284.003
283.997
284.037
284.128
284.27
284.459
284.685
284.933
284.082
283.979
283.918
283.904
283.946
284.048
284.213
284.439
284.716
285.019
284.008
283.893
283.822
283.803
283.843
283.952
284.134
284.387
284.702
285.046
284.421
284.301
284.222
284.198
284.237
284.349
284.541
284.815
285.156
285.525
285.005
285.002
285.001
285.003
285.005
285.008
285.01
285.006
284.963
284.789
284.698
284.695
284.694
284.697
284.704
284.713
284.725
284.741
284.759
284.783
284.621
284.613
284.611
284.616
284.628
284.646
284.671
284.702
284.74
284.788
284.532
284.515
284.509
284.515
284.533
284.562
284.602
284.651
284.71
284.782
284.44
284.411
284.398
284.403
284.427
284.469
284.528
284.601
284.687
284.786
284.372
284.328
284.306
284.308
284.338
284.394
284.476
284.579
284.698
284.832
284.278
284.218
284.185
284.184
284.218
284.288
284.393
284.527
284.685
284.86
284.241
284.165
284.123
284.118
284.154
284.236
284.361
284.525
284.72
284.934
284.168
284.082
284.033
284.024
284.061
284.15
284.29
284.477
284.702
284.942
284.56
284.471
284.415
284.403
284.441
284.534
284.684
284.888
285.133
285.388
284.978
284.975
284.974
284.975
284.976
284.978
284.979
284.974
284.934
284.761
284.704
284.702
284.702
284.703
284.707
284.713
284.72
284.73
284.743
284.761
284.657
284.652
284.651
284.654
284.661
284.673
284.688
284.708
284.735
284.771
284.588
284.577
284.573
284.577
284.589
284.608
284.634
284.666
284.706
284.758
284.521
284.502
284.493
284.498
284.514
284.543
284.582
284.631
284.689
284.759
284.472
284.441
284.427
284.43
284.452
284.492
284.549
284.619
284.7
284.794
284.39
284.348
284.326
284.328
284.354
284.406
284.481
284.575
284.683
284.805
284.37
284.316
284.287
284.287
284.317
284.379
284.47
284.587
284.722
284.871
284.297
284.235
284.201
284.198
284.23
284.299
284.403
284.538
284.694
284.861
284.669
284.604
284.566
284.561
284.594
284.667
284.78
284.928
285.099
285.274
284.953
284.95
284.95
284.95
284.951
284.952
284.952
284.948
284.913
284.744
284.705
284.704
284.704
284.705
284.707
284.71
284.715
284.722
284.731
284.746
284.684
284.681
284.68
284.682
284.686
284.693
284.703
284.716
284.735
284.763
284.627
284.62
284.617
284.62
284.627
284.639
284.656
284.677
284.704
284.742
284.582
284.569
284.564
284.567
284.578
284.597
284.623
284.655
284.693
284.743
284.547
284.526
284.517
284.52
284.535
284.563
284.601
284.648
284.702
284.769
284.477
284.447
284.433
284.435
284.455
284.492
284.544
284.608
284.681
284.766
284.474
284.437
284.417
284.419
284.442
284.487
284.552
284.633
284.724
284.827
284.399
284.354
284.331
284.331
284.357
284.408
284.483
284.578
284.685
284.798
284.751
284.705
284.679
284.678
284.705
284.76
284.842
284.946
285.063
285.181
284.931
284.928
284.928
284.928
284.928
284.929
284.929
284.926
284.896
284.735
284.703
284.702
284.702
284.703
284.704
284.706
284.709
284.714
284.721
284.732
284.704
284.702
284.702
284.703
284.705
284.71
284.716
284.724
284.738
284.759
284.653
284.648
284.647
284.648
284.653
284.66
284.671
284.684
284.702
284.731
284.626
284.618
284.614
284.616
284.624
284.636
284.653
284.673
284.699
284.735
284.602
284.589
284.583
284.585
284.596
284.615
284.64
284.67
284.706
284.752
284.541
284.522
284.512
284.515
284.529
284.554
284.589
284.632
284.68
284.739
284.557
284.532
284.519
284.521
284.538
284.57
284.615
284.669
284.73
284.8
284.475
284.444
284.429
284.43
284.45
284.486
284.539
284.603
284.675
284.752
284.808
284.777
284.759
284.761
284.781
284.821
284.878
284.95
285.029
285.106
284.912
284.91
284.91
284.91
284.91
284.911
284.911
284.908
284.885
284.735
284.698
284.698
284.698
284.698
284.699
284.7
284.702
284.705
284.71
284.72
284.722
284.721
284.721
284.721
284.723
284.725
284.729
284.735
284.744
284.761
284.669
284.666
284.666
284.666
284.669
284.674
284.68
284.689
284.701
284.722
284.658
284.653
284.651
284.652
284.657
284.665
284.675
284.688
284.705
284.73
284.642
284.634
284.63
284.632
284.639
284.651
284.667
284.687
284.71
284.742
284.589
284.576
284.57
284.572
284.582
284.599
284.622
284.649
284.681
284.721
284.623
284.606
284.598
284.6
284.612
284.634
284.664
284.699
284.739
284.786
284.529
284.508
284.499
284.5
284.514
284.539
284.575
284.618
284.665
284.716
284.847
284.826
284.815
284.816
284.831
284.859
284.898
284.946
284.997
285.047
284.901
284.899
284.899
284.899
284.899
284.9
284.9
284.898
284.881
284.748
284.689
284.689
284.689
284.689
284.689
284.69
284.692
284.694
284.698
284.705
284.739
284.738
284.738
284.739
284.74
284.741
284.743
284.747
284.753
284.766
284.68
284.678
284.677
284.678
284.679
284.682
284.686
284.691
284.699
284.714
284.68
284.677
284.676
284.677
284.68
284.685
284.691
284.699
284.71
284.728
284.669
284.664
284.662
284.663
284.667
284.675
284.685
284.698
284.712
284.734
284.623
284.615
284.611
284.612
284.619
284.63
284.644
284.662
284.682
284.708
284.673
284.663
284.658
284.66
284.668
284.682
284.702
284.725
284.75
284.781
284.563
284.549
284.543
284.545
284.554
284.571
284.594
284.622
284.652
284.687
284.874
284.86
284.853
284.855
284.866
284.884
284.91
284.941
284.974
285.005
284.908
284.907
284.907
284.907
284.907
284.907
284.907
284.906
284.896
284.786
284.673
284.673
284.673
284.673
284.673
284.673
284.674
284.675
284.678
284.684
284.754
284.753
284.753
284.754
284.754
284.755
284.757
284.759
284.763
284.772
284.685
284.684
284.684
284.684
284.685
284.686
284.689
284.692
284.696
284.707
284.694
284.692
284.692
284.692
284.694
284.697
284.701
284.706
284.713
284.725
284.685
284.681
284.68
284.681
284.684
284.689
284.695
284.703
284.712
284.727
284.645
284.64
284.638
284.639
284.643
284.65
284.659
284.67
284.682
284.699
284.707
284.7
284.697
284.699
284.704
284.714
284.727
284.742
284.758
284.777
284.575
284.567
284.563
284.564
284.57
284.581
284.596
284.614
284.633
284.656
284.902
284.894
284.89
284.891
284.898
284.911
284.927
284.947
284.968
284.988
284.949
284.95
284.95
284.95
284.95
284.951
284.952
284.952
284.948
284.872
284.641
284.641
284.64
284.64
284.64
284.64
284.64
284.64
284.642
284.645
284.76
284.76
284.76
284.761
284.762
284.763
284.764
284.766
284.769
284.775
284.689
284.688
284.688
284.688
284.688
284.689
284.69
284.692
284.694
284.701
284.701
284.7
284.7
284.7
284.701
284.704
284.706
284.71
284.714
284.721
284.692
284.689
284.689
284.689
284.691
284.695
284.699
284.704
284.71
284.719
284.658
284.655
284.654
284.654
284.657
284.662
284.668
284.674
284.682
284.692
284.716
284.711
284.709
284.71
284.714
284.721
284.729
284.74
284.751
284.764
284.559
284.554
284.551
284.552
284.557
284.564
284.573
284.585
284.596
284.612
284.951
284.945
284.942
284.943
284.948
284.956
284.968
284.981
284.995
285.008
285.025
285.025
285.025
285.026
285.028
285.03
285.032
285.035
285.038
285.012
284.588
284.587
284.587
284.587
284.586
284.585
284.584
284.583
284.582
284.581
284.755
284.755
284.755
284.756
284.757
284.758
284.759
284.761
284.763
284.768
284.693
284.693
284.693
284.693
284.693
284.694
284.694
284.695
284.696
284.699
284.705
284.704
284.704
284.704
284.705
284.707
284.709
284.712
284.714
284.719
284.694
284.693
284.692
284.693
284.694
284.697
284.7
284.704
284.708
284.714
284.666
284.664
284.663
284.663
284.665
284.669
284.673
284.678
284.683
284.69
284.699
284.695
284.694
284.695
284.698
284.703
284.709
284.717
284.727
284.738
284.515
284.511
284.509
284.51
284.513
284.519
284.526
284.534
284.541
284.549
285.018
285.013
285.01
285.011
285.015
285.021
285.029
285.04
285.051
285.063
292.752
297.127
298.157
296.078
292.038
296.766
298.018
296.284
291.943
296.97
298.566
297.811
291.832
297.089
299.042
299.074
291.7
297.068
299.257
299.612
291.505
296.846
299.115
299.532
291.363
296.643
298.997
299.641
291.293
296.483
298.917
299.838
291.029
296.135
298.679
299.923
290.837
295.876
298.573
300.217
292.609
294.032
294.277
293.413
292.227
293.838
294.143
293.318
292.383
294.158
294.69
294.024
292.595
294.525
295.246
294.813
292.922
294.976
295.826
295.556
293.404
295.523
296.438
296.328
293.817
295.94
296.851
296.767
294.168
296.27
297.179
297.161
294.255
296.354
297.304
297.409
294.216
296.432
297.559
297.935
289.348
289.988
290.195
289.907
288.918
289.748
290.022
289.718
289.087
290.045
290.407
290.217
289.354
290.442
290.919
290.841
289.678
290.878
291.436
291.413
290.096
291.385
292
292.031
290.501
291.86
292.524
292.632
290.914
292.324
293.034
293.233
291.168
292.602
293.368
293.689
291.523
292.945
293.833
294.415
287.849
288.103
288.212
288.178
287.337
287.751
287.915
287.85
287.459
287.962
288.196
288.184
287.682
288.283
288.593
288.636
287.957
288.649
289.029
289.126
288.348
289.128
289.573
289.729
288.735
289.593
290.098
290.323
289.152
290.075
290.636
290.933
289.495
290.455
291.068
291.46
290.139
291.074
291.761
292.354
286.862
286.942
287.008
287.058
286.323
286.541
286.649
286.651
286.42
286.694
286.85
286.891
286.598
286.94
287.151
287.238
286.817
287.226
287.492
287.628
287.144
287.622
287.943
288.131
287.478
288.022
288.399
288.644
287.849
288.451
288.88
289.184
288.162
288.802
289.279
289.663
288.806
289.429
289.967
290.531
286.288
286.285
286.323
286.402
285.729
285.853
285.921
285.933
285.806
285.968
286.069
286.108
285.948
286.155
286.296
286.371
286.125
286.38
286.562
286.674
286.404
286.709
286.934
287.088
286.692
287.046
287.315
287.511
287.015
287.415
287.724
287.965
287.285
287.714
288.06
288.362
287.917
288.333
288.718
289.159
285.933
285.886
285.909
285.998
285.363
285.437
285.479
285.488
285.426
285.527
285.591
285.618
285.537
285.668
285.76
285.812
285.675
285.84
285.962
286.042
285.908
286.107
286.261
286.371
286.147
286.381
286.566
286.708
286.419
286.686
286.902
287.075
286.638
286.925
287.166
287.383
287.236
287.514
287.782
288.1
285.707
285.637
285.65
285.745
285.138
285.184
285.21
285.214
285.186
285.252
285.293
285.307
285.269
285.357
285.417
285.448
285.376
285.486
285.567
285.618
285.566
285.7
285.804
285.877
285.76
285.918
286.044
286.14
285.986
286.167
286.314
286.432
286.154
286.347
286.51
286.658
286.714
286.9
287.082
287.299
285.558
285.473
285.48
285.579
284.997
285.028
285.043
285.043
285.033
285.078
285.103
285.108
285.092
285.152
285.19
285.207
285.17
285.246
285.299
285.33
285.323
285.415
285.485
285.531
285.475
285.584
285.669
285.731
285.66
285.784
285.884
285.961
285.781
285.912
286.022
286.119
286.301
286.426
286.548
286.693
285.453
285.358
285.362
285.465
284.908
284.93
284.939
284.936
284.935
284.967
284.983
284.982
284.974
285.017
285.041
285.048
285.028
285.082
285.117
285.133
285.148
285.213
285.26
285.287
285.262
285.339
285.396
285.435
285.412
285.499
285.566
285.615
285.492
285.583
285.657
285.719
285.973
286.058
286.14
286.235
285.375
285.273
285.275
285.382
284.851
284.867
284.873
284.868
284.872
284.897
284.907
284.902
284.895
284.927
284.943
284.943
284.931
284.97
284.993
285
285.023
285.07
285.101
285.116
285.104
285.159
285.197
285.22
285.224
285.286
285.331
285.361
285.271
285.335
285.385
285.424
285.713
285.771
285.826
285.888
285.313
285.205
285.207
285.317
284.813
284.826
284.829
284.823
284.833
284.852
284.858
284.851
284.843
284.867
284.877
284.874
284.866
284.895
284.91
284.911
284.934
284.969
284.989
284.996
284.987
285.027
285.053
285.064
285.085
285.129
285.16
285.177
285.104
285.15
285.183
285.206
285.509
285.548
285.585
285.625
285.26
285.149
285.15
285.263
284.787
284.797
284.799
284.793
284.808
284.823
284.827
284.819
284.807
284.826
284.832
284.827
284.822
284.844
284.854
284.851
284.872
284.898
284.912
284.913
284.901
284.931
284.948
284.953
284.983
285.016
285.036
285.045
284.979
285.012
285.034
285.047
285.35
285.377
285.401
285.427
285.213
285.099
285.1
285.214
284.768
284.776
284.777
284.771
284.793
284.805
284.808
284.8
284.782
284.797
284.801
284.795
284.793
284.81
284.816
284.812
284.829
284.849
284.858
284.856
284.84
284.862
284.873
284.874
284.912
284.936
284.95
284.953
284.886
284.911
284.926
284.932
285.227
285.245
285.261
285.278
285.168
285.054
285.055
285.169
284.751
284.759
284.759
284.754
284.785
284.795
284.796
284.789
284.764
284.776
284.778
284.772
284.774
284.788
284.792
284.786
284.8
284.815
284.821
284.817
284.796
284.813
284.82
284.818
284.864
284.882
284.891
284.891
284.818
284.836
284.846
284.848
285.133
285.145
285.156
285.166
285.125
285.014
285.014
285.125
284.736
284.742
284.743
284.738
284.782
284.79
284.791
284.784
284.749
284.758
284.76
284.754
284.762
284.772
284.775
284.769
284.779
284.791
284.794
284.79
284.765
284.777
284.782
284.779
284.835
284.848
284.854
284.852
284.768
284.781
284.787
284.787
285.062
285.07
285.077
285.083
285.084
284.98
284.98
285.084
284.719
284.724
284.724
284.72
284.783
284.789
284.79
284.784
284.736
284.743
284.744
284.739
284.753
284.761
284.762
284.757
284.763
284.772
284.774
284.77
284.742
284.752
284.755
284.751
284.818
284.828
284.831
284.829
284.727
284.737
284.741
284.739
285.013
285.018
285.022
285.026
285.054
284.963
284.963
285.054
284.695
284.699
284.699
284.695
284.786
284.791
284.791
284.787
284.724
284.729
284.73
284.725
284.745
284.751
284.752
284.747
284.749
284.756
284.757
284.753
284.725
284.732
284.734
284.73
284.805
284.813
284.815
284.812
284.689
284.697
284.699
284.696
284.991
284.994
284.997
284.999
285.055
284.987
284.987
285.055
284.654
284.657
284.657
284.654
284.785
284.789
284.79
284.786
284.713
284.717
284.718
284.714
284.736
284.741
284.741
284.738
284.736
284.741
284.742
284.738
284.71
284.715
284.716
284.714
284.787
284.792
284.794
284.791
284.638
284.644
284.646
284.643
285.01
285.013
285.015
285.015
285.09
285.06
285.06
285.09
284.586
284.587
284.587
284.586
284.776
284.779
284.779
284.776
284.707
284.71
284.71
284.708
284.729
284.732
284.733
284.73
284.726
284.729
284.73
284.727
284.701
284.704
284.705
284.703
284.757
284.762
284.763
284.761
284.564
284.568
284.57
284.568
285.068
285.07
285.071
285.071
289.016
286.452
285.271
284.567
283.991
283.454
282.962
282.508
282.079
281.663
289.581
287.498
286.086
285.069
284.249
283.564
282.957
282.401
281.876
281.374
290.883
288.501
286.754
285.605
284.661
283.885
283.203
282.583
282.01
281.481
292.205
289.59
287.689
286.391
285.342
284.471
283.701
282.998
282.345
281.751
293.562
290.613
288.568
287.123
285.973
285.011
284.16
283.381
282.655
282.007
295.188
291.654
289.469
287.879
286.631
285.58
284.653
283.804
283.009
282.308
296.593
292.553
290.23
288.502
287.165
286.033
285.036
284.124
283.273
282.534
297.802
293.399
290.945
289.09
287.665
286.452
285.39
284.42
283.52
282.739
298.744
294.106
291.54
289.574
288.051
286.745
285.606
284.578
283.64
282.826
299.85
295.286
292.665
290.646
289.031
287.656
286.457
285.374
284.39
283.523
290.045
287.966
286.604
285.59
284.817
284.211
283.721
283.317
282.979
282.697
290.121
287.96
286.399
285.266
284.417
283.751
283.202
282.731
282.32
281.958
290.506
288.184
286.468
285.304
284.412
283.701
283.103
282.584
282.127
281.728
291.068
288.682
286.889
285.667
284.707
283.927
283.26
282.672
282.148
281.69
291.725
289.256
287.361
286.043
285.003
284.149
283.416
282.767
282.185
281.68
292.596
289.922
287.909
286.472
285.351
284.425
283.631
282.928
282.294
281.745
293.542
290.465
288.353
286.788
285.6
284.61
283.767
283.019
282.349
281.772
294.454
290.956
288.781
287.091
285.848
284.801
283.917
283.136
282.437
281.836
295.239
291.29
289.13
287.32
286.031
284.923
284
283.187
282.473
281.855
296.369
292.031
290.034
288.154
286.835
285.683
284.728
283.884
283.145
282.501
288.473
287.499
286.705
286.019
285.427
284.922
284.498
284.146
283.86
283.634
288.666
287.494
286.48
285.631
284.922
284.329
283.83
283.406
283.046
282.742
289.049
287.719
286.553
285.616
284.84
284.193
283.642
283.166
282.754
282.399
289.559
288.168
286.896
285.881
285.035
284.322
283.705
283.163
282.683
282.266
290.159
288.69
287.302
286.193
285.267
284.483
283.801
283.198
282.658
282.189
290.957
289.313
287.801
286.581
285.574
284.717
283.973
283.313
282.718
282.202
291.8
289.845
288.223
286.882
285.801
284.879
284.081
283.375
282.739
282.191
292.656
290.329
288.627
287.166
286.025
285.044
284.205
283.463
282.798
282.222
293.41
290.633
288.933
287.348
286.16
285.123
284.249
283.479
282.802
282.209
294.503
291.307
289.76
288.101
286.893
285.824
284.928
284.136
283.441
282.828
287.279
286.902
286.479
286.042
285.63
285.261
284.942
284.674
284.459
284.295
287.494
286.887
286.251
285.655
285.12
284.651
284.246
283.9
283.608
283.369
287.826
287.104
286.337
285.641
285.025
284.488
284.021
283.614
283.262
282.965
288.298
287.508
286.641
285.859
285.166
284.558
284.02
283.545
283.125
282.764
288.836
287.977
287.008
286.132
285.357
284.674
284.069
283.53
283.048
282.631
289.527
288.554
287.475
286.492
285.632
284.874
284.203
283.604
283.065
282.597
290.26
289.069
287.885
286.784
285.844
285.016
284.288
283.639
283.056
282.55
291.027
289.546
288.281
287.061
286.053
285.164
284.391
283.705
283.089
282.554
291.735
289.864
288.586
287.239
286.178
285.234
284.425
283.711
283.08
282.527
292.814
290.561
289.388
287.963
286.88
285.905
285.076
284.342
283.695
283.123
286.345
286.274
286.09
285.85
285.599
285.361
285.148
284.965
284.818
284.708
286.528
286.235
285.875
285.499
285.136
284.8
284.5
284.238
284.018
283.84
286.801
286.44
285.983
285.513
285.065
284.652
284.281
283.954
283.67
283.432
287.201
286.8
286.263
285.71
285.182
284.693
284.25
283.852
283.499
283.197
287.662
287.22
286.602
285.96
285.349
284.784
284.27
283.806
283.39
283.031
288.26
287.747
287.039
286.298
285.601
284.96
284.378
283.851
283.376
282.963
288.886
288.233
287.434
286.583
285.804
285.089
284.446
283.866
283.343
282.89
289.553
288.694
287.82
286.857
286.006
285.228
284.535
283.915
283.357
282.872
290.172
289.016
288.118
287.033
286.125
285.292
284.563
283.915
283.339
282.834
291.182
289.734
288.895
287.732
286.799
285.936
285.187
284.52
283.929
283.405
285.756
285.824
285.764
285.639
285.495
285.352
285.22
285.104
285.01
284.94
285.883
285.737
285.536
285.309
285.075
284.85
284.642
284.456
284.299
284.173
286.088
285.905
285.64
285.337
285.027
284.728
284.45
284.2
283.982
283.8
286.402
286.205
285.885
285.512
285.129
284.757
284.408
284.089
283.804
283.561
286.772
286.563
286.185
285.738
285.278
284.831
284.411
284.026
283.679
283.379
287.266
287.026
286.584
286.052
285.511
284.989
284.501
284.052
283.645
283.291
287.782
287.466
286.953
286.325
285.704
285.109
284.557
284.054
283.597
283.201
288.338
287.894
287.319
286.592
285.899
285.24
284.638
284.091
283.597
283.167
288.848
288.206
287.599
286.765
286.014
285.302
284.662
284.086
283.572
283.121
289.768
288.931
288.348
287.443
286.664
285.921
285.261
284.666
284.137
283.666
285.383
285.515
285.516
285.457
285.379
285.297
285.219
285.15
285.093
285.051
285.46
285.383
285.271
285.137
284.994
284.85
284.712
284.588
284.482
284.396
285.609
285.51
285.355
285.165
284.96
284.753
284.555
284.373
284.213
284.078
285.843
285.746
285.557
285.314
285.047
284.775
284.511
284.266
284.045
283.856
286.127
286.035
285.811
285.51
285.177
284.837
284.507
284.198
283.918
283.676
286.522
286.427
286.161
285.793
285.389
284.979
284.583
284.212
283.874
283.579
286.933
286.807
286.492
286.046
285.568
285.088
284.63
284.205
283.817
283.479
287.382
287.19
286.827
286.299
285.754
285.213
284.704
284.235
283.808
283.435
287.781
287.472
287.079
286.463
285.864
285.272
284.726
284.227
283.778
283.384
288.605
288.185
287.795
287.119
286.489
285.867
285.3
284.782
284.317
283.903
285.149
285.311
285.341
285.316
285.275
285.23
285.186
285.146
285.113
285.089
285.191
285.146
285.082
285.004
284.918
284.829
284.742
284.662
284.593
284.536
285.294
285.234
285.141
285.024
284.891
284.753
284.617
284.49
284.377
284.281
285.463
285.409
285.297
285.142
284.961
284.769
284.578
284.396
284.23
284.088
285.673
285.633
285.501
285.304
285.069
284.819
284.569
284.33
284.111
283.921
285.982
285.953
285.797
285.55
285.256
284.944
284.634
284.337
284.064
283.825
286.3
286.268
286.08
285.773
285.417
285.042
284.673
284.324
284.003
283.723
286.654
286.597
286.376
286.005
285.59
285.159
284.741
284.349
283.99
283.675
286.952
286.839
286.594
286.156
285.692
285.215
284.761
284.339
283.956
283.62
287.688
287.522
287.272
286.785
286.291
285.785
285.31
284.87
284.471
284.115
284.999
285.174
285.217
285.21
285.189
285.165
285.14
285.118
285.1
285.086
285.021
284.991
284.954
284.908
284.857
284.803
284.75
284.7
284.656
284.621
285.09
285.048
284.99
284.917
284.833
284.744
284.653
284.567
284.49
284.425
285.207
285.171
285.103
285.005
284.885
284.754
284.619
284.488
284.368
284.265
285.357
285.337
285.259
285.132
284.971
284.792
284.608
284.428
284.262
284.118
285.594
285.591
285.5
285.338
285.131
284.9
284.663
284.433
284.218
284.03
285.835
285.841
285.732
285.526
285.267
284.982
284.694
284.415
284.156
283.931
286.11
286.114
285.985
285.732
285.424
285.091
284.758
284.439
284.144
283.885
286.323
286.312
286.166
285.864
285.515
285.141
284.773
284.425
284.107
283.827
286.981
286.954
286.8
286.461
286.085
285.685
285.297
284.932
284.598
284.299