/*--------------------------------*- C++ -*----------------------------------*\
| =========                 |                                                 |
| \\      /  F ield         | foam-extend: Open Source CFD                    |
|  \\    /   O peration     | Version:     4.0                                |
|   \\  /    A nd           | Web:         http://www.foam-extend.org         |
|    \\/     M anipulation  |                                                 |
\*---------------------------------------------------------------------------*/
FoamFile
{
    version     2.0;
    format      ascii;
    class       volVectorField;
    location    "400";
    object      Urel;
}
// * * * * * * * * * * * * * * * * * * * * * * * * * * * * * * * * * * * * * //

dimensions      [0 1 -1 0 0 0 0];

internalField   nonuniform List<vector> 
34480
(
(196.78 -5.609 -18.8725)
(198.515 -6.23995 -23.1152)
(200.123 -6.68047 -28.0655)
(201.61 -6.89544 -33.9331)
(202.978 -6.89565 -41.155)
(204.018 -6.66101 -50.1885)
(203.885 -6.15873 -61.3749)
(200.313 -5.43484 -75.141)
(188.606 -4.80882 -94.0865)
(158.473 -4.26322 -114.876)
(197.568 -6.45433 -25.3957)
(199.632 -5.98331 -29.1758)
(201.539 -5.48937 -33.3694)
(203.291 -4.95721 -38.2408)
(204.971 -4.39746 -44.2352)
(206.58 -3.84708 -52.0516)
(207.635 -3.30755 -62.4638)
(206.395 -2.7808 -76.2157)
(198.517 -2.58624 -97.025)
(170.332 -2.99254 -125.562)
(197.802 -10.9191 -30.3521)
(200.138 -9.78367 -33.9019)
(202.386 -8.68581 -37.772)
(204.564 -7.6147 -42.2064)
(206.737 -6.579 -47.6379)
(208.997 -5.624 -54.8628)
(211.074 -4.77634 -64.9488)
(211.526 -4.01661 -78.9448)
(206.495 -3.64886 -101.27)
(180.311 -4.07386 -136.311)
(197.545 -14.5249 -35.9262)
(200.351 -12.9355 -39.53)
(203.101 -11.4142 -43.4475)
(205.823 -9.9269 -47.8513)
(208.554 -8.497 -53.1797)
(211.385 -7.16501 -60.2001)
(214.178 -5.97671 -70.1469)
(215.773 -4.91505 -84.3849)
(212.779 -4.31286 -107.906)
(187.888 -4.73067 -147.891)
(197.37 -19.026 -41.5591)
(200.58 -17.1693 -45.2898)
(203.741 -15.3938 -49.3758)
(206.906 -13.6293 -53.8956)
(210.098 -11.9263 -59.3043)
(213.389 -10.3207 -66.3157)
(216.721 -8.86903 -76.2576)
(219.174 -7.54825 -90.8062)
(217.758 -6.71696 -115.494)
(193.659 -7.11339 -159.567)
(196.89 -22.5993 -48.2502)
(200.406 -20.465 -52.0983)
(203.858 -18.4213 -56.3108)
(207.332 -16.3629 -60.9257)
(210.844 -14.3426 -66.3914)
(214.462 -12.3846 -73.3858)
(218.176 -10.5404 -83.2557)
(221.3 -8.78871 -97.968)
(221.237 -7.53843 -123.613)
(197.818 -7.69717 -171.097)
(196.664 -27.3864 -54.8264)
(200.362 -25.0776 -58.8308)
(203.957 -22.8392 -63.2263)
(207.571 -20.5541 -67.9869)
(211.217 -18.2858 -73.5525)
(214.976 -16.0452 -80.5453)
(218.895 -13.8598 -90.2963)
(222.56 -11.6594 -105.024)
(223.801 -9.79806 -131.358)
(201.268 -9.25927 -181.616)
(196.339 -30.9803 -62.6571)
(200.094 -28.4239 -66.7346)
(203.7 -25.9052 -71.194)
(207.297 -23.3172 -76.0082)
(210.889 -20.7109 -81.5781)
(214.562 -18.0724 -88.4516)
(218.431 -15.3787 -97.8792)
(222.425 -12.5246 -112.225)
(224.975 -9.83899 -138.699)
(203.815 -8.34528 -190.983)
(196.515 -36.6847 -69.7968)
(200.232 -33.9037 -73.9463)
(203.775 -31.0709 -78.5194)
(207.3 -28.1388 -83.4814)
(210.795 -25.183 -89.2311)
(214.308 -22.1777 -96.2005)
(217.962 -19.0438 -105.489)
(222.04 -15.5713 -119.405)
(225.772 -11.8229 -145.879)
(206.071 -8.65643 -199.438)
(195.539 -41.0514 -77.8603)
(199.246 -37.9453 -81.8987)
(202.775 -34.7693 -86.399)
(206.248 -31.458 -91.3414)
(209.581 -28.0301 -97.1041)
(212.753 -24.4289 -104.069)
(215.866 -20.537 -113.164)
(219.53 -16.1009 -126.228)
(224.306 -11.2061 -151.738)
(207.185 -6.53409 -205.221)
(189.616 5.66911 2.43376)
(190.659 4.26543 -0.692026)
(191.276 2.99917 -4.36777)
(191.334 1.94225 -8.555)
(190.668 1.07113 -13.4691)
(188.972 0.402869 -19.2222)
(185.749 -0.0646552 -25.8822)
(180.367 -0.350616 -33.2717)
(171.472 -0.509976 -40.519)
(154.053 -0.666118 -43.4148)
(192.257 8.63132 2.93412)
(193.785 7.8066 0.169214)
(194.96 6.96249 -2.9956)
(195.639 6.13331 -6.65009)
(195.683 5.32942 -10.9512)
(194.83 4.52478 -16.215)
(192.492 3.70246 -22.8398)
(187.784 2.86007 -31.0978)
(179.39 1.96336 -41.0433)
(160.994 0.871208 -48.5282)
(193.596 8.2221 5.13262)
(195.478 7.61769 2.63709)
(197.097 6.94163 -0.207121)
(198.369 6.19882 -3.5786)
(199.143 5.41201 -7.63797)
(199.209 4.55806 -12.779)
(198.005 3.60924 -19.6183)
(194.429 2.5534 -28.8191)
(187.007 1.35498 -41.3546)
(167.959 -0.107401 -54.0798)
(194.026 8.65342 6.87945)
(196.396 8.11168 4.48339)
(198.566 7.45991 1.7034)
(200.465 6.71945 -1.60035)
(201.954 5.89645 -5.67082)
(202.813 4.98333 -10.8753)
(202.523 3.94579 -17.9629)
(199.918 2.76747 -27.9113)
(193.432 1.38452 -42.5875)
(173.857 -0.33744 -60.392)
(194.278 8.18856 8.67251)
(197.068 7.54222 6.32669)
(199.693 6.76432 3.52177)
(202.099 5.91134 0.197045)
(204.176 4.95977 -3.96501)
(205.684 3.91229 -9.29604)
(206.146 2.72392 -16.6314)
(204.403 1.38527 -27.223)
(198.814 -0.168872 -43.7268)
(178.726 -2.06933 -66.363)
(194.104 8.68953 9.43981)
(197.226 7.94934 7.17154)
(200.189 7.05383 4.40604)
(202.974 6.09677 1.11264)
(205.481 5.05269 -3.04817)
(207.489 3.93797 -8.41742)
(208.558 2.71349 -15.8579)
(207.586 1.37296 -26.8625)
(202.894 -0.181174 -44.7669)
(182.36 -2.14061 -71.7593)
(194.087 7.94564 10.3695)
(197.424 7.01344 8.14755)
(200.585 5.93646 5.37356)
(203.589 4.82582 2.07454)
(206.349 3.64284 -2.10457)
(208.679 2.41393 -7.49077)
(210.2 1.11016 -14.9555)
(209.939 -0.24393 -26.2064)
(206.253 -1.69718 -45.2276)
(185.667 -3.50883 -76.2896)
(193.889 8.41764 10.0491)
(197.324 7.35774 7.96484)
(200.56 6.17479 5.31884)
(203.641 4.97707 2.13023)
(206.49 3.73455 -1.93959)
(208.953 2.49034 -7.19026)
(210.726 1.25361 -14.4582)
(211.043 0.0782151 -25.5741)
(208.497 -1.08559 -45.2063)
(188.419 -2.70757 -79.862)
(194.054 6.77885 10.3959)
(197.475 5.54036 8.46348)
(200.695 4.2664 5.91971)
(203.78 3.01485 2.79483)
(206.672 1.73047 -1.29431)
(209.218 0.454932 -6.5934)
(211.128 -0.76542 -13.8554)
(211.855 -1.80134 -24.7748)
(210.469 -2.49068 -44.8932)
(191.132 -3.51197 -82.6104)
(193.16 6.60643 9.72866)
(196.574 5.25733 8.06171)
(199.808 3.90919 5.7985)
(202.89 2.59855 2.9128)
(205.727 1.32777 -0.959647)
(208.156 0.159922 -6.0831)
(209.934 -0.820147 -13.1873)
(210.706 -1.4095 -23.5111)
(210.466 -1.45932 -43.4135)
(192.835 -1.41067 -82.9245)
(184.183 4.47171 1.14796)
(184.775 3.39242 -1.32905)
(184.891 2.43085 -4.11894)
(184.454 1.6264 -7.1784)
(183.333 0.981567 -10.5048)
(181.356 0.509329 -13.9934)
(178.299 0.194075 -17.4627)
(173.92 -0.0130697 -20.6021)
(167.85 -0.183134 -22.7183)
(159.399 -0.411779 -22.1093)
(187.787 7.33681 1.54357)
(188.851 6.65458 -0.82997)
(189.497 5.93539 -3.51514)
(189.586 5.22093 -6.50651)
(188.954 4.52026 -9.84495)
(187.337 3.82686 -13.5316)
(184.353 3.13096 -17.5082)
(179.497 2.41866 -21.5727)
(172.082 1.67512 -25.1262)
(161.043 0.856506 -26.2329)
(189.865 7.122 3.59922)
(191.323 6.58468 1.31693)
(192.426 5.96784 -1.2695)
(193.061 5.28386 -4.26459)
(193.048 4.55568 -7.71264)
(192.099 3.76603 -11.7481)
(189.7 2.90275 -16.4624)
(185.08 1.95537 -21.797)
(177.186 0.913868 -27.3249)
(163.948 -0.258872 -31.0302)
(190.872 7.64843 5.25183)
(192.808 7.15798 2.99425)
(194.447 6.55664 0.391141)
(195.684 5.85884 -2.68445)
(196.323 5.08313 -6.33319)
(196.055 4.2179 -10.7357)
(194.279 3.24637 -16.1143)
(190.004 2.15874 -22.5899)
(181.843 0.937991 -30.0123)
(166.632 -0.457534 -36.6423)
(191.532 7.23293 7.05945)
(193.887 6.64356 4.80593)
(195.985 5.92849 2.12546)
(197.731 5.12684 -1.05666)
(198.942 4.2332 -4.92584)
(199.285 3.24173 -9.67212)
(198.112 2.12382 -15.6385)
(194.266 0.869987 -23.1545)
(186.052 -0.533196 -32.3992)
(169.159 -2.10741 -42.2394)
(191.672 7.80856 7.88396)
(194.371 7.13589 5.68366)
(196.83 6.31614 3.01282)
(198.973 5.42183 -0.180702)
(200.64 4.44162 -4.14568)
(201.487 3.38735 -9.08279)
(200.854 2.22836 -15.4356)
(197.483 0.953034 -23.7594)
(189.404 -0.476037 -34.5936)
(171.141 -2.11836 -47.7048)
(191.884 7.08807 8.93253)
(194.818 6.23973 6.76517)
(197.508 5.25843 4.06867)
(199.911 4.23364 0.843185)
(201.886 3.13664 -3.20597)
(203.106 1.9918 -8.28141)
(202.932 0.772431 -14.9055)
(200.085 -0.518461 -23.873)
(192.371 -1.88861 -36.1346)
(173.126 -3.42931 -52.567)
(191.848 7.61075 8.73331)
(194.907 6.64465 6.69868)
(197.714 5.56856 4.12905)
(200.252 4.4731 1.00888)
(202.397 3.3369 -2.95928)
(203.85 2.1968 -7.98516)
(204.021 1.05321 -14.6208)
(201.692 -0.0722823 -23.8616)
(194.569 -1.19431 -37.159)
(174.787 -2.63735 -56.6686)
(192.091 5.99897 9.18011)
(195.156 4.84812 7.27958)
(197.972 3.67338 4.80743)
(200.544 2.52291 1.76355)
(202.783 1.36005 -2.20248)
(204.415 0.22124 -7.30064)
(204.883 -0.857213 -14.0765)
(203.049 -1.80073 -23.5194)
(196.642 -2.46614 -37.7543)
(176.466 -3.46678 -59.8471)
(191.351 5.9975 8.57373)
(194.409 4.71558 6.89642)
(197.245 3.46093 4.69037)
(199.822 2.24192 1.88038)
(202.025 1.07903 -1.85058)
(203.597 0.0342648 -6.72552)
(204.122 -0.817055 -13.3323)
(202.605 -1.33443 -22.4979)
(197.046 -1.35942 -37.1066)
(177.023 -1.31333 -60.4237)
(180.179 3.44052 0.433671)
(180.486 2.68461 -1.33175)
(180.383 2.00902 -3.25335)
(179.828 1.44089 -5.27375)
(178.761 0.986438 -7.3287)
(177.125 0.651384 -9.29349)
(174.89 0.419668 -10.9945)
(172.103 0.244027 -12.1933)
(168.864 0.0510026 -12.4953)
(165.082 -0.233087 -11.3325)
(184.05 6.04519 0.62136)
(184.741 5.53013 -1.26506)
(185.019 4.96519 -3.34441)
(184.783 4.38856 -5.57932)
(183.917 3.81311 -7.94501)
(182.267 3.24161 -10.3342)
(179.657 2.66784 -12.573)
(175.935 2.08154 -14.3752)
(170.997 1.47926 -15.2023)
(164.926 0.869525 -14.3168)
(186.531 6.00479 2.39073)
(187.603 5.55559 0.423133)
(188.285 5.02027 -1.77945)
(188.466 4.42121 -4.24635)
(187.994 3.77718 -6.96339)
(186.651 3.08062 -9.9088)
(184.133 2.32624 -12.9603)
(180.081 1.50716 -15.8242)
(174.149 0.621549 -17.8282)
(166.114 -0.318532 -17.9015)
(187.945 6.63545 3.84003)
(189.464 6.21145 1.80851)
(190.625 5.67492 -0.506298)
(191.316 5.04126 -3.19513)
(191.342 4.33482 -6.25942)
(190.432 3.54679 -9.74381)
(188.157 2.67298 -13.5879)
(183.944 1.70846 -17.5347)
(177.177 0.648014 -20.841)
(167.199 -0.498775 -22.2509)
(188.936 6.27013 5.57804)
(190.858 5.74579 3.48957)
(192.454 5.10156 1.03178)
(193.608 4.36613 -1.86508)
(194.115 3.54713 -5.26857)
(193.657 2.63584 -9.25472)
(191.703 1.61985 -13.8462)
(187.479 0.493803 -18.8714)
(180.068 -0.746527 -23.5831)
(168.282 -2.07185 -26.7378)
(189.355 6.91663 6.39549)
(191.62 6.31594 4.32156)
(193.574 5.57781 1.82924)
(195.113 4.75699 -1.14622)
(196.035 3.85729 -4.73976)
(195.989 2.88224 -9.05319)
(194.373 1.81645 -14.1978)
(190.238 0.651371 -20.1288)
(182.362 -0.636953 -26.1601)
(168.943 -2.05075 -31.267)
(189.777 6.21674 7.51678)
(192.29 5.4516 5.45052)
(194.493 4.56695 2.90207)
(196.306 3.63096 -0.152186)
(197.539 2.63142 -3.90595)
(197.834 1.58092 -8.48068)
(196.548 0.465474 -14.0755)
(192.614 -0.716774 -20.8139)
(184.513 -1.97808 -28.1581)
(169.752 -3.33618 -35.4915)
(189.896 6.80292 7.40622)
(192.555 5.92905 5.45863)
(194.903 4.95712 3.02284)
(196.883 3.96004 0.0539545)
(198.325 2.93192 -3.66706)
(198.877 1.89684 -8.28301)
(197.893 0.85733 -14.0569)
(194.244 -0.178373 -21.2895)
(186.179 -1.23314 -29.702)
(170.413 -2.53388 -39.2332)
(190.197 5.22925 7.982)
(192.885 4.17214 6.1484)
(195.268 3.09661 3.79191)
(197.306 2.04131 0.892978)
(198.863 0.991573 -2.82296)
(199.621 -0.023935 -7.52712)
(198.953 -0.968681 -13.5418)
(195.69 -1.79863 -21.2437)
(187.898 -2.42514 -30.7536)
(171.259 -3.35105 -42.2481)
(189.555 5.39684 7.44084)
(192.248 4.20293 5.80206)
(194.667 3.05097 3.69442)
(196.734 1.93161 1.01769)
(198.303 0.882418 -2.469)
(199.063 -0.0418975 -6.93905)
(198.498 -0.765873 -12.7849)
(195.537 -1.18747 -20.4309)
(188.295 -1.17771 -30.6279)
(171.166 -1.1274 -43.053)
(177.582 2.5727 0.0799006)
(177.746 2.0781 -1.08662)
(177.609 1.62794 -2.32694)
(177.158 1.24362 -3.58211)
(176.377 0.930156 -4.78893)
(175.263 0.68997 -5.85381)
(173.851 0.511545 -6.66252)
(172.261 0.356579 -7.09708)
(170.743 0.161313 -6.99144)
(169.419 -0.141501 -6.15615)
(181.174 4.84464 0.0704816)
(181.613 4.48843 -1.33614)
(181.702 4.07519 -2.83443)
(181.381 3.63467 -4.39176)
(180.587 3.18454 -5.95476)
(179.253 2.73157 -7.41364)
(177.321 2.27512 -8.61507)
(174.786 1.81081 -9.35484)
(171.739 1.34326 -9.33844)
(168.471 0.897221 -8.33718)
(183.698 4.92341 1.51321)
(184.466 4.56815 -0.0937565)
(184.867 4.12601 -1.86226)
(184.814 3.62355 -3.77602)
(184.203 3.07767 -5.78834)
(182.903 2.48798 -7.81525)
(180.767 1.85347 -9.69494)
(177.677 1.17201 -11.1594)
(173.616 0.448479 -11.7483)
(168.876 -0.28743 -10.9882)
(185.307 5.64745 2.69886)
(186.469 5.29912 0.952345)
(187.265 4.83865 -1.01029)
(187.591 4.2864 -3.22944)
(187.299 3.66628 -5.66012)
(186.192 2.97604 -8.25792)
(184.015 2.218 -10.8647)
(180.496 1.39203 -13.1682)
(175.462 0.500213 -14.5339)
(169.146 -0.425056 -14.267)
(186.504 5.32593 4.30422)
(188.039 4.87437 2.44128)
(189.217 4.30874 0.276531)
(189.928 3.65374 -2.23579)
(189.988 2.92404 -5.08015)
(189.146 2.1129 -8.24663)
(187.039 1.21791 -11.6061)
(183.227 0.237348 -14.8407)
(177.32 -0.829003 -17.165)
(169.415 -1.93055 -17.7387)
(187.123 6.03647 5.06026)
(188.989 5.51427 3.16853)
(190.502 4.86364 0.922979)
(191.555 4.12819 -1.73426)
(191.948 3.3219 -4.84118)
(191.384 2.44547 -8.4154)
(189.405 1.49352 -12.3778)
(185.404 0.460052 -16.4447)
(178.738 -0.673042 -19.7224)
(169.292 -1.87968 -21.3326)
(187.709 5.35506 6.20943)
(189.825 4.6775 4.29355)
(191.588 3.89186 1.95521)
(192.904 3.05116 -0.834252)
(193.571 2.15652 -4.17081)
(193.264 1.2139 -8.09799)
(191.454 0.217897 -12.6016)
(187.387 -0.835132 -17.4776)
(180.142 -1.96199 -21.7932)
(169.303 -3.1428 -24.745)
(187.957 6.01104 6.15318)
(190.234 5.23473 4.33405)
(192.158 4.36917 2.0843)
(193.652 3.47407 -0.652974)
(194.525 2.55759 -4.00757)
(194.441 1.63453 -8.05574)
(192.831 0.709578 -12.8446)
(188.824 -0.218516 -18.2814)
(181.233 -1.18038 -23.4893)
(169.226 -2.32302 -27.8407)
(188.321 4.47317 6.84826)
(190.649 3.51922 5.11878)
(192.628 2.5487 2.92018)
(194.195 1.59452 0.228929)
(195.186 0.660148 -3.13846)
(195.286 -0.232808 -7.29835)
(193.922 -1.05092 -12.3865)
(190.132 -1.77136 -18.4022)
(182.46 -2.34306 -24.6368)
(169.424 -3.14968 -30.3815)
(187.764 4.80876 6.34703)
(190.108 3.72027 4.79043)
(192.138 2.68008 2.8195)
(193.75 1.67068 0.32932)
(194.78 0.743682 -2.83529)
(194.915 -0.0566614 -6.79675)
(193.644 -0.657688 -11.7536)
(190.036 -0.983391 -17.7985)
(182.591 -0.944278 -24.7192)
(168.842 -0.889655 -31.125)
(176.046 1.8661 -0.0612424)
(176.14 1.5591 -0.7874)
(176.032 1.27132 -1.54966)
(175.724 1.0198 -2.29678)
(175.219 0.807005 -2.98503)
(174.531 0.634263 -3.55549)
(173.705 0.495219 -3.94106)
(172.862 0.361239 -4.09527)
(172.263 0.179778 -3.9447)
(172.133 -0.122035 -3.44588)
(179.089 3.7915 -0.220188)
(179.363 3.56889 -1.21259)
(179.369 3.28656 -2.23361)
(179.076 2.96693 -3.25974)
(178.458 2.62863 -4.23925)
(177.496 2.2805 -5.09118)
(176.188 1.92687 -5.71313)
(174.57 1.5689 -5.9869)
(172.744 1.21608 -5.76916)
(170.919 0.894147 -5.01865)
(181.407 3.92126 0.915773)
(181.944 3.65529 -0.332781)
(182.167 3.30685 -1.68115)
(182.019 2.90154 -3.09536)
(181.439 2.45485 -4.52014)
(180.361 1.97069 -5.8647)
(178.733 1.45142 -6.9927)
(176.548 0.899547 -7.71902)
(173.889 0.325237 -7.78708)
(171.027 -0.240108 -7.01478)
(183.033 4.71534 1.81926)
(183.898 4.44485 0.382893)
(184.423 4.06671 -1.20577)
(184.529 3.60393 -2.95075)
(184.113 3.07843 -4.79111)
(183.054 2.49337 -6.64584)
(181.226 1.85466 -8.35195)
(178.535 1.16689 -9.65655)
(175.006 0.439405 -10.1479)
(170.981 -0.289119 -9.48167)
(184.318 4.42499 3.25243)
(185.513 4.04995 1.65353)
(186.354 3.56789 -0.17983)
(186.75 3.00245 -2.26315)
(186.557 2.37027 -4.53898)
(185.601 1.66825 -6.94804)
(183.669 0.899784 -9.31777)
(180.556 0.067237 -11.3472)
(176.17 -0.822777 -12.4548)
(170.892 -1.7135 -12.1432)
(185.058 5.18833 3.9057)
(186.559 4.74861 2.23847)
(187.696 4.18945 0.286137)
(188.372 3.54817 -1.99021)
(188.414 2.84361 -4.56455)
(187.602 2.0765 -7.39768)
(185.631 1.24762 -10.3297)
(182.169 0.354157 -13.0386)
(176.962 -0.612979 -14.7825)
(170.388 -1.61272 -14.9445)
(185.756 4.52192 5.04214)
(187.501 3.93549 3.31789)
(188.873 3.25066 1.23724)
(189.78 2.51091 -1.21804)
(190.035 1.72547 -4.06944)
(189.379 0.897927 -7.29939)
(187.43 0.0278419 -10.7822)
(183.723 -0.887984 -14.2112)
(177.802 -1.86189 -16.7181)
(169.975 -2.85205 -17.6151)
(186.102 5.24965 5.00485)
(188.014 4.57568 3.35076)
(189.55 3.81915 1.32971)
(190.626 3.03132 -1.11038)
(191.058 2.22908 -4.02321)
(190.561 1.42285 -7.42477)
(188.695 0.617402 -11.2322)
(184.874 -0.194813 -15.19)
(178.417 -1.04364 -18.3647)
(169.474 -2.00782 -20.0593)
(186.519 3.74173 5.79655)
(188.5 2.8977 4.20407)
(190.106 2.03684 2.19953)
(191.263 1.19017 -0.230249)
(191.8 0.371983 -3.18889)
(191.44 -0.39941 -6.72897)
(189.718 -1.09658 -10.8526)
(185.95 -1.71319 -15.3788)
(179.203 -2.21848 -19.4061)
(169.275 -2.87692 -22.0139)
(186.024 4.24535 5.30989)
(188.033 3.27412 3.87128)
(189.699 2.35216 2.07067)
(190.912 1.46083 -0.184616)
(191.503 0.658572 -2.97734)
(191.187 -0.0173989 -6.37228)
(189.524 -0.502671 -10.4215)
(185.811 -0.743384 -15.0053)
(179.055 -0.685366 -19.5631)
(168.395 -0.619807 -22.5661)
(175.243 1.30817 -0.0931071)
(175.302 1.12399 -0.525329)
(175.236 0.944755 -0.979505)
(175.049 0.784231 -1.41351)
(174.749 0.642602 -1.80244)
(174.351 0.521127 -2.11191)
(173.895 0.417232 -2.30248)
(173.478 0.3086 -2.36403)
(173.353 0.150426 -2.25188)
(173.836 -0.139939 -1.98329)
(177.664 2.91243 -0.348618)
(177.835 2.79081 -1.01814)
(177.818 2.61166 -1.68383)
(177.595 2.39132 -2.33118)
(177.161 2.14704 -2.92067)
(176.516 1.88819 -3.40001)
(175.676 1.62215 -3.7092)
(174.678 1.3539 -3.78728)
(173.592 1.09484 -3.56844)
(172.537 0.866058 -3.06605)
(179.638 3.03004 0.531391)
(180.005 2.84087 -0.396699)
(180.125 2.5776 -1.38043)
(179.963 2.26217 -2.3846)
(179.489 1.90813 -3.35992)
(178.675 1.52143 -4.23216)
(177.513 1.10673 -4.90435)
(176.03 0.66969 -5.26287)
(174.311 0.22276 -5.17645)
(172.527 -0.206672 -4.58861)
(181.146 3.86468 1.16591)
(181.774 3.6673 0.032721)
(182.112 3.37062 -1.19856)
(182.102 2.99695 -2.51513)
(181.683 2.56638 -3.85631)
(180.788 2.08544 -5.13964)
(179.368 1.56214 -6.23209)
(177.413 1.00465 -6.95763)
(175 0.426929 -7.07935)
(172.388 -0.134691 -6.44356)
(182.414 3.58929 2.41065)
(183.322 3.28906 1.08821)
(183.907 2.89061 -0.408317)
(184.097 2.41722 -2.06737)
(183.794 1.8838 -3.82377)
(182.889 1.29173 -5.59782)
(181.273 0.647523 -7.22871)
(178.875 -0.0425898 -8.48181)
(175.731 -0.766098 -8.98447)
(172.183 -1.46996 -8.47257)
(183.2 4.39012 2.93541)
(184.38 4.03245 1.51535)
(185.212 3.56506 -0.123727)
(185.613 3.02137 -1.99922)
(185.453 2.42123 -4.05381)
(184.582 1.76663 -6.21979)
(182.821 1.06229 -8.32321)
(180.017 0.309121 -10.0843)
(176.123 -0.493022 -10.9843)
(171.556 -1.30006 -10.6424)
(183.957 3.73365 4.02637)
(185.365 3.23854 2.52057)
(186.405 2.65391 0.72508)
(186.995 2.01712 -1.36094)
(186.98 1.34128 -3.71267)
(186.173 0.629773 -6.27553)
(184.324 -0.11456 -8.88379)
(181.185 -0.892494 -11.2361)
(176.586 -1.70799 -12.6739)
(170.984 -2.51179 -12.7042)
(184.362 4.53109 3.97643)
(185.937 3.96082 2.51383)
(187.132 3.31365 0.749447)
(187.87 2.63552 -1.3541)
(187.987 1.94742 -3.79574)
(187.267 1.25815 -6.54821)
(185.402 0.572467 -9.46755)
(182.042 -0.119396 -12.2617)
(176.861 -0.842782 -14.1623)
(170.299 -1.63013 -14.5964)
(184.818 3.04498 4.84003)
(186.475 2.3136 3.40981)
(187.748 1.56403 1.62551)
(188.567 0.82772 -0.507598)
(188.769 0.123806 -3.0324)
(188.132 -0.530835 -5.94654)
(186.314 -1.11414 -9.16965)
(182.883 -1.62953 -12.4546)
(177.325 -2.05811 -15.0099)
(169.926 -2.5712 -16.0146)
(184.366 3.71724 4.34419)
(186.057 2.86989 3.05078)
(187.396 2.06929 1.4464)
(188.273 1.2998 -0.539699)
(188.531 0.620695 -2.93498)
(187.931 0.0639108 -5.75308)
(186.134 -0.31681 -8.95143)
(182.661 -0.485725 -12.3044)
(176.952 -0.417608 -15.2193)
(168.926 -0.34506 -16.4185)
(174.89 0.879522 -0.075452)
(174.933 0.770434 -0.323952)
(174.898 0.659814 -0.59101)
(174.792 0.559272 -0.840974)
(174.624 0.467039 -1.06267)
(174.405 0.3845 -1.23644)
(174.162 0.311448 -1.337)
(173.977 0.229169 -1.37167)
(174.085 0.0974307 -1.3009)
(174.886 -0.177205 -1.17201)
(176.742 2.20977 -0.385233)
(176.851 2.15793 -0.820915)
(176.833 2.05439 -1.23911)
(176.682 1.9106 -1.6329)
(176.398 1.74154 -1.97591)
(175.987 1.55614 -2.23656)
(175.465 1.36283 -2.38157)
(174.859 1.16821 -2.3809)
(174.208 0.983904 -2.20535)
(173.571 0.825721 -1.87689)
(178.327 2.26869 0.298992)
(178.574 2.13952 -0.365811)
(178.638 1.94737 -1.05835)
(178.499 1.70962 -1.74855)
(178.144 1.43741 -2.39827)
(177.566 1.13702 -2.95459)
(176.771 0.814056 -3.35496)
(175.789 0.475341 -3.53381)
(174.677 0.13305 -3.42514)
(173.528 -0.190626 -3.01846)
(179.637 3.1145 0.696961)
(180.083 2.98016 -0.163867)
(180.296 2.75751 -1.08129)
(180.238 2.46639 -2.03821)
(179.873 2.12494 -2.98284)
(179.174 1.74139 -3.84712)
(178.128 1.32466 -4.53516)
(176.753 0.884784 -4.93375)
(175.122 0.437325 -4.91307)
(173.39 0.0132955 -4.40848)
(180.81 2.83714 1.75605)
(181.484 2.60503 0.699042)
(181.881 2.28568 -0.480658)
(181.948 1.90016 -1.75693)
(181.625 1.46167 -3.06952)
(180.85 0.974701 -4.34143)
(179.579 0.447414 -5.4446)
(177.804 -0.111325 -6.21334)
(175.594 -0.685939 -6.42375)
(173.18 -1.23109 -5.94451)
(181.576 3.65743 2.1419)
(182.483 3.37677 0.971631)
(183.076 2.9973 -0.359077)
(183.29 2.54919 -1.84922)
(183.037 2.05099 -3.43418)
(182.222 1.50662 -5.03891)
(180.755 0.922982 -6.51034)
(178.583 0.304174 -7.63342)
(175.747 -0.343495 -8.07414)
(172.564 -0.980067 -7.61386)
(182.343 3.00482 3.16418)
(183.456 2.59728 1.88747)
(184.224 2.10914 0.383519)
(184.581 1.5732 -1.33106)
(184.411 1.00357 -3.20903)
(183.588 0.404507 -5.18027)
(181.969 -0.218859 -7.08292)
(179.441 -0.864283 -8.66489)
(175.983 -1.52806 -9.4744)
(171.987 -2.16247 -9.18752)
(182.77 3.86639 3.07635)
(184.04 3.3971 1.8196)
(184.948 2.85641 0.323481)
(185.424 2.28646 -1.43191)
(185.34 1.70909 -3.41194)
(184.541 1.13285 -5.56449)
(182.834 0.56306 -7.73218)
(180.038 -0.00914534 -9.64931)
(176.038 -0.603696 -10.7549)
(171.268 -1.22886 -10.6362)
(183.249 2.39224 3.98888)
(184.606 1.77203 2.73688)
(185.593 1.13214 1.18734)
(186.144 0.505051 -0.634173)
(186.121 -0.0893802 -2.73022)
(185.358 -0.635113 -5.06034)
(183.626 -1.11409 -7.50576)
(180.684 -1.53364 -9.81606)
(176.303 -1.88072 -11.3938)
(170.878 -2.26482 -11.6205)
(182.821 3.23426 3.46229)
(184.216 2.51231 2.33196)
(185.268 1.83265 0.940166)
(185.874 1.18421 -0.75874)
(185.898 0.622741 -2.75456)
(185.157 0.175698 -5.02286)
(183.41 -0.114562 -7.47158)
(180.367 -0.226493 -9.84572)
(175.773 -0.154975 -11.6487)
(169.857 -0.0829167 -11.9347)
(174.788 0.556633 -0.0395407)
(174.82 0.490972 -0.178547)
(174.805 0.42177 -0.336995)
(174.749 0.359484 -0.482393)
(174.658 0.300645 -0.612578)
(174.541 0.246618 -0.716054)
(174.417 0.198451 -0.774345)
(174.352 0.139425 -0.803618)
(174.568 0.0322549 -0.762223)
(175.534 -0.226621 -0.714995)
(176.178 1.66965 -0.376797)
(176.247 1.66227 -0.652187)
(176.236 1.61079 -0.906143)
(176.142 1.52286 -1.13726)
(175.965 1.41114 -1.32983)
(175.713 1.28372 -1.46552)
(175.395 1.14889 -1.52642)
(175.028 1.01332 -1.49758)
(174.632 0.887791 -1.3662)
(174.23 0.783431 -1.15026)
(177.391 1.6419 0.169047)
(177.555 1.55559 -0.293687)
(177.59 1.41877 -0.768809)
(177.485 1.24433 -1.23258)
(177.236 1.04079 -1.65765)
(176.842 0.81377 -2.00879)
(176.314 0.568679 -2.24774)
(175.672 0.312018 -2.33797)
(174.948 0.0541495 -2.24608)
(174.184 -0.187873 -1.97633)
(178.47 2.47506 0.371589)
(178.782 2.39098 -0.260835)
(178.915 2.23095 -0.9213)
(178.845 2.01179 -1.59431)
(178.557 1.74947 -2.2395)
(178.039 1.45267 -2.80639)
(177.296 1.13027 -3.23104)
(176.351 0.792596 -3.44447)
(175.253 0.454614 -3.37721)
(174.083 0.141625 -3.00223)
(179.498 2.18074 1.26084)
(179.988 2.0069 0.441587)
(180.252 1.75829 -0.459933)
(180.255 1.45248 -1.41301)
(179.96 1.10119 -2.36678)
(179.341 0.710616 -3.25741)
(178.384 0.289409 -3.99222)
(177.108 -0.15248 -4.46193)
(175.573 -0.599147 -4.53635)
(173.916 -1.0138 -4.15255)
(180.195 3.00188 1.51049)
(180.877 2.78967 0.576029)
(181.291 2.49066 -0.470566)
(181.388 2.13161 -1.6159)
(181.112 1.72875 -2.80105)
(180.412 1.28797 -3.95575)
(179.249 0.817053 -4.96075)
(177.623 0.322017 -5.66374)
(175.595 -0.187481 -5.85948)
(173.371 -0.67896 -5.42852)
(180.934 2.34716 2.4504)
(181.793 2.01999 1.39854)
(182.348 1.62171 0.174124)
(182.545 1.1809 -1.19298)
(182.305 0.710971 -2.64949)
(181.55 0.217468 -4.12393)
(180.209 -0.293174 -5.48011)
(178.249 -0.81621 -6.52694)
(175.71 -1.34311 -6.97313)
(172.868 -1.8316 -6.6173)
(181.346 3.2647 2.30697)
(182.348 2.88991 1.25832)
(183.021 2.44964 0.0266656)
(183.308 1.98252 -1.3928)
(183.114 1.50926 -2.94925)
(182.336 1.03871 -4.58031)
(180.868 0.576964 -6.14236)
(178.635 0.117621 -7.42202)
(175.635 -0.353985 -8.03809)
(172.198 -0.837006 -7.72154)
(181.832 1.79149 3.24932)
(182.921 1.27701 2.18144)
(183.668 0.741945 0.869073)
(184.018 0.219257 -0.644847)
(183.862 -0.273017 -2.34028)
(183.085 -0.719746 -4.15604)
(181.548 -1.10601 -5.9671)
(179.138 -1.43963 -7.55318)
(175.797 -1.70888 -8.49869)
(171.876 -1.98612 -8.38873)
(181.411 2.80474 2.67291)
(182.538 2.20514 1.71403)
(183.345 1.64233 0.540811)
(183.741 1.1099 -0.869234)
(183.619 0.657205 -2.4839)
(182.846 0.30762 -4.25526)
(181.268 0.0926329 -6.07517)
(178.732 0.0231742 -7.70515)
(175.169 0.0923117 -8.77843)
(170.887 0.156724 -8.64297)
(174.807 0.315341 0.00044893)
(174.832 0.273682 -0.0754603)
(174.827 0.228504 -0.1731)
(174.799 0.189898 -0.260574)
(174.752 0.152958 -0.341445)
(174.69 0.118921 -0.408598)
(174.628 0.0894345 -0.446682)
(174.622 0.0489559 -0.476996)
(174.883 -0.0375062 -0.453856)
(175.93 -0.282687 -0.454478)
(175.851 1.2695 -0.351393)
(175.895 1.2884 -0.521298)
(175.891 1.27091 -0.670011)
(175.835 1.22186 -0.799636)
(175.729 1.15188 -0.901972)
(175.578 1.06812 -0.966735)
(175.387 0.978195 -0.984388)
(175.163 0.888206 -0.947177)
(174.916 0.807723 -0.849423)
(174.65 0.744123 -0.703204)
(176.739 1.14168 0.104674)
(176.848 1.08354 -0.21069)
(176.869 0.987353 -0.531343)
(176.796 0.861984 -0.839271)
(176.629 0.713441 -1.11574)
(176.37 0.546166 -1.33812)
(176.026 0.364692 -1.48337)
(175.608 0.174371 -1.53121)
(175.131 -0.0168232 -1.46408)
(174.605 -0.19638 -1.28986)
(177.595 1.94708 0.153602)
(177.808 1.90035 -0.29723)
(177.892 1.79029 -0.758541)
(177.83 1.63079 -1.21861)
(177.616 1.43544 -1.64792)
(177.249 1.21251 -2.01115)
(176.736 0.970159 -2.26748)
(176.097 0.717986 -2.37614)
(175.359 0.469251 -2.3006)
(174.552 0.244241 -2.02866)
(178.453 1.62514 0.896084)
(178.802 1.49851 0.278395)
(178.976 1.31008 -0.392212)
(178.951 1.07362 -1.08654)
(178.708 0.799277 -1.76418)
(178.237 0.493777 -2.37636)
(177.542 0.165479 -2.85975)
(176.645 -0.175853 -3.14558)
(175.588 -0.515744 -3.15972)
(174.44 -0.825273 -2.87248)
(179.052 2.43005 1.02197)
(179.554 2.2757 0.298167)
(179.837 2.04734 -0.500146)
(179.867 1.76753 -1.35503)
(179.612 1.45049 -2.21646)
(179.045 1.10316 -3.02564)
(178.16 0.733435 -3.69591)
(176.975 0.348121 -4.12573)
(175.546 -0.0422579 -4.19306)
(173.988 -0.4133 -3.83464)
(179.735 1.7688 1.87414)
(180.384 1.51235 1.03124)
(180.776 1.19492 0.0609386)
(180.872 0.84081 -0.999401)
(180.618 0.461677 -2.1005)
(179.974 0.0642882 -3.1769)
(178.912 -0.344524 -4.12384)
(177.438 -0.758466 -4.80614)
(175.609 -1.16717 -5.04501)
(173.595 -1.53445 -4.71805)
(180.101 2.73271 1.66501)
(180.873 2.44296 0.816091)
(181.362 2.09431 -0.167561)
(181.521 1.7216 -1.28047)
(181.283 1.34325 -2.46836)
(180.588 0.968302 -3.66856)
(179.386 0.603453 -4.76249)
(177.662 0.244855 -5.59256)
(175.462 -0.117433 -5.91185)
(173.006 -0.481054 -5.55989)
(180.583 1.24877 2.6231)
(181.437 0.831303 1.73566)
(181.99 0.393287 0.651602)
(182.197 -0.032946 -0.574241)
(181.978 -0.432443 -1.91253)
(181.26 -0.791261 -3.29536)
(179.968 -1.09726 -4.61065)
(178.069 -1.35751 -5.68176)
(175.586 -1.55949 -6.23559)
(172.787 -1.75382 -6.01551)
(180.155 2.43524 1.9806)
(181.043 1.95092 1.19258)
(181.648 1.49754 0.233713)
(181.891 1.07249 -0.900176)
(181.692 0.717269 -2.1673)
(180.962 0.451423 -3.50909)
(179.615 0.296932 -4.82258)
(177.586 0.257437 -5.90735)
(174.905 0.319977 -6.51636)
(171.855 0.37255 -6.21805)
(174.871 0.133337 0.0394576)
(174.892 0.104459 -0.000994383)
(174.892 0.0726787 -0.0657586)
(174.878 0.0482925 -0.121935)
(174.853 0.0252461 -0.176749)
(174.821 0.00464015 -0.225408)
(174.792 -0.0115856 -0.253934)
(174.812 -0.0381144 -0.287151)
(175.083 -0.107716 -0.274721)
(176.163 -0.341534 -0.304655)
(175.672 0.983996 -0.324272)
(175.701 1.01731 -0.426696)
(175.7 1.021 -0.509554)
(175.668 0.997959 -0.576872)
(175.607 0.957188 -0.625456)
(175.517 0.904932 -0.649659)
(175.402 0.848 -0.644467)
(175.264 0.791716 -0.605567)
(175.104 0.744637 -0.530366)
(174.919 0.711348 -0.425822)
(176.294 0.752138 0.0800751)
(176.365 0.711003 -0.131908)
(176.379 0.643237 -0.346629)
(176.332 0.554327 -0.550666)
(176.225 0.448011 -0.731507)
(176.058 0.327391 -0.874879)
(175.837 0.195861 -0.966886)
(175.566 0.0573174 -0.995884)
(175.245 -0.0826956 -0.951845)
(174.871 -0.215492 -0.842498)
(176.954 1.52342 0.0128374)
(177.099 1.50268 -0.299421)
(177.151 1.43059 -0.612519)
(177.103 1.31847 -0.918719)
(176.953 1.17752 -1.19766)
(176.701 1.01503 -1.42553)
(176.356 0.838049 -1.57688)
(175.929 0.654875 -1.62783)
(175.431 0.476733 -1.55916)
(174.864 0.319953 -1.36392)
(177.641 1.16893 0.633942)
(177.885 1.07876 0.179774)
(177.999 0.939383 -0.307343)
(177.966 0.760996 -0.802774)
(177.779 0.552039 -1.27602)
(177.436 0.318933 -1.69181)
(176.945 0.0691821 -2.00832)
(176.327 -0.188438 -2.18341)
(175.605 -0.441691 -2.1751)
(174.801 -0.668223 -1.96945)
(178.129 1.94324 0.654786)
(178.49 1.83557 0.110748)
(178.681 1.6667 -0.480327)
(178.678 1.45488 -1.10107)
(178.463 1.21232 -1.71139)
(178.026 0.946077 -2.26554)
(177.375 0.663652 -2.70326)
(176.532 0.371757 -2.95949)
(175.537 0.080386 -2.9631)
(174.445 -0.193205 -2.68179)
(178.741 1.27393 1.42019)
(179.22 1.07735 0.762598)
(179.492 0.830276 0.013535)
(179.528 0.552361 -0.788936)
(179.296 0.253551 -1.60283)