/*--------------------------------*- C++ -*----------------------------------*\
| =========                 |                                                 |
| \\      /  F ield         | foam-extend: Open Source CFD                    |
|  \\    /   O peration     | Version:     4.0                                |
|   \\  /    A nd           | Web:         http://www.foam-extend.org         |
|    \\/     M anipulation  |                                                 |
\*---------------------------------------------------------------------------*/
FoamFile
{
    version     2.0;
    format      ascii;
    class       volScalarField;
    location    "4300";
    object      divFlux;
}
// * * * * * * * * * * * * * * * * * * * * * * * * * * * * * * * * * * * * * //

dimensions      [1 -3 -1 0 0 0 0];

internalField   nonuniform List<scalar> 
34480
(
2.69959e-05
1.00283e-05
1.01899e-05
9.40865e-06
8.72835e-06
8.19104e-06
7.78268e-06
0.000300082
0.000183688
6.94502e-06
8.0832e-06
4.32895e-06
4.2006e-06
3.89899e-06
3.68238e-06
3.58485e-06
3.57935e-06
3.58353e-06
0.00346282
3.4613e-06
2.30389e-06
1.4006e-06
1.37834e-06
1.3091e-06
1.29036e-06
1.33417e-06
1.40693e-06
1.45701e-06
0.00334084
1.43639e-06
8.21502e-07
5.341e-07
5.31886e-07
5.06571e-07
5.08136e-07
5.34482e-07
5.67854e-07
5.89122e-07
0.0008014
5.83127e-07
3.34162e-07
2.181e-07
2.23075e-07
2.1018e-07
2.12078e-07
2.23467e-07
2.36428e-07
2.4461e-07
2.48079e-07
2.41991e-07
1.41259e-07
9.76524e-08
9.72515e-08
9.16386e-08
9.34141e-08
9.82251e-08
1.03093e-07
1.06358e-07
1.0716e-07
1.04983e-07
6.81944e-08
4.32738e-08
4.58702e-08
4.11356e-08
4.32738e-08
4.50557e-08
4.74484e-08
4.80594e-08
4.89758e-08
4.69902e-08
3.37345e-08
2.35511e-08
2.22682e-08
2.04812e-08
2.05271e-08
2.18558e-08
2.25889e-08
2.29097e-08
2.41926e-08
2.39177e-08
2.45914e-08
1.24129e-08
1.50371e-08
1.24129e-08
1.21629e-08
1.24129e-08
1.29544e-08
1.30377e-08
1.31626e-08
1.36625e-08
1.04048e-08
1.13021e-08
8.47657e-09
9.27841e-09
8.28566e-09
8.43839e-09
8.70567e-09
8.51476e-09
8.17111e-09
9.16386e-09
3.7344e-05
1.29079e-05
1.29502e-05
1.21373e-05
1.14037e-05
1.08519e-05
1.04852e-05
1.02961e-05
1.02777e-05
0.00106324
1.21752e-05
6.31794e-06
6.12695e-06
5.75611e-06
5.4959e-06
5.38532e-06
5.39139e-06
5.49191e-06
5.6739e-06
0.00345501
3.68341e-06
2.33916e-06
2.27616e-06
2.19038e-06
2.18428e-06
2.26309e-06
2.38129e-06
2.5138e-06
2.65632e-06
0.00431042
1.47574e-06
9.93996e-07
9.98397e-07
9.63079e-07
9.73834e-07
1.02459e-06
1.08511e-06
1.1528e-06
1.21947e-06
0.00149779
6.63364e-07
4.28204e-07
4.72077e-07
4.48345e-07
4.49441e-07
4.79136e-07
5.04084e-07
5.36213e-07
5.6743e-07
5.82806e-07
2.77284e-07
1.9498e-07
2.31399e-07
2.21921e-07
2.1271e-07
2.33741e-07
2.4258e-07
2.57062e-07
2.73355e-07
2.77964e-07
1.09039e-07
8.57111e-08
9.94836e-08
1.30436e-07
9.56027e-08
1.1903e-07
1.19787e-07
1.28685e-07
1.37062e-07
1.38801e-07
8.22208e-08
4.8303e-08
6.11668e-08
6.83228e-08
5.32015e-08
6.49578e-08
6.51281e-08
6.91321e-08
7.3349e-08
7.47973e-08
4.81332e-08
1.65347e-08
4.2905e-08
5.27407e-08
3.33017e-08
4.12399e-08
4.07753e-08
4.24016e-08
4.60029e-08
4.70774e-08
2.02467e-07
2.1972e-08
2.22915e-08
3.85132e-08
2.99942e-08
3.08816e-08
3.20529e-08
3.28338e-08
3.62415e-08
3.73507e-08
3.47975e-05
9.78124e-06
1.01082e-05
9.52676e-06
8.97919e-06
8.5872e-06
8.37419e-06
8.34819e-06
3.29498e-05
0.000871857
1.07209e-05
4.55353e-06
4.49977e-06
4.21774e-06
3.98782e-06
3.83304e-06
3.78622e-06
3.87041e-06
8.02926e-05
0.00135222
3.08797e-06
1.6352e-06
1.59232e-06
1.50671e-06
1.44505e-06
1.41927e-06
1.44335e-06
1.53629e-06
0.000119945
0.00127379
1.1595e-06
6.45019e-07
6.39838e-07
6.07929e-07
5.85622e-07
5.7701e-07
5.911e-07
6.34757e-07
7.13128e-07
8.92602e-07
4.91588e-07
2.62252e-07
2.7713e-07
2.58688e-07
2.49185e-07
2.45621e-07
2.50373e-07
2.70907e-07
3.06602e-07
3.90992e-07
2.07383e-07
1.18349e-07
1.25922e-07
1.14191e-07
1.10429e-07
1.08845e-07
1.10083e-07
1.20626e-07
1.36861e-07
1.76712e-07
1.03119e-07
5.25774e-08
5.94411e-08
5.33694e-08
5.07735e-08
5.04215e-08
5.13455e-08
5.54373e-08
6.37529e-08
8.40496e-08
2.99485e-08
3.35395e-08
3.16388e-08
2.55803e-08
2.55407e-08
2.56199e-08
2.49864e-08
2.8471e-08
3.30644e-08
4.38029e-08
3.92358e-08
1.22754e-08
2.21029e-08
1.65592e-08
1.60912e-08
1.64152e-08
1.60192e-08
1.68832e-08
1.9943e-08
2.67489e-08
2.93232e-08
1.55752e-08
8.1836e-09
1.27704e-08
9.66852e-09
1.11864e-08
1.06915e-08
1.16484e-08
1.27374e-08
1.94464e-08
3.43603e-05
8.82862e-06
9.2133e-06
8.70926e-06
8.22972e-06
7.89072e-06
7.71623e-06
7.71194e-06
1.77042e-05
0.000372046
1.06549e-05
4.25153e-06
4.22737e-06
3.9672e-06
3.74725e-06
3.59094e-06
3.51552e-06
3.5412e-06
3.41584e-05
0.00114333
3.10005e-06
1.59774e-06
1.55419e-06
1.46441e-06
1.39178e-06
1.3444e-06
1.33641e-06
1.38107e-06
0.000121468
0.00228938
1.18874e-06
6.51568e-07
6.3804e-07
6.01719e-07
5.73466e-07
5.54814e-07
5.52943e-07
5.77178e-07
0.000112995
0.00210554
5.0845e-07
2.67937e-07
2.7551e-07
2.59312e-07
2.46428e-07
2.3833e-07
2.38119e-07
2.48847e-07
4.5082e-05
0.00156994
2.1781e-07
1.19132e-07
1.25114e-07
1.16049e-07
1.10757e-07
1.07122e-07
1.06202e-07
1.11586e-07
1.07265e-05
0.000987043
1.11366e-07
5.05548e-08
5.99213e-08
5.45632e-08
5.12092e-08
5.02685e-08
4.88369e-08
5.28044e-08
6.01668e-08
0.000414907
4.43282e-08
2.85659e-08
3.22839e-08
2.65781e-08
2.65045e-08
2.57314e-08
2.48847e-08
2.66517e-08
3.11059e-08
0.000156097
4.50353e-08
9.63798e-09
2.31579e-08
1.68665e-08
1.64984e-08
1.62306e-08
1.60633e-08
1.73015e-08
1.86401e-08
2.55946e-08
1.8821e-08
1.78844e-08
7.85317e-09
1.31602e-08
1.00005e-08
1.03073e-08
1.08901e-08
1.10742e-08
1.31909e-08
1.88584e-08
3.35211e-05
7.83455e-06
8.26711e-06
7.85118e-06
7.42666e-06
7.12891e-06
6.97183e-06
6.95287e-06
2.20458e-05
0.000141688
1.04001e-05
3.88987e-06
3.8918e-06
3.66153e-06
3.46441e-06
3.32231e-06
3.24313e-06
3.23145e-06
4.36611e-06
0.000578488
3.07986e-06
1.51475e-06
1.48234e-06
1.3947e-06
1.32461e-06
1.27266e-06
1.24689e-06
1.25442e-06
7.62035e-05
0.0013344
1.17472e-06
6.36919e-07
6.1958e-07
5.85273e-07
5.56385e-07
5.34397e-07
5.23589e-07
5.28979e-07
7.87621e-05
0.00142022
5.06274e-07
2.71768e-07
2.69568e-07
2.54804e-07
2.42582e-07
2.33e-07
2.28355e-07
2.31728e-07
5.29398e-05
0.00127956
2.20806e-07
1.20246e-07
1.22727e-07
1.15711e-07
1.09509e-07
1.05616e-07
1.02921e-07
1.04889e-07
4.01238e-05
0.00101555
1.14173e-07
5.16364e-08
5.87469e-08
5.43361e-08
5.14083e-08
4.89367e-08
4.84424e-08
4.9393e-08
5.85142e-06
0.000666484
5.29064e-08
2.60083e-08
3.19971e-08
2.75141e-08
2.59741e-08
2.59741e-08
2.4571e-08
2.58372e-08
8.62118e-06
0.000499129
5.09356e-08
8.83537e-09
2.15907e-08
1.72974e-08
1.54308e-08
1.5773e-08
1.55863e-08
1.72041e-08
1.8884e-08
0.000305731
1.24494e-08
2.07896e-08
7.72836e-09
1.29186e-08
1.0352e-08
1.08083e-08
1.08083e-08
1.1122e-08
1.2719e-08
0.000402839
3.2271e-05
6.80115e-06
7.27405e-06
6.94401e-06
6.58328e-06
6.31922e-06
6.17286e-06
6.14324e-06
6.22651e-06
2.30955e-05
9.9698e-06
3.49837e-06
3.51973e-06
3.31604e-06
3.13964e-06
3.01509e-06
2.93965e-06
2.91615e-06
1.6301e-05
0.00022224
3.03327e-06
1.40778e-06
1.3858e-06
1.30531e-06
1.2385e-06
1.18878e-06
1.15661e-06
1.14732e-06
3.47823e-05
0.000718199
1.14486e-06
6.01408e-07
5.87622e-07
5.56312e-07
5.28873e-07
5.08221e-07
4.9409e-07
4.90008e-07
4.14756e-05
0.000847818
4.88149e-07
2.64598e-07
2.60416e-07
2.46237e-07
2.34511e-07
2.24149e-07
2.18786e-07
2.16832e-07
3.68556e-05
0.000863296
2.15623e-07
1.20295e-07
1.19102e-07
1.11665e-07
1.06496e-07
1.02758e-07
9.95763e-08
9.91786e-08
3.52046e-05
0.000779523
1.12077e-07
5.23863e-08
5.68048e-08
5.33407e-08
5.09723e-08
4.87454e-08
4.76496e-08
4.72961e-08
1.93355e-05
0.000594075
5.62413e-08
2.491e-08
3.08909e-08
2.70097e-08
2.60235e-08
2.51645e-08
2.43373e-08
2.51009e-08
2.61613e-05
0.000524183
5.31665e-08
8.84994e-09
2.01871e-08
1.65141e-08
1.6572e-08
1.60514e-08
1.57622e-08
1.59068e-08
9.55369e-06
0.00044694
7.46665e-09
2.09439e-08
7.7678e-09
1.29375e-08
1.04189e-08
1.07636e-08
1.06045e-08
1.07371e-08
2.60811e-05
0.000523549
3.08301e-05
5.76803e-06
6.27642e-06
6.03393e-06
5.72761e-06
5.49633e-06
5.35795e-06
5.31721e-06
5.36448e-06
3.17393e-06
9.34517e-06
3.08201e-06
3.1202e-06
2.947e-06
2.7931e-06
2.68104e-06
2.61088e-06
2.58223e-06
1.10878e-05
7.07819e-05
2.91152e-06
1.27554e-06
1.26179e-06
1.19246e-06
1.13299e-06
1.08768e-06
1.05686e-06
1.03926e-06
1.32511e-05
0.000377919
1.11933e-06
5.59065e-07
5.48813e-07
5.184e-07
4.9336e-07
4.73421e-07
4.5925e-07
4.50994e-07
1.63607e-05
0.000490263
4.64313e-07
2.49697e-07
2.45007e-07
2.31868e-07
2.20967e-07
2.12137e-07
2.06011e-07
2.02251e-07
1.7525e-05
0.000542676
2.04296e-07
1.16747e-07
1.13494e-07
1.07431e-07
1.02034e-07
9.8041e-08
9.49726e-08
9.40114e-08
2.02069e-05
0.00053651
1.04801e-07
5.33007e-08
5.43522e-08
5.07046e-08
4.8503e-08
4.69913e-08
4.53483e-08
4.49868e-08
1.59431e-05
0.000441584
5.63468e-08
2.50796e-08
2.87469e-08
2.62921e-08
2.46951e-08
2.42515e-08
2.39557e-08
2.3453e-08
2.56761e-05
0.000433155
5.25783e-08
1.01093e-08
1.78256e-08
1.73686e-08
1.50295e-08
1.57823e-08
1.48144e-08
1.58898e-08
1.94589e-05
0.000409123
3.26615e-09
2.19841e-08
6.67901e-09
1.22736e-08
9.61187e-09
9.85832e-09
1.00555e-08
1.04991e-08
3.31636e-05
0.000468985
2.92569e-05
4.75265e-06
5.28692e-06
5.13747e-06
4.89273e-06
4.69461e-06
4.57316e-06
4.52846e-06
4.56092e-06
4.85078e-06
8.6004e-06
2.65949e-06
2.70788e-06
2.56508e-06
2.43235e-06
2.33564e-06
2.26987e-06
2.24168e-06
3.44578e-06
1.41888e-05
2.73403e-06
1.13421e-06
1.1267e-06
1.06498e-06
1.01211e-06
9.71168e-07
9.41915e-07
9.24896e-07
4.65775e-06
0.0001806
1.06246e-06
5.05843e-07
4.98419e-07
4.72873e-07
4.50374e-07
4.3209e-07
4.1871e-07
4.08537e-07
5.20414e-06
0.000266892
4.46107e-07
2.29849e-07
2.26629e-07
2.1512e-07
2.04908e-07
1.96739e-07
1.90415e-07
1.86134e-07
5.77764e-06
0.000321741
1.91885e-07
1.08567e-07
1.06092e-07
1.00559e-07
9.56102e-08
9.16923e-08
8.93209e-08
8.70527e-08
8.00699e-06
0.000350051
9.54223e-08
5.14748e-08
5.17497e-08
4.82366e-08
4.60371e-08
4.4143e-08
4.3196e-08
4.27989e-08
8.86011e-06
0.00030276
5.24586e-08
2.50745e-08
2.69441e-08
2.53219e-08
2.40572e-08
2.33698e-08
2.26275e-08
2.23251e-08
1.91681e-05
0.000325818
4.87834e-08
1.27472e-08
1.53466e-08
1.67963e-08
1.45718e-08
1.40219e-08
1.42219e-08
1.45468e-08
1.82286e-05
0.00031201
4.04712e-10
2.21784e-08
6.94222e-09
1.12725e-08
9.76035e-09
9.43959e-09
9.37085e-09
9.89782e-09
3.05594e-05
0.000366847
2.76428e-05
3.76649e-06
4.31759e-06
4.26587e-06
4.0807e-06
3.91742e-06
3.80657e-06
3.76255e-06
3.77929e-06
3.99773e-06
7.76707e-06
2.2535e-06
2.3051e-06
2.18893e-06
2.07698e-06
1.99136e-06
1.93561e-06
1.90685e-06
1.89647e-06
8.46557e-07
2.48595e-06
9.80788e-07
9.80124e-07
9.29823e-07
8.83177e-07
8.4765e-07
8.20889e-07
8.04531e-07
1.37169e-06
7.95682e-05
9.84131e-07
4.48417e-07
4.42539e-07
4.20579e-07
4.00174e-07
3.83539e-07
3.71931e-07
3.62793e-07
1.49467e-06
0.000135556
4.19565e-07
2.06702e-07
2.04876e-07
1.93995e-07
1.85853e-07
1.77783e-07
1.7216e-07
1.67888e-07
9.84034e-07
0.000176913
1.8147e-07
9.84034e-08
9.6774e-08
9.179e-08
8.78283e-08
8.43139e-08
8.14704e-08
1.23003e-05
1.44359e-06
0.000214852
8.6809e-08
4.76256e-08
4.7796e-08
4.44448e-08
4.28545e-08
4.12073e-08
4.00714e-08
3.89922e-08
3.57694e-06
0.000190151
4.69505e-08
2.37446e-08
2.51759e-08
2.39235e-08
2.21599e-08
2.21599e-08
2.07286e-08
1.01753e-05
1.24278e-05
0.000227364
4.08565e-08
1.5568e-08
1.31282e-08
1.52891e-08
1.38717e-08
1.41273e-08
1.27797e-08
1.3802e-08
1.36463e-05
0.000214279
4.29517e-09
2.21088e-08
6.68803e-09
1.00107e-08
9.35046e-09
8.66888e-09
8.79667e-09
4.82586e-06
2.44354e-05
0.000264557
2.65681e-05
2.89039e-06
3.45457e-06
3.50077e-06
3.38669e-06
3.25421e-06
3.15794e-06
3.10151e-06
3.09303e-06
3.21781e-06
6.81616e-06
1.86395e-06
1.91513e-06
1.8248e-06
1.73558e-06
1.66365e-06
1.61595e-06
1.58794e-06
1.57811e-06
1.48636e-06
2.23151e-06
8.31321e-07
8.33959e-07
7.91379e-07
7.52839e-07
7.21736e-07
6.9895e-07
6.83006e-07
7.88385e-08
3.14977e-05
8.86782e-07
3.86906e-07
3.84233e-07
3.64808e-07
3.47483e-07
3.33028e-07
3.22296e-07
3.13386e-07
3.71204e-07
6.42022e-05
3.85022e-07
1.82314e-07
1.79089e-07
1.71316e-07
1.63373e-07
1.56924e-07
1.51187e-07
1.47555e-07
4.32414e-07
9.10043e-05
1.69977e-07
8.7143e-08
8.65489e-08
8.24502e-08
7.85891e-08
7.53813e-08
7.28567e-08
1.76166e-05
1.34154e-06
0.000125592
7.94221e-08
4.22679e-08
4.34296e-08
4.02615e-08
3.87302e-08
3.71197e-08
3.58789e-08
3.48229e-08
8.22337e-07
0.000108984
4.18592e-08
2.24303e-08
2.29292e-08
2.15511e-08
2.05056e-08
1.94364e-08
1.9175e-08
1.90086e-05
7.40213e-06
0.000150152
3.08827e-08
1.7583e-08
1.15564e-08
1.35653e-08
1.28957e-08
1.21396e-08
1.25285e-08
1.20748e-08
8.83183e-06
0.000136424
9.03609e-09
2.17808e-08
6.35603e-09
9.08853e-09
8.09849e-09
8.53411e-09
8.2371e-09
1.01648e-05
1.79367e-05
0.000180366
2.48542e-05
1.89006e-06
2.4386e-06
2.58713e-06
2.58415e-06
2.54525e-06
2.51534e-06
2.5149e-06
2.5574e-06
2.72365e-06
5.83978e-06
1.51155e-06
1.54838e-06
1.47756e-06
1.41093e-06
1.35717e-06
1.31551e-06
1.29281e-06
1.27793e-06
1.18404e-06
1.93899e-06
6.86281e-07
6.89086e-07
6.5624e-07
6.25006e-07
5.98919e-07
5.79128e-07
5.66449e-07
5.54388e-07
1.06889e-05
7.80064e-07
3.24983e-07
3.24063e-07
3.07883e-07
2.93599e-07
2.81524e-07
2.71731e-07
2.64331e-07
3.20474e-08
2.7309e-05
3.39762e-07
1.56358e-07
1.54654e-07
1.47302e-07
1.39823e-07
1.34679e-07
1.30009e-07
1.26096e-07
5.88733e-07
4.39498e-05
1.5504e-07
7.52404e-08
7.54613e-08
7.1292e-08
6.80892e-08
6.57146e-08
6.33676e-08
1.68858e-05
2.2626e-06
7.13265e-05
7.44448e-08
3.68394e-08
3.77966e-08
3.6005e-08
3.38206e-08
3.28634e-08
3.13418e-08
3.10227e-08
2.0717e-07
5.66587e-05
3.93638e-08
1.82013e-08
1.9858e-08
1.96371e-08
1.7892e-08
1.7384e-08
9.21617e-07
2.11579e-05
4.07448e-06
9.62244e-05
1.9309e-08
1.97194e-08
9.89986e-09
1.27313e-08
1.17875e-08
1.10244e-08
1.06027e-08
1.0442e-08
4.88866e-06
7.99572e-05
1.27776e-08
1.89965e-08
7.30776e-09
7.98883e-09
7.71272e-09
7.43661e-09
7.34457e-09
1.12143e-05
1.23934e-05
0.000117793
2.64253e-05
1.51281e-06
1.89335e-06
1.91648e-06
1.80607e-06
1.68116e-06
1.57508e-06
1.49388e-06
1.41174e-06
1.35734e-06
4.83014e-06
1.23246e-06
1.2319e-06
1.1636e-06
1.10215e-06
1.05535e-06
1.02211e-06
1.00522e-06
1.00148e-06
9.41726e-07
1.64166e-06
5.57044e-07
5.56428e-07
5.28891e-07
5.03346e-07
4.81805e-07
4.65439e-07
4.52112e-07
4.41844e-07
3.26095e-06
6.71426e-07
2.65325e-07
2.64812e-07
2.52816e-07
2.41607e-07
2.30724e-07
2.23006e-07
2.15922e-07
2.0983e-07
8.88782e-06
2.89507e-07
1.30336e-07
1.28987e-07
1.22269e-07
1.1737e-07
1.1253e-07
1.08452e-07
1.04463e-07
3.90951e-07
1.97191e-05
1.35473e-07
6.40681e-08
6.35548e-08
6.03206e-08
5.7574e-08
5.56233e-08
1.23067e-06
1.43217e-05
2.36647e-06
3.98227e-05
6.8523e-08
3.03685e-08
3.27186e-08
3.04369e-08
2.91364e-08
2.79956e-08
2.74024e-08
2.633e-08
2.49861e-07
2.53871e-05
3.85386e-08
1.54626e-08
1.67974e-08
1.69e-08
1.59554e-08
1.5134e-08
1.64411e-05
2.02893e-05
1.9973e-06
6.09926e-05
7.97745e-09
1.99373e-08
9.33394e-09
1.0006e-08
9.85664e-09
9.59529e-09
9.31527e-09
9.85664e-09
2.07762e-06
4.15832e-05
1.32745e-08
1.5247e-08
7.25558e-09
6.24596e-09
6.46842e-09
6.43419e-09
6.1604e-09
1.01498e-05
8.1877e-06
7.43611e-05
2.43332e-05
2.21031e-06
2.95563e-06
3.32182e-06
3.42421e-06
3.42987e-06
3.41318e-06
3.41573e-06
3.44605e-06
3.55089e-06
3.2004e-06
9.5988e-07
9.6723e-07
9.40814e-07
9.15783e-07
8.92016e-07
8.65815e-07
8.37372e-07
8.01292e-07
6.86187e-07
1.30864e-06
4.37098e-07
4.31734e-07
4.12873e-07
3.96322e-07
3.82138e-07
3.70093e-07
3.61254e-07
2.71323e-07
2.14906e-06
5.57943e-07
2.09574e-07
2.09908e-07
2.00856e-07
1.91613e-07
1.84121e-07
1.77376e-07
1.71426e-07
1.66351e-07
3.72165e-08
2.40552e-07
1.04803e-07
1.03794e-07
9.89121e-08
9.4467e-08
9.0649e-08
8.72674e-08
8.44312e-08
2.0167e-07
8.25698e-06
1.13031e-07
5.25922e-08
5.1948e-08
4.96333e-08
4.71039e-08
4.5195e-08
8.91138e-06
1.17201e-05
2.17268e-06
2.21823e-05
6.0988e-08
2.4647e-08
2.64287e-08
2.53257e-08
2.42228e-08
2.33743e-08
2.24411e-08
2.13593e-08
2.10836e-08
8.04162e-06
2.96008e-06
1.29619e-08
1.3611e-08
1.37255e-08
1.32865e-08
1.57338e-05
2.42287e-05
1.84347e-05
7.49845e-07
3.89809e-05
2.37537e-09
1.80832e-08
8.22594e-09
8.06976e-09
8.83335e-09
8.29536e-09
7.68796e-09
7.61854e-09
2.87769e-07
1.69395e-05
8.49649e-09
1.01017e-08
6.96776e-09
5.59966e-09
5.47239e-09
5.26559e-09
1.96847e-06
8.32797e-06
5.23813e-06
4.57306e-05
1.44074e-05
7.92942e-06
7.77208e-06
7.17083e-06
6.77406e-06
6.43617e-06
6.00667e-06
5.43015e-06
4.70508e-06
3.8149e-06
3.77841e-06
9.85685e-07
7.77408e-07
6.23545e-07
5.38318e-07
4.91933e-07
4.83747e-07
5.02182e-07
5.36055e-07
5.25105e-07
5.87032e-05
6.90318e-06
9.4906e-06
7.20096e-06
5.91913e-06
4.96856e-06
3.79175e-06
1.5552e-06
1.68794e-06
3.92267e-06
4.46704e-07
1.62647e-07
1.62159e-07
1.53862e-07
1.47178e-07
1.40464e-07
1.34208e-07
1.29919e-07
1.2427e-07
1.05558e-07
1.93435e-07
8.16339e-08
8.05438e-08
7.68423e-08
7.36733e-08
7.04283e-08
6.75381e-08
6.46987e-08
1.28738e-07
3.55185e-06
9.78975e-06
4.15046e-08
4.07726e-08
3.91089e-08
3.72455e-08
7.39492e-06
1.19397e-05
9.62051e-06
1.9294e-06
1.259e-05
5.14217e-08
1.8693e-08
2.12761e-08
2.09014e-08
1.92254e-08
1.83381e-08
1.75099e-08
1.76676e-08
1.64057e-08
1.56617e-08
5.0258e-05
4.56858e-05
4.11031e-05
3.65133e-05
3.47339e-05
3.23336e-05
2.75796e-05
1.65843e-05
4.25916e-09
2.57328e-05
9.46331e-09
1.54395e-08
7.92139e-09
7.25993e-09
6.84047e-09
6.8566e-09
6.51781e-09
6.40487e-09
6.03381e-09
2.04066e-06
8.99456e-11
5.84156e-09
5.95987e-09
4.71761e-09
4.36268e-09
4.56972e-09
5.08807e-06
6.38246e-06
3.25947e-06
2.74791e-05
0.000230233
2.59423e-05
2.83547e-05
2.80468e-05
2.64569e-05
2.38045e-05
2.04529e-05
1.67372e-05
1.28556e-05
8.80355e-06
4.57725e-06
1.66236e-07
1.07999e-07
2.85515e-07
3.78521e-07
4.0069e-07
3.99927e-07
4.16775e-07
5.11947e-07
6.84841e-07
0.000200894
0.000127977
6.9826e-05
3.98752e-05
2.2483e-05
1.26637e-05
6.53797e-06
1.59377e-06
3.75585e-06
7.05977e-06
3.3695e-07
1.19348e-07
1.15608e-07
1.12089e-07
1.08074e-07
1.04678e-07
1.01021e-07
9.69382e-08
9.30337e-08
7.80963e-08
1.50345e-07
5.98398e-08
5.98634e-08
5.6988e-08
5.48669e-08
5.20387e-08
5.08131e-08
1.82253e-07
1.62739e-07
2.09797e-06
3.93914e-05
3.00269e-05
1.96768e-05
1.57495e-05
1.50438e-05
1.43123e-05
1.23532e-05
7.95086e-06
1.71668e-06
7.3998e-06
4.04858e-08
1.51596e-08
1.57095e-08
1.53979e-08
1.4958e-08
1.42431e-08
1.37298e-08
1.27033e-08
1.2465e-08
1.16524e-08
0.000219218
4.35005e-05
7.99368e-05
7.01323e-05
5.46511e-05
4.07524e-05
2.86855e-05
1.51833e-05
4.73272e-07
1.80531e-05
1.33083e-08
1.04536e-08
6.6741e-09
5.30928e-09
5.39927e-09
4.82935e-09
4.84435e-09
4.78436e-09
4.90434e-09
5.06475e-09
9.48133e-09
2.30969e-09
3.97321e-09
3.98696e-09
3.43704e-09
2.9971e-09
5.26925e-06
4.37843e-06
1.91032e-06
1.57259e-05
0.00061769
8.4367e-05
8.82161e-05
7.83497e-05
6.45107e-05
5.02089e-05
3.70047e-05
2.52765e-05
1.47241e-05
4.61894e-06
1.38502e-05
3.49158e-06
2.45588e-06
1.90494e-06
1.61352e-06
1.33667e-06
9.5363e-07
3.89807e-07
4.5982e-07
1.68052e-06
0.000340653
0.000241663
0.000117375
6.11516e-05
3.08013e-05
1.50147e-05
6.20134e-06
3.95539e-08
6.65723e-06
1.11886e-05
2.25613e-07
8.72031e-08
8.10428e-08
7.602e-08
7.33105e-08
7.12783e-08
7.09205e-08
7.00641e-08
6.8965e-08
5.3544e-08
1.83864e-05
4.21984e-08
4.17821e-08
2.1774e-07
1.60444e-06
2.42459e-06
2.47632e-06
1.63995e-06
2.4011e-07
1.84192e-06
3.98335e-05
4.50336e-05
3.52126e-05
2.63191e-05
2.00019e-05
1.51578e-05
1.09278e-05
6.34358e-06
1.49497e-06
4.40629e-06
3.02445e-08
1.06847e-08
1.08892e-08
1.11789e-08
1.05654e-08
1.03098e-08
9.50889e-09
9.18511e-09
9.50889e-09
7.93698e-09
0.00048673
1.65054e-05
8.40217e-05
8.30512e-05
6.35252e-05
4.44281e-05
2.87602e-05
1.43092e-05
8.35126e-07
1.37445e-05
9.97379e-09
5.45158e-09
5.32609e-09
4.44771e-09
3.63903e-09
4.25251e-09
3.44383e-09
4.09914e-09
3.44383e-09
3.51284e-09
1.41714e-08
1.68706e-09
2.81177e-09
2.76064e-09
2.39e-09
3.68853e-08
2.91229e-06
2.1799e-06
9.13531e-07
7.57758e-06
0.00218064
0.000202942
0.000183422
0.000134979
9.3015e-05
6.10549e-05
3.72961e-05
1.91452e-05
4.07911e-06
1.0035e-05
3.60176e-05
8.10501e-06
7.03616e-06
5.97428e-06
4.57896e-06
2.937e-06
1.10547e-06
9.70898e-07
3.49049e-06
6.44826e-06
0.000487943
0.000365371
0.000159285
7.48611e-05
3.29393e-05
1.30481e-05
3.12974e-06
3.24284e-06
1.07436e-05
1.66933e-05
1.54539e-07
6.47182e-08
5.59379e-08
4.73119e-08
4.2797e-08
3.78305e-08
3.568e-08
3.48602e-08
3.50503e-08
4.34829e-08
5.89666e-05
3.5373e-05
2.04423e-05
1.31842e-05
8.94535e-06
6.16303e-06
4.0351e-06
2.10039e-06
2.80144e-07
1.62873e-06
2.92398e-05
3.71541e-05
3.0709e-05
2.2867e-05
1.65986e-05
1.17803e-05
7.92645e-06
4.42386e-06
1.16024e-06
2.40864e-06
2.03688e-08
7.58829e-09
7.77839e-09
7.44571e-09
6.92292e-09
6.36846e-09
6.73282e-09
6.06746e-09
6.16251e-09
5.08322e-09
0.000834378
0.000119408
6.16315e-05
7.95939e-05
6.31563e-05
4.36495e-05
2.73224e-05
1.33433e-05
1.12519e-06
1.09801e-05
8.29655e-10
2.30716e-09
2.76082e-09
2.72193e-09
2.85155e-09
2.43678e-09
2.76082e-09
2.25532e-09
2.30716e-09
2.40985e-09
1.25165e-08
8.43583e-10
1.84162e-09
1.72281e-09
1.84162e-09
1.96044e-09
1.67528e-09
2.61047e-07
2.44758e-07
2.14977e-06
0.00533834
0.000107765
8.29543e-05
4.94862e-05
2.55191e-05
9.8262e-06
8.05266e-07
9.00832e-06
1.67984e-05
2.54521e-05
3.07635e-05
2.48784e-05
1.81952e-05
1.22436e-05
7.29173e-06
3.2446e-06
2.41116e-07
3.58556e-06
7.24552e-06
1.10947e-05
0.000554001
0.000460032
0.000178539
7.50082e-05
2.79939e-05
7.99934e-06
5.25846e-07
5.33532e-06
1.1655e-05
1.80987e-05
5.68423e-08
4.72523e-08
4.10116e-08
3.17335e-08
2.29524e-08
1.3133e-08
3.61185e-09
8.08524e-09
2.00806e-08
4.50139e-08
5.06085e-05
3.42738e-05
1.93703e-05
1.20536e-05
7.73894e-06
4.99079e-06
3.06423e-06
1.53718e-06
2.28242e-07
1.05058e-06
1.65444e-05
1.99981e-05
1.69681e-05
1.26794e-05
9.08667e-06
6.30048e-06
4.12581e-06
2.28725e-06
6.75499e-07
1.00252e-06
1.16083e-08
4.99253e-09
4.43289e-09
4.25617e-09
4.34453e-09
4.04999e-09
4.07944e-09
3.56399e-09
3.12217e-09
3.31515e-09
0.00106778
0.00021553
2.05441e-05
5.77028e-05
4.97642e-05
3.49407e-05
2.17331e-05
1.06677e-05
1.17923e-06
7.88392e-06
5.80936e-09
1.79538e-09
1.50619e-09
1.72308e-09
1.49414e-09
1.51824e-09
1.49414e-09
1.217e-09
1.62669e-09
1.57754e-09
1.23915e-06
7.9326e-07
1.10454e-09
7.51088e-10
1.27022e-09
4.96105e-07
8.04537e-07
3.811e-07
2.01623e-07
1.24671e-06
0.00322269
0.000641246
0.000445018
0.000301956
0.000210125
0.000143291
9.07296e-05
4.84698e-05
3.54914e-06
3.37905e-05
1.3567e-05
1.21295e-05
6.1742e-06
1.73935e-06
1.00663e-06
2.7649e-06
4.10287e-06
5.39253e-06
6.83129e-06
7.83743e-06
0.000286996
0.000372448
0.000124858
4.61157e-05
1.32435e-05
6.9802e-07
3.92883e-06
6.37921e-06
1.01166e-05
1.48259e-05
3.43197e-08
1.14901e-08
2.39249e-08
3.34127e-08
4.04567e-08
4.7203e-08
5.4021e-08
5.92373e-08
6.23486e-08
6.29067e-08
2.06674e-05
1.52894e-05
8.38324e-06
5.06159e-06
3.14466e-06
1.96431e-06
1.17425e-06
5.86784e-07
9.86804e-08
3.85423e-07
6.23286e-06
5.83846e-06
4.9502e-06
3.69632e-06
2.63175e-06
1.80267e-06
1.16505e-06
6.50224e-07
2.16495e-07
2.3261e-07
4.23359e-09
2.24531e-09
2.32746e-09
1.8209e-09
1.77982e-09
2.14948e-09
1.77982e-09
1.86197e-09
1.64291e-09
1.27074e-09
0.00071397
0.000178247
8.17648e-06
2.39337e-05
2.35896e-05
1.71008e-05
1.0712e-05
5.32808e-06
7.24143e-07
3.6358e-06
1.69864e-09
1.12017e-09
7.05706e-10
1.22098e-09
8.06521e-10
6.72101e-10
8.40126e-10
5.60084e-10
5.82487e-10
7.60823e-10
9.12229e-05
0.000129191
8.54016e-05
5.05384e-05
2.88904e-05
1.62685e-05
8.70738e-06
3.4952e-06
8.32947e-07
5.54723e-06
0.00506306
0.00067747
0.000506493
0.000382319
0.000287396
0.000212997
0.000153478
0.000105021
6.42526e-05
3.12282e-05
1.07211e-05
2.30889e-05
1.61241e-05
1.07764e-05
7.15802e-06
4.77187e-06
3.14962e-06
1.91364e-06
6.9422e-07
9.9435e-07
9.73554e-05
8.37341e-05
1.98222e-05
5.62659e-06
3.44974e-07
1.1805e-06
1.4804e-06
1.60823e-06
2.13775e-06
3.39259e-06
1.69554e-08
1.72395e-08
8.78203e-09
3.50327e-09
2.46279e-09
7.312e-09
1.19703e-08
1.71154e-08
2.08478e-08
2.4752e-08
1.70815e-06
1.78901e-06
9.40327e-07
5.51959e-07
3.32386e-07
2.01572e-07
1.18754e-07
5.97287e-08
1.12257e-08
4.3872e-08
7.93063e-07
4.53282e-07
3.69962e-07
2.7231e-07
1.90794e-07
1.28924e-07
8.163e-08
4.56618e-08
1.71822e-08
1.45476e-08
1.37151e-09
4.58193e-10
1.06912e-09
8.01838e-10
5.21831e-10
8.78203e-10
2.03641e-10
7.25472e-10
3.94555e-10
4.2001e-10
5.29847e-05
2.82597e-05
2.45703e-06
2.7065e-06
2.99175e-06
2.22894e-06
1.40879e-06
7.08275e-07
1.09886e-07
4.74253e-07
1.58212e-09
8.43492e-10
2.29097e-10
1.66616e-10
2.29097e-10
3.33231e-10
4.4778e-10
4.89434e-10
4.16539e-11
2.91577e-10
0.000264502
0.000160035
9.49106e-05
5.4206e-05
3.05105e-05
1.69572e-05
8.91182e-06
3.5816e-06
7.72561e-07
5.35935e-06
0.525994
0.418957
0.530142
0.919606
0.686118
0.62386
0.739195
1.11566
0.849573
0.791484
0.937836
1.44122
0.616646
0.593189
0.702756
1.09975
0.450506
0.449069
0.533227
0.863293
0.298421
0.294932
0.365831
0.622523
0.198645
0.189622
0.253277
0.455023
0.128215
0.118239
0.169417
0.315561
0.0885415
0.0808842
0.122111
0.230994
0.066702
0.0615695
0.0993631
0.188067
0.0358255
0.00179204
2.01546e-05
0.0190132
0.0785091
0.00651807
1.50645e-05
0.0409436
0.136613
0.0152002
8.16212e-06
0.0704172
0.124982
0.0170198
4.21149e-06
0.0603776
0.110289
0.0169899
2.1756e-06
0.0489182
0.0853381
0.0142369
1.12104e-06
0.0375748
0.0644198
0.0110628
5.90051e-07
0.0305251
0.0464427
0.00833762
3.41469e-07
0.0231958
0.0357277
0.00714278
0.00104052
0.0184328
0.0301039
0.00824524
0.00382127
0.0155024
0.0171015
0.0134486
0.0141265
0.0196796
0.0387124
0.0266628
0.0261742
0.0408089
0.0749422
0.0486864
0.0492554
0.0796676
0.0710517
0.0430724
0.0446855
0.0749949
0.0650971
0.0370618
0.0395673
0.0699578
0.051989
0.0280398
0.030679
0.0566924
0.0404153
0.0206556
0.0232337
0.0452043
0.0299356
0.0145396
0.0166902
0.0336775
0.0234839
0.0104555
0.0123945
0.0259883
0.0200772
0.00850582
0.0105704
0.0215293
0.00191718
0.00138732
0.00133607
0.00194801
0.00609204
0.00417298
0.003862
0.00631391
0.0162339
0.0110078
0.0104764
0.0165936
0.0190435
0.0125544
0.012394
0.0189691
0.020715
0.0131691
0.0136026
0.0207296
0.0189499
0.0116303
0.0124464
0.0190389
0.0164228
0.00967241
0.0106897
0.0167379
0.0133869
0.00760434
0.00860547
0.0136695
0.0111897
0.00583653
0.00691477
0.0112366
0.00994142
0.00508218
0.00648206
0.0100763
0.000604959
0.00056837
0.000598252
0.000815978
0.00226541
0.00210303
0.00236437
0.00340683
0.00609148
0.00574176
0.0064027
0.00889185
0.00729258
0.00654771
0.0070581
0.00959958
0.00837953
0.0071342
0.00763215
0.0103483
0.00813598
0.00655918
0.00704056
0.00951454
0.00745579
0.00568273
0.0061792
0.00841279
0.00648722
0.00469322
0.00517452
0.00705008
0.00583561
0.00387422
0.00445918
0.00604659
0.00558764
0.00369096
0.00456203
0.00582705
0.000107116
0.000102965
0.000102945
0.000162249
0.00076479
0.000721152
0.000845197
0.0012339
0.00245367
0.00248817
0.0029858
0.00410847
0.00301903
0.00305278
0.0035426
0.00471725
0.00358386
0.00355003
0.0040378
0.00531273
0.00361439
0.00344903
0.00386842
0.00503565
0.00342483
0.00313037
0.0034928
0.00451908
0.00315389
0.00273758
0.00304634
0.00389837
0.00305477
0.00244049
0.00279371
0.00347084
0.00302889
0.00238203
0.00289312
0.00336896
5.55841e-06
8.15475e-06
3.65419e-06
2.24086e-05
0.000269303
0.000250989
0.000300442
0.000459264
0.0011728
0.00119766
0.00148
0.00206797
0.00149156
0.00157088
0.00189595
0.00252736
0.00179901
0.00191338
0.00227563
0.00297662
0.00184288
0.00193172
0.0022604
0.00291522
0.00174888
0.00179576
0.00207864
0.00264666
0.00166989
0.00164277
0.00187404
0.00235169
0.00169605
0.00155576
0.00178901
0.00213908
0.00169436
0.00153266
0.00182989
0.00205694
1.70737e-05
6.14102e-06
5.91238e-06
6.10222e-06
7.37046e-05
6.26578e-05
7.49177e-05
0.00012877
0.000535724
0.000528851
0.00065951
0.000946891
0.000755018
0.000795371
0.000972153
0.00130421
0.000954677
0.00103521
0.00125496
0.00164665
0.00102082
0.00110784
0.00132605
0.00171297
0.000971402
0.00105443
0.00125082
0.00158572
0.000959581
0.0010107
0.00117671
0.00146883
0.000961932
0.00096621
0.0011139
0.00131141
0.000976204
0.000979433
0.00115435
0.00128501
1.3872e-05
4.84656e-06
4.65505e-06
4.83809e-06
1.06424e-05
5.62305e-06
5.47928e-06
1.956e-05
0.000232218
0.000209898
0.000261693
0.000400674
0.000376717
0.000390795
0.000479314
0.000649157
0.000503408
0.000548131
0.000670012
0.000883478
0.000577589
0.000635106
0.000767695
0.000995734
0.000554186
0.000618838
0.000742771
0.00093926
0.000574665
0.000627581
0.000738758
0.00092167
0.00054817
0.000584
0.000672952
0.000789323
0.000579551
0.000624165
0.000727999
0.000809948
1.06533e-05
3.50395e-06
3.39619e-06
3.50012e-06
3.37126e-06
1.30734e-06
1.26767e-06
1.40291e-06
8.72474e-05
6.03449e-05
7.34698e-05
0.000138115
0.000181376
0.000181831
0.000222505
0.000305703
0.00025612
0.00027665
0.000339706
0.00045174
0.000321481
0.00035387
0.000429873
0.000561561
0.000307227
0.000349139
0.000421541
0.000531428
0.000343657
0.000382296
0.0004527
0.000566708
0.000313658
0.000346286
0.000398811
0.000468337
0.00035006
0.00039372
0.000455725
0.000507945
9.71221e-06
3.23876e-06
3.10671e-06
3.20516e-06
2.74636e-06
9.60275e-07
9.34332e-07
1.04221e-06
2.18922e-05
4.14513e-07
3.97926e-07
2.16078e-05
8.30813e-05
7.84673e-05
9.50539e-05
0.000133255
0.00012511
0.000132373
0.000163042
0.000220045
0.000176857
0.000192974
0.000235208
0.000310955
0.000163244
0.000187854
0.000227764
0.00028568
0.000204636
0.00022887
0.000272231
0.000343535
0.000177296
0.000199565
0.000229807
0.000270391
0.000212108
0.000244348
0.000281773
0.000314367
2.61438e-06
8.15348e-07
9.12809e-07
1.13162e-06
2.03584e-06
6.9858e-07
6.76029e-07
7.61202e-07
8.06595e-07
3.00093e-07
2.89889e-07
3.26002e-07
3.46649e-05
2.94277e-05
3.46484e-05
4.97276e-05
5.73207e-05
5.83284e-05
7.1976e-05
9.9656e-05
9.61828e-05
0.000103124
0.000125989
0.000169578
8.11849e-05
9.47304e-05
0.000115277
0.000142938
0.000121876
0.000135532
0.000161909
0.000207168
9.56272e-05
0.000108668
0.000125102
0.000147204
0.000127275
0.000148354
0.000171186
0.00019069
1.42829e-05
3.66558e-06
3.14063e-06
2.83062e-06
1.60998e-06
5.5811e-07
5.57581e-07
6.45578e-07
6.11128e-07
2.17471e-07
2.10951e-07