/*--------------------------------*- C++ -*----------------------------------*\
| =========                 |                                                 |
| \\      /  F ield         | foam-extend: Open Source CFD                    |
|  \\    /   O peration     | Version:     4.0                                |
|   \\  /    A nd           | Web:         http://www.foam-extend.org         |
|    \\/     M anipulation  |                                                 |
\*---------------------------------------------------------------------------*/
FoamFile
{
    version     2.0;
    format      ascii;
    class       volScalarField;
    location    "1850";
    object      epsilon;
}
// * * * * * * * * * * * * * * * * * * * * * * * * * * * * * * * * * * * * * //

dimensions      [0 2 -3 0 0 0 0];

internalField   nonuniform List<scalar> 
34480
(
4930.56
4928.52
4928.41
4929.92
4933.14
4938.31
4950.93
5004.57
5194.41
5725.69
655.482
602.184
601.264
653.238
838.785
1576.11
5099.56
22849.7
103708
382382
618.739
523.102
509.458
569.104
809.916
1829.11
7041.77
35119.5
172536
699241
524.749
439.356
427.32
485.027
733.75
1883.37
8219.49
44413.4
232222
1.01098e+06
456.594
384.723
377.286
433.051
684.742
1927.48
9178.08
52592.5
289189
1.33362e+06
392.433
332.757
326.521
378.387
628.278
1956.18
10121.4
61046.5
350638
1.69869e+06
353.202
302.709
298.308
346.323
591.382
1962.65
10725.6
67199.7
400350
2.02271e+06
321.31
282.049
277.644
317.43
534.11
1820.38
10350.1
66982.3
412639
2.16753e+06
460.004
435.92
433.308
458.711
597.019
1410.01
6840.58
43693.7
275971
1.49841e+06
5709.11
5709.33
5714.78
5726.74
5743.56
5763.63
5787.83
5823.77
5890.16
5958.79
4856
4853.47
4852.98
4854.47
4858.49
4865.51
4876.64
4902.76
4965.4
5185.92
512.102
479.231
473.593
487.712
532.114
648.554
1002.88
2354.54
11801.2
103648
447.009
383.946
370.247
389.655
458.451
645.731
1229.66
3567.08
21358
197642
399.591
338.657
325.197
344.906
416.373
620.115
1294.4
4289.47
30234.9
294758
365.814
311.084
300.543
319.752
390.696
598.82
1321.7
4812.07
38717.9
396508
326.295
278.913
269.102
286.384
352.153
554.031
1293.94
5180.22
47350.1
508575
302.493
260.795
252.613
267.87
328.848
521.336
1255.96
5360.77
54217.7
607820
283.069
249.918
242.238
253.851
301.491
456.539
1074.46
4827.65
54992.9
652019
432.808
410.917
405.812
413.272
443.382
531.592
848.007
2980.45
36399.5
467535
5591.63
5587.31
5587.82
5594.46
5606.14
5620.72
5640.08
5673.08
5740.74
5913.62
4770.88
4768.47
4767.72
4768.54
4771.16
4775.31
4780.14
4790.93
4815
4870.05
399.912
386.466
383.802
388.558
403.688
439.049
527.099
758.608
1516.87
5758.77
308.12
276.89
270.053
279.231
309.642
379.262
550.383
1030.14
2859.51
14988.4
290.24
256.417
248.74
259.317
294.474
378.391
597.179
1279.76
4409.25
28919.7
280.829
247.868
241.416
252.371
289.477
380.256
628.957
1481.27
6140.62
47810.9
261.305
231.049
224.554
234.95
270.64
361.594
625.136
1625.53
8151.19
73156.2
250.512
222.487
216.892
226.378
260.459
349.102
617.071
1724.4
10165.9
101604
243.041
220.07
214.654
222.275
249.603
322.113
549.837
1594.32
11043.8
122903
402.685
386.342
382.59
388.235
408.659
461.547
607.039
1235.45
7681.28
92101.5
5481.96
5474.86
5472.56
5476.14
5484.93
5496.93
5513.43
5544.2
5616.67
5802.07
4674.87
4673.36
4672.93
4673.57
4675.37
4677.67
4678.67
4681.48
4688.88
4704.99
328.475
324.354
323.533
324.626
328.703
339.052
365.064
421.61
541.224
940.438
219.302
206.046
203.192
207.234
220.627
248.919
309.06
445.229
772.129
2085.83
214.42
197.697
193.761
199.283
217.239
256.729
345.518
565.52
1169.55
4141.6
217.548
199.506
195.916
202.115
222.716
269.259
379.491
675.949
1611.25
7155.42
210.688
192.738
188.697
195.086
216.31
266.383
392.045
761.634
2117.79
11600.4
208.482
190.696
187.048
193.197
214.588
266.108
401.008
827.346
2633.69
17125.2
209.958
194.678
190.954
196.244
214.308
258.85
379.732
795.147
2861.06
21852.8
375.656
363.671
360.836
365.026
379.982
416.94
508.687
782.636
2181.24
16547.2
5359.97
5352.88
5350.32
5353.38
5361.65
5374.03
5391.16
5422.02
5488.82
5632.04
4569.48
4568.79
4568.64
4569.04
4570.01
4570.73
4569.42
4568.29
4568.23
4569.99
285.517
284.777
284.678
284.444
284.436
286.169
293.407
307.385
329.726
375.979
167.898
162.877
161.833
163.251
168.285
178.507
198.293
237.434
308.12
484.234
166.457
158.73
156.766
159.264
167.519
184.755
219.557
294.21
443.147
889.749
173.898
164.586
162.651
165.741
176.189
198.528
246.013
356.463
601.449
1498
173.597
163.402
160.908
164.453
176.186
202.412
261.433
410.906
783.931
2435.07
176.072
165.168
162.794
166.418
179.048
207.848
275.322
457.55
966.587
3641
183.334
173.453
170.882
174.26
185.583
212.147
276.645
463.567
1058.75
4747.08
351.331
342.729
340.546
343.433
353.971
379.211
438.132
581.502
1009.52
3814.8
5230.3
5223.36
5220.64
5223.22
5230.84
5242.93
5259.58
5287.96
5343.64
5446
4455.67
4455.6
4455.68
4455.9
4456.28
4455.95
4453.93
4451.84
4450.06
4448.99
259.802
259.885
259.967
259.446
258.45
258.049
259.947
263.305
268.041
275.317
139.44
137.791
137.52
137.904
139.52
142.764
148.67
159.188
175.188
203.051
137.53
134.146
133.22
134.266
137.818
144.888
157.83
182.368
222.517
303.004
145.034
140.499
139.547
140.974
145.944
155.998
175.312
215.178
286.359
458.045
147.348
141.826
140.371
142.235
148.393
161.423
187.852
247.283
364.083
701.838
151.767
145.364
143.915
145.94
153.066
168.429
200.789
278.301
444.206
1014.15
162.257
156.154
154.477
156.555
163.381
178.64
212.115
297.454
500.488
1320.71
329.456
323.56
321.954
323.905
331.241
348.512
387.017
467.581
639.994
1290.72
5092.34
5085.8
5083.11
5085.31
5092.22
5103.51
5118.99
5143.91
5186.97
5254.23
4334.16
4334.52
4334.74
4334.84
4334.83
4333.87
4332
4330
4328.18
4326.84
243.799
243.753
243.778
243.302
242.371
241.926
242.29
243.023
244.128
245.933
123.982
123.567
123.572
123.61
123.997
124.846
126.392
128.977
132.501
137.198
120.662
119.224
118.799
119.213
120.687
123.51
128.265
136.265
147.562
163.749
126.658
124.553
124.129
124.741
126.995
131.336
138.956
152.943
174.392
210.562
129.499
126.618
125.806
126.74
129.847
136.105
147.653
170.704
209.303
285.824
134.262
130.632
129.793
130.864
134.737
142.674
157.827
190.041
247.864
381.582
146.16
142.557
141.513
142.739
146.7
155.209
172.34
210.93
286.988
489.959
310.127
306.278
305.121
306.413
311.49
323.473
349.112
396.306
479.993
667.59
4945.87
4939.94
4937.39
4939.26
4945.38
4955.42
4969.17
4990.17
5022.62
5066.47
4205.47
4206.08
4206.4
4206.42
4206.18
4205.1
4203.61
4202.02
4200.59
4199.51
232.91
232.485
232.381
232.028
231.434
231.25
231.269
231.42
231.809
232.8
115.599
115.575
115.653
115.602
115.61
115.724
115.998
116.504
117.194
117.985
111.05
110.444
110.25
110.409
111.015
112.149
113.941
116.658
120.079
123.799
115.287
114.357
114.193
114.437
115.424
117.251
120.246
125.187
131.936
140.369
117.749
116.3
115.864
116.315
117.839
120.791
125.847
134.852
148.252
167.567
122.078
120.083
119.623
120.162
122.213
126.242
133.349
146.774
167.952
202.436
134.222
132.203
131.586
132.285
134.508
139.15
147.939
165.5
195.887
252.21
293.15
290.789
289.96
290.816
294.365
302.933
320.33
348.98
394.117
462.648
4790.73
4785.55
4783.27
4784.83
4790.08
4798.6
4810.29
4827.28
4851.15
4880.07
4069.92
4070.67
4071.04
4071.03
4070.66
4069.78
4068.68
4067.52
4066.5
4065.71
224.504
223.703
223.468
223.231
222.983
222.931
222.912
222.976
223.263
224.155
111.004
111.066
111.141
111.085
111.01
110.937
110.886
110.889
110.954
111.06
105.702
105.438
105.346
105.407
105.663
106.134
106.845
107.835
108.979
109.98
108.442
108.052
108.004
108.093
108.513
109.269
110.452
112.242
114.487
116.71
110.259
109.556
109.331
109.543
110.274
111.648
113.887
117.509
122.468
128.101
113.874
112.804
112.566
112.826
113.893
115.923
119.306
125.064
133.308
143.394
125.597
124.536
124.191
124.579
125.79
128.282
132.82
140.975
153.827
171.865
278.179
276.856
276.25
276.833
279.386
285.745
297.736
315.687
341.516
371.325
4626.89
4622.56
4620.62
4621.9
4626.23
4633.14
4642.66
4655.87
4672.96
4691.94
3927.93
3928.59
3928.98
3928.95
3928.59
3927.97
3927.21
3926.41
3925.71
3925.14
216.927
216.032
215.686
215.537
215.482
215.461
215.462
215.54
215.837
216.729
108.391
108.453
108.504
108.462
108.391
108.297
108.199
108.116
108.073
108.078
102.809
102.683
102.635
102.661
102.776
102.986
103.291
103.689
104.118
104.435
104.446
104.29
104.285
104.314
104.491
104.804
105.279
105.948
106.731
107.392
105.646
105.319
105.207
105.304
105.648
106.281
107.279
108.778
110.716
112.639
108.533
107.968
107.851
107.974
108.526
109.553
111.194
113.759
117.166
120.575
119.49
118.982
118.803
119.016
119.658
120.983
123.324
127.18
132.83
139.53
264.77
264.144
263.677
264.099
266.022
270.888
279.24
290.767
306.131
320.301
4454.5
4451.05
4449.47
4450.48
4453.92
4459.26
4466.72
4476.61
4488.5
4500.75
3779.61
3780.12
3780.45
3780.42
3780.19
3779.78
3779.27
3778.74
3778.27
3777.85
209.482
208.6
208.259
208.151
208.117
208.112
208.134
208.229
208.541
209.43
106.792
106.834
106.867
106.838
106.785
106.713
106.634
106.565
106.529
106.536
101.295
101.226
101.198
101.21
101.267
101.37
101.515
101.695
101.882
102
102.195
102.131
102.137
102.145
102.223
102.36
102.562
102.829
103.118
103.34
102.915
102.769
102.714
102.759
102.919
103.208
103.653
104.285
105.069
105.816
105.176
104.876
104.821
104.88
105.171
105.701
106.519
107.712
109.193
110.5
115.213
115.007
114.924
115.041
115.375
116.076
117.267
119.1
121.606
124.396
252.44
252.265
251.875
252.208
253.746
257.497
263.336
270.852
280.26
287.084
4273.83
4271.22
4270
4270.78
4273.37
4277.35
4282.95
4290.08
4298.12
4305.88
3625.08
3625.5
3625.76
3625.75
3625.6
3625.33
3625
3624.66
3624.36
3624.03
201.822
200.967
200.656
200.562
200.535
200.539
200.57
200.672
200.987
201.859
105.697
105.719
105.737
105.719
105.684
105.637
105.587
105.545
105.532
105.552
100.53
100.488
100.471
100.477
100.508
100.562
100.637
100.728
100.822
100.875
100.977
100.945
100.949
100.951
100.991
101.061
101.16
101.283
101.405
101.495
101.367
101.305
101.279
101.3
101.373
101.505
101.704
101.974
102.297
102.622
103.138
102.973
102.948
102.979
103.14
103.427
103.853
104.44
105.12
105.683
112.202
112.148
112.118
112.184
112.358
112.724
113.312
114.171
115.248
116.507
240.725
240.827
240.471
240.759
242.069
244.879
248.938
253.864
259.749
262.806
4085.32
4083.45
4082.58
4083.14
4084.98
4087.86
4091.9
4096.85
4102.12
4106.93
3464.57
3464.92
3465.12
3465.12
3465.03
3464.86
3464.65
3464.43
3464.24
3463.97
193.768
192.948
192.666
192.582
192.56
192.566
192.598
192.696
193.004
193.849
104.847
104.855
104.862
104.851
104.83
104.803
104.775
104.754
104.759
104.789
100.159
100.132
100.123
100.126
100.143
100.171
100.211
100.259
100.312
100.338
100.349
100.327
100.325
100.327
100.352
100.396
100.456
100.527
100.592
100.641
100.534
100.508
100.496
100.506
100.54
100.601
100.69
100.807
100.942
101.1
101.942
101.842
101.83
101.851
101.947
102.114
102.351
102.663
103.002
103.282
110.017
110.034
110.031
110.071
110.165
110.346
110.619
111.003
111.42
112.03
229.202
229.469
229.117
229.383
230.519
232.489
235.272
238.483
242.21
243.251
3889.53
3888.27
3887.7
3888.08
3889.31
3891.35
3894.15
3897.44
3900.78
3903.7
3298.37
3298.66
3298.81
3298.82
3298.77
3298.67
3298.53
3298.39
3298.27
3298.03
185.212
184.431
184.177
184.104
184.083
184.087
184.116
184.205
184.499
185.311
104.113
104.112
104.113
104.106
104.095
104.081
104.069
104.062
104.078
104.114
99.9894
99.9741
99.9701
99.9716
99.9791
99.992
100.011
100.034
100.065
100.08
100.044
100.025
100.019
100.021
100.039
100.073
100.117
100.166
100.21
100.245
100.113
100.102
100.096
100.101
100.117
100.146
100.187
100.239
100.296
100.383
101.252
101.187
101.18
101.196
101.26
101.365
101.509
101.69
101.877
102.045
108.329
108.383
108.393
108.419
108.468
108.549
108.66
108.813
108.925
109.248
217.319
217.833
217.509
217.769
218.581
219.927
221.788
223.852
226.214
226.173
3687.21
3686.35
3686.01
3686.25
3687.08
3688.46
3690.32
3692.42
3694.44
3696.18
3126.87
3127.12
3127.23
3127.24
3127.22
3127.15
3127.07
3126.98
3126.9
3126.68
176.07
175.333
175.107
175.046
175.024
175.026
175.048
175.126
175.402
176.176
103.438
103.432
103.428
103.424
103.419
103.414
103.411
103.413
103.436
103.475
99.9214
99.9142
99.9137
99.9141
99.9159
99.9192
99.9249
99.9342
99.9508
99.9616
99.9108
99.8925
99.8846
99.8861
99.901
99.9274
99.962
100
100.033
100.062
99.9194
99.9128
99.9089
99.9114
99.9202
99.935
99.9549
99.9793
100.005
100.057
100.853
100.806
100.801
100.814
100.859
100.931
101.024
101.14
101.253
101.373
106.922
106.989
107.009
107.025
107.046
107.076
107.108
107.153
107.128
107.321
204.839
205.493
205.296
205.478
206.021
206.906
208.103
209.398
210.873
210.281
3479.12
3478.57
3478.35
3478.51
3479.06
3479.94
3481.11
3482.38
3483.53
3484.56
2950.61
2950.82
2950.9
2950.91
2950.9
2950.86
2950.81
2950.75
2950.69
2950.49
166.263
165.573
165.377
165.328
165.305
165.305
165.32
165.384
165.639
166.373
102.796
102.788
102.782
102.779
102.778
102.779
102.782
102.789
102.814
102.856
99.9047
99.9027
99.9042
99.9039
99.9025
99.9002
99.8985
99.8995
99.9075
99.9169
99.8644
99.8481
99.8397
99.8407
99.8522
99.8725
99.8991
99.9283
99.9546
99.9784
99.8451
99.8398
99.8367
99.8378
99.8429
99.8514
99.8622
99.8748
99.8869
99.9203
100.606
100.571
100.566
100.578
100.61
100.66
100.724
100.8
100.875
100.969
105.658
105.722
105.745
105.756
105.764
105.77
105.767
105.766
105.688
105.819
191.593
192.297
192.202
192.324
192.667
193.214
193.936
194.718
195.601
194.781
3266.15
3265.82
3265.69
3265.79
3266.12
3266.66
3267.35
3268.06
3268.67
3269.26
2770.31
2770.48
2770.54
2770.56
2770.55
2770.53
2770.5
2770.46
2770.41
2770.23
155.695
155.056
154.888
154.851
154.833
154.832
154.841
154.889
155.117
155.809
102.184
102.174
102.166
102.164
102.165
102.169
102.175
102.185
102.21
102.254
99.9139
99.9141
99.9161
99.9155
99.9127
99.9082
99.9033
99.9004
99.9034
99.9131
99.8608
99.8472
99.8398
99.8401
99.8482
99.8627
99.8818
99.9029
99.9228
99.9421
99.8325
99.8277
99.8251
99.8253
99.8283
99.8334
99.8396
99.8465
99.8526
99.874
100.43
100.403
100.398
100.406
100.429
100.463
100.506
100.556
100.606
100.682
104.458
104.511
104.533
104.54
104.543
104.54
104.524
104.507
104.417
104.517
177.435
178.119
178.103
178.182
178.378
178.679
179.059
179.5
179.974
179.132
3049.37
3049.18
3049.11
3049.17
3049.36
3049.65
3050.03
3050.4
3050.68
3051
2586.97
2587.11
2587.16
2587.17
2587.17
2587.15
2587.13
2587.1
2587.06
2586.9
144.232
143.654
143.514
143.49
143.485
143.482
143.484
143.517
143.707
144.353
101.608
101.595
101.588
101.586
101.588
101.593
101.6
101.611
101.633
101.676
99.9328
99.9327
99.9341
99.9333
99.9304
99.9261
99.9213
99.9178
99.9185
99.929
99.8782
99.8678
99.8622
99.8621
99.8671
99.8763
99.8886
99.9025
99.9165
99.9313
99.8522
99.8483
99.8462
99.846
99.8475
99.8501
99.8532
99.8564
99.8593
99.8718
100.273
100.253
100.249
100.254
100.268
100.289
100.315
100.345
100.377
100.436
103.292
103.328
103.345
103.351
103.35
103.343
103.325
103.304
103.225
103.305
162.209
162.816
162.864
162.911
162.999
163.119
163.249
163.454
163.628
162.904
2830.08
2829.99
2829.95
2829.98
2830.07
2830.22
2830.4
2830.56
2830.67
2830.83
2401.72
2401.84
2401.86
2401.87
2401.87
2401.86
2401.85
2401.83
2401.79
2401.67
131.646
131.154
131.062
131.052
131.051
131.047
131.042
131.056
131.188
131.769
101.087
101.071
101.064
101.062
101.063
101.068
101.075
101.085
101.102
101.142
99.9497
99.9478
99.9479
99.947
99.945
99.9422
99.9392
99.9371
99.9375
99.9478
99.9082
99.9013
99.8977
99.8974
99.9001
99.9052
99.9121
99.9201
99.9289
99.9391
99.8901
99.8877
99.8864
99.886
99.8863
99.8871
99.8879
99.8886
99.8894
99.8951
100.119
100.106
100.103
100.105
100.112
100.123
100.136
100.151
100.168
100.208
102.169
102.189
102.199
102.201
102.197
102.187
102.171
102.151
102.098
102.157
145.452
145.928
145.962
145.998
146.058
146.138
146.22
146.28
146.212
145.692
2609.7
2609.66
2609.65
2609.66
2609.69
2609.74
2609.79
2609.83
2609.87
2609.94
2215.02
2215.09
2215.1
2215.1
2215.1
2215.1
2215.09
2215.09
2215.09
2215.03
117.389
117.051
117.021
117.025
117.027
117.023
117.013
117.006
117.05
117.478
100.625
100.609
100.601
100.598
100.598
100.602
100.608
100.617
100.63
100.662
99.966
99.9637
99.9631
99.9624
99.9614
99.9603
99.9592
99.9587
99.9594
99.9663
99.9506
99.9469
99.945
99.9448
99.9461
99.9485
99.9517
99.9556
99.9601
99.9657
99.9406
99.9396
99.939
99.9386
99.9385
99.9384
99.9381
99.9376
99.9373
99.9387
100.009
100.004
100.002
100.003
100.006
100.01
100.014
100.019
100.026
100.045
101.125
101.127
101.129
101.128
101.122
101.113
101.1
101.088
101.069
101.111
125.762
126.044
126.062
126.083
126.115
126.158
126.2
126.224
126.174
125.833
2388.98
2388.96
2388.97
2388.97
2388.97
2388.97
2388.97
2388.97
2388.95
2388.99
7183.76
7294.07
7250.33
7043.9
658897
683839
689404
697297
1.49737e+06
1.58407e+06
1.59159e+06
1.5717e+06
2.52525e+06
2.70353e+06
2.70098e+06
2.61947e+06
3.76092e+06
4.05602e+06
4.02967e+06
3.86807e+06
5.30791e+06
5.75118e+06
5.69964e+06
5.48675e+06
6.86821e+06
7.46708e+06
7.40327e+06
7.20649e+06
7.88231e+06
8.6101e+06
8.55541e+06
8.42727e+06
5.61913e+06
6.17846e+06
6.11443e+06
6.08054e+06
7903.37
8151.1
7988.77
7569.64
5749.21
5801.99
5804.52
5765.4
308541
324652
345326
377313
689302
780829
824889
861777
1.17794e+06
1.40283e+06
1.46603e+06
1.49196e+06
1.76352e+06
2.1775e+06
2.2514e+06
2.26485e+06
2.45876e+06
3.11229e+06
3.21154e+06
3.24741e+06
3.13162e+06
4.04002e+06
4.20081e+06
4.31958e+06
3.57307e+06
4.70362e+06
4.94491e+06
5.17971e+06
2.80654e+06
3.81814e+06
4.00677e+06
4.31983e+06
7126.22
7357.79
7286.86
7066.51
4937.84
4948.79
4947.94
4938.22
21659.8
25957.9
24594.6
19964.9
61566.7
73404.6
68673.5
55727
128744
152832
140880
114025
228356
270527
246260
199427
372375
441922
401373
326391
545321
648521
591592
485380
702784
839359
769539
636801
584434
696823
629321
524614
6344.28
6431.58
6409.27
6313.94
4715.96
4718.09
4718.64
4717.83
1594.3
1711.21
1679.76
1544.91
4697.98
5172.13
5012.25
4434.27
11230.2
12504.5
11925.7
10213
22554.4
25253.3
23698.8
19745
41691.8
46923.1
43527.7
35535.9
68296.3
76986
70796.5
57127.7
97161.5
109913
100443
80426.4
83359.5
93764.8
84198.3
67263.6
5903.97
5945.67
5942.78
5904.87
4567.97
4568.88
4569.09
4568.55
423.302
436.225
438.473
431.557
710.11
757.042
761.547
731.351
1595
1736.79
1729.26
1610.22
3203.59
3529.29
3458.48
3118.55
6140.19
6823.48
6583.17
5758.17
10498.5
11694.1
11109.4
9472.64
15692.6
17556.1
16464.1
13724.6
13861
15397.7
14114.2
11586.4
5578.68
5600.71
5602.2
5586.59
4444.93
4445.68
4445.76
4445.13
275.598
278.469
279.18
277.919
226.365
231.465
233.291
232.248
385.586
403.078
407.313
400.539
674.051
717.865
722.114
696.112
1215.18
1316.51
1312.67
1233.52
2023.7
2211.51
2175.82
1991.43
3047.08
3360.62
3262.06
2904.61
2929.17
3183.47
3023.57
2664.25
5318.14
5328.92
5331.06
5325.5
4322.59
4323.31
4323.37
4322.74
241.783
243.688
244.087
243.029
140.138
140.892
141.244
141.229
175.867
178.567
179.694
179.438
243.2
250.228
252.464
250.761
368.973
386.599
390.328
383.185
549.231
582.696
585.339
565.818
795.548
855.013
852.169
807.159
984.741
1029.78
1010.31
962.542
5095.75
5100.64
5102.49
5101.24
4195.48
4196.18
4196.23
4195.63
228.1
229.817
230.156
229.146
118.191
118.328
118.383
118.359
125.853
126.302
126.527
126.553
146.029
147.258
147.802
147.78
183.405
186.916
188.183
187.622
233.787
240.341
242.097
240.311
314.619
327.191
329.132
323.578
543.049
548.71
546.194
542.505
4893.64
4895.65
4896.94
4897.13
4061.94
4062.59
4062.65
4062.09
219.494
221.149
221.477
220.502
110.889
110.945
110.954
110.915
110.346
110.419
110.457
110.465
117.764
117.975
118.085
118.117
131.71
132.521
132.874
132.842
149.877
151.233
151.774
151.735
187.362
190.302
191.148
190.49
400.189
397.212
396.466
399.125
4698.43
4699.12
4699.9
4700.38
3921.64
3922.25
3922.3
3921.78
212.199
213.797
214.118
213.18
107.868
107.917
107.921
107.881
104.484
104.491
104.493
104.493
107.574
107.595
107.609
107.621
113.656
113.876
113.977
113.969
121.961
122.211
122.35
122.428
144.582
145.284
145.547
145.486
335.328
330.246
329.465
332.881
4503.79
4503.89
4504.32
4504.77
3774.62
3775.17
3775.22
3774.75
205.058
206.598
206.91
206.009
106.338
106.386
106.391
106.353
101.988
101.986
101.984
101.982
103.357
103.349
103.346
103.349
106.198
106.277
106.309
106.296
110.766
110.778
110.804
110.857
126.73
126.86
126.913
126.908
297.585
292.075
291.169
294.484
4307.09
4306.95
4307.18
4307.52
3621.07
3621.57
3621.6
3621.18
197.66
199.138
199.439
198.577
105.37
105.417
105.423
105.387
100.853
100.85
100.849
100.848
101.488
101.48
101.476
101.475
102.817
102.856
102.869
102.856
105.715
105.685
105.683
105.713
117.999
117.976
117.958
117.947
271.42
265.966
265.012
268.127
4107.1
4106.92
4107.03
4107.26
3461.28
3461.72
3461.74
3461.37
189.836
191.249
191.539
190.718
104.624
104.668
104.674
104.641
100.318
100.317
100.316
100.315
100.637
100.632
100.628
100.627
101.224
101.249
101.256
101.244
103.288
103.261
103.253
103.269
113.193
113.133
113.093
113.072
250.811
245.563
244.617
247.54
3903.25
3903.12
3903.17
3903.28
3295.64
3296
3296.02
3295.7
181.497
182.843
183.122
182.343
103.966
104.007
104.013
103.982
100.064
100.064
100.064
100.063
100.245
100.242
100.24
100.239
100.47
100.487
100.492
100.482
102.071
102.054
102.048
102.055
110.242
110.181
110.135
110.104
232.977
227.988
227.077
229.822
3695.33
3695.3
3695.32
3695.33
3124.6
3124.89
3124.9
3124.62
172.575
173.854
174.121
173.386
103.349
103.387
103.392
103.364
99.9512
99.9522
99.9522
99.9513
100.064
100.064
100.062
100.061
100.119
100.132
100.135
100.127
101.425
101.419
101.415
101.414
108.202
108.152
108.108
108.068
216.454
211.752
210.895
213.467
3483.45
3483.53
3483.54
3483.46
2948.74
2948.97
2948.96
2948.73
163.002
164.212
164.469
163.781
102.757
102.792
102.797
102.772
99.9133
99.9153
99.9156
99.9141
99.9824
99.9824
99.9816
99.9804
99.9647
99.9738
99.975
99.9685
101.04
101.043
101.041
101.035
106.606
106.575
106.535
106.485
200.388
196.006
195.217
197.608
3267.99
3268.18
3268.19
3268.03
2768.84
2768.99
2768.96
2768.78
152.692
153.838
154.087
153.446
102.19
102.224
102.229
102.204
99.9166
99.9198
99.9201
99.9178
99.9473
99.9478
99.9475
99.9466
99.9036
99.9096
99.91
99.905
100.761
100.77
100.77
100.76
105.209
105.2
105.167
105.107
184.22
180.212
179.509
181.695
3049.65
3049.92
3049.93
3049.72
2585.92
2585.99
2585.94
2585.81
141.543
142.634
142.879
142.282
101.648
101.68
101.685
101.661
99.9385
99.9426
99.943
99.94
99.9371
99.9381
99.9382
99.9377
99.8891
99.8925
99.8924
99.8892
100.511
100.523
100.524
100.513
103.877
103.892
103.868
103.801
167.521
164.007
163.413
165.333
2829.46
2829.79
2829.8
2829.58
2401.15
2401.13
2401.07
2401.01
129.373
130.425
130.665
130.103
101.141
101.169
101.172
101.15
99.9596
99.9639
99.9643
99.9611
99.9445
99.9457
99.9461
99.9459
99.9027
99.904
99.9038
99.9024
100.267
100.279
100.281
100.272
102.555
102.581
102.567
102.507
149.613
146.668
146.226
147.863
2608.73
2609.1
2609.12
2608.88
2215.01
2214.86
2214.8
2214.85
115.751
116.732
116.938
116.406
100.666
100.683
100.684
100.67
99.9736
99.9763
99.9765
99.9745
99.9695
99.9704
99.9709
99.971
99.9404
99.9405
99.9404
99.9402
100.077
100.083
100.084
100.08
101.288
101.296
101.289
101.264
128.329
126.308
126.072
127.229
2388.2
2388.59
2388.6
2388.34
6105.72
5442.79
5173.05
5076.92
5022.11
4983.59
4957.99
4943.61
4935.63
4930.88
798409
193279
33403.4
11732.2
5300.63
2836.25
1749.28
1212.48
928.297
765.142
1.42406e+06
247031
44251.9
15128.4
6775.81
3636.96
2200.18
1460.19
1048.07
802.89
1.99542e+06
239504
46764.7
15016.7
6482.4
3390.63
2000.18
1297.24
912.738
688.454
2.45847e+06
252588
48930.4
14559.4
6097.43
3101.71
1791.71
1144.22
795.342
596.595
2.9301e+06
276367
51137.8
13973
5637.77
2768.14
1561.27
981.024
677.27
508.193
3.31215e+06
294931
51995.9
13160.7
5157.96
2467.48
1375.56
861.401
595.535
450.329
3.39595e+06
287339
47695.1
11000.7
4163.64
1946.44
1092.87
700.212
502.872
394.742
2.34114e+06
182119
27367.8
5710.47
2274.9
1237.75
857.919
671.541
568.131
506.534
6016.25
5992.99
5847.23
5822.81
5779.4
5755.1
5735.82
5725.56
5718.64
5712.68
5443.2
5175.11
5045.19
4972.62
4927.07
4897.06
4877.61
4866.06
4859.84
4855.9
180235
44893.3
13612.7
5322.41
2635.31
1567.11
1065.06
802.454
656.245
572.313
375660
86403.8
23465.4
8290.05
3888.63
2187.48
1383.65
956.034
710.665
565.665
594997
126235
30699
9650.66
4227.54
2261.23
1372.36
915.681
661.471
515.407
830430
164998
36424.4
10416.6
4317.09
2219.63
1310.15
857.483
610.297
471.929
1.1097e+06
207192
41750.1
10863.2
4246.73
2091.18
1198.58
768.78
542.005
418.417
1.38875e+06
244425
45351.9
10849.9
4055.45
1939.05
1095.57
699.501
493.168
382.897
1.56406e+06
258647
43994.2
9552.55
3395.53
1585.17
900.639
587.73
429.891
345.777
1.18205e+06
178701
26849.9
5249.36
1966.66
1091.32
771.594
615.152
526.555
476.252
6252.81
5952.91
5792.8
5733.96
5683.08
5652.31
5630.02
5616.41
5606.83
5598.52
4903.93
4869.1
4841.64
4818.84
4801.02
4788.1
4779.49
4774.33
4771.47
4769.42
9199.09
4175.44
2298.62
1432.65
985.337
735.827
591.199
504.956
452.253
420.455
23995.9
9563.59
4649.64
2546.54
1541.86
1010.1
712.573
538.265
431.054
364.715
45433.8
15960.3
6937.39
3410.77
1898.09
1158.87
771.412
555.602
428.466
352.691
73587.1
22900.6
9011.15
4055.77
2119.5
1232.2
791.692
556.577
421.481
343.234
112040
31039.7
11040.3
4548.18
2235.12
1236.91
767.102
526.224
393.469
318.948
156032
38866.9
12577.1
4794.94
2251.66
1205.92
734.706
500.538
373.432
303.502
191482
42868.3
12521
4385.5
1974.85
1036.67
636.221
443.022
341.737
286.154
141649
27753.5
7304.08
2547.27
1307.78
842.899
642.671
536.532
472.963
436.263
6018.3
5835.84
5711.23
5637.38
5584.28
5551.15
5528.13
5512.46
5500.87
5490.89
4712.93
4704.57
4695.39
4687.15
4680.9
4676.65
4674
4672.64
4672.31
4671.92
1208
906.422
708.819
570.445
479.244
420.765
383.189
358.481
341.802
331.535
3028.46
1919.27
1270.24
860.665
612.323
460.901
367.14
307.581
268.144
242.286
6220.37
3480.86
2057.33
1252.06
812.802
564.64
420.2
333.099
278.305
243.958
10746.1
5350.89
2878.17
1610.46
978.772
644.222
460.216
354.564
289.886
250.429
17345.3
7666.6
3761.52
1939.08
1105.19
689.121
472.613
353.745
284.412
243.596
25220.6
9947.77
4497.02
2165.95
1178.87
709.665
476.372
352.839
281.912
240.921
32101.7
11242.4
4659.51
2095.23
1100.68
652.753
441.583
332.978
272.776
238.082
23543
7367.28
2961.86
1443.4
906.114
663.557
542.591
472.637
427.879
401.423
5789.03
5660.52
5561.78
5497.88
5453.79
5424.91
5404.2
5389.34
5378.13
5368.64
4567.53
4566.3
4565.06
4564.09
4563.52
4563.27
4563.29
4563.67
4564.58
4565.42
412.728
382.958
356.664
334.883
318.456
306.413
297.566
290.937
285.861
282.616
637.725
512.504
411.696
334.494
279.743
241.944
216.062
198.162
185.227
176.173
1287.19
926.015
666.233
486.272
369.825
294.946
246.618
214.922
193.452
179.254
2276
1481.69
973.39
652.877
462.843
348.817
279.616
236.686
208.332
189.962
3814.18
2241.04
1346.97
830.669
548.849
390.241
299.418
245.68
212.104
191.224
5703.58
3044.52
1696.45
978.377
614.794
420.808
314.939
254.762
217.664
194.925
7460.47
3600.11
1861.38
1012.41
616.779
417.063
313.377
255.91
221.772
201.005
5662.42
2637.23
1436.24
904.153
665.875
539.36
466.833
421.181
389.942
371.077
5535.65
5459.61
5394.34
5347.94
5314.03
5289.77
5271.51
5257.81
5247.23
5238.41
4444.75
4444.87
4445.16
4445.64
4446.23
4446.87
4447.53
4448.33
4449.54
4450.98
277.892
274.891
271.42
267.995
264.977
262.416
260.263
258.416
256.794
255.49
225.921
210.87
194.958
180.649
169.142
160.372
153.847
148.96
145.032
142.072
373.122
321.819
273.233
233.338
203.63
182.274
167.092
156.236
148.272
142.746
613.176
488.036
382.08
302.912
248.813
212.61
188.476
172.24
160.526
152.446
1013.13
737.789
529.324
386.616
296.647
240.214
204.673
181.841
166.417
156.297
1522.15
1022.79
681.379
465.972
339.928
265.193
220.349
192.76
174.272
162.228
2045.57
1267.15
790.304
514.341
364.946
280.918
232.631
203.517
184.872
172.948
1814.5
1182.47
824.95
628.738
519.797
452.672
409.101
379.492
357.91
344.633
5303.31
5261.67
5221.83
5189.94
5164.51
5144.78
5129.21
5117.05
5107.45
5099.56
4322.48
4322.75
4323.2
4323.81
4324.49
4325.18
4325.83
4326.59
4327.73
4329.19
244.18
244.018
243.672
243.202
242.687
242.152
241.603
241.019
240.377
239.62
140.67
138.602
136.041
133.465
131.202
129.348
127.882
126.699
125.583
124.652
176.553
168.269
158.71
149.714
142.175
136.158
131.44
127.75
124.822
122.724
241.574
220.12
197.6
178.256
163.322
152.229
144.1
138.157
133.431
129.967
355.629
303.687
254.596
215.808
188.002
168.568
155.047
145.568
138.63
133.877
503.868
404.392
318.153
255.368
213.457
185.77
167.402
155.112
146.106
139.893
681.169
513.473
382.585
294.866
240.152
205.645
183.585
169.086
159.105
152.465
826.717
675.248
559.151
481.198
428.719
391.932
365.424
346.17
331.306
322.004
5091.75
5069.88
5046.08
5024.49
5005.8
4990.26
4977.45
4967.11
4958.72
4951.95
4195.39
4195.6
4195.93
4196.39
4196.91
4197.41
4197.88
4198.44
4199.36
4200.63
230.446
230.674
230.778
230.79
230.731
230.606
230.412
230.126
229.723
229.087
118.339
118.071
117.707
117.306
116.937
116.634
116.404
116.207
115.926
115.637
126.157
124.612
122.562
120.39
118.365
116.58
115.049
113.749
112.65
111.856
146.601
142.552
137.54
132.675
128.477
125.036
122.284
120.12
118.216
116.738
183.564
172.788
160.756
149.921
141.155
134.337
129.113
125.141
122.021
119.83
231.581
210.525
188.346
169.891
155.904
145.593
138.046
132.585
128.221
125.055
302.881
264.014
227.274
198.875
178.541
164.159
153.996
146.775
141.49
137.886
515.511
472.615
430.22
396.135
369.317
348.438
332.05
319.449
309.213
302.725
4892.51
4880.75
4866.37
4851.92
4838.5
4826.7
4816.56
4808.11
4801.08
4795.49
4061.85
4061.99
4062.21
4062.51
4062.84
4063.16
4063.43
4063.78
4064.48
4065.54
221.794
222.06
222.209
222.278
222.284
222.227
222.096
221.867
221.501
220.868
110.95
110.94
110.928
110.914
110.91
110.929
110.97
111.005
110.952
110.855
110.387
110.046
109.543
108.953
108.349
107.772
107.238
106.754
106.326
106.021
117.934
117.08
115.874
114.567
113.325
112.22
111.275
110.49
109.718
109.078
132.024
129.43
126.194
122.911
119.954
117.43
115.335
113.633
112.22
111.223
150.427
145.542
139.444
133.692
128.79
124.8
121.625
119.177
117.054
115.441
186.117