/*--------------------------------*- C++ -*----------------------------------*\
| =========                 |                                                 |
| \\      /  F ield         | foam-extend: Open Source CFD                    |
|  \\    /   O peration     | Version:     4.0                                |
|   \\  /    A nd           | Web:         http://www.foam-extend.org         |
|    \\/     M anipulation  |                                                 |
\*---------------------------------------------------------------------------*/
FoamFile
{
    version     2.0;
    format      ascii;
    class       volScalarField;
    location    "1850";
    object      k;
}
// * * * * * * * * * * * * * * * * * * * * * * * * * * * * * * * * * * * * * //

dimensions      [0 2 -2 0 0 0 0];

internalField   nonuniform List<scalar> 
34480
(
8.76708
8.76467
8.76454
8.76632
8.77013
8.77626
8.79121
8.8546
9.07713
9.68599
9.2797
8.66789
8.57512
8.85478
9.45393
10.3409
11.9395
15.8517
28.7375
67.024
15.0384
13.5692
13.1231
13.2715
13.842
14.875
17.2087
22.9046
41.6352
101.406
14.4896
12.9622
12.5121
12.7064
13.417
14.8316
18.0039
25.4054
49.2501
127.782
13.4265
12.0107
11.6597
11.9267
12.7782
14.4883
18.2579
26.9549
55.2709
151.577
12.2178
10.9443
10.6318
10.9136
11.8051
13.6985
17.9401
27.9012
61.0617
176.66
11.3249
10.2047
9.94998
10.2249
11.1198
13.0853
17.5873
28.4184
65.5193
198.018
9.8384
9.00206
8.79715
9.01279
9.7252
11.3953
15.4895
26.1234
64.5448
205.595
6.88191
6.61331
6.56462
6.6746
7.00399
7.72859
9.72915
16.2729
43.4115
149.666
9.23847
9.23871
9.24458
9.25747
9.27559
9.29719
9.3232
9.36176
9.43277
9.50591
8.67847
8.67546
8.67488
8.67665
8.68143
8.68979
8.70305
8.7341
8.80833
9.06725
7.92989
7.50991
7.41649
7.57419
8.02123
8.86373
10.3053
12.1077
15.4274
41.1741
12.2342
11.1717
10.8794
11.0827
11.7614
13.0227
15.2207
18.1218
23.7873
66.4123
12.138
10.9698
10.6509
10.8942
11.6994
13.25
16.0309
20.0134
28.39
86.1793
11.5973
10.4634
10.1965
10.4726
11.3653
13.1067
16.2955
21.0741
31.842
104.296
10.8038
9.75342
9.49793
9.77173
10.67
12.4966
15.9662
21.4545
34.8381
123.705
10.2134
9.26121
9.04393
9.29742
10.1707
11.9988
15.6057
21.5503
37.1098
140.958
9.05313
8.33114
8.14691
8.33837
9.01596
10.5134
13.6604
19.2835
35.705
147.369
6.64445
6.39705
6.34282
6.41695
6.68161
7.2666
8.61338
11.5612
22.4921
102.422
9.1113
9.1066
9.10716
9.11437
9.12704
9.14287
9.16384
9.19956
9.27256
9.4578
8.57675
8.57387
8.57296
8.57395
8.5771
8.58207
8.58785
8.60077
8.62955
8.69521
6.78263
6.57092
6.5168
6.5927
6.82413
7.27119
8.06577
9.35974
11.1353
16.4375
9.69073
9.07059
8.91718
9.08479
9.60453
10.5596
12.1748
14.5695
17.5469
29.1787
9.88809
9.15006
8.96462
9.17853
9.83797
11.0939
13.2865
16.6414
21.1136
40.7603
9.75856
9.00329
8.84039
9.07712
9.81561
11.2593
13.8626
17.9398
23.778
52.2521
9.32999
8.60247
8.43488
8.67275
9.42703
10.9728
13.8874
18.6178
26.0241
64.9023
9.01499
8.33048
8.18416
8.4067
9.14807
10.716
13.8007
18.955
27.748
76.928
8.19448
7.66605
7.53671
7.70702
8.28192
9.56422
12.2698
17.1612
26.6526
82.883
6.37324
6.18096
6.1411
6.20202
6.41292
6.87565
7.92452
10.368
16.6991
57.1107
8.99177
8.984
8.98148
8.9854
8.99502
9.00812
9.02614
9.0597
9.13848
9.33849
8.4613
8.45948
8.45896
8.45973
8.4619
8.46467
8.46588
8.46927
8.4782
8.49761
6.00863
5.91774
5.89059
5.92142
6.02165
6.21429
6.55104
7.13249
7.99603
9.88138
7.80831
7.49558
7.42262
7.51805
7.81957
8.3825
9.3337
10.8208
12.6575
17.0735
8.12416
7.70663
7.6028
7.74027
8.16643
8.98881
10.4226
12.7264
15.5982
23.5534
8.2467
7.78798
7.69103
7.84885
8.34708
9.33468
11.1216
14.0843
17.8847
30.1244
8.08316
7.61463
7.50493
7.67186
8.2014
9.30049
11.3866
14.9947
19.8645
37.6357
7.97512
7.5107
7.41115
7.57261
8.10948
9.25501
11.5215
15.5762
21.368
44.9607
7.4447
7.07432
6.98221
7.1106
7.53442
8.48034
10.4788
14.3811
20.6529
48.771
6.13133
5.98431
5.95439
6.00034
6.15772
6.49572
7.22438
8.98507
12.9808
33.0405
8.85787
8.85006
8.84724
8.85061
8.85973
8.87336
8.8922
8.9261
8.99927
9.15514
8.33365
8.33281
8.33263
8.33312
8.3343
8.33517
8.33357
8.3322
8.33213
8.33426
5.53762
5.50311
5.48998
5.49985
5.53604
5.60482
5.72012
5.91162
6.17871
6.62134
6.5658
6.42803
6.39716
6.43742
6.57381
6.83218
7.27131
7.98201
8.87907
10.3566
6.87166
6.65491
6.59821
6.66895
6.8962
7.3389
8.11375
9.4081
11.0454
14.0194
7.10156
6.84172
6.78529
6.87259
7.15809
7.72627
8.75869
10.5597
12.8861
17.7756
7.09678
6.81008
6.7383
6.83878
7.16256
7.83501
9.11485
11.4642
14.6141
22.2339
7.12027
6.81738
6.74922
6.85114
7.19598
7.9279
9.3725
12.1309
15.983
26.6482
6.81299
6.5613
6.49516
6.5812
6.86324
7.48448
8.77778
11.4742
15.6923
29.0147
5.91818
5.80727
5.78449
5.8163
5.9273
6.15962
6.62998
7.74116
10.1056
19.2409
8.71443
8.70672
8.7037
8.70657
8.71503
8.72845
8.74693
8.77836
8.83988
8.9524
8.19469
8.19462
8.19471
8.19498
8.19544
8.19503
8.19256
8.18999
8.18782
8.1865
5.27033
5.25887
5.25251
5.25476
5.26607
5.28792
5.32342
5.37807
5.44756
5.53743
5.80927
5.75775
5.74798
5.76139
5.81242
5.90932
6.07199
6.33473
6.6743
7.13898
6.04275
5.93898
5.91013
5.94261
6.05085
6.25939
6.61623
7.2117
7.98803
9.10664
6.28197
6.14522
6.1153
6.15894
6.30721
6.59701
7.1117
8.02109
9.23824
11.2029
6.35072
6.18506
6.14081
6.197
6.38002
6.75254
7.44397
8.74041
10.5401
13.8039
6.44173
6.25369
6.20986
6.26998
6.47729
6.90657
7.7285
9.34038
11.6538
16.3943
6.29289
6.12993
6.08508
6.14003
6.31778
6.69871
7.45967
9.07688
11.658
17.7696
5.73272
5.65154
5.6353
5.65663
5.73288
5.88817
6.18376
6.83607
8.10078
11.8458
8.56051
8.55318
8.55016
8.55263
8.56038
8.57302
8.59035
8.6182
8.66623
8.74099
8.04503
8.04547
8.04575
8.04588
8.04585
8.04467
8.04235
8.03987
8.03762
8.03596
5.12658
5.12313
5.11965
5.11958
5.12248
5.12889
5.13902
5.15344
5.16963
5.18572
5.37583
5.36082
5.3599
5.36276
5.3778
5.40704
5.45613
5.53392
5.63293
5.75058
5.52638
5.47939
5.4654
5.47917
5.5273
5.6181
5.76693
6.00384
6.30895
6.6804
5.72695
5.65945
5.64511
5.6651
5.73681
5.87298
6.10429
6.49909
7.03169
7.75021
5.81481
5.72368
5.69775
5.72734
5.82508
6.01824
6.36037
6.98392
7.86768
9.18715
5.92868
5.81685
5.79022
5.82353
5.94203
6.17961
6.61182
7.4396
8.65478
10.662
5.88335
5.78283
5.75397
5.78736
5.89399
6.11587
6.53611
7.40177
8.80376
11.4711
5.57795
5.51996
5.50897
5.52272
5.57376
5.67502
5.85852
6.23075
6.89051
8.32568
8.39557
8.38885
8.38597
8.38808
8.39501
8.40637
8.42191
8.44562
8.4822
8.53149
7.88498
7.88574
7.88614
7.88617
7.88587
7.88452
7.88265
7.88066
7.87887
7.87753
5.05195
5.0507
5.04843
5.04792
5.04854
5.05059
5.05358
5.05743
5.06103
5.06344
5.13779
5.13609
5.13809
5.13768
5.13995
5.14544
5.15595
5.17357
5.19611
5.22006
5.2195
5.19881
5.19215
5.19775
5.21855
5.257
5.31712
5.40619
5.51492
5.62685
5.36793
5.33655
5.33052
5.33897
5.37193
5.43266
5.53095
5.6881
5.89293
6.12705
5.44692
5.399
5.38453
5.39941
5.44952
5.54564
5.7074
5.9838
6.36819
6.8563
5.55752
5.49353
5.47827
5.49572
5.56097
5.68766
5.90572
6.2979
6.86518
7.6484
5.57412
5.51537
5.49785
5.51725
5.57832
5.70213
5.92551
6.35731
7.04609
8.13585
5.45366
5.41305
5.40606
5.41466
5.44824
5.51326
5.62669
5.83769
6.18548
6.75884
8.21906
8.21314
8.21053
8.21232
8.21832
8.22807
8.24142
8.26081
8.28802
8.32093
7.71463
7.71558
7.71605
7.71603
7.71557
7.71445
7.71306
7.7116
7.7103
7.7093
5.01361
5.01269
5.011
5.01057
5.01086
5.01186
5.01312
5.01453
5.01552
5.01566
5.01138
5.01351
5.01595
5.01494
5.01363
5.01233
5.01189
5.01303
5.01558
5.01857
5.04469
5.03542
5.03217
5.03445
5.04356
5.06013
5.08495
5.11909
5.15801
5.19178
5.14529
5.13148
5.1294
5.13269
5.14732
5.17359
5.21442
5.27519
5.35013
5.42261
5.20521
5.18106
5.17332
5.18054
5.20545
5.25203
5.3272
5.4464
5.60527
5.77848
5.30048
5.265
5.25673
5.26545
5.30044
5.36651
5.47498
5.65553
5.90536
6.19364
5.35046
5.31823
5.30828
5.31911
5.35244
5.41868
5.53413
5.74208
6.06256
6.49221
5.35775
5.32965
5.3255
5.3308
5.35279
5.39437
5.46449
5.58453
5.76941
6.02106
8.03059
8.02558
8.02333
8.02481
8.02983
8.03781
8.04883
8.06409
8.08381
8.10569
7.53414
7.53498
7.53548
7.53544
7.53499
7.53419
7.53322
7.53219
7.5313
7.53057
4.99318
4.99234
4.99102
4.99075
4.9911
4.99186
4.99279
4.99373
4.99433
4.99424
4.9461
4.9487
4.95078
4.94995
4.94818
4.94578
4.94327
4.94111
4.93967
4.93897
4.94923
4.94475
4.94304
4.94403
4.94826
4.95586
4.96683
4.98094
4.99601
5.00717
5.01287
5.007
5.00652
5.00771
5.01413
5.02547
5.04252
5.06624
5.09375
5.11689
5.05329
5.04159
5.0376
5.04103
5.05315
5.07534
5.11005
5.16149
5.22708
5.29124
5.13012
5.11083
5.10657
5.1108
5.12934
5.16351
5.21757
5.30112
5.41055
5.51845
5.19563
5.17934
5.17418
5.18002
5.19726
5.23104
5.28878
5.38661
5.53175
5.70607
5.28657
5.26716
5.26491
5.26825
5.2828
5.30966
5.35324
5.42224
5.52054
5.64054
7.82986
7.82581
7.82396
7.82515
7.82918
7.83544
7.84417
7.85574
7.86965
7.88397
7.34326
7.34393
7.34435
7.34432
7.34402
7.34348
7.34282
7.34213
7.34153
7.34098
4.98131
4.98059
4.97962
4.97947
4.97981
4.98049
4.98131
4.98213
4.98272
4.98262
4.91311
4.91525
4.9168
4.91628
4.9149
4.91294
4.91077
4.90871
4.9072
4.90634
4.89941
4.89695
4.89597
4.89645
4.8986
4.90242
4.90776
4.9143
4.92093
4.92517
4.93742
4.93485
4.93483
4.93525
4.9382
4.94335
4.95086
4.96067
4.97125
4.97933
4.96213
4.95665
4.95464
4.95627
4.9621
4.97258
4.98859
5.01101
5.03848
5.06435
5.02219
5.01166
5.00955
5.01163
5.02155
5.03944
5.06682
5.1065
5.15546
5.19862
5.09313
5.08587
5.08356
5.08662
5.09496
5.11118
5.13864
5.18317
5.24665
5.32189
5.23564
5.22211
5.22105
5.22329
5.23321
5.25098
5.27843
5.31875
5.3709
5.43183
7.61669
7.61358
7.61214
7.61306
7.61614
7.62087
7.62752
7.63598
7.64552
7.65471
7.14173
7.14227
7.14261
7.1426
7.14241
7.14205
7.14162
7.14117
7.14077
7.14034
4.97344
4.97288
4.97222
4.97214
4.97245
4.97302
4.97373
4.97443
4.975
4.97486
4.89662
4.89822
4.89931
4.89904
4.89814
4.89685
4.89541
4.89404
4.89312
4.89261
4.8747
4.8732
4.87261
4.87287
4.87405
4.87611
4.87895
4.88231
4.88568
4.88755
4.89632
4.89498
4.89498
4.89516
4.8967
4.89938
4.90316
4.90779
4.91239
4.91575
4.91005
4.90753
4.90653
4.90732
4.91013
4.9151
4.92251
4.93244
4.94416
4.95565
4.95684
4.95089
4.94984
4.95097
4.9565
4.96625
4.98065
5.0004
5.02326
5.04224
5.02815
5.02564
5.02494
5.02652
5.03019
5.03729
5.04926
5.06831
5.09404
5.12896
5.20029
5.19067
5.19032
5.19198
5.19908
5.21121
5.22889
5.25303
5.28066
5.31354
7.39104
7.38878
7.38773
7.38841
7.39063
7.3941
7.39898
7.40494
7.41128
7.41708
6.92933
6.92979
6.93005
6.93005
6.92994
6.92971
6.92943
6.92914
6.92888
6.92852
4.96743
4.96707
4.96667
4.96664
4.96689
4.96734
4.96789
4.96846
4.96898
4.96874
4.88838
4.88954
4.8903
4.89019
4.88967
4.88892
4.88809
4.88733
4.88693
4.88672
4.86322
4.86229
4.86195
4.8621
4.86275
4.86386
4.8654
4.86721
4.8691
4.87004
4.875
4.87409
4.87397
4.87409
4.87506
4.87675
4.87904
4.88171
4.88417
4.886
4.88183
4.88066
4.88015
4.88055
4.88194
4.88434
4.88782
4.89231
4.89743
4.90311
4.91898
4.91536
4.91481
4.91554
4.91886
4.92455
4.93261
4.94317
4.95465
4.96424
4.98842
4.9882
4.98834
4.98916
4.99052
4.99313
4.99748
5.0046
5.01317
5.03098
5.17615
5.16915
5.16919
5.17059
5.17592
5.18451
5.19627
5.21118
5.22576
5.24492
7.15296
7.15142
7.15072
7.15118
7.15269
7.1552
7.15863
7.16267
7.16675
7.17033
6.70591
6.7063
6.70651
6.70651
6.70645
6.70631
6.70613
6.70594
6.70577
6.70544
4.96233
4.96219
4.96199
4.962
4.96219
4.96251
4.96291
4.96333
4.96381
4.96346
4.88418
4.88505
4.88556
4.88555
4.88529
4.88491
4.88452
4.88417
4.88415
4.88414
4.85844
4.85791
4.85775
4.85783
4.85814
4.85869
4.85945
4.86039
4.86148
4.86201
4.86457
4.86382
4.86359
4.86368
4.86439
4.86563
4.86726
4.86909
4.87071
4.87198
4.86743
4.86684
4.86657
4.86678
4.86749
4.8687
4.87039
4.87249
4.87481
4.87793
4.89781
4.89541
4.89507
4.89563
4.89781
4.90141
4.9063
4.91247
4.91883
4.92464
4.96448
4.96519
4.96573
4.96618
4.96649
4.96704
4.96789
4.96968
4.9707
4.98106
5.15947
5.15434
5.1546
5.15588
5.15999
5.16634
5.17446
5.18404
5.19159
5.20388
6.90271
6.90165
6.90121
6.90151
6.90255
6.90428
6.90659
6.90921
6.91173
6.91391
6.4714
6.47174
6.47189
6.4719
6.47187
6.47179
6.47167
6.47155
6.47143
6.47113
4.95773
4.95782
4.95777
4.95782
4.95795
4.95815
4.95841
4.9587
4.95917
4.95872
4.88195
4.88261
4.88293
4.88297
4.88288
4.88275
4.88264
4.88258
4.88281
4.88296
4.85696
4.8567
4.85667
4.8567
4.8568
4.85699
4.85727
4.85768
4.85829
4.85863
4.85986
4.8592
4.85892
4.85899
4.85954
4.86049
4.86174
4.8631
4.86431
4.86531
4.86061
4.86026
4.86009
4.8602
4.86059
4.86124
4.86211
4.86316
4.86426
4.86615
4.88609
4.88437
4.88412
4.88458
4.88611
4.88856
4.89175
4.89567
4.89957
4.90374
4.94945
4.95039
4.95108
4.95135
4.95126
4.95101
4.95045
4.9501
4.94807
4.95509
5.14734
5.14355
5.14397
5.14516
5.14845
5.15332
5.15917
5.16558
5.16924
5.17798
6.6405
6.63981
6.63953
6.63973
6.64042
6.64155
6.64303
6.64465
6.64612
6.64742
6.22586
6.22615
6.22626
6.22628
6.22627
6.22621
6.22614
6.22606
6.22597
6.2257
4.95345
4.95376
4.95383
4.95392
4.954
4.9541
4.95423
4.95441
4.95492
4.95442
4.8806
4.8811
4.88127
4.88132
4.88133
4.88137
4.88144
4.88156
4.88195
4.88226
4.85703
4.85695
4.85699
4.85699
4.85697
4.85694
4.85694
4.85704
4.85735
4.85764
4.85803
4.85746
4.85718
4.85722
4.85763
4.85835
4.85928
4.86031
4.86123
4.86204
4.85775
4.85749
4.85736
4.85742
4.85765
4.85803
4.85851
4.85907
4.85963
4.86084
4.87922
4.87792
4.87771
4.87809
4.87919
4.8809
4.88308
4.88568
4.88825
4.89155
4.93855
4.93937
4.94006
4.94026
4.9401
4.93965
4.93872
4.93773
4.93474
4.94015
5.13756
5.13478
5.13527
5.1364
5.13909
5.14295
5.14733
5.15178
5.15321
5.15996
6.36666
6.36624
6.36607
6.3662
6.36663
6.36732
6.36822
6.36915
6.36994
6.3707
5.96958
5.96983
5.96991
5.96993
5.96993
5.96989
5.96984
5.96979
5.96972
5.96946
4.94937
4.94988
4.95003
4.95017
4.95022
4.95024
4.95026
4.95035
4.95092
4.95047
4.87954
4.87987
4.87993
4.87996
4.88002
4.88015
4.88034
4.88057
4.88104
4.88155
4.85776
4.85776
4.85782
4.8578
4.85773
4.8576
4.85748
4.85742
4.85756
4.85786
4.85755
4.85709
4.85684
4.85686
4.85714
4.85764
4.8583
4.85903
4.85972
4.86036
4.85687
4.85666
4.85656
4.85658
4.85671
4.85694
4.85721
4.85752
4.85781
4.85859
4.87434
4.87335
4.87317
4.87344
4.87421
4.87538
4.87684
4.87855
4.88027
4.88293
4.92853
4.92909
4.9297
4.92988
4.92975
4.92936
4.92851
4.92752
4.92456
4.92899
5.12814
5.12617
5.12667
5.12774
5.12996
5.13306
5.13642
5.13957
5.13966
5.14507
6.08174
6.0815
6.0814
6.08148
6.08173
6.08212
6.08262
6.08311
6.08349
6.08391
5.7032
5.70341
5.70348
5.7035
5.70349
5.70347
5.70344
5.70339
5.70333
5.7031
4.94521
4.94585
4.94607
4.94625
4.94629
4.94625
4.94618
4.94617
4.94677
4.94658
4.87837
4.8785
4.87847
4.87847
4.87854
4.87871
4.87893
4.87922
4.87969
4.88041
4.85859
4.85859
4.85863
4.8586
4.85851
4.85838
4.85824
4.85815
4.85819
4.85853
4.85768
4.85733
4.85714
4.85714
4.85731
4.85763
4.85805
4.85852
4.859
4.85949
4.85697
4.85682
4.85674
4.85674
4.8568
4.85692
4.85705
4.8572
4.85734
4.8578
4.8697
4.86898
4.86883
4.869
4.86947
4.87019
4.87107
4.8721
4.8732
4.87524
4.91726
4.91754
4.91802
4.91815
4.91806
4.91775
4.91709
4.91627
4.91382
4.9174
5.11632
5.11504
5.11551
5.11648
5.11827
5.12072
5.12326
5.1254
5.12468
5.1289
5.78656
5.78643
5.78638
5.78642
5.78655
5.78674
5.787
5.78721
5.78737
5.78758
5.42758
5.42775
5.4278
5.42781
5.42781
5.4278
5.42777
5.42774
5.42769
5.42751
4.93953
4.94018
4.94055
4.94079
4.94084
4.94075
4.94058
4.94042
4.94078
4.94108
4.87677
4.87665
4.87654
4.8765
4.87656
4.87671
4.87693
4.87722
4.87764
4.87849
4.8591
4.85905
4.85905
4.85902
4.85895
4.85887
4.85877
4.85871
4.85874
4.85908
4.85814
4.85791
4.85779
4.85778
4.85787
4.85804
4.85827
4.85854
4.85884
4.85918
4.8576
4.85751
4.85746
4.85745
4.85747
4.8575
4.85754
4.85758
4.85763
4.85783
4.86472
4.86428
4.86417
4.86424
4.86448
4.86484
4.86527
4.86577
4.86637
4.86773
4.90354
4.90358
4.90387
4.90392
4.90379
4.90348
4.90295
4.90231
4.90069
4.90332
5.09505
5.09435
5.09474
5.09553
5.09687
5.09864
5.10043
5.10169
5.10053
5.10332
5.48212
5.48206
5.48205
5.48206
5.4821
5.48216
5.48224
5.4823
5.48235
5.48245
5.14253
5.14263
5.14264
5.14264
5.14264
5.14264
5.14264
5.14263
5.14262
5.14254
4.92471
4.92528
4.9259
4.92623
4.92631
4.92619
4.9259
4.92549
4.92508
4.92569
4.87367
4.87332
4.87312
4.87302
4.87303
4.87315
4.87335
4.87363
4.87403
4.87486
4.85937
4.8593
4.85928
4.85925
4.85922
4.85919
4.85915
4.85914
4.85916
4.85939
4.85895
4.85883
4.85877
4.85876
4.8588
4.85888
4.85899
4.85911
4.85927
4.85945
4.85863
4.85859
4.85857
4.85856
4.85856
4.85855
4.85855
4.85853
4.85853
4.85858
4.86083
4.86064
4.86059
4.86061
4.8607
4.86083
4.86098
4.86115
4.86138
4.86201
4.88686
4.88669
4.88675
4.8867
4.88652
4.88621
4.88579
4.88537
4.8848
4.8865
5.04091
5.04062
5.04087
5.04138
5.04217
5.0432
5.04422
5.04478
5.04377
5.04481
5.16848
5.16845
5.16846
5.16846
5.16847
5.16847
5.16847
5.16846
5.16843
5.16849
11.2688
11.3839
11.3383
11.1221
82.8087
84.8854
85.3452
85.9956
143.136
148.609
149.079
147.835
202.799
212.235
212.102
207.812
264.48
278.14
276.934
269.48
332.772
351.05
348.95
340.205
395.149
417.797
415.414
408.019
433.146
459.414
457.467
452.887
345.658
368.231
365.683
364.33
11.4766
11.7152
11.5592
11.1512
9.71364
9.773
9.77584
9.73186
76.0767
79.3191
80.0786
80.2013
133.883
144.802
145.903
143.739
192.904
214.532
215.067
209.17
256.14
290.98
290.032
280.08
329.511
380.269
378.494
365.616
399.597
466.61
465.643
452.608
446.075
527.552
528.594
517.396
350.507
422.855
420.95
416.109
10.7114
10.9422
10.8718
10.6515
8.77675
8.78972
8.78871
8.7772
26.5377
28.9537
28.2163
25.7075
49.3554
53.7608
52.0966
47.423
74.5808
81.3396
78.2199
70.7041
103.456
112.995
107.815
96.7324
139.443
152.805
145.177
129.282
177.311
194.675
184.515
163.489
207.529
228.703
216.443
190.904
164.729
181.619
170.137
149.299
9.91276
10.0035
9.98034
9.88113
8.51182
8.51438
8.51504
8.51408
11.473
11.7224
11.6927
11.4956
21.2123
21.9393
21.8757
21.3335
31.9964
33.483
33.2308
31.915
44.5098
46.9432
46.2788
43.7563
60.634
64.4024
63.0823
58.7654
78.0563
83.169
80.9017
74.4566
92.5768
99.1267
95.8394
87.146
71.9372
77.0765
73.5643
65.9621
9.44864
9.49307
9.49
9.44959
8.33281
8.33391
8.33417
8.33352
7.042
7.1335
7.15865
7.12877
11.6778
11.9741
12.057
11.9709
16.8708
17.4853
17.5857
17.3189
22.8363
23.8563
23.8921
23.2879
30.7129
32.3381
32.2253
31.0363
39.2234
41.4583
41.0405
39.0608
46.2623
49.1984
48.3813
45.4007
34.4025
36.6208
35.4304
32.55
9.09831
9.12225
9.12386
9.10691
8.1825
8.18342
8.18351
8.18274
5.6068
5.62107
5.62628
5.62453
7.45597
7.52591
7.55861
7.55991
9.9374
10.1212
10.1884
10.1632
12.8335
13.1794
13.2657
13.1651
16.7961
17.4126
17.5026
17.2347
21.0458
21.9427
21.9661
21.4368
24.4787
25.7308
25.6293
24.6929
17.4817
18.3757
18.0212
17.0174
8.81278
8.82469
8.82705
8.82091
8.03166
8.03256
8.03262
8.03184
5.19698
5.20017
5.20104
5.20005
5.82318
5.839
5.84764
5.84981
6.9143
6.9672
6.99236
6.99341
8.25891
8.37119
8.41552
8.40577
10.2336
10.4613
10.5312
10.4824
12.3586
12.7064
12.7767
12.6577
14.0533
14.573
14.6197
14.3555
10.2223
10.5584
10.48
10.1888
8.56535
8.57082
8.5729
8.5715
7.87343
7.8743
7.87437
7.87362
5.06324
5.06441
5.06441
5.06348
5.23315
5.23553
5.23697
5.23761
5.68406
5.69642
5.70296
5.70432
6.26556
6.29591
6.31047
6.31198
7.19407
7.26967
7.30033
7.29464
8.2156
8.33656
8.37645
8.35782
9.06883
9.26931
9.31392
9.2486
7.33916
7.45186
7.44581
7.37974
8.33735
8.33962
8.34109
8.34131
7.70545
7.70628
7.70635
7.70564
5.01331
5.01423
5.01417
5.01324
5.02033
5.02044
5.0205
5.02053
5.20441
5.20675
5.20802
5.20839
5.45534
5.46195
5.46553
5.46665
5.88056
5.90353
5.91409
5.91396
6.359
6.3948
6.41013
6.41045
6.80649
6.87774
6.90027
6.88566
6.19863
6.23254
6.23688
6.22638
8.11413
8.11492
8.11581
8.11637
7.52699
7.52777
7.52783
7.52717
4.99134
4.9922
4.99215
4.99126
4.93892
4.93882
4.93872
4.93862
5.00958
5.00981
5.00993
5.00998
5.12347
5.12436
5.12493
5.12531
5.32339
5.33038
5.3337
5.33363
5.55978
5.5682
5.57283
5.57492
5.81415
5.83897
5.84806
5.84386
5.69869
5.70624
5.7089
5.70968
7.88845
7.88857
7.88907
7.8896
7.33767
7.33839
7.33845
7.33784
4.97959
4.98038
4.98032
4.97948
4.90612
4.90608
4.906
4.90589
4.92537
4.92526
4.9252
4.9252
4.98029
4.98013
4.98007
4.98015
5.07669
5.07924
5.08034
5.08004
5.20667
5.20774
5.20881
5.2102
5.36638
5.37606
5.37939
5.37671
5.45414
5.45319
5.45377
5.45607
7.65706
7.6569
7.65717
7.65758
7.1373
7.13795
7.138
7.13745
4.97183
4.97253
4.97246
4.97166
4.89241
4.89242
4.89236
4.89224
4.88729
4.88716
4.88711
4.88712
4.91574
4.91552
4.91539
4.91537
4.96187
4.96313
4.96358
4.96324
5.04267
5.04219
5.04227
5.04304
5.1536
5.15843
5.15957
5.15701
5.32491
5.32159
5.32109
5.32303
7.41817
7.41795
7.41808
7.41836
6.92576
6.92634
6.92638
6.92588
4.9658
4.96639
4.9663
4.96554
4.88652
4.88655
4.8865
4.88637
4.86972
4.86963
4.8696
4.86962
4.88595
4.88581
4.88571
4.88567
4.907
4.90779
4.90803
4.90772
4.96376
4.96321
4.96309
4.96347
5.04882
5.05202
5.05236
5.0498
5.25289
5.24933
5.24842
5.24973
7.17063
7.17047
7.17053
7.17067
6.703
6.7035
6.70352
6.70308
4.96066
4.96114
4.96101
4.9603
4.88396
4.88399
4.88394
4.88381
4.86175
4.86169
4.86167
4.8617
4.87202
4.87195
4.87189
4.87184
4.88064
4.8812
4.88135
4.88109
4.92484
4.92455
4.92444
4.92456
4.9962
4.99882
4.99886
4.99629
5.21081
5.20776
5.20677
5.20743
6.91367
6.91363
6.91366
6.91366
6.46903
6.46944
6.46944
6.46906
4.9561
4.95647
4.95631
4.95565
4.88284
4.88288
4.88283
4.88269
4.85849
4.85847
4.85846
4.85847
4.8654
4.86538
4.86534
4.8653
4.8681
4.8685
4.86859
4.86837
4.90483
4.90481
4.90476
4.90469
4.96897
4.97138
4.9713
4.9687
5.18467
5.1824
5.18148
5.1815
6.6468
6.64691
6.64692
6.64681
6.22397
6.22429
6.22427
6.22395
4.95205
4.9523
4.95211
4.9515
4.88232
4.88239
4.88235
4.88219
4.85765
4.85767
4.85767
4.85766
4.86217
4.86218
4.86215
4.86212
4.86223
4.86251
4.86256
4.86238
4.89334
4.89356
4.89355
4.89334
4.95332
4.95573
4.9556
4.95292
5.1667
5.16534
5.16457
5.16396
6.36982
6.37006
6.37007
6.36987
5.96817
5.96839
5.96835
5.9681
4.94846
4.94863
4.94843
4.94786
4.88192
4.88207
4.88204
4.88184
4.85804
4.8581
4.85811
4.85807
4.86053
4.86054
4.86053
4.86051
4.85952
4.85971
4.85973
4.85959
4.8851
4.88548
4.88551
4.88521
4.94151
4.94404
4.94392
4.94113
5.15193
5.15159
5.15103
5.14979
6.08283
6.0832
6.08322
6.08294
5.70233
5.70244
5.70237
5.70218
4.9452
4.94537
4.94518
4.94465
4.88121
4.88147
4.88146
4.88119
4.85887
4.85897
4.85898
4.85891
4.85967
4.8597
4.85971
4.85969
4.85835
4.85846
4.85846
4.85836
4.87743
4.87787
4.87792
4.87759
4.92871
4.93137
4.9313
4.92846
5.13565
5.13652
5.13624
5.1343
5.7864
5.78685
5.78687
5.78656
5.42737
5.42734
5.42725
5.42715
4.94098
4.94136
4.94125
4.94064
4.87959
4.87993
4.87992
4.87959
4.85946
4.85958
4.85959
4.85951
4.85935
4.85938
4.8594
4.85939
4.85808
4.85812
4.85812
4.85808
4.86954
4.86993
4.86999
4.86972
4.9119
4.91432
4.91429
4.91181
5.1092
5.11158
5.11165
5.10885
5.48141
5.48193
5.48196
5.48162
5.14313
5.14288
5.1428
5.14287
4.92729
4.92818
4.92816
4.9272
4.87563
4.87587
4.87583
4.87556
4.85962
4.85969
4.8597
4.85965
4.85957
4.8596
4.85961
4.85962
4.85863
4.85863
4.85863
4.85862
4.863
4.86322
4.86326
4.86312
4.89065
4.89182
4.89179
4.89058
5.04762
5.05114
5.05145
5.04803
5.16797
5.16853
5.16854
5.16817
10.1125
9.36655
9.05446
8.94193
8.87746
8.83201
8.80173
8.78471
8.77525
8.76962
103.677
49.1185
35.7479
29.9535
24.5563
19.9487
16.3626
13.6887
11.7809
10.419
160.953
70.8598
51.0922
43.7412
37.1893
31.4231
26.5903
22.7096
19.6661
17.292
206.425
82.5933
55.9805
46.7258
39.3592
32.7636
27.2257
22.8324
19.4412
16.8538
242.057
88.9493
58.8243
47.9625
40.0741
32.7331
26.6739
21.9518
18.3655
15.7204
278.026
94.6878
60.9721
48.2991
39.842
31.7839
25.3498
20.4625
16.88
14.329
307.076
98.1548
61.6884
47.7776
39.0424
30.5167
23.9409
19.072
15.5928
13.2088
315.181
93.7475
56.626
42.2246
33.9143
25.7843
19.9221
15.7953
13.0446
11.2278
224.449
56.1308
30.542
21.1144
16.2819
12.223
9.95445
8.61253
7.80367
7.27949
9.56927
9.54459
9.38919
9.36303
9.31644
9.29031
9.26954
9.25849
9.25102
9.24459
9.36701
9.05686
8.90463
8.81903
8.7651
8.72947
8.70634
8.69259
8.68519
8.68049
53.1034
28.6701
22.5558
19.4488
16.6682
14.1974
12.1628
10.6002
9.46061
8.66863
89.9973
46.2726
35.7988
31.0192
27.1795
23.5072
20.2887
17.6298
15.5019
13.8833
122.262
58.6099
42.8632
35.6324
30.5484
25.7645
21.6941
18.4211
15.8712
13.9849
152.559
68.7659
47.8554
38.5188
32.3827
26.6763
21.9756
18.2964
15.4841
13.4741
186.431
78.8744
52.1447
40.4745
33.2563
26.6679
21.4525
17.4944
14.5901
12.5901
217.195
86.4736
54.7135
41.2491
33.352
26.1761
20.6967
16.6597
13.7697
11.8523
233.181
86.7484
51.9183
37.4835
29.577
22.5762
17.5731
14.0824
11.7625
10.2822
167.396
54.7543
29.0623
19.3789
14.6941
11.226
9.27414
8.12916
7.4333
7.00242
9.8185
9.50198
9.33083
9.26755
9.21264
9.17936
9.1552
9.14044
9.13004
9.12102
8.73764
8.69622
8.66348
8.63626
8.61495
8.5995
8.58919
8.583
8.57957
8.57711
19.9479
16.5756
14.502
12.6839
11.1144
9.81148
8.79728
8.04846
7.50979
7.1373
35.9188
28.7103
24.9236
21.688
18.9126
16.5044
14.5094
12.9051
11.6299
10.6683
51.0349
37.9342
31.5392
26.349
22.258
18.8385
16.0953
13.9462
12.287
11.0733
66.1255
45.691
36.6291
29.5927
24.378
20.1243
16.8123
14.2893
12.3779
11.0249
83.2233
53.3437
41.1443
32.0841
25.7346
20.6606
16.8411
14.0192
11.9732
10.5797
99.1214
59.1915
44.1514
33.4584
26.3359
20.7046
16.5968
13.6534
11.5697
10.1985
108.416
59.7595
42.601
31.0009
23.7642
18.2174
14.4239
11.8562
10.1697
9.09687
75.9426
36.6502
23.8688
16.2727
12.2254
9.68214
8.28944
7.47121
6.96243
6.643
9.57144
9.377
9.24303
9.16318
9.10555
9.0695
9.04441
9.02731
9.01465
9.00375
8.50926
8.49918
8.48813
8.4782
8.47066
8.46553
8.46233
8.46069
8.46029
8.45983
10.9413
10.133
9.28388
8.43957
7.73249
7.18984
6.79109
6.5031
6.2946
6.14959
19.8668
18.0274
16.1757
14.303
12.6873
11.3591
10.2978
9.46205
8.80289
8.30846
28.4763
24.6318
21.1893
17.9877
15.3997
13.3276
11.7041
10.4512
9.49282
8.79771
37.2416
30.666
25.4308
20.8631
17.3668
14.6393
12.5625
11.0087
9.84102
9.01674
47.4688
36.9714
29.5251
23.3601
18.8645
15.4393
12.9147
11.0856
9.77374
8.88289
57.068
42.0782
32.5546
25.014
19.7597
15.831
13.0263
11.0607
9.68028
8.76868
62.7982
43.2672
32.0908
23.7133
18.2356
14.3062
11.6794
9.94056
8.80232
8.06923
42.7464
26.2055
17.9732
12.7917
10.0235
8.39121
7.47294
6.91819
6.5594
6.32874
9.32679
9.18824
9.08108
9.01139
8.96315
8.93148
8.90872
8.89239
8.88005
8.86961
8.33333
8.33183
8.33032
8.32914
8.32844
8.32815
8.32817
8.32863
8.32974
8.33077
6.99875
6.75845
6.50549
6.26712
6.06882
5.91243
5.79208
5.70045
5.63113
5.58319
11.6107
10.9246
10.1509
9.37337
8.68662
8.11435
7.65515
7.29358
7.00514
6.78726
16.4393
14.9566
13.3751
11.8591
10.5716
9.52122
8.69304
8.05486
7.56662
7.21385
21.5356
18.9344
16.3581
14.0117
12.1129
10.6144
9.47215
8.62327
7.98312
7.52864
27.7674
23.4447
19.5094
16.0874
13.4437
11.4217
9.93294
8.86302
8.09529
7.57131
33.7358
27.3844
22.0672
17.6428
14.3795
11.9549
10.2301
9.03345
8.18767
7.62095
37.3949
28.7932
22.2643
17.1553
13.6365
11.1586
9.50851
8.42123
7.69986
7.22477
24.5298
17.336
12.8101
9.95745
8.36371
7.40485
6.82989
6.46686
6.22033
6.05853
9.05262
8.96952
8.89789
8.8468
8.80935
8.78253
8.7623
8.74711
8.73537
8.72558
8.18331
8.18345
8.18382
8.1844
8.18513
8.18592
8.18672
8.1877
8.18919
8.19095
5.60803
5.56476
5.5134
5.46123
5.41402
5.37355
5.34005
5.3131
5.29254
5.27959
7.50447
7.31332
7.06494
6.8056
6.57036
6.37217
6.21208
6.08425
5.97764
5.89469
9.97745
9.47166
8.85052
8.22728
7.67845
7.22407
6.86208
6.57972
6.35981
6.20008
12.7359
11.7742
10.6616
9.59965
8.70686
7.9954
7.45026
7.04277
6.72781
6.49987
16.3273
14.6103
12.754
11.0612
9.69839
8.64806
7.87046
7.30815
6.89732
6.61301
19.8651
17.2477
14.5846
12.2685
10.4875
9.16056
8.21173
7.54987
7.06962
6.73966
22.1193
18.4221
14.9993
12.2249
10.2385
8.8421
7.90147
7.27178
6.84142
6.55036
14.3951
11.5394
9.42849
8.05221
7.21596
6.67995
6.33271
6.10269
5.93832
5.829
8.79751
8.75139
8.70716
8.67168
8.64333
8.6213
8.60389
8.5903
8.57954
8.57071
8.03254
8.03287
8.03343
8.03419
8.03504
8.03589
8.0367
8.03764
8.03905
8.04085
5.19673
5.18855
5.17888
5.16821
5.15756
5.14753
5.13861
5.13121
5.12616
5.12427
5.83873
5.79275
5.73039
5.66326
5.60087
5.54732
5.5033
5.46687
5.43304
5.40485
6.94996
6.79197
6.58423
6.36808
6.17116
6.00306
5.86439
5.75194
5.66088
5.59403
8.29781
7.96332
7.54454
7.13209
6.77519
6.48476
6.25671
6.08133
5.93851
5.83163
10.2208
9.55419
8.76992
8.03189
7.41938
6.93859
6.57409
6.30282
6.09707
5.95195
12.1907
11.1269
9.9259
8.84977
7.99566
7.34965
6.87702
6.53854
6.28103
6.09811
13.5203
11.9519
10.3409
8.99978
8.00487
7.29204
6.79586
6.45164
6.20663
6.03669
9.42688
8.38696
7.50768
6.88492
6.46194
6.1683
5.96303
5.82071
5.71369
5.64214
8.56196
8.53742
8.51068
8.48639
8.46532
8.4478
8.43334
8.42165
8.41217
8.40451
7.87431
7.87457
7.87499
7.87556
7.87621
7.87684
7.87743
7.87812
7.87928
7.88087
5.06297
5.0612
5.05922
5.05687
5.05424
5.05147
5.04887
5.04681
5.04607
5.04698
5.23562
5.22716
5.21544
5.20229
5.18987
5.17935
5.17102
5.16388
5.15493
5.14617
5.69438
5.65145
5.59147
5.52542
5.46176
5.40427
5.35407
5.31103
5.27454
5.24766
6.28729
6.18749
6.05385
5.91593
5.79085
5.68435
5.59679
5.52637
5.4646
5.4163
7.2212
6.9888
6.70009
6.41692
6.17139
5.97023
5.81037
5.68565
5.5865
5.51552
8.22928
7.83726
7.36186
6.92005
6.55436
6.26678
6.04664
5.88202
5.74884
5.65071
8.98557
8.36986
7.6969
7.11438
6.66051
6.3205
6.07145
5.89045
5.756
5.66106
7.18646
6.82393
6.4694
6.18834
5.97536
5.81558
5.69593
5.60951
5.54114
5.49558
8.33712
8.32376
8.3074
8.29094
8.27564
8.26218
8.25062
8.24096
8.23292
8.22654
7.70632
7.7065
7.70677
7.70715
7.70758
7.70797
7.70832
7.70876
7.70964
7.71098
5.0133
5.01254
5.0118
5.01096
5.00996
5.00884
5.00779
5.00709
5.00733
5.00857
5.02001
5.01894
5.01783
5.01664
5.01584
5.01576
5.01643
5.01709
5.01557
5.01301
5.20579
5.19451
5.1777
5.15773
5.13711
5.11726
5.09882
5.08208
5.06732
5.05652
5.46127
5.43463
5.39605
5.35333
5.312
5.27468
5.24241
5.21521
5.189
5.16733
5.89257
5.81817
5.72125
5.61975
5.52591
5.44422
5.37549
5.31902
5.27208
5.23835
6.38057
6.25301
6.08436
5.91768
5.77053
5.64769
5.54817
5.4701
5.40252
5.35076
6.80444
6.58174
6.32492
6.08789
5.8905
5.73352
5.61194
5.51941
5.44799
5.3972
6.1783
6.04703
5.90102
5.7717
5.66397
5.5772
5.50812
5.45639
5.41328
5.38492
8.11411
8.1066
8.09653
8.08556
8.07475
8.06476