/*--------------------------------*- C++ -*----------------------------------*\
| =========                 |                                                 |
| \\      /  F ield         | foam-extend: Open Source CFD                    |
|  \\    /   O peration     | Version:     4.0                                |
|   \\  /    A nd           | Web:         http://www.foam-extend.org         |
|    \\/     M anipulation  |                                                 |
\*---------------------------------------------------------------------------*/
FoamFile
{
    version     2.0;
    format      ascii;
    class       volScalarField;
    location    "1850";
    object      MaU;
}
// * * * * * * * * * * * * * * * * * * * * * * * * * * * * * * * * * * * * * //

dimensions      [0 0 0 0 0 0 0];

internalField   nonuniform List<scalar> 
34480
(
0.623802
0.624799
0.625334
0.625447
0.62514
0.624341
0.622908
0.620161
0.614064
0.608265
0.627218
0.628045
0.628506
0.628537
0.627978
0.626684
0.624679
0.621714
0.614695
0.609138
0.629399
0.630157
0.63053
0.630438
0.629702
0.628355
0.62658
0.624286
0.61725
0.61213
0.629391
0.63017
0.630612
0.630651
0.63014
0.629196
0.627922
0.626341
0.619693
0.615048
0.629849
0.630734
0.631316
0.631574
0.631386
0.63092
0.630192
0.629382
0.623519
0.619361
0.629444
0.630386
0.631053
0.631441
0.63149
0.63143
0.631237
0.63125
0.62657
0.623232
0.629648
0.630732
0.631505
0.632034
0.632293
0.632573
0.632876
0.633708
0.630475
0.62794
0.629057
0.630182
0.630913
0.631326
0.63147
0.631705
0.63216
0.633531
0.631816
0.630468
0.628806
0.630088
0.630932
0.63148
0.631801
0.632196
0.632901
0.634769
0.634325
0.632885
0.625003
0.626028
0.626066
0.625189
0.623569
0.621583
0.619685
0.619143
0.618347
0.619139
0.6139
0.615362
0.615935
0.615686
0.614542
0.612226
0.608111
0.600842
0.590131
0.576274
0.618511
0.619819
0.620344
0.620082
0.61884
0.616244
0.611702
0.603854
0.591196
0.575036
0.621576
0.6228
0.623273
0.622977
0.621662
0.61902
0.61455
0.606864
0.59336
0.576024
0.622383
0.623618
0.624156
0.623995
0.622887
0.62059
0.616518
0.609261
0.595367
0.57761
0.623524
0.624834
0.62549
0.625535
0.624727
0.622883
0.619332
0.612719
0.59892
0.581319
0.623659
0.625013
0.625749
0.625929
0.625357
0.623928
0.620923
0.615098
0.601849
0.585038
0.624311
0.625773
0.626603
0.626929
0.626573
0.625516
0.623049
0.618077
0.605756
0.59002
0.624044
0.625534
0.626333
0.626575
0.626165
0.625171
0.622995
0.618741
0.607609
0.593562
0.62404
0.625637
0.626528
0.626884
0.626653
0.625893
0.624108
0.620602
0.610729
0.597483
0.620429
0.621842
0.622176
0.621514
0.619911
0.617518
0.614061
0.609255
0.599858
0.589735
0.606269
0.607836
0.6084
0.608079
0.606838
0.604518
0.600823
0.595255
0.587182
0.576992
0.611164
0.612699
0.613256
0.612879
0.611447
0.608697
0.604122
0.596864
0.585475
0.570318
0.614505
0.616038
0.61659
0.61621
0.614715
0.611785
0.606802
0.598638
0.584621
0.564801
0.615805
0.6174
0.61803
0.617763
0.616396
0.613607
0.608619
0.600028
0.58386
0.559934
0.617424
0.619108
0.619848
0.619762
0.618626
0.616144
0.611394
0.602785
0.585116
0.557902
0.617979
0.61972
0.620545
0.620592
0.619657
0.617497
0.613091
0.604761
0.586205
0.556622
0.618995
0.62083
0.621745
0.621936
0.621203
0.619369
0.615372
0.607517
0.588649
0.557401
0.619028
0.620888
0.621787
0.621924
0.621163
0.619416
0.61569
0.608364
0.58971
0.55762
0.619283
0.621207
0.622176
0.622403
0.621773
0.620219
0.616855
0.610193
0.592184
0.558694
0.615913
0.617668
0.618225
0.617692
0.616053
0.61331
0.6088
0.601368
0.583915
0.55084
0.600706
0.60208
0.602552
0.602244
0.601152
0.59922
0.59635
0.592446
0.587486
0.581955
0.605337
0.606802
0.607312
0.606903
0.605503
0.602965
0.599042
0.593388
0.585562
0.576637
0.608526
0.610111
0.610656
0.610216
0.608665
0.605776
0.601123
0.594081
0.583487
0.570551
0.610025
0.611748
0.612382
0.612007
0.610462
0.607473
0.602425
0.594379
0.581127
0.563914
0.611913
0.613763
0.614501
0.61426
0.612838
0.609951
0.604794
0.596159
0.580655
0.559445
0.612759
0.614693
0.615517
0.615384
0.614092
0.611372
0.606271
0.597377
0.580077
0.55539
0.614048
0.616078
0.616984
0.61698
0.615843
0.613345
0.608426
0.599533
0.580954
0.553321
0.614338
0.616393
0.617296
0.617255
0.616098
0.613651
0.608866
0.600143
0.580873
0.550981
0.614816
0.616907
0.617862
0.617896
0.616846
0.614534
0.609938
0.601549
0.582253
0.549824
0.611695
0.613632
0.614299
0.613791
0.612037
0.608911
0.603549
0.594555
0.575452
0.541824
0.596841
0.597924
0.598284
0.598047
0.597233
0.595849
0.593913
0.591492
0.588739
0.58602
0.600916
0.602157
0.602589
0.602232
0.601057
0.599012
0.596028
0.592081
0.587233
0.582446
0.603654
0.605127
0.605632
0.605214
0.603798
0.601261
0.597392
0.591973
0.584728
0.577107
0.605083
0.606778
0.607389
0.606986
0.605458
0.602617
0.598075
0.591376
0.581592
0.570543
0.607012
0.608892
0.609611
0.609292
0.607773
0.60483
0.59988
0.592218
0.580042
0.565405
0.607986
0.609995
0.610807
0.610564
0.609091
0.606142
0.600965
0.592635
0.578313
0.560192
0.609424
0.611551
0.612445
0.612306
0.610926
0.608065
0.602827
0.594095
0.57799
0.556609
0.60989
0.612058
0.612961
0.612796
0.611389
0.608519
0.603241
0.594323
0.576946
0.55272
0.610541
0.612734
0.613677
0.613571
0.612239
0.609457
0.604234
0.595283
0.577276
0.549976
0.607648
0.6097
0.610447
0.609962
0.608143
0.604798
0.599051
0.589576
0.571344
0.541964
0.594197
0.595001
0.595259
0.595096
0.594543
0.593632
0.592412
0.590978
0.589461
0.588009
0.597675
0.598633
0.598971
0.598694
0.597797
0.596283
0.594177
0.591574
0.588679
0.5861
0.599843
0.601095
0.601529
0.601172
0.599987
0.597932
0.59495
0.591059
0.586372
0.581946
0.601034
0.60257
0.603123
0.602742
0.601358
0.598871
0.595099
0.589916
0.583135
0.576296
0.602828
0.604605
0.605271
0.604927
0.603454
0.600705
0.596333
0.590035
0.581111
0.571527
0.60379
0.605745
0.606512
0.606209
0.604696
0.601787
0.596972
0.589764
0.57876
0.566289
0.605263
0.60737
0.608222
0.607992
0.606503
0.603547
0.598461
0.590569
0.577681
0.562302
0.605818
0.607991
0.608866
0.608614
0.607075
0.604039
0.59875
0.590388
0.575994
0.557873
0.606586
0.60879
0.609699
0.60949
0.607993
0.604983
0.599628
0.590968
0.575596
0.554481
0.603887
0.605964
0.606746
0.606276
0.604446
0.601043
0.595299
0.586144
0.570271
0.546943
0.59238
0.592967
0.593143
0.593042
0.592691
0.592128
0.591398
0.590577
0.589745
0.588914
0.595341
0.59603
0.596278
0.596081
0.595444
0.594396
0.592991
0.591344
0.589644
0.588246
0.596941
0.597932
0.598281
0.598001
0.597078
0.595518
0.593347
0.590676
0.587727
0.585164
0.597822
0.599123
0.599596
0.599267
0.598101
0.596064
0.593112
0.589298
0.584763
0.580569
0.599366
0.600945
0.601535
0.601206
0.599882
0.597486
0.593858
0.58895
0.582672
0.576504
0.60021
0.602008
0.602705
0.602386
0.600951
0.598282
0.594087
0.588191
0.580107
0.571737
0.601624
0.603612
0.604396
0.604121
0.602643
0.599815
0.5952
0.588477
0.578652
0.567937
0.602184
0.604264
0.605087
0.604785
0.603231
0.600252
0.595312
0.587948
0.576631
0.563588
0.603018
0.605146
0.606
0.605728
0.60418
0.601167
0.596063
0.588242
0.575838
0.560248
0.60047
0.602488
0.603267
0.602817
0.60104
0.597739
0.592318
0.584017
0.570971
0.553454
0.5911
0.591537
0.591656
0.591597
0.591385
0.591051
0.590627
0.590165
0.5897
0.589168
0.593664
0.594135
0.594308
0.594176
0.593749
0.593058
0.592159
0.591146
0.590153
0.589378
0.594767
0.595506
0.595771
0.595566
0.594887
0.593764
0.592253
0.590478
0.588646
0.58715
0.595338
0.596379
0.596763
0.596499
0.595574
0.593995
0.591791
0.589086
0.586109
0.583543
0.59658
0.59791
0.598408
0.59812
0.597001
0.595028
0.592164
0.588492
0.584184
0.580248
0.597242
0.598816
0.599423
0.59912
0.597843
0.595534
0.592065
0.587449
0.581684
0.576141
0.598536
0.600325
0.601024
0.600738
0.599367
0.59682
0.592855
0.587388
0.580146
0.572816
0.599027
0.600934
0.601681
0.601365
0.59989
0.597138
0.592776
0.586605
0.578035
0.568871
0.599887
0.601863
0.602642
0.602342
0.600842
0.598002
0.593405
0.58671
0.5771
0.56596
0.597448
0.599331
0.600072
0.599652
0.597988
0.594926
0.59005
0.582897
0.572626
0.559994
0.590167
0.590506
0.590587
0.590555
0.590431
0.590239
0.589998
0.589739
0.589472
0.589093
0.592449
0.592758
0.592874
0.59279
0.592516
0.592078
0.59152
0.59091
0.590331
0.589894
0.593145
0.59367
0.593862
0.593719
0.593244
0.592469
0.591455
0.590307
0.58918
0.588301
0.593458
0.594251
0.594548
0.594349
0.59365
0.59248
0.590898
0.589036
0.587106
0.585533
0.59439
0.595459
0.595861
0.595625
0.594727
0.593178
0.591009
0.588352
0.585446
0.582945
0.594847
0.596161
0.59667
0.596403
0.595326
0.593425
0.590679
0.587194
0.583167
0.57953
0.595987
0.597531
0.598131
0.597863
0.596658
0.594478
0.591225
0.586948
0.581738
0.576793
0.596354
0.598032
0.598686
0.598382
0.597055
0.594639
0.590964
0.586005
0.579695
0.573377
0.597214
0.598981
0.599669
0.599372
0.597994
0.595451
0.591502
0.586017
0.578803
0.57104
0.594846
0.596535
0.597211
0.596831
0.59533
0.592606
0.588405
0.582502
0.574686
0.565858
0.589459
0.589736
0.589794
0.589778
0.589707
0.589598
0.589462
0.589317
0.589158
0.58886
0.591551
0.591749
0.591826
0.591775
0.591605
0.591335
0.590997
0.590633
0.590294
0.590041
0.591929
0.592287
0.59242
0.592325
0.592005
0.59149
0.59083
0.590103
0.589415
0.588896
0.592054
0.592634
0.592856
0.592712
0.592207
0.591373
0.590274
0.589022
0.587784
0.586817
0.592701
0.593523
0.593835
0.593652
0.592963
0.591797
0.590212
0.588343
0.586409
0.584824
0.592959
0.594011
0.59442
0.594199
0.593332
0.591834
0.58974
0.587191
0.584424
0.582055
0.593943
0.595222
0.595718
0.595484
0.594475
0.592692
0.590125
0.586891
0.583216
0.579916
0.594145
0.595563
0.596116
0.595842
0.594703
0.592676
0.589703
0.585861
0.581322
0.577036
0.594999
0.596521
0.597109
0.596835
0.595628
0.593452
0.590198
0.585873
0.580596
0.575298
0.59267
0.594126
0.594719
0.594385
0.593083
0.590754
0.587273
0.582584
0.576804
0.570794
0.588905
0.589143
0.589184
0.589178
0.589138
0.589077
0.589001
0.588919
0.588819
0.588567
0.590874
0.590999
0.59105
0.59102
0.590917
0.590754
0.590552
0.590337
0.590136
0.589986
0.591002
0.591238
0.591326
0.591264
0.591056
0.590724
0.590305
0.589854
0.589438
0.58913
0.591019
0.591428
0.591587
0.591488
0.591136
0.590562
0.589819
0.588995
0.588207
0.587611
0.591417
0.592026
0.592258
0.592122
0.591614
0.590767
0.589645
0.588363
0.587093
0.586092
0.591502
0.592312
0.592629
0.592455
0.591785
0.590649
0.589106
0.587291
0.585419
0.583886
0.592346
0.593367
0.593763
0.59357
0.592761
0.59136
0.589405
0.587032
0.584485
0.582304
0.59236
0.593511
0.593962
0.593729
0.592793
0.59116
0.588842
0.585963
0.582765
0.5799
0.593217
0.594482
0.594967
0.594729
0.593718
0.591933
0.58935
0.586055
0.582282
0.578727
0.590902
0.592106
0.592607
0.592326
0.591237
0.589321
0.586541
0.582944
0.578777
0.574779
0.588459
0.588671
0.588702
0.588701
0.588678
0.588644
0.588601
0.588554
0.588488
0.588266
0.590354
0.590434
0.590468
0.590451
0.59039
0.590294
0.590174
0.590046
0.589925
0.589831
0.590277
0.590427
0.590483
0.590445
0.590313
0.590104
0.589845
0.589569
0.58932
0.589138
0.590262
0.590542
0.590654
0.590588
0.590351
0.589966
0.589476
0.588943
0.588444
0.588075
0.59045
0.590884
0.591051
0.590954
0.590592
0.589998
0.589226
0.588366
0.587543
0.586913
0.590399
0.590999
0.591236
0.591106
0.590608
0.589776
0.588673
0.587413
0.586164
0.58518
0.591132
0.591917
0.592223
0.592071
0.591449
0.590389
0.588948
0.587253
0.585517
0.584088
0.590944
0.591843
0.592197
0.592007
0.591268
0.590003
0.588257
0.586164
0.583955
0.582066
0.591831
0.592845
0.593231
0.593036
0.592224
0.590815
0.588837
0.586403
0.583762
0.581412
0.589507
0.590464
0.590871
0.590642
0.589766
0.588248
0.586103
0.583433
0.580499
0.577896
0.588095
0.588287
0.588311
0.588312
0.588299
0.588281
0.588256
0.588229
0.588183
0.587982
0.589956
0.590008
0.590033
0.590024
0.589988
0.58993
0.589859
0.589782
0.589706
0.589643
0.58969
0.589783
0.589817
0.589793
0.589711
0.589583
0.589426
0.589262
0.589115
0.589009
0.589714
0.5899
0.589977
0.589936
0.589781
0.58953
0.589213
0.588873
0.588559
0.588329
0.589725
0.590024
0.59014
0.590072
0.589823
0.589418
0.588901
0.588337
0.587811
0.587418
0.589578
0.590007
0.590179
0.590084
0.589727
0.589138
0.588371
0.587518
0.586697
0.586069
0.590233
0.590817
0.591044
0.590931
0.59047
0.589695
0.588666
0.587487
0.586323
0.585394
0.589834
0.590509
0.590777
0.590629
0.590068
0.589123
0.58785
0.586371
0.584874
0.583648
0.590793
0.591578
0.591875
0.591723
0.591095
0.590025
0.588561
0.586816
0.585005
0.58347
0.588439
0.589166
0.589485
0.589306
0.588626
0.587467
0.585868
0.583946
0.581927
0.58027
0.587793
0.58797
0.587987
0.58799
0.587983
0.587972
0.587958
0.587942
0.587909
0.587725
0.589659
0.589696
0.589714
0.58971
0.589689
0.589655
0.589612
0.589564
0.589513
0.589465
0.589197
0.589251
0.589271
0.589255
0.589206
0.589129
0.589037
0.588941
0.588857
0.588797
0.589323
0.589446
0.589498
0.589473
0.589375
0.589214
0.589013
0.588799
0.588602
0.588457
0.589183
0.589382
0.589459
0.589413
0.589247
0.588979
0.588641
0.58828
0.587949
0.587707
0.588978
0.589275
0.589395
0.589329
0.589082
0.588677
0.588159
0.587593
0.587061
0.586665
0.589585
0.590004
0.590169
0.590087
0.589758
0.589211
0.588497
0.587698
0.586932
0.586332
0.588966
0.589453
0.589648
0.589538
0.589127
0.588446
0.587546
0.586532
0.585537
0.584754
0.590054
0.590641
0.590862
0.590748
0.590282
0.589499
0.58845
0.587235
0.586019
0.585026
0.587638
0.588167
0.588408
0.588273
0.587765
0.586912
0.585759
0.584418
0.583059
0.582029
0.587535
0.587696
0.587708
0.587711
0.587707
0.587701
0.587694
0.587684
0.58766
0.587494
0.589458
0.589487
0.589501
0.5895
0.589487
0.589466
0.58944
0.589408
0.58937
0.589328
0.588765
0.588794
0.588803
0.588792
0.588762
0.588718
0.588665
0.588612
0.588567
0.588536
0.589053
0.589134
0.589169
0.589155
0.589094
0.588994
0.588868
0.588734
0.588611
0.588518
0.588781
0.588908
0.588958
0.588928
0.58882
0.588648
0.588433
0.588206
0.588002
0.587856
0.588553
0.588752
0.588834
0.58879
0.588624
0.588354
0.588012
0.587646
0.587306
0.587059
0.589132
0.589423
0.589537
0.58948
0.589253
0.588879
0.5884
0.587873
0.587379
0.586996
0.58828
0.588618
0.588755
0.588676
0.588386
0.587911
0.587295
0.586617
0.585968
0.58548
0.589566
0.589993
0.59015
0.590069
0.589736
0.589183
0.588457
0.587634
0.586835
0.586197
0.587039
0.587406
0.587582
0.587483
0.587119
0.586512
0.585707
0.5848
0.583905
0.583285
0.587281
0.587424
0.587432
0.587435
0.587433
0.58743
0.587426
0.58742
0.587403
0.587257
0.589359
0.589384
0.589397
0.589397
0.589389
0.589376
0.589358
0.589334
0.589303
0.589261
0.588371
0.588383
0.588386
0.588377
0.58836
0.588335
0.588306
0.588279
0.588258
0.588246
0.588881
0.588933
0.588956
0.588948
0.588911
0.58885
0.588773
0.588691
0.588615
0.588554
0.588495
0.588574
0.588605
0.588586
0.588518
0.58841
0.588276
0.588137
0.588014
0.587927
0.588273
0.588404
0.588458
0.58843
0.588322
0.588147
0.587928
0.587694
0.58748
0.587327
0.588828
0.589021
0.589097
0.589058
0.588906
0.58866
0.588348
0.588011
0.587702
0.58746
0.587733
0.587958
0.588052
0.587998
0.587801
0.58748
0.587069
0.586628
0.586211
0.585916
0.589295
0.589597
0.589706
0.589649
0.589421
0.589044
0.588558
0.588016
0.587504
0.587094
0.586554
0.586796
0.586922
0.586853
0.5866
0.586184
0.58564
0.585045
0.584466
0.584109
0.586932
0.587054
0.587058
0.58706
0.587059
0.587058
0.587057
0.587054
0.587044
0.586921
0.589386
0.589412
0.589423
0.589424
0.589419
0.58941
0.589396
0.589377
0.589348
0.5893
0.588013
0.588016
0.588016
0.58801
0.587999
0.587985
0.58797
0.587958
0.587949
0.587949
0.588787
0.588819
0.588832
0.588828
0.588805
0.588769
0.588723
0.588675
0.58863
0.588591
0.588317
0.588365
0.588385
0.588374
0.588332
0.588266
0.588184
0.5881
0.588025
0.587975
0.588127
0.588212
0.588248
0.58823
0.588162
0.588052
0.587913
0.587767
0.587633
0.587538
0.588644
0.588765
0.588812
0.588785
0.588687
0.58853
0.588334
0.588125
0.58794
0.587793
0.587321
0.587467
0.587531
0.587496
0.587367
0.587156
0.586888
0.586605
0.586337
0.586165
0.589236
0.589442
0.589515
0.589477
0.589325
0.589078
0.588762
0.588416
0.588097
0.587832
0.586048
0.586201
0.586288
0.586242
0.586073
0.585797
0.585439
0.585059
0.584689
0.584496
0.586266
0.586361
0.586363
0.586364
0.586364
0.586365
0.586366
0.586366
0.586364
0.586268
0.589609
0.589636
0.589644
0.589645
0.589642
0.589634
0.589624
0.589608
0.589582
0.589527
0.587738
0.58774
0.587742
0.587741
0.587735
0.587727
0.587717
0.587708
0.587701
0.587704
0.588755
0.588771
0.588776
0.588771
0.588757
0.588736
0.588712
0.588686
0.588664
0.588643
0.588245
0.588276
0.58829
0.588284
0.588259
0.588219
0.588169
0.588117
0.588071
0.588039
0.588108
0.588163
0.588186
0.588176
0.588134
0.588065
0.587979
0.587888
0.587803
0.587742
0.588564
0.588634
0.588661
0.588642
0.58858
0.588481
0.588361
0.588237
0.588132
0.58805
0.58712
0.587219
0.587265
0.587244
0.587161
0.587025
0.586852
0.586668
0.586488
0.586382
0.589442
0.589575
0.589621
0.589595
0.589496
0.589337
0.589138
0.588925
0.588736
0.588562
0.585292
0.585386
0.585447
0.585417
0.585307
0.585128
0.584896
0.584657
0.584414
0.58432
0.584971
0.585036
0.58504
0.585042
0.585044
0.585044
0.585044
0.585043
0.585043
0.584975
0.590167
0.590184
0.590181
0.590176
0.590171
0.590167
0.590165
0.590161
0.59015
0.590098
0.587661
0.587674
0.587687
0.587692
0.587692
0.587685
0.587673
0.587658
0.58764
0.587628
0.588756
0.588758
0.588756
0.588749
0.58874
0.588728
0.588716
0.588706
0.588702
0.588698
0.588263
0.588285
0.588296
0.588293
0.588278
0.588253
0.588221
0.588188
0.588157
0.588133
0.588185
0.588221
0.588237
0.588231
0.588205
0.588161
0.588106
0.588048
0.587993
0.58795
0.588566
0.588604
0.588618
0.588604
0.588563
0.588501
0.588427
0.588353
0.588296
0.588257
0.587286
0.587363
0.587399
0.587388
0.587334
0.587244
0.587128
0.587003
0.58687
0.586783
0.590035
0.59011
0.590135
0.590114
0.590048
0.589945
0.589819
0.589691
0.58959
0.589493
0.58401
0.584074
0.584118
0.584098
0.584025
0.583906
0.583754
0.583597
0.583427
0.583381
0.583148
0.583189
0.583201
0.583209
0.583211
0.583209
0.583201
0.583189
0.583172
0.583117
0.591092
0.591064
0.591034
0.591015
0.591006
0.591007
0.591018
0.591041
0.591074
0.591084
0.587845
0.587881
0.587904
0.587917
0.587919
0.587912
0.587897
0.587872
0.587836
0.587792
0.588746
0.588738
0.588731
0.588724
0.588716
0.588709
0.588703
0.588701
0.588708
0.58872
0.588319
0.588337
0.588345
0.588344
0.588333
0.588316
0.588293
0.588268
0.588244
0.588224
0.588282
0.588309
0.58832
0.588316
0.588296
0.588265
0.588226
0.588184
0.588145
0.588113
0.588588
0.588611
0.588619
0.588608
0.588578
0.588533
0.58848
0.588429
0.588393
0.588379
0.587806
0.587878
0.587909
0.587902
0.587863
0.587796
0.58771
0.587614
0.587505
0.587406
0.590994
0.591022
0.591033
0.591014
0.590964
0.590888
0.590798
0.590714
0.590668
0.590666
0.582324
0.582382
0.582415
0.5824
0.582345
0.582256
0.582144
0.582028
0.5819
0.581859
0.439194
0.418443
0.425349
0.466308
0.391419
0.368182
0.379223
0.436459
0.348231
0.321084
0.338422
0.417345
0.310161
0.280764
0.305098
0.406424
0.278682
0.248616
0.280183
0.404009
0.251579
0.222061
0.261895
0.40119
0.229862
0.202216
0.250839
0.39855
0.209477
0.185357
0.242816
0.396452
0.191534
0.173507
0.239231
0.39808
0.172073
0.162196
0.234918
0.393581
0.499275
0.489076
0.489402
0.499117
0.468783
0.456168
0.457313
0.469991
0.437906
0.421185
0.423395
0.440968
0.408884
0.387918
0.391512
0.414232
0.384223
0.358758
0.364015
0.392079
0.362176
0.331827
0.337875
0.371202
0.344295
0.308957
0.314839
0.353261
0.327853
0.287716
0.293149
0.336562
0.31431
0.270139
0.275116
0.322923
0.29895
0.252353
0.254943
0.30528
0.566674
0.564458
0.563928
0.565062
0.548912
0.545215
0.54452
0.546822
0.528925
0.523029
0.522221
0.526557
0.506686
0.498418
0.497618
0.504452
0.485687
0.474965
0.474337
0.484071
0.46461
0.451303
0.450893
0.463637
0.445672
0.429697
0.429464
0.445154
0.427036
0.408516
0.408426
0.426881
0.410774
0.390573
0.390528
0.410907
0.391859
0.372145
0.371377
0.391283
0.579137
0.578053
0.577704
0.578055
0.569503
0.568091
0.567601
0.567965
0.557643
0.555158
0.554441
0.555342
0.54287
0.53908
0.538174
0.539899
0.528434
0.523194
0.522176
0.52503
0.512869
0.506054
0.504979
0.509224
0.498266
0.489804
0.488712
0.49455
0.482952
0.47292
0.471867
0.479375
0.468727
0.457749
0.456744
0.465553
0.450886
0.440954
0.43969
0.448038
0.586003
0.585412
0.585212
0.585401
0.580172
0.579691
0.579461
0.579471
0.572692
0.571752
0.571329
0.5714
0.562589
0.560953
0.5603
0.560568
0.552631
0.550127
0.549254
0.549885
0.541336
0.537821
0.536753
0.537931
0.530604
0.525991
0.524772
0.526682
0.518821
0.513131
0.511831
0.51462
0.507648
0.501306
0.500002
0.503575
0.492896
0.487695
0.486264
0.489284
0.58858
0.588104
0.587958
0.588144
0.585132
0.58492
0.584811
0.584803
0.580046
0.579625
0.579409
0.579391
0.572823
0.572061
0.571684
0.571677
0.565769
0.564538
0.563969
0.564024
0.557452
0.555625
0.554851
0.555048
0.549623
0.547107
0.546141
0.546588
0.540725
0.537502
0.536395
0.537213
0.5323
0.528629
0.527483
0.528709
0.520389
0.517836
0.516614
0.517172
0.589704
0.589272
0.589149
0.589337
0.58782
0.587727
0.587676
0.587667
0.584283
0.584087
0.58398
0.583961
0.578914
0.578544
0.578342
0.578305
0.573711
0.57309
0.572761
0.572713
0.56736
0.566403
0.565918
0.565877
0.561518
0.560152
0.559499
0.559508
0.55472
0.552913
0.552118
0.552249
0.548558
0.54644
0.545586
0.545907
0.538883
0.537881
0.53698
0.536539
0.590035
0.589618
0.589504
0.589693
0.589162
0.589114
0.589088
0.589082
0.5867
0.586603
0.586548
0.586536
0.582685
0.582493
0.582384
0.582358
0.578787
0.578458
0.578272
0.578226
0.573826
0.573306
0.573017
0.572952
0.569388
0.568629
0.568221
0.568147
0.56411
0.563087
0.562568
0.562519
0.559699
0.558473
0.557888
0.557907
0.551657
0.551563
0.550966
0.550184
0.589989
0.589578
0.589467
0.589658
0.589778
0.589752
0.589737
0.589733
0.588059
0.588008
0.587979
0.587972
0.585062
0.584958
0.584898
0.584881
0.582141
0.581961
0.581856
0.581824
0.57825
0.577959
0.57779
0.577739
0.574885
0.574453
0.574205
0.574136
0.570739
0.570152
0.569827
0.569754
0.567593
0.566879
0.566499
0.566442
0.560774
0.561202
0.560837
0.559981
0.589763
0.589353
0.589244
0.589435
0.589975
0.589959
0.589949
0.589946
0.588759
0.588731
0.588715
0.588711
0.586544
0.586484
0.586449
0.586438
0.58436
0.584258
0.584196
0.584176
0.581315
0.581147
0.581047
0.581012
0.578811
0.578559
0.578409
0.578359
0.575529
0.575187
0.574987
0.574927
0.573322
0.5729
0.572661
0.572602
0.567445
0.568158
0.56795
0.567115
0.589464
0.589054
0.588944
0.589137
0.589945
0.589935
0.589928
0.589925
0.589052
0.589036
0.589027
0.589025
0.587445
0.587409
0.587388
0.58738
0.585815
0.585754
0.585718
0.585705
0.583443
0.583343
0.583282
0.58326
0.581638
0.581487
0.581394
0.581361
0.579012
0.578808
0.578685
0.578643
0.577543
0.577289
0.57714
0.577096
0.572397
0.573251
0.573142
0.572355
0.589149
0.588736
0.588627
0.588821
0.589803
0.589796
0.58979
0.589787
0.589094
0.589086
0.589081
0.589079
0.587971
0.587949
0.587935
0.58793
0.586744
0.586708
0.586686
0.586678
0.584907
0.584847
0.584809
0.584794
0.583673
0.58358
0.583522
0.5835
0.58153
0.581407
0.581331
0.581303
0.580669
0.580513
0.580421
0.580392
0.576091
0.576998
0.576948
0.576216
0.588845
0.588429
0.58832
0.588516
0.589621
0.589615
0.58961
0.589607
0.588985
0.588981
0.588979
0.588978
0.588262
0.588247
0.588238
0.588234
0.587315
0.587294
0.587281
0.587276
0.585899
0.585862
0.585838
0.585829
0.585129
0.58507
0.585033
0.585019
0.583321
0.583246
0.583199
0.583181
0.582984
0.582885
0.582828
0.582812
0.578838
0.579743
0.579726
0.579052
0.588563
0.588144
0.588036
0.588234
0.589445
0.589438
0.589433
0.58943
0.588786
0.588785
0.588785
0.588785
0.588411
0.588401
0.588395
0.588391
0.587644
0.587632
0.587625
0.587622
0.586559
0.586535
0.58652
0.586514
0.58616
0.586122
0.586099
0.586091
0.584555
0.584509
0.58448
0.584468
0.584693
0.584629
0.584594
0.584586
0.580863
0.581728
0.581729
0.581116
0.588297
0.587876
0.58777
0.587972
0.589306
0.589299
0.589293
0.58929
0.588534
0.588535
0.588535
0.588536
0.588485
0.588478
0.588473
0.588471
0.587819
0.587812
0.587808
0.587807
0.586991
0.586976
0.586967
0.586962
0.586883
0.586859
0.586845
0.58684
0.585362
0.585334
0.585316
0.585309
0.585958
0.585915
0.585894
0.585893
0.582328
0.583125
0.583134
0.582586
0.588017
0.587595
0.587494
0.5877
0.589233
0.589225
0.589218
0.589214
0.58825
0.588251
0.588253
0.588254
0.58853
0.588524
0.58852
0.588519
0.587906
0.587903
0.5879
0.5879
0.587283
0.587273
0.587266
0.587264
0.587389
0.587375
0.587366
0.587364
0.585848
0.585831
0.58582
0.585814
0.586913
0.586883
0.58687
0.586874
0.583333
0.584038
0.584048
0.583573
0.587625
0.587207
0.587114
0.587324
0.589265
0.589254
0.589246
0.589242
0.587957
0.587959
0.587961
0.587962
0.588575
0.588571
0.588568
0.588568
0.587961
0.587959
0.587958
0.587957
0.587506
0.587498
0.587494
0.587492
0.587752
0.587746
0.587742
0.587741
0.586122
0.58611
0.586102
0.586098
0.587686
0.587663
0.587656
0.587665
0.583889
0.584481
0.584489
0.584096
0.586895
0.586493
0.586414
0.586626
0.589479
0.589465
0.589456
0.589452
0.587709
0.58771
0.587711
0.587711
0.588636
0.588634
0.588634
0.588634
0.588027
0.588025
0.588024
0.588024
0.587715
0.587708
0.587705
0.587704
0.588036
0.588035
0.588035
0.588035
0.586338
0.586325
0.586318
0.586315
0.588442
0.588423
0.588419
0.588432
0.583875
0.584331
0.584335
0.584032
0.585482
0.585128
0.585072
0.585268
0.590039
0.590023
0.590015
0.590016
0.587611
0.587607
0.587604
0.587601
0.588704
0.588706
0.588708
0.58871
0.588119
0.588116
0.588115
0.588114
0.587925
0.587919
0.587916
0.587916
0.588267
0.588272
0.588274
0.588274
0.586695
0.586674
0.586665
0.586667
0.589417
0.589404
0.589404
0.58942
0.583063
0.583352
0.58335
0.583156
0.583412
0.583191
0.583165
0.58329
0.591056
0.59105
0.591054
0.591068
0.587728
0.587714
0.587705
0.587699
0.588744
0.588749
0.588754
0.588757
0.588207
0.588203
0.588202
0.588201
0.588089
0.588083
0.588081
0.588082
0.588411
0.588418
0.588421
0.58842
0.587243
0.587205
0.587194
0.587207
0.590738
0.590749
0.590756
0.59076
0.581582
0.581656
0.581651
0.581608
0.595272
0.603731
0.607733
0.610836
0.61396
0.616717
0.618955
0.620703
0.622069
0.623215
0.5962
0.599537
0.606958
0.612007
0.616472
0.619859
0.622322
0.624087
0.625331
0.626274
0.600056
0.596413
0.607396
0.613111
0.618393
0.621989
0.624556
0.626379
0.627632
0.628523
0.603465
0.592533
0.607146
0.612718
0.618577
0.622126
0.624681
0.626459
0.627676
0.62854
0.607949
0.590515
0.607887
0.613186
0.61949
0.62289
0.625417
0.627112
0.62824
0.629024
0.611027
0.587851
0.607621
0.612447
0.619204
0.62242
0.624962
0.626608
0.627742
0.628567
0.61502
0.58658
0.608438
0.61255
0.619712
0.622665
0.625223
0.626812
0.627919
0.62872
0.616582
0.583523
0.607439
0.610782
0.618454
0.621208
0.623929
0.625603
0.62691
0.627947
0.61824
0.582035
0.607883
0.609892
0.617707
0.619995
0.622945
0.624767
0.626277
0.627506
0.602692
0.566168
0.594662
0.597017
0.606704
0.610575
0.615224
0.618338
0.620902
0.622923
0.537851
0.559919
0.576266
0.587893
0.595857
0.6014
0.605407
0.608399
0.610707
0.612626
0.524137
0.554682
0.576767
0.590715
0.599568
0.605558
0.609801
0.612876
0.615119
0.616782
0.51387
0.551548
0.577869
0.592885
0.602338
0.608601
0.612989
0.616131
0.618367
0.619962
0.505479
0.548513
0.578038
0.593376
0.603234
0.609574
0.613972
0.617077
0.619268
0.620821
0.501017
0.54769
0.579298
0.594687
0.604835
0.611126
0.615467
0.618474
0.620563
0.622026
0.497816
0.546612
0.579705
0.594861
0.605249
0.61142
0.615704
0.618626
0.620676
0.622141
0.497413
0.547038
0.581205
0.595836
0.606389
0.612338
0.616546
0.61937
0.62136
0.622786
0.496613
0.546085
0.581155
0.595088
0.605833
0.611568
0.615803
0.618646
0.620758
0.622357
0.4971
0.546402
0.58233
0.595006
0.605547
0.61081
0.615142
0.618103
0.620384
0.622169
0.488014
0.536365
0.573044
0.585233
0.596796
0.603078
0.608601
0.612493
0.615535
0.617804
0.568966
0.575241
0.581318
0.586694
0.591278
0.595111
0.598285
0.600906
0.603098
0.60499
0.555726
0.567119
0.577305
0.585631
0.592299
0.597547
0.601642
0.604824
0.607286
0.609161
0.542639
0.559813
0.574182
0.58507
0.59338
0.59963
0.604337
0.607886
0.61054
0.612486
0.529481
0.552386
0.570739
0.583734
0.593317
0.600228
0.605288
0.609019
0.611769
0.613759
0.519554
0.547527
0.569311
0.583889
0.59439
0.601687
0.606916
0.610695
0.613442
0.615405
0.510705
0.542992
0.567717
0.58342
0.594595
0.602097
0.607406
0.611188
0.613939
0.615924
0.504675
0.540465
0.567642
0.58403
0.595661
0.603197
0.60851
0.612249
0.614972
0.616936
0.49898
0.537427
0.56667
0.583371
0.59532
0.602806
0.608149
0.611915
0.614731
0.616829
0.495269
0.536084
0.567063
0.583431
0.595267
0.602469
0.60787
0.611735
0.614682
0.61693
0.485178
0.527191
0.559376
0.575687
0.588222
0.596149
0.602367
0.606896
0.610376
0.612901
0.578777
0.581186
0.584091
0.587039
0.589817
0.592329
0.594551
0.596493
0.598207
0.599767
0.57
0.574766
0.58018
0.585323
0.589859
0.593718
0.59694
0.599594
0.60175
0.603454
0.559478
0.567556
0.575966
0.583389
0.58961
0.594678
0.598752
0.601991
0.604526
0.606456
0.547161
0.559263
0.571007
0.580689
0.588444
0.594508
0.59923
0.602888
0.605697
0.6078
0.536466
0.55286
0.567887
0.579576
0.588611
0.595422
0.600584
0.604493
0.607449
0.609627
0.525847
0.546549
0.564698
0.578092
0.588173
0.595529
0.600995
0.605065
0.608126
0.610386
0.517312
0.542139
0.563137
0.577881
0.588764
0.596465
0.60211
0.606257
0.609365
0.611649
0.508934
0.537519
0.561059
0.576788
0.588267
0.596168
0.60195
0.606189
0.609403
0.611807
0.502417
0.534632
0.560372
0.576505
0.588184
0.596066
0.601961
0.606308
0.60963
0.612153
0.491517
0.526329
0.553519
0.570039
0.582358
0.590805
0.597275
0.602094
0.605786
0.608435
0.585269
0.586031
0.587195
0.588561
0.589995
0.591412
0.592758
0.594012
0.595192
0.596345
0.579932
0.581788
0.584306
0.587029
0.5897
0.592182
0.594409
0.596355
0.59801
0.599368
0.572393
0.575796
0.580104
0.584492
0.588583
0.592209
0.595324
0.597937
0.600076
0.601771
0.562576
0.568187
0.574755
0.581013
0.586564
0.591279
0.59519
0.598377
0.600932
0.602915
0.553454
0.561742
0.570801
0.578935
0.58585
0.591501
0.596047
0.599661
0.602505
0.604674
0.543656
0.554947
0.566604
0.576523
0.584662
0.591093
0.596143
0.600081
0.603151
0.605484
0.535204
0.549682
0.563912
0.575424
0.584601
0.591632
0.597049
0.601207
0.604422
0.606843
0.526508
0.544197
0.560874
0.573721
0.583732
0.591202