/*--------------------------------*- C++ -*----------------------------------*\
| =========                 |                                                 |
| \\      /  F ield         | foam-extend: Open Source CFD                    |
|  \\    /   O peration     | Version:     4.0                                |
|   \\  /    A nd           | Web:         http://www.foam-extend.org         |
|    \\/     M anipulation  |                                                 |
\*---------------------------------------------------------------------------*/
FoamFile
{
    version     2.0;
    format      ascii;
    class       volScalarField;
    location    "1850";
    object      mut;
}
// * * * * * * * * * * * * * * * * * * * * * * * * * * * * * * * * * * * * * //

dimensions      [1 -1 -1 0 0 0 0];

internalField   nonuniform List<scalar> 
34480
(
0.00188845
0.00188719
0.00188703
0.00188786
0.00188998
0.00189388
0.00190142
0.00191968
0.00195894
0.00203019
0.0159255
0.0151171
0.0148174
0.0145475
0.0129256
0.00824348
0.00340679
0.00134828
0.00098483
0.0014549
0.0442675
0.0426091
0.0409214
0.0374766
0.0286678
0.0146799
0.00511791
0.0018284
0.00124083
0.00181175
0.0484168
0.0462587
0.0443173
0.040278
0.0297052
0.0141587
0.00479265
0.00177539
0.00128735
0.00197762
0.0477396
0.0453192
0.0435539
0.0397125
0.0288459
0.0131868
0.00440778
0.0016844
0.00129892
0.00209665
0.0459906
0.0435056
0.0418446
0.0380577
0.026832
0.0116132
0.00385724
0.0015532
0.00130539
0.00222428
0.043861
0.0415373
0.0400768
0.0364626
0.0252665
0.0105498
0.00349337
0.00146103
0.00131292
0.0023339
0.0364085
0.0347158
0.0336858
0.030938
0.0214224
0.00863692
0.00281157
0.00123969
0.00123616
0.00234088
0.0124291
0.0121092
0.0120059
0.0117292
0.00993078
0.00512519
0.00167714
0.000736738
0.000834383
0.00178653
0.00180103
0.00180093
0.0018026
0.00180587
0.00181065
0.00181676
0.00182479
0.00183603
0.00185259
0.00181388
0.00188849
0.00188663
0.00188603
0.00188655
0.00188841
0.00189186
0.00189736
0.00190682
0.00192452
0.00196535
0.0149579
0.0143225
0.0141303
0.0143136
0.0147247
0.0147739
0.0129471
0.00764431
0.00249482
0.00204513
0.0407427
0.039514
0.0388473
0.0383095
0.0366963
0.0319855
0.0230045
0.0112944
0.00328111
0.00280216
0.0448193
0.0431495
0.0423455
0.0417724
0.0399297
0.0344315
0.0242058
0.0114383
0.00330048
0.0031694
0.0446535
0.0426957
0.0419494
0.0415907
0.0401075
0.0348369
0.0244528
0.0112832
0.00323794
0.00345067
0.0434391
0.0413709
0.0406426
0.0404181
0.0392035
0.0342087
0.0239567
0.0108485
0.00316559
0.00378178
0.0418347
0.0398492
0.0392113
0.0390708
0.0380941
0.0334638
0.0235365
0.0105527
0.00312919
0.00409828
0.0351436
0.0336703
0.0332009
0.033183
0.032674
0.0293588
0.0210935
0.00938395
0.00285461
0.00417095
0.0123675
0.0120602
0.0119989
0.0120567
0.0121869
0.01203
0.0106116
0.00545476
0.00170694
0.00280127
0.00179645
0.00179399
0.00179349
0.00179468
0.00179747
0.00180158
0.00180775
0.00181758
0.00184185
0.00188916
0.001884
0.00188239
0.00188186
0.00188232
0.00188391
0.00188668
0.00189067
0.00189666
0.0019056
0.00191913
0.0140616
0.0136449
0.0135105
0.013661
0.0140999
0.0147405
0.0151429
0.0142154
0.0101114
0.0058369
0.0372109
0.0362427
0.0359038
0.0360499
0.0363669
0.0359475
0.0330144
0.0253632
0.0133436
0.00709914
0.0410813
0.0397765
0.0393458
0.0395715
0.0400685
0.0397166
0.036197
0.0266177
0.01254
0.00720377
0.04131
0.0397935
0.0393771
0.0397166
0.0405209
0.0406518
0.037361
0.0266926
0.0114198
0.00717597
0.0405686
0.0389599
0.0385234
0.038927
0.0399558
0.0405752
0.0376968
0.0261766
0.0103054
0.00724782
0.0394626
0.0378948
0.0375014
0.0379092
0.0390408
0.0400198
0.0376501
0.0255303
0.00938152
0.00733177
0.0336218
0.0324577
0.032148
0.032465
0.033406
0.0345675
0.033414
0.0226403
0.00796982
0.0070433
0.0122606
0.0120051
0.0119607
0.0120212
0.0122171
0.0124497
0.0126051
0.010647
0.00448917
0.00445706
0.00178913
0.00178622
0.00178535
0.00178624
0.00178893
0.00179328
0.00180031
0.00181213
0.00183887
0.00189238
0.00187582
0.00187469
0.00187431
0.00187466
0.00187582
0.00187769
0.00188001
0.00188309
0.00188704
0.00189172
0.0134711
0.0132229
0.0131319
0.0132278
0.013519
0.0139751
0.0144495
0.014865
0.0145949
0.0128622
0.0340383
0.0333544
0.0331586
0.0333608
0.033927
0.0346061
0.0346327
0.0324114
0.0256869
0.0173826
0.0376438
0.0367019
0.0364331
0.0367243
0.037533
0.0385399
0.0385993
0.0352942
0.0257933
0.0167222
0.0381904
0.0370971
0.0368283
0.0371849
0.038198
0.0395791
0.0399746
0.0361452
0.0246348
0.0158808
0.0378691
0.0366922
0.03639
0.0367858
0.0379456
0.0396896
0.0405395
0.0363519
0.0231439
0.0153346
0.0372089
0.0360328
0.0357513
0.0361397
0.0373428
0.0392827
0.0405168
0.036061
0.0215255
0.0148462
0.032206
0.0313238
0.0310934
0.0313804
0.0322882
0.0339194
0.0354077
0.0320002
0.01853
0.0137243
0.0121947
0.0119842
0.0119516
0.0119979
0.0121469
0.0123375
0.0125445
0.0126733
0.00958918
0.00832027
0.00178022
0.00177717
0.00177616
0.00177697
0.00177968
0.00178434
0.00179194
0.00180464
0.00183079
0.00187814
0.00186474
0.00186405
0.00186382
0.00186406
0.00186481
0.00186593
0.00186711
0.00186854
0.00187012
0.00187159
0.0131888
0.0130514
0.0129912
0.0130508
0.0132305
0.0134912
0.0137223
0.0140113
0.0142927
0.0144153
0.0315052
0.0311039
0.0309972
0.0311222
0.0315058
0.0321203
0.032808
0.0330908
0.0316399
0.0274615
0.0347719
0.0341691
0.0339996
0.0341953
0.034791
0.0357763
0.036878
0.0371102
0.0340968
0.0274698
0.0355143
0.0347902
0.0346136
0.0348543
0.035598
0.0368645
0.0383261
0.0385837
0.0342346
0.026305
0.0355126
0.0347014
0.034486
0.0347621
0.0356226
0.0371633
0.039048
0.0394582
0.03383
0.0253959
0.0352031
0.0343587
0.0341505
0.034427
0.0353304
0.0370021
0.039154
0.0396404
0.0328236
0.0244444
0.0309617
0.0303137
0.0301381
0.030346
0.031016
0.0323216
0.0341946
0.0350303
0.0289309
0.022295
0.0121765
0.0120029
0.0119792
0.0120107
0.0121122
0.0122303
0.0123011
0.0126967
0.012575
0.0122125
0.00176988
0.00176681
0.00176574
0.00176649
0.00176916
0.00177391
0.00178155
0.00179392
0.00181664
0.00185326
0.00185131
0.00185096
0.00185084
0.00185099
0.00185143
0.001852
0.00185252
0.00185311
0.00185368
0.00185407
0.0131468
0.0130804
0.0130427
0.0130817
0.0131936
0.0133322
0.0134242
0.0135394
0.0136594
0.0137514
0.0297467
0.0295532
0.0295053
0.0295652
0.0297587
0.0300875
0.0305433
0.031095
0.0314189
0.0310582
0.0326049
0.0322638
0.0321648
0.0322719
0.0326178
0.0332409
0.0341518
0.0351933
0.0354809
0.0339463
0.0333872
0.0329491
0.0328412
0.0329802
0.0334349
0.0342676
0.0355102
0.0369064
0.0369223
0.034066
0.0335733
0.0330495
0.0329032
0.0330749
0.0336301
0.0346838
0.0363075
0.0381519
0.0378603
0.0338498
0.033498
0.0329221
0.0327751
0.0329538
0.0335599
0.0347309
0.0365766
0.0386906
0.0379517
0.0331024
0.0299089
0.0294534
0.0293257
0.0294661
0.0299199
0.0308156
0.0322749
0.0342176
0.0337688
0.029956
0.0122095
0.0120671
0.0120519
0.0120719
0.0121355
0.0121884
0.0121408
0.0123358
0.0127477
0.0136393
0.00175795
0.00175499
0.00175391
0.0017546
0.00175716
0.00176176
0.00176901
0.00178028
0.00179875
0.00182522
0.00183591
0.00183579
0.00183575
0.00183584
0.00183607
0.00183629
0.00183648
0.00183667
0.00183685
0.00183689
0.013269
0.0132501
0.0132295
0.0132561
0.0133254
0.0133887
0.0134285
0.0134711
0.0135021
0.0134923
0.0286856
0.0286085
0.0285932
0.0286182
0.0287005
0.028835
0.0290275
0.0292925
0.0295743
0.0297925
0.0311274
0.03095
0.0308956
0.0309482
0.0311265
0.0314514
0.0319523
0.0326496
0.03335
0.0337457
0.0318255
0.0315793
0.0315183
0.031591
0.0318416
0.032305
0.033041
0.0341
0.0350961
0.0353907
0.0320805
0.0317603
0.0316657
0.0317652
0.0320959
0.0327278
0.0337633
0.0353042
0.0366638
0.0367241
0.0321315
0.031756
0.0316572
0.0317651
0.0321457
0.0328815
0.0341056
0.0359726
0.0374832
0.0371067
0.029075
0.0287678
0.0286794
0.028769
0.0290577
0.0296183
0.0305427
0.0321157
0.0335599
0.0335494
0.0123022
0.0121848
0.012177
0.0121882
0.0122227
0.0122214
0.0121002
0.0121036
0.0122907
0.012986
0.00174429
0.00174153
0.0017405
0.00174113
0.0017435
0.00174775
0.00175429
0.00176402
0.00177843
0.00179699
0.00181876
0.00181879
0.0018188
0.00181885
0.00181894
0.00181899
0.00181903
0.00181906
0.00181907
0.00181899
0.0134975
0.0135132
0.0135063
0.0135247
0.013565
0.0135902
0.0136096
0.0136262
0.013627
0.0135852
0.028128
0.028106
0.028106
0.0281161
0.0281469
0.0281922
0.0282572
0.0283459
0.0284435
0.028528
0.0302025
0.0301135
0.0300843
0.0301092
0.0301971
0.0303548
0.0305929
0.0309234
0.0312983
0.0316313
0.0307573
0.0306259
0.0305937
0.0306294
0.0307598
0.0309969
0.0313682
0.031916
0.0325587
0.0331303
0.0310013
0.0308139
0.0307553
0.0308102
0.030998
0.0313512
0.0319236
0.0328133
0.0338846
0.0348229
0.0310984
0.0308625
0.030799
0.0308609
0.0310896
0.0315238
0.0322368
0.0333893
0.0347772
0.0359142
0.0284642
0.0282653
0.0282072
0.0282614
0.0284347
0.0287598
0.0292748
0.0302078
0.0314671
0.0327032
0.0124609
0.0123626
0.0123611
0.0123659
0.0123788
0.0123357
0.0121787
0.0120716
0.0120517
0.0123143
0.00172879
0.00172631
0.00172537
0.00172593
0.00172805
0.0017318
0.00173744
0.00174547
0.00175635
0.00176914
0.00179999
0.00180009
0.00180014
0.00180016
0.00180018
0.00180016
0.00180014
0.0018001
0.00180006
0.00179995
0.0137983
0.0138413
0.0138459
0.0138587
0.0138771
0.013888
0.0138989
0.0139055
0.0138957
0.013843
0.0278882
0.0278901
0.0278965
0.0279009
0.0279103
0.0279226
0.0279411
0.0279649
0.0279881
0.0280029
0.0296647
0.0296194
0.0296034
0.0296154
0.0296595
0.0297367
0.0298486
0.029995
0.0301551
0.0302902
0.0300722
0.0300036
0.0299874
0.0300044
0.0300709
0.030189
0.0303671
0.0306169
0.0309103
0.0311776
0.0302672
0.0301605
0.0301253
0.0301549
0.030259
0.0304503
0.0307498
0.0311968
0.0317568
0.0323099
0.0303625
0.0302181
0.0301786
0.0302129
0.0303468
0.0305947
0.0309875
0.031602
0.0323941
0.0331915
0.0280627
0.0279387
0.0279026
0.0279337
0.0280311
0.0282043
0.0284634
0.0289347
0.0296387
0.0304971
0.0126904
0.012606
0.0126098
0.0126102
0.0126072
0.0125348
0.0123684
0.0122143
0.012088
0.0121467
0.00171135
0.00170921
0.00170838
0.00170886
0.00171069
0.00171386
0.00171853
0.00172489
0.00173287
0.00174153
0.00177963
0.00177976
0.00177982
0.00177983
0.00177982
0.00177978
0.00177974
0.00177969
0.00177964
0.00177952
0.0141698
0.0142229
0.0142378
0.0142464
0.0142528
0.01426
0.0142668
0.0142687
0.014254
0.0141959
0.0278362
0.0278456
0.0278544
0.0278568
0.0278585
0.027861
0.0278648
0.027869
0.0278705
0.0278662
0.0293736
0.0293491
0.0293399
0.0293461
0.0293693
0.0294095
0.0294655
0.0295339
0.0296038
0.0296564
0.0296583
0.0296221
0.0296139
0.0296221
0.0296567
0.0297166
0.0298033
0.0299169
0.0300431
0.0301478
0.0297967
0.0297367
0.0297158
0.0297318
0.0297893
0.0298923
0.0300478
0.0302656
0.0305298
0.0307774
0.0298698
0.0297822
0.0297582
0.0297769
0.0298547
0.0299949
0.0302086
0.0305231
0.0309176
0.0312937
0.0278433
0.0277684
0.0277475
0.0277642
0.0278145
0.0278955
0.0280116
0.0282239
0.028553
0.0289704
0.012995
0.0129204
0.0129286
0.012926
0.0129113
0.0128221
0.0126629
0.0125008
0.0123353
0.0123338
0.0016919
0.00169013
0.00168943
0.00168984
0.00169135
0.00169393
0.00169764
0.0017025
0.00170819
0.00171395
0.00175767
0.00175779
0.00175785
0.00175785
0.00175784
0.00175781
0.00175777
0.00175772
0.00175767
0.00175755
0.0146082
0.0146652
0.0146833
0.0146902
0.0146952
0.0147003
0.0147046
0.0147037
0.0146861
0.0146238
0.0278889
0.0278997
0.0279078
0.02791
0.0279105
0.0279105
0.0279105
0.0279096
0.0279057
0.0278969
0.0292284
0.029214
0.0292083
0.0292118
0.029225
0.0292475
0.0292778
0.0293131
0.029347
0.0293699
0.0294226
0.0294024
0.0293979
0.0294022
0.0294211
0.0294534
0.0294983
0.0295533
0.0296104
0.029654
0.0295126
0.0294787
0.0294663
0.0294751
0.0295073
0.0295636
0.0296456
0.0297534
0.0298781
0.0299896
0.029561
0.0295073
0.0294927
0.0295032
0.029549
0.0296291
0.029747
0.0299099
0.0301031
0.0302728
0.0277715
0.0277273
0.0277164
0.0277247
0.0277471
0.027776
0.0278189
0.0279018
0.0280371
0.0282311
0.0133795
0.0133114
0.0133236
0.0133189
0.013295
0.0132014
0.0130593
0.0129103
0.0127428
0.0127417
0.00167042
0.00166901
0.00166845
0.00166877
0.00166997
0.00167199
0.00167484
0.00167842
0.00168238
0.00168615
0.00173403
0.00173414
0.0017342
0.0017342
0.00173419
0.00173416
0.00173413
0.00173409
0.00173405
0.00173394
0.0151183
0.015179
0.0151984
0.0152051
0.0152093
0.015213
0.0152156
0.0152129
0.015193
0.0151269
0.0279983
0.028009
0.0280163
0.0280185
0.0280188
0.0280185
0.0280178
0.0280159
0.0280111
0.0280015
0.0291637
0.0291547
0.0291512
0.0291532
0.0291611
0.0291744
0.0291919
0.0292116
0.0292299
0.0292412
0.0292962
0.0292839
0.029281
0.0292835
0.0292947
0.0293136
0.0293391
0.0293686
0.0293973
0.0294182
0.0293513
0.0293317
0.0293243
0.0293293
0.0293477
0.0293793
0.0294237
0.029479
0.0295401
0.0295943
0.0293812
0.0293474
0.0293383
0.0293446
0.0293724
0.0294196
0.0294869
0.0295747
0.0296727
0.0297546
0.0278113
0.0277859
0.0277813
0.0277848
0.0277915
0.0277951
0.0278035
0.0278271
0.0278726
0.0279705
0.0138505
0.0137868
0.013803
0.0137966
0.0137645
0.0136789
0.0135591
0.0134331
0.0132815
0.0133033
0.00164688
0.0016458
0.00164537
0.00164562
0.00164653
0.00164805
0.00165016
0.00165271
0.0016554
0.00165783
0.00170864
0.00170875
0.0017088
0.0017088
0.00170879
0.00170877
0.00170875
0.00170872
0.00170869
0.00170857
0.0157116
0.015776
0.0157965
0.0158032
0.0158068
0.0158095
0.0158108
0.0158067
0.0157851
0.0157151
0.0281383
0.0281486
0.0281549
0.028157
0.0281575
0.0281573
0.0281567
0.028155
0.0281504
0.0281407
0.0291406
0.029135
0.0291328
0.029134
0.0291387
0.0291466
0.0291569
0.0291684
0.029179
0.029185
0.0292327
0.0292246
0.0292224
0.029224
0.0292312
0.0292432
0.029259
0.0292766
0.0292929
0.0293047
0.0292652
0.0292536
0.029249
0.029252
0.0292629
0.0292811
0.0293059
0.0293355
0.0293669
0.0293957
0.0292852
0.0292631
0.0292573
0.0292615
0.029279
0.0293082
0.0293484
0.0293986
0.0294514
0.0294959
0.0279309
0.0279161
0.0279152
0.0279162
0.0279144
0.027909
0.0279036
0.0279031
0.0279108
0.0279688
0.0144188
0.0143579
0.0143783
0.0143703
0.014333
0.0142654
0.0141696
0.0140694
0.0139407
0.0139914
0.00162127
0.00162048
0.00162016
0.00162035
0.00162101
0.00162212
0.00162362
0.00162538
0.00162716
0.00162871
0.00168143
0.00168153
0.00168157
0.00168157
0.00168156
0.00168155
0.00168153
0.00168151
0.00168148
0.00168138
0.0164059
0.0164744
0.0164958
0.0165024
0.0165057
0.0165076
0.016508
0.016503
0.0164801
0.0164058
0.0282947
0.0283044
0.0283099
0.0283119
0.0283124
0.0283125
0.0283122
0.0283108
0.0283068
0.0282973
0.0291374
0.029134
0.0291328
0.0291334
0.0291361
0.0291406
0.0291465
0.0291531
0.0291594
0.0291629
0.0292032
0.0291975
0.0291956
0.0291967
0.0292016
0.0292098
0.0292202
0.0292316
0.0292419
0.0292493
0.029222
0.0292149
0.029212
0.0292139
0.0292204
0.0292312
0.0292456
0.029262
0.0292789
0.0292955
0.0292395
0.0292244
0.0292206
0.0292236
0.0292351
0.0292541
0.0292794
0.0293098
0.0293405
0.0293682
0.0281052
0.0280936
0.0280949
0.0280945
0.0280903
0.0280835
0.0280747
0.0280666
0.0280605
0.0281019
0.0151142
0.0150444
0.015067
0.0150572
0.0150282
0.014978
0.0149056
0.0148302
0.0147252
0.0148035
0.00159359
0.00159302
0.0015928
0.00159293
0.0015934
0.00159418
0.00159521
0.00159638
0.00159753
0.0015985
0.00165231
0.0016524
0.00165243
0.00165243
0.00165243
0.00165242
0.00165241
0.00165239
0.00165237
0.00165227
0.0172272
0.0173003
0.0173222
0.0173287
0.0173318
0.0173331
0.0173329
0.0173275
0.0173037
0.0172247
0.0284593
0.0284684
0.028473
0.0284748
0.0284754
0.0284757
0.0284757
0.0284748
0.0284715
0.0284624
0.0291426
0.0291407
0.0291401
0.0291405
0.0291418
0.0291441
0.0291472
0.0291508
0.0291545
0.0291567
0.0291906
0.0291865
0.0291849
0.0291856
0.029189
0.0291946
0.0292018
0.0292095
0.0292164
0.0292214
0.0292015
0.0291969
0.029195
0.0291961
0.0292001
0.0292067
0.0292152
0.0292246
0.0292342
0.0292443
0.0292208
0.0292101
0.0292075
0.0292098
0.0292177
0.0292305
0.029247
0.0292664
0.0292854
0.0293049
0.0283113
0.0283004
0.0283015
0.0283012
0.028298
0.0282926
0.0282848
0.0282763
0.0282669
0.0283007
0.0159629
0.0158856
0.0159024
0.0158962
0.0158768
0.0158424
0.0157917
0.0157383
0.0156551
0.0157563
0.00156383
0.00156345
0.0015633
0.00156339
0.00156371
0.00156423
0.00156492
0.00156567
0.00156638
0.00156698
0.00162125
0.00162133
0.00162135
0.00162135
0.00162135
0.00162135
0.00162134
0.00162132
0.0016213
0.00162121
0.0182124
0.0182906
0.0183128
0.0183189
0.0183221
0.018323
0.0183224
0.0183168
0.0182926
0.0182085
0.0286264
0.0286346
0.0286384
0.0286398
0.0286404
0.0286409
0.0286411
0.0286407
0.0286383
0.02863
0.0291503
0.0291495
0.0291492
0.0291494
0.0291499
0.0291509
0.0291522
0.029154
0.029156
0.0291576
0.0291853
0.0291823
0.029181
0.0291814
0.0291837
0.0291875
0.0291924
0.0291977
0.0292024
0.0292059
0.0291913
0.0291883
0.029187
0.0291876
0.0291901
0.0291941
0.0291992
0.0292048
0.0292103
0.0292167
0.0292139
0.0292064
0.0292045
0.0292063
0.0292118
0.0292205
0.0292314
0.029244
0.0292562
0.029271
0.0285303
0.0285199
0.0285206
0.0285206
0.0285188
0.0285155
0.0285103
0.028504
0.0284954
0.0285246
0.0170033
0.0169205
0.0169313
0.0169284
0.0169175
0.0168975
0.0168666
0.0168314
0.0167679
0.0168856
0.00153203
0.00153178
0.00153167
0.00153173
0.00153194
0.00153228
0.00153272
0.00153318
0.00153362
0.00153398
0.0015883
0.00158837
0.00158839
0.00158839
0.00158839
0.00158839
0.00158838
0.00158837
0.00158835
0.00158826
0.0194158
0.0194997
0.0195221
0.0195277
0.0195303
0.0195308
0.0195301
0.0195248
0.0195008
0.0194111
0.0287897
0.0287968
0.0287995
0.0288006
0.0288011
0.0288017
0.0288022
0.0288022
0.0288007
0.028794
0.0291575
0.0291572
0.0291573
0.0291573
0.0291574
0.0291576
0.029158
0.0291586
0.0291597
0.029161
0.029182
0.0291798
0.0291788
0.029179
0.0291804
0.0291829
0.0291862
0.0291897
0.0291929
0.0291955
0.0291848
0.0291828
0.0291819
0.0291822
0.0291837
0.0291861
0.0291891
0.0291924
0.0291957
0.0291997
0.0292091
0.0292039
0.0292026
0.0292039
0.0292076
0.0292133
0.0292204
0.0292285
0.0292363
0.0292476
0.0287445
0.028735
0.0287353
0.0287355
0.028735
0.0287336
0.0287309
0.0287273
0.0287208
0.028746
0.0182923
0.0182065
0.0182111
0.0182109
0.0182078
0.0182008
0.0181882
0.0181681
0.0181231
0.0182488
0.00149826
0.0014981
0.00149803
0.00149807
0.0014982
0.00149841
0.00149868
0.00149896
0.00149922
0.00149942
0.00155369
0.00155375
0.00155377
0.00155377
0.00155377
0.00155376
0.00155376
0.00155374
0.00155372
0.00155364
0.0209197
0.0210091
0.0210316
0.0210367
0.0210377
0.0210378
0.0210371
0.0210324
0.0210097
0.0209145
0.0289408
0.028946
0.0289476
0.0289481
0.0289485
0.0289491
0.0289498
0.0289503
0.02895
0.0289456
0.0291625
0.0291624
0.0291626
0.0291626
0.0291625
0.0291624
0.0291623
0.0291624
0.0291628
0.0291641
0.0291781
0.0291766
0.0291758
0.0291758
0.0291767
0.0291782
0.0291802
0.0291824
0.0291846
0.0291865
0.0291788
0.0291775
0.0291768
0.0291769
0.0291778
0.0291791
0.0291808
0.0291827
0.0291846
0.029187
0.0292002
0.0291967
0.0291959
0.0291967
0.029199
0.0292026
0.0292068
0.0292116
0.0292164
0.0292245
0.0289345
0.0289265
0.0289265
0.0289269
0.028927
0.0289268
0.0289259
0.0289243
0.0289201
0.0289408
0.0199133
0.019828
0.0198254
0.0198274
0.0198315
0.019837
0.0198424
0.0198357
0.0198104
0.0199328
0.00146272
0.00146262
0.00146257
0.0014626
0.00146268
0.0014628
0.00146297
0.00146313
0.0014633
0.0014634
0.00151762
0.00151766
0.00151767
0.00151767
0.00151766
0.00151766
0.00151766
0.00151765
0.00151764
0.00151759
0.0228573
0.0229492
0.0229689
0.022973
0.0229738
0.0229737
0.0229728
0.0229688
0.022949
0.0228508
0.0290673
0.0290699
0.0290702
0.0290702
0.0290704
0.029071
0.0290718
0.0290729
0.0290736
0.0290724
0.0291644
0.0291644
0.0291645
0.0291645
0.0291645
0.0291644
0.0291642
0.0291641
0.0291642
0.0291651
0.0291735
0.0291724
0.0291719
0.0291718
0.0291723
0.0291732
0.0291743
0.0291757
0.0291771
0.0291785
0.029173
0.0291721
0.0291717
0.0291718
0.0291722
0.0291729
0.0291738
0.0291748
0.0291758
0.0291771
0.0291854
0.0291834
0.0291829
0.0291834
0.0291847
0.0291866
0.0291889
0.0291914
0.029194
0.0291991
0.0290792
0.0290731
0.029073
0.0290732
0.0290735
0.0290736
0.0290734
0.029073
0.0290709
0.0290865
0.0220128
0.0219344
0.0219324
0.0219342
0.0219373
0.0219415
0.0219457
0.0219486
0.0219495
0.0220527
0.00142553
0.00142547
0.00142544
0.00142545
0.0014255
0.00142558
0.00142568
0.00142578
0.0014259
0.00142596
0.00147922
0.00147922
0.00147921
0.0014792
0.0014792
0.0014792
0.00147921
0.00147922
0.00147925
0.00147927
0.0254658
0.0255462
0.02556
0.0255629
0.0255635
0.0255632
0.0255621
0.0255588
0.025544
0.0254558
0.0291557
0.0291554
0.0291547
0.0291542
0.0291543
0.0291547
0.0291556
0.0291569
0.0291585
0.0291603
0.0291642
0.0291642
0.0291643
0.0291643
0.0291643
0.0291643
0.0291643
0.0291643
0.0291643
0.0291646
0.0291698
0.0291692
0.0291688
0.0291688
0.0291691
0.0291696
0.0291703
0.0291711
0.0291719
0.0291728
0.0291693
0.0291688
0.0291685
0.0291686
0.0291688
0.0291693
0.0291698
0.0291704
0.029171
0.0291716
0.0291714
0.0291705
0.0291701
0.0291704
0.0291711
0.0291722
0.0291734
0.0291747
0.029176
0.0291783
0.0291666
0.0291629
0.0291624
0.0291624
0.0291624
0.0291623
0.0291623
0.0291623
0.0291625
0.0291723
0.0249073
0.0248485
0.0248474
0.0248486
0.0248507
0.0248534
0.0248562
0.024858
0.0248583
0.0249352
0.00138594
0.00138589
0.00138587
0.00138588
0.00138592
0.00138598
0.00138606
0.00138614
0.00138622
0.00138626
0.00234416
0.00236504
0.00235482
0.0023209
0.00141079
0.00143381
0.00143117
0.00142634
0.00188737
0.00192945
0.00192031
0.00189563
0.00227435
0.00233251
0.00231298
0.00226675
0.00262184
0.00269299
0.00266099
0.0025965
0.00296333
0.00304564
0.00300539
0.00293189
0.00324546
0.00333593
0.00329361
0.00322028
0.00341321
0.00351004
0.00346999
0.00340134
0.00304499
0.00313454
0.00309569
0.00303998
0.00237488
0.00239153
0.00235665
0.00227539
0.00202753
0.00203324
0.00203436
0.00203134
0.00235362
0.00243394
0.00233394
0.00214211
0.00330821
0.00342273
0.00329228
0.00305442
0.00407186
0.00424032
0.00408167
0.00378372
0.0048538
0.00508979
0.00489524
0.00451953
0.00582883
0.00615492
0.00591342
0.00542879
0.00679525
0.00720907
0.00690749
0.0063096
0.00749324
0.00799144
0.00763332
0.00693843
0.00591756
0.00635438
0.00600154
0.00540484
0.00218173
0.00221408
0.00220721
0.00217143
0.00193319
0.00193524
0.0019354
0.00193414
0.00406638
0.00404189
0.00405224
0.00414327
0.00499137
0.00497275
0.00499286
0.0050971
0.00549614
0.00551585
0.00553568
0.00558544
0.00601114
0.00606528
0.00606858
0.00602696
0.00675432
0.00685116
0.00681153
0.00663366
0.00751258
0.00763615
0.00752258
0.00718473
0.00805111
0.00821177
0.00802451
0.00752572
0.00612503
0.00626491
0.00608894
0.00560792
0.00204808
0.00206519
0.00206328
0.00204552
0.00189445
0.00189468
0.0018948
0.00189484
0.0102408
0.00996212
0.010098
0.0106126
0.0119477
0.0116136
0.0119165
0.0128099
0.0114407
0.0112596
0.0116318
0.0125266
0.0110903
0.0110292
0.0114262
0.0122564
0.0112084
0.0112511
0.0116415
0.0123684
0.0114047
0.0115067
0.0118454
0.012424
0.0113551
0.0115326
0.0118028
0.0121738
0.0080188
0.00820352
0.00832668
0.00836784
0.00195685
0.0019673
0.00196827
0.00196027
0.00187253
0.00187257
0.0018726
0.00187262
0.0144911
0.0144312
0.0144593
0.0145686
0.0238419
0.0235184
0.0237062
0.0243332
0.022246
0.021954
0.0223067
0.0232334
0.0203814
0.020202
0.0206819
0.0217893
0.0193313
0.0193012
0.0198722
0.0210705
0.0185186
0.0185938
0.0191868
0.0203783
0.0173317
0.017544
0.0180992
0.0191115
0.0108809
0.0111162
0.0113576
0.0116711
0.00189361
0.0019001
0.00190156
0.00189815
0.00185449
0.00185447
0.00185446
0.00185445
0.0140869
0.0140132
0.0140037
0.0140587
0.0304043
0.0302976
0.0303236
0.0304706
0.0317982
0.0315595
0.0316501
0.032027
0.0304328
0.0301457
0.0303662
0.0310249
0.0290258
0.0288081
0.0291973
0.0301268
0.0274499
0.0273224
0.0278372
0.0289655
0.024776
0.0248413
0.0253986
0.0264756
0.0131745
0.0134068
0.0135825
0.0137431
0.00184568
0.0018496
0.00185088
0.00184952
0.0018372
0.00183716
0.00183713
0.00183712
0.0137853
0.0136946
0.0136769
0.0137313
0.0299164
0.0299195
0.0299339
0.0299596
0.0336761
0.0336797
0.0337122
0.0337712
0.0348257
0.0347796
0.0348408
0.034997
0.0353472
0.0352625
0.035399
0.0357263
0.0347092
0.0345959
0.0348283
0.0353625
0.0311003
0.0311322
0.0314442
0.0320092
0.0133168
0.0135942
0.0136554
0.0135476
0.00180734
0.00180973
0.00181067
0.00181016
0.00181927
0.00181922
0.00181919
0.00181918
0.013865
0.0137678
0.0137477
0.0138032
0.0286254
0.0286187
0.0286217
0.0286346
0.0317597
0.031786
0.0318034
0.0318123
0.0333175
0.033363
0.0333959
0.0334176
0.0350534
0.0351267
0.0351881
0.0352394
0.0359202
0.0359848
0.0360708
0.036179
0.0326229
0.0327812
0.0329077
0.033006
0.0123931
0.0126497
0.0126901
0.0125512
0.0017745
0.00177602
0.00177666
0.00177642
0.00180022
0.00180016
0.00180012
0.00180012
0.0141242
0.0140238
0.0140027
0.0140595
0.0280679
0.0280552
0.0280538
0.0280641
0.0303415
0.0303495
0.0303547
0.030357
0.0312807
0.0313021
0.031315
0.0313197
0.0325583
0.0326153
0.0326467
0.032654
0.0334943
0.0335729
0.0336165
0.0336297
0.0307748
0.0309425
0.0310109
0.0309876
0.0119579
0.0121826
0.0122243
0.0121024
0.00174442
0.00174545
0.00174585
0.00174567
0.00177979
0.00177972
0.00177969
0.00177969
0.0144824
0.0143791
0.0143573
0.0144154
0.0279209
0.0279074
0.0279052
0.0279145
0.029674
0.0296752
0.0296762
0.0296771
0.0301791
0.0301844
0.0301877
0.0301892
0.0308816
0.0309045
0.0309168
0.0309187
0.0314147
0.0314478
0.0314658
0.03147
0.0290421
0.0291523
0.0291921
0.0291631
0.0120328
0.0122522
0.0122938
0.0121713
0.00171555
0.0017163
0.00171656
0.00171637
0.00175783
0.00175776
0.00175772
0.00175772
0.0149177
0.0148111
0.0147885
0.0148482
0.0279471
0.0279341
0.0279318
0.0279405
0.0293776
0.0293771
0.0293772
0.0293778
0.0296631
0.029664
0.0296646
0.0296651
0.0300323
0.0300413
0.030046
0.0300463
0.0303005
0.0303111
0.0303173
0.0303194
0.028185
0.0282597
0.0282842
0.0282577
0.012398
0.0126287
0.0126714
0.0125395
0.00168705
0.00168763
0.00168779
0.00168759
0.00173422
0.00173414
0.00173411
0.00173411
0.0154296
0.0153193
0.0152958
0.0153573
0.0280479
0.0280356
0.0280333
0.0280414
0.0292455
0.0292448
0.0292448
0.0292453
0.0294215
0.0294215
0.0294216
0.0294217
0.0296155
0.0296198
0.0296219
0.0296218
0.0297547
0.0297583
0.0297606
0.0297614
0.0278883
0.0279472
0.0279646
0.0279399
0.0129394
0.0131891
0.0132345
0.0130905
0.00165832
0.0016588
0.0016589
0.0016587
0.00170887
0.00170878
0.00170875
0.00170876
0.0160284
0.0159137
0.015889
0.0159526
0.0281832
0.0281716
0.0281694
0.0281768
0.0291879
0.0291872
0.0291871
0.0291877
0.0293064
0.0293063
0.0293062
0.0293063
0.0294084
0.029411
0.0294122
0.0294119
0.0294907
0.0294926
0.0294937
0.0294939
0.0278816
0.0279324
0.0279467
0.0279238
0.013613
0.0138856
0.0139349
0.0137773
0.00162896
0.00162937
0.00162943
0.00162923
0.00168168
0.00168159
0.00168155
0.00168157
0.0167317
0.0166117
0.0165856
0.0166518
0.0283355
0.0283247
0.0283225
0.0283292
0.0291649
0.0291643
0.0291642
0.0291647
0.0292504
0.0292503
0.0292503
0.0292503
0.029304
0.0293058
0.0293066
0.0293063
0.0293642
0.0293658
0.0293665
0.0293663
0.0280205
0.0280659
0.0280782
0.0280573
0.0144108
0.0147093
0.0147629
0.0145903
0.00159861
0.00159897
0.00159902
0.00159882
0.00165259
0.00165249
0.00165245
0.00165247
0.0175656
0.017439
0.0174111
0.0174803
0.0284959
0.028486
0.0284839
0.0284898
0.0291581
0.0291576
0.0291576
0.029158
0.0292222
0.0292222
0.0292221
0.0292221
0.0292504
0.0292517
0.0292522
0.0292519
0.0293034
0.0293051
0.0293057
0.0293053
0.0282296
0.0282703
0.0282811
0.028262
0.0153475
0.0156748
0.0157331
0.0155437
0.00156701
0.00156733
0.00156736
0.00156717
0.00162154
0.00162143
0.0016214
0.00162143
0.0185672
0.0184322
0.018402
0.0184749
0.0286584
0.0286494
0.0286475
0.0286527
0.0291587
0.0291583
0.0291584
0.0291587
0.0292066
0.0292066
0.0292066
0.0292065
0.0292212
0.0292221
0.0292224
0.0292221
0.029272
0.0292737
0.0292743
0.0292737
0.0284666
0.0285029
0.0285123
0.0284948
0.0164565
0.0168158
0.0168788
0.0166707
0.00153396
0.00153424
0.00153426
0.00153409
0.00158861
0.0015885
0.00158846
0.00158849
0.0197911
0.019645
0.0196117
0.0196892
0.0288166
0.0288088
0.0288071
0.0288115
0.0291619
0.0291617
0.0291617
0.0291619
0.0291961
0.0291962
0.0291962
0.0291962
0.029203
0.0292036
0.0292038
0.0292035
0.0292503
0.029252
0.0292525
0.0292518
0.0287035
0.0287355
0.0287432
0.0287271
0.0177922
0.0181857
0.018253
0.0180248
0.00149939
0.00149963
0.00149964
0.00149949
0.00155402
0.0015539
0.00155386
0.0015539
0.0213176
0.0211559
0.0211182
0.0212023
0.0289639
0.0289579
0.0289564
0.0289598
0.0291647
0.0291646
0.0291647
0.0291648
0.0291873
0.0291874
0.0291874
0.0291874
0.0291893
0.0291897
0.0291898
0.0291896
0.029228
0.0292295
0.0292299
0.0292291
0.0289156
0.028943
0.028949
0.0289343
0.0194342
0.0198575
0.0199275
0.0196813
0.00146338
0.00146357
0.00146359
0.00146347
0.00151801
0.00151789
0.00151785
0.0015179
0.0232721
0.0230878
0.0230444
0.0231382
0.0290874
0.0290836
0.0290826
0.0290848
0.0291654
0.0291654
0.0291654
0.0291654
0.0291792
0.0291794
0.0291794
0.0291795
0.0291784
0.0291786
0.0291787
0.0291786
0.0292022
0.0292032
0.0292035
0.0292029
0.029078
0.0290996
0.0291037
0.0290911
0.0215229
0.0219755
0.0220425
0.0217747
0.00142605
0.00142621
0.00142622
0.00142613
0.00147972
0.00147963
0.00147961
0.00147967
0.0258484
0.0256395
0.0255939
0.0257011
0.0291704
0.0291688
0.0291684
0.0291693
0.0291642
0.0291641
0.0291641
0.029164
0.0291734
0.0291735
0.0291736
0.0291736
0.029172
0.0291721
0.0291721
0.0291721
0.0291797
0.0291801
0.0291802
0.0291801
0.0291744
0.0291868
0.0291886
0.0291809
0.0244724
0.0248974
0.024947
0.0246873
0.00138663
0.00138676
0.00138677
0.00138667
0.00215546
0.0020389
0.00197448
0.00194194
0.00192282
0.00191043
0.00190225
0.00189706
0.00189373
0.00189144
0.00174748
0.00158319
0.00476546
0.009424
0.0139347
0.0171225
0.0186331
0.0187841
0.0181525
0.0172122
0.00236378
0.0025742
0.00732487
0.015553
0.0249579
0.0330794
0.0390644
0.0428674
0.0447437
0.0451302
0.00276858
0.00359715
0.00828871
0.0178408
0.029168
0.0385205
0.0449953
0.0487255
0.0501627
0.0499538
0.00307718
0.003942
0.00871641
0.0193458
0.0320851
0.0419666
0.048151
0.0510041
0.0513194
0.0501072
0.00338895
0.00407107
0.00893819
0.0204183
0.0342686
0.0443138
0.0498921
0.0516825
0.0509072
0.0488672
0.00363107
0.00408429
0.00896838
0.0211704
0.0359003
0.0457609
0.0504405
0.0510705