/*--------------------------------*- C++ -*----------------------------------*\
| =========                 |                                                 |
| \\      /  F ield         | foam-extend: Open Source CFD                    |
|  \\    /   O peration     | Version:     4.0                                |
|   \\  /    A nd           | Web:         http://www.foam-extend.org         |
|    \\/     M anipulation  |                                                 |
\*---------------------------------------------------------------------------*/
FoamFile
{
    version     2.0;
    format      ascii;
    class       volScalarField;
    location    "1850";
    object      p;
}
// * * * * * * * * * * * * * * * * * * * * * * * * * * * * * * * * * * * * * //

dimensions      [1 -1 -2 0 0 0 0];

internalField   nonuniform List<scalar> 
34480
(
107968
107868
107828
107844
107929
108110
108454
109136
110102
110448
107827
107728
107688
107700
107779
107956
108294
108964
109999
109973
107686
107584
107543
107546
107611
107759
108057
108659
109689
109114
107614
107509
107463
107454
107496
107599
107840
108342
109305
108153
107533
107417
107363
107336
107353
107412
107593
107992
108851
107158
107551
107436
107375
107339
107337
107358
107484
107774
108494
106277
107458
107329
107262
107214
107196
107187
107264
107456
108015
105340
107546
107423
107360
107327
107324
107326
107388
107507
107885
104745
107446
107318
107249
107212
107210
107222
107275
107336
107509
103997
107539
107424
107411
107476
107615
107806
108050
108286
108457
104460
108728
108604
108559
108584
108689
108892
109227
109756
110570
111637
108521
108389
108343
108369
108483
108708
109096
109749
110889
112492
108321
108185
108138
108159
108267
108485
108880
109586
110967
112954
108195
108053
108000
108009
108101
108294
108666
109363
110884
113123
108071
107917
107855
107847
107918
108076
108410
109062
110651
113037
108050
107896
107825
107807
107859
107984
108273
108857
110450
112867
107927
107761
107683
107650
107684
107778
108024
108533
110082
112472
107992
107830
107753
107729
107770
107864
108090
108533
109985
112256
107879
107712
107629
107597
107627
107715
107924
108317
109623
111814
107960
107804
107763
107809
107942
108154
108485
108982
110236
112222
109296
109182
109143
109172
109275
109461
109745
110146
110677
111288
109082
108950
108906
108941
109066
109297
109661
110205
111020
112027
108864
108720
108676
108711
108843
109091
109501
110150
111246
112674
108706
108553
108501
108530
108657
108905
109333
110042
111362
113171
108553
108387
108328
108342
108456
108687
109112
109840
111327
113464
108501
108332
108266
108270
108371
108582
108990
109706
111305
113693
108353
108173
108099
108091
108177
108365
108748
109436
111098
113682
108396
108219
108145
108143
108232
108417
108789
109443
111107
113801
108271
108090
108010
107998
108074
108245
108597
109227
110829
113638
108338
108165
108114
108158
108303
108556
108984
109679
111245
114053
109694
109606
109575
109599
109679
109817
110016
110269
110562
110843
109515
109399
109360
109392
109502
109696
109985
110376
110882
111402
109318
109180
109137
109173
109300
109529
109886
110400
111154
111993
109156
109002
108950
108983
109116
109365
109772
110387
111384
112570
108995
108824
108764
108788
108916
109168
109601
110282
111492
113020
108928
108749
108682
108698
108820
109065
109509
110227
111614
113452
108765
108574
108500
108505
108617
108849
109290
110024
111548
113671
108792
108602
108527
108536
108650
108883
109325
110063
111667
114015
108655
108462
108382
108384
108488
108711
109141
109880
111495
114071
108708
108522
108461
108503
108656
108934
109413
110200
111807
114525
109968
109906
109885
109902
109958
110052
110179
110331
110492
110630
109835
109743
109711
109738
109825
109973
110182
110446
110750
111026
109679
109558
109520
109552
109662
109855
110139
110517
110999
111471
109531
109388
109340
109373
109498
109724
110074
110563
111250
111971
109379
109214
109157
109185
109314
109558
109955
110534
111421
112415
109307
109131
109065
109089
109219
109471
109899
110545
111622
112888
109140
108948
108877
108892
109017
109269
109714
110408
111649
113189
109157
108965
108890
108909
109038
109295
109755
110483
111848
113631
109013
108816
108738
108751
108875
109128
109589
110343
111772
113814
109055
108864
108798
108839
108995
109286
109782
110578
112030
114269
110157
110117
110104
110115
110151
110210
110287
110374
110459
110526
110066
109998
109975
109994
110057
110162
110304
110473
110652
110800
109957
109859
109828
109854
109942
110092
110304
110569
110872
111140
109833
109710
109667
109697
109805
109996
110277
110645
111103
111537
109701
109551
109500
109528
109648
109867
110205
110668
111292
111921
109635
109471
109410
109436
109563
109802
110185
110729
111521
112362
109472
109289
109222
109243
109371
109620
110035
110645
111595
112663
109487
109301
109229
109253
109388
109648
110090
110753
111838
113124
109340
109147
109072
109093
109226
109488
109941
110647
111826
113356
109375
109186
109119
109158
109313
109602
110082
110828
112051
113769
110291
110267
110258
110265
110287
110323
110367
110416
110462
110496
110231
110185
110168
110182
110225
110295
110387
110491
110595
110677
110167
110093
110068
110088
110154
110264
110415
110594
110783
110939
110069
109969
109933
109958
110046
110197
110411
110678
110980
111245
109963
109835
109791
109816
109920
110105
110377
110732
111162
111562
109911
109764
109710
109736
109852
110064
110388
110824
111392
111946
109758
109591
109529
109553
109675
109905
110270
110779
111483
112212
109777
109603
109537
109564
109695
109942
110341
110911
111741
112646
109630
109448
109379
109403
109536
109789
110208
110828
111756
112865
109662
109483
109417
109454
109602
109876
110318
110976
111956
113215
110390
110376
110371
110375
110388
110408
110434
110460
110485
110503
110350
110320
110309
110318
110346
110391
110448
110511
110571
110616
110324
110270
110252
110266
110313
110391
110493
110610
110727
110818
110250
110172
110144
110163
110230
110345
110501
110687
110884
111048
110172
110067
110030
110052
110137
110285
110495
110756
111048
111304
110135
110011
109965
109989
110089
110266
110528
110863
111264
111630
109997
109850
109797
109820
109930
110131
110436
110843
111354
111849
110025
109870
109811
109837
109958
110179
110522
110990
111608
112237
109880
109715
109653
109678
109803
110035
110402
110921
111626
112408
109913
109749
109689
109723
109858
110106
110494
111049
111805
112699
110467
110458
110456
110458
110465
110477
110491
110506
110519
110528
110437
110418
110411
110417
110434
110462
110497
110535
110569
110595
110442
110404
110391
110401
110433
110485
110553
110627
110699
110752
110385
110327
110306
110320
110370
110453
110562
110689
110816
110917
110334
110252
110223
110240
110307
110420
110576
110761
110958
111121
110314
110213
110175
110195
110277
110420
110623
110872
111149
111390
110191
110067
110022
110043
110137
110305
110549
110862
111226
111560
110231
110099
110048
110073
110178
110367
110649
111019
111468
111899
110090
109946
109892
109916
110027
110230
110538
110954
111475
112014
110128
109984
109929
109960
110080
110296
110623
111070
111636
112255
110529
110524
110522
110523
110528
110534
110542
110550
110557
110562
110503
110491
110487
110490
110501
110518
110539
110561
110581
110595
110531
110505
110497
110503
110524
110558
110601
110648
110691
110722
110485
110444
110429
110439
110474
110531
110606
110691
110772
110834
110458
110396
110374
110387
110437
110520
110632
110761
110890
110994
110453
110374
110344
110361
110425
110535
110686
110866
111055
111212
110344
110244
110208
110225
110302
110436
110625
110858
111112
111334
110399
110290
110248
110270
110358
110513
110736
111017
111337
111627
110261
110139
110094
110116
110211
110380
110628
110950
111326
111691
110307
110185
110138
110164
110266
110447
110712
111060
111473
111892
110581
110578
110577
110578
110580
110583
110588
110592
110596
110598
110553
110546
110543
110545
110552
110562
110574
110587
110599
110607
110599
110583
110577
110581
110595
110616
110643
110672
110698
110716
110559
110531
110519
110526
110550
110589
110639
110694
110745
110784
110551
110507
110491
110500
110536
110595
110673
110760
110845
110910
110559
110499
110476
110489
110538
110619
110729
110855
110982
111083
110462
110384
110355
110370
110430
110533
110674
110842
111016
111163
110533
110447
110413
110431
110502
110624
110795
111002
111225
111417
110396
110297
110260
110279
110357
110492
110685
110926
111192
111435
110453
110353
110314
110336
110419
110565
110772
111035
111328
111607
110625
110623
110623
110624
110625
110627
110629
110632
110634
110635
110592
110588
110586
110587
110591
110597
110604
110612
110619
110624
110654
110643
110640
110642
110651
110664
110681
110698
110713
110723
110613
110593
110586
110590
110606
110632
110664
110699
110732
110756
110622
110590
110579
110586
110611
110652
110704
110762
110816
110857
110638
110595
110578
110587
110622
110681
110758
110844
110929
110993
110551
110492
110470
110481
110526
110603
110705
110823
110940
111037
110638
110573
110547
110561
110615
110708
110834
110982
111135
111260
110500
110421
110393
110408
110469
110574
110718
110893
111077
111237
110569
110490
110459
110476
110542
110655
110812
111004
111208
111390
110665
110664
110664
110664
110665
110666
110667
110668
110669
110670
110622
110620
110618
110619
110621
110625
110629
110634
110638
110642
110699
110692
110690
110692
110697
110705
110715
110725
110734
110739
110651
110639
110633
110636
110646
110663
110684
110706
110726
110741
110674
110653
110645
110650
110667
110694
110729
110766
110801
110826
110695
110665
110653
110660
110685
110725
110778
110836
110891
110932
110616
110573
110557
110565
110598
110652
110724
110805
110883
110945
110720
110672
110652
110663
110704
110772
110862
110965
111068
111147
110576
110516
110494
110506
110552
110630
110735
110858
110983
111087
110660
110601
110577
110590
110640
110724
110839
110975
111114
111231
110701
110700
110700
110700
110700
110701
110701
110702
110703
110703
110643
110642
110642
110642
110643
110645
110648
110651
110654
110657
110737
110733
110732
110733
110736
110741
110747
110752
110757
110759
110679
110670
110667
110668
110675
110685
110698
110712
110725
110735
110713
110700
110695
110698
110709
110727
110749
110773
110794
110809
110737
110716
110708
110712
110729
110757
110792
110830
110865
110891
110662
110632
110621
110627
110650
110687
110736
110790
110841
110881
110783
110749
110735
110743
110772
110820
110883
110952
111020
111070
110628
110584
110569
110577
110610
110666
110740
110825
110907
110975
110732
110689
110671
110681
110717
110778
110860
110952
111045
111120
110735
110734
110734
110734
110734
110735
110735
110735
110735
110735
110658
110657
110657
110657
110657
110659
110661
110663
110665
110667
110771
110769
110768
110769
110771
110774
110777
110780
110782
110782
110697
110692
110690
110691
110694
110701
110709
110718
110725
110732
110742
110733
110730
110732
110739
110750
110764
110779
110792
110801
110765
110751
110745
110748
110759
110778
110800
110825
110847
110863
110695
110675
110667
110671
110687
110712
110744
110779
110811
110837
110832
110809
110800
110805
110825
110858
110901
110946
110991
111020
110662
110630
110619
110625
110648
110687
110737
110794
110847
110891
110791
110760
110747
110754
110780
110823
110878
110940
111000
111047
110771
110771
110771
110771
110771
110771
110771
110771
110771
110771
110663
110663
110662
110662
110663
110664
110665
110667
110668
110671
110801
110800
110800
110801
110802
110804
110805
110807
110808
110806
110709
110706
110704
110705
110707
110711
110716
110721
110726
110730
110761
110756
110754
110755
110759
110766
110775
110784
110792
110797
110781
110772
110768
110770
110777
110789
110803
110819
110833
110843
110717
110704
110700
110702
110712
110729
110749
110771
110790
110807
110870
110855
110849
110852
110866
110888
110916
110945
110974
110990
110678
110656
110649
110652
110668
110694
110727
110764
110798
110826
110845
110824
110815
110820
110837
110866
110903
110943
110982
111010
110824
110823
110824
110824
110824
110824
110824
110823
110823
110822
110657
110656
110656
110655
110656
110657
110658
110659
110661
110664
110826
110827
110827
110827
110828
110828
110829
110830
110830
110828
110716
110714
110713
110714
110715
110717
110720
110723
110725
110728
110771
110767
110766
110767
110769
110774
110779
110784
110789
110792
110786
110780
110778
110779
110783
110790
110799
110809
110818
110824
110731
110723
110720
110722
110729
110739
110752
110765
110776
110786
110894
110884
110880
110882
110891
110905
110923
110942
110961
110970
110677
110662
110657
110659
110670
110687
110708
110731
110751
110771
110909
110896
110890
110893
110904
110923
110947
110972
110997
111013
110917
110917
110918
110918
110918
110918
110917
110917
110916
110915
110631
110629
110629
110629
110629
110630
110631
110632
110633
110637
110840
110839
110839
110839
110839
110839
110840
110841
110842
110841
110719
110718
110718
110719
110720
110721
110722
110723
110724
110726
110771
110769
110768
110768
110770
110772
110776
110779
110782
110784
110781
110777
110775
110776
110779
110783
110789
110795
110801
110805
110736
110732
110731
110732
110736
110743
110751
110758
110764
110769
110892
110885
110881
110883
110888
110897
110909
110922
110935
110941
110649
110640
110637
110639
110645
110656
110669
110683
110695
110708
111008
111000
110995
110997
111005
111017
111033
111049
111066
111074
111079
111079
111079
111079
111078
111078
111078
111078
111078
111078
110569
110569
110571
110571
110572
110572
110572
110572
110571
110573
110827
110825
110824
110823
110823
110823
110824
110826
110829
110830
110721
110721
110722
110723
110723
110724
110725
110725
110725
110724
110766
110764
110763
110763
110764
110766
110768
110770
110773
110774
110770
110767
110766
110767
110768
110771
110775
110779
110783
110786
110737
110735
110734
110735
110738
110742
110747
110752
110755
110757
110849
110843
110840
110840
110844
110851
110859
110868
110879
110885
110583
110578
110576
110578
110583
110590
110599
110607
110613
110619
111164
111158
111155
111156
111162
111170
111181
111192
111205
111209
111262
111259
111258
111257
111257
111257
111258
111260
111262
111266
110486
110492
110495
110498
110498
110498
110497
110494
110489
110482
110793
110789
110787
110786
110785
110786
110787
110790
110793
110798
110726
110727
110728
110729
110729
110730
110730
110730
110730
110728
110760
110759
110758
110758
110759
110760
110762
110764
110766
110768
110763
110760
110760
110760
110761
110764
110767
110770
110773
110776
110739
110737
110737
110738
110740
110744
110748
110752
110755
110756
110785
110779
110777
110777
110781
110786
110793
110800
110809
110818
110498
110496
110496
110497
110501
110507
110515
110521
110524
110521
111331
111326
111323
111325
111329
111336
111345
111354
111364
111368
122712
123926
123750
122476
125944
127350
126950
125328
128888
130475
129887
127897
131056
132758
131985
129715
132720
134502
133554
131080
134071
135912
134954
132360
134997
136871
136046
133384
135821
137700
137038
134339
135736
137587
137070
134378
135324
137162
136903
134366
113010
113200
113238
113118
115297
115668
115726
115436
117554
118107
118166
117656
119696
120416
120461
119706
121649
122506
122520
121507
123503
124469
124448
123219
125039
126089
126038
124651
126544
127652
127584
126087
127324
128464
128393
126845
127972
129146
129123
127624
111809
111898
111926
111899
113133
113301
113340
113273
114587
114853
114906
114776
116066
116437
116497
116284
117491
117966
118023
117706
118968
119544
119594
119160
120260
120928
120968
120415
121642
122386
122416
121749
122462
123254
123277
122515
123281
124109
124150
123333
110958
110981
110992
110992
111711
111764
111784
111777
112632
112735
112769
112743
113664
113832
113881
113826
114693
114933
114995
114897
115822
116141
116213
116057
116827
117224
117303
117078
117986
118453
118535
118237
118699
119217
119304
118941
119475
120036
120140
119736
110675
110685
110690
110691
111148
111171
111182
111182
111732
111781
111801
111796
112440
112523
112555
112544
113166
113292
113337
113313
114004
114181
114239
114194
114742
114972
115041
114967
115662
115945
116024
115913
116240
116565
116657
116513
116918
117278
117389
117222
110545
110549
110551
110551
110848
110857
110862
110864
111244
111264
111274
111276
111737
111776
111795
111797
112260
112323
112352
112353
112890
112986
113027
113021
113428
113559
113611
113596
114158
114325
114388
114358
114617
114815
114892
114847
115170
115394
115486
115429
110505
110507
110508
110508
110701
110705
110708
110708
110989
110999
111004
111005
111341
111361
111371
111374
111725
111758
111776
111780
112208
112260
112286
112291
112598
112672
112708
112712
113180
113278
113324
113323
113530
113649
113706
113699
113963
114100
114167
114154
110507
110508
110508
110509
110628
110631
110632
110633
110844
110849
110852
110853
111099
111109
111115
111117
111390
111407
111418
111421
111767
111796
111812
111817
112052
112094
112117
112124
112521
112579
112609
112615
112769
112840
112879
112883
113106
113189
113234
113236
110530
110531
110531
110531
110601
110603
110603
110604
110767
110769
110771
110771
110946
110952
110955
110957
111169
111179
111185
111188
111468
111484
111495
111498
111674
111698
111713
111718
112058
112092
112111
112117
112217
112260
112285
112291
112483
112534
112562
112567
110563
110563
110563
110563
110599
110600
110600
110600
110731
110732
110733
110733
110851
110855
110857
110858
111022
111028
111032
111033
111258
111268
111274
111277
111401
111416
111425
111429
111720
111741
111753
111758
111809
111836
111852
111856
112025
112055
112073
112078
110599
110599
110599
110599
110610
110610
110610
110610
110720
110721
110721
110722
110795
110797
110798
110799
110927
110930
110933
110934
111112
111118
111122
111124
111204
111213
111219
111221
111473
111486
111494
111497
111507
111523
111533
111536
111686
111705
111717
111720
110635
110635
110635
110635
110626
110626
110626
110626
110726
110726
110726
110726
110763
110764
110765
110765
110867
110869
110871
110871
111011
111015
111018
111019
111062
111067
111071
111073
111295
111303
111308
111309
111282
111292
111299
111301
111439
111451
111458
111460
110670
110670
110670
110670
110642
110643
110643
110643
110740
110740
110740
110740
110746
110746
110747
110747
110832
110833
110834
110834
110944
110946
110948
110948
110961
110964
110966
110968
111169
111174
111177
111178
111116
111123
111127
111128
111261
111268
111273
111274
110703
110703
110703
110703
110657
110657
110658
110658
110760
110760
110760
110760
110737
110738
110738
110739
110813
110813
110814
110814
110899
110900
110901
110902
110890
110892
110894
110894
111084
111087
111089
111089
110994
110998
111001
111002
111138
111142
111145
111146
110735
110735
110735
110735
110668
110668
110668
110668
110783
110783
110783
110782
110733
110734
110734
110734
110803
110803
110804
110804
110869
110870
110870
110871
110841
110842
110843
110844
111029
111031
111032
111033
110904
110906
110908
110909
111057
111060
111062
111062
110771
110771
110770
110770
110671
110671
110672
110672
110807
110807
110807
110806
110731
110731
110731
110731
110798
110798
110798
110798
110847
110848
110848
110848
110808
110809
110809
110810
110997
110998
110999
110999
110835
110836
110838
110838
111015
111016
111018
111018
110822
110822
110822
110821
110664
110664
110665
110665
110830
110830
110829
110829
110728
110728
110728
110728
110793
110793
110793
110793
110828
110828
110829
110829
110785
110784
110784
110785
110976
110977
110977
110977
110776
110777
110778
110778
111015
111015
111016
111017
110914
110914
110914
110914
110637
110637
110637
110638
110843
110844
110843
110843
110723
110723
110723
110723
110786
110786
110786
110786
110808
110809
110809
110809
110766
110765
110765
110766
110949
110951
110951
110951
110710
110711
110712
110712
111075
111074
111075
111076
111078
111078
111078
111077
110570
110570
110570
110571
110836
110837
110837
110837
110721
110720
110720
110720
110776
110776
110776
110776
110789
110789
110790
110789
110753
110752
110752
110752
110899
110901
110902
110901
110615
110614
110614
110614
111215
111215
111216
111217
111266
111267
111268
111268
110466
110463
110462
110462
110808
110810
110811
110811
110724
110723
110722
110722
110769
110769
110770
110770
110778
110778
110778
110778
110751
110749
110749
110750
110835
110839
110840
110839
110497
110491
110490
110493
111390
111393
111393
111391
116088
113573
111648
110360
109554
109034
108679
108429
108249
108113
117145
113963
111594
110192
109367
108841
108491
108250
108081
107956
117508
114002
111326
110004
109178
108658
108308
108066
107903
107796
117493
113901
110999
109843
109036
108550
108217
107987
107829
107723
117209
113682
110692
109666
108867
108417
108097
107882
107732
107636
116841
113556
110524
109632
108835
108423
108115
107911
107764
107661
116200
113300
110234
109482
108676
108306
108003
107809
107664
107568
115779
113325
110227
109617
108798
108461
108151
107953
107795
107673
115054
112992
109916
109486
108690
108401
108081
107879
107714
107583
115493
113689
110587
110182
109264
108871
108439
108148
107912
107710
112562
111817
111156
110603
110148
109778
109478
109237
109045
108894
114185
112819
111685
110830
110186
109703
109339
109062
108849
108690
115484
113532
111990
110914
110127
109562
109151
108849
108627
108478
116473
114021
112140
110935
110065
109467
109042
108735
108509
108354
117100
114289
112137
110855
109934
109328
108900
108597
108373
108226
117576
114539
112171
110858
109908
109309
108885
108588
108366
108212
117726
114572
112026
110720
109749
109167
108747
108457
108236
108088
117937
114775
112094
110828
109847
109284
108862
108568
108339
108169
117717
114578
111852
110694
109742
109211
108782
108481
108244
108065
118123
115091
112328
111192
110165
109560
109053
108688
108403
108172
111742
111427
111073
110734
110427
110159
109929
109736
109574
109444
112914
112273
111603
111023
110549
110166
109858
109609
109408
109253
114113
113063
112038
111215
110577
110087
109710
109419
109195
109035
115227
113742
112383
111368
110607
110045
109623
109305
109062
108889
116156
114239
112574
111405
110549
109940
109493
109161
108909
108736
117030
114714
112776
111493
110568
109931
109469
109132
108876
108693
117629
114957
112779
111417
110441
109792
109322
108983
108723
108544
118281
115321
112951
111553
110543
109892
109413
109067
108800
108602
118451
115275
112818
111458
110458
109816
109326
108970
108694
108487
118955
115694
113190
111825
110770
110074
109530
109129
108819
108577
110969
110873
110738
110585
110428
110277
110136
110009
109898
109804
111702
111474
111186
110892
110614
110363
110142
109952
109792
109662
112572
112137
111628
111150
110728
110371
110074
109829
109631
109483
113509
112820
112067
111406
110851
110400
110037
109748
109517
109345
114374
113395
112389
111557
110884
110359
109948
109627
109375
109193
115268
113983
112727
111744
110973
110391
109945
109604
109336
109139
115963
114366
112868
111758
110906
110283
109812
109457
109178
108979
116756
114867
113157
111953
111041
110389
109897
109527
109238
109021
117132
114996
113154
111915
110976
110310
109800
109417
109118
108893
117738
115425
113486
112199
111208
110500
109951
109536
109214
108964
110682
110642
110580
110504
110421
110336
110253
110175
110104
110042
111155
111059
110921
110764
110601
110443
110296
110163
110046
109949
111737
111545
111287
111014
110750
110506
110290
110102
109943
109821
112436
112110
111701
111292
110915
110583
110299
110059
109860
109705
113130
112636
112051
111499
111011
110599
110256
109974
109743
109571
113904
113214
112440
111748
111158
110675
110284
109968
109714
109520
114534
113626
112655
111831
111148
110608
110177
109836
109562
109360
115305
114175
113016
112079
111320
110732
110268
109905
109616
109394
115744
114408
113109
112095
111282
110660
110170
109790
109489
109260
116343
114828
113415
112333
111467
110807
110286
109882
109564
109316
110548
110531
110502
110465
110422
110376
110329
110284
110241
110204
110855
110812
110744
110660
110568
110473
110380
110293
110215
110147
111257
111170
111039
110885
110724
110566
110417
110281
110163
110069
111762
111607
111387
111143
110898
110667
110456
110271
110111
109982
112290
112044
111713
111364
111028
110722
110453
110221
110025
109874
112917
112556
112097
111636
111209
110833
110510
110239
110012
109835
113433
112934
112332
111757
111241
110802
110432
110128
109876
109685
114116
113468
112720
112038
111442
110946
110536
110203
109932
109719
114530
113732
112858
112085
111423
110884
110443
110090
109803
109582
115051
114115
113139
112296
111584
111008
110540
110165
109866
109630
110506
110498
110483
110464
110442
110417
110391
110365
110341
110319
110704
110682
110647
110601
110548
110492
110436
110381
110331
110286
110997
110952
110881
110792
110694
110593
110494
110400
110317
110250
111359
111280
111158
111011
110853
110696
110547
110410
110289
110189
111756
111628
111437
111218
110992
110774
110572
110391
110234
110109
112251
112058
111786
111485
111185
110905
110652
110430
110240
110087
112649
112375
112007
111617
111241
110899
110598
110341
110122
109952
113226
112859
112385
111906
111457
111059
110716
110427
110186
109992
113568
113097
112523
111961
111449
111006
110630
110319
110060
109857
113992
113430
112777
112154
111595
111119
110718
110387
110117
109900
110508
110503
110496
110486
110474
110460
110446
110432
110418
110406
110630
110619
110600
110575
110545
110512
110479
110445
110414
110386
110848
110824
110784
110732
110672
110609
110545
110484
110427
110382
111110
111066
110996
110906
110806
110702
110600
110503
110415
110341
111410
111339
111227
111089
110939
110787
110641
110506
110386
110288
111800
111693
111529
111333
111127
110924
110733
110561
110409
110283
112099
111944
111716
111456
111188
110932
110698
110490
110308
110164
112575
112364
112065
111736
111408
111102
110827
110588
110384
110216
112826
112549
112178
111783
111401
111054
110747
110486
110262
110084
113164
112831
112404
111960
111539
111161
110832
110553
110319
110128
110531
110528
110524
110519
110513
110505
110498
110490
110482
110475
110603
110596
110586
110572
110555
110536
110516
110496
110477
110460
110768
110755
110732
110701
110665
110626
110586
110546
110509
110480
110953
110928
110886
110831
110768
110701
110632
110566
110505
110451
111182
111140
111072
110985
110886
110783
110681
110584
110495
110423
111489
111427
111325
111199
111059
110916
110777
110648
110532
110433
111707
111616
111473
111300
111113
110928
110751
110590
110446
110329
112098
111974
111784
111561
111328
111101
110889
110699
110533
110393
112264
112100
111862
111591
111315
111052
110812
110600
110415
110265
112534
112336
112060
111753
111446
111158
110898
110670
110476
110314
110563
110562
110560
110557
110554
110550
110545
110541
110537
110533
110600
110597
110591
110583
110573
110562
110551
110539
110528
110517
110731
110723
110710
110692
110670
110646
110621
110596
110573
110555
110856
110841
110816
110782
110743
110700
110655
110611
110569
110532
111030
111005
110963
110908
110844
110775
110706
110638
110575
110523
111271
111234
111171
111089
110995
110897
110799
110705
110619
110544
111423
111368
111278
111163
111036
110904
110775
110655
110544
110454
111747
111673
111552
111403
111240
111076
110919
110773
110643
110532
111843
111744
111592
111409
111214
111022
110840
110675
110527
110405
112061
111943
111766
111558
111339
111127
110928
110750
110594
110462
110599
110598
110597
110596
110594
110592
110589
110587
110585
110583
110610
110608
110605
110601
110595
110589
110582
110575
110569
110562
110720
110716
110708
110697
110684
110669
110654
110638
110624
110614
110798
110789
110774
110753
110729
110701
110672
110644
110616
110591
110932
110917
110891
110856
110814
110769
110723
110676
110633
110597
111120
111097
111058
111005
110943
110877
110809
110743
110681
110626
111218
111184
111126
111051
110965
110874
110783
110695
110613
110546
111490
111445
111368
111269
111158
111043
110929
110821
110724
110637
111529
111469
111371
111250
111115
110978
110844
110720
110605
110511
111711
111639
111527
111388
111236
111084
110937
110802
110681
110577
110635
110635
110634
110633
110632
110631
110630
110628
110627
110626
110626
110625
110623
110621
110618
110614
110610
110606
110602
110598
110725
110722
110718
110711
110703
110694
110685
110676
110667
110662
110765
110760
110750
110738
110723
110705
110687
110669
110651
110634
110870
110861
110845
110823
110796
110767
110736
110706
110676
110653
111017
111002
110977
110944
110903
110859
110814
110768
110725
110686
111071
111049
111013
110964
110907
110845
110781
110719
110661
110612
111306
111277
111228
111164
111089
111010
110930
110853
110781
110717
111296
111259
111197
111117
111025
110929
110834
110743
110658
110587
111455
111411
111340
111248
111145
111039
110933
110834
110744
110665
110670
110669
110669
110669
110668
110667
110667
110666
110665
110665
110643
110643
110642
110640
110639
110637
110634
110632
110629
110626
110740
110738
110735
110731
110726
110721
110715
110709
110705
110703
110747
110744
110739
110731
110722
110711
110700
110688
110677
110665
110834
110828
110818
110804
110787
110769
110749
110729
110710
110694
110947
110938
110922
110901
110875
110846
110816
110785
110756
110729
110967
110953
110930
110898
110861
110819
110776
110734
110693
110659
111175
111158
111127
111086
111036
110983
110928
110874
110824
110777
111125
111102
111062
111010
110949
110883
110817
110752
110691
110639
111272
111245
111199
111140
111072
110999
110925
110855
110790
110732
110702
110702
110702
110702
110702
110701
110701
110701
110700
110700
110658
110658
110658
110657
110656
110655
110653
110652
110650
110647
110759
110758
110756
110754
110751
110748
110744
110741
110738
110738
110739
110737
110734
110729
110724
110717
110710
110703
110695
110688
110813
110810
110804
110795
110785
110773
110760
110748
110735
110726
110901
110895
110885
110872
110855
110837
110817
110797
110778
110760
110894
110885
110871