/*--------------------------------*- C++ -*----------------------------------*\
| =========                 |                                                 |
| \\      /  F ield         | foam-extend: Open Source CFD                    |
|  \\    /   O peration     | Version:     4.0                                |
|   \\  /    A nd           | Web:         http://www.foam-extend.org         |
|    \\/     M anipulation  |                                                 |
\*---------------------------------------------------------------------------*/
FoamFile
{
    version     2.0;
    format      ascii;
    class       volScalarField;
    location    "1850";
    object      rho;
}
// * * * * * * * * * * * * * * * * * * * * * * * * * * * * * * * * * * * * * //

dimensions      [1 -3 0 0 0 0 0];

internalField   nonuniform List<scalar> 
34480
(
1.34601
1.3453
1.3452
1.34565
1.34687
1.34918
1.35339
1.36149
1.3722
1.37669
1.34692
1.34626
1.34621
1.34667
1.34783
1.35002
1.35413
1.36229
1.37415
1.37603
1.3457
1.34505
1.34506
1.34545
1.34645
1.34835
1.35218
1.35997
1.37223
1.36886
1.34459
1.34403
1.34407
1.34444
1.34533
1.34692
1.35034
1.35741
1.36944
1.36052
1.34352
1.34293
1.34302
1.34333
1.34409
1.3454
1.34842
1.35473
1.36625
1.35222
1.34341
1.34294
1.34306
1.34339
1.34408
1.34516
1.3478
1.35331
1.36401
1.3452
1.34212
1.3416
1.34175
1.34205
1.34268
1.34361
1.34595
1.35078
1.3605
1.33772
1.34287
1.34254
1.34279
1.34332
1.34419
1.34533
1.34765
1.35198
1.36045
1.33376
1.34135
1.34104
1.34132
1.34188
1.34288
1.34428
1.34669
1.3507
1.35762
1.32786
1.33859
1.3385
1.33931
1.3408
1.34304
1.34601
1.35007
1.35559
1.36266
1.32904
1.3529
1.3518
1.35141
1.35165
1.35261
1.35442
1.35733
1.36167
1.36851
1.37744
1.35348
1.35224
1.35181
1.35206
1.35309
1.35509
1.3585
1.3642
1.37447
1.38929
1.35198
1.35065
1.35021
1.35038
1.3513
1.35319
1.35671
1.36311
1.3761
1.39518
1.35065
1.34927
1.34877
1.34883
1.34962
1.3513
1.35466
1.36107
1.37566
1.39764
1.34946
1.34796
1.34738
1.34729
1.34791
1.34929
1.35233
1.35839
1.37385
1.39758
1.34925
1.34774
1.34709
1.34691
1.34737
1.34847
1.35113
1.35657
1.37223
1.39649
1.34792
1.34629
1.34558
1.34527
1.34557
1.3464
1.34868
1.35345
1.36885
1.39301
1.34865
1.34708
1.34637
1.34614
1.34651
1.34737
1.34949
1.35366
1.36821
1.39136
1.34715
1.34557
1.3448
1.34451
1.34482
1.34567
1.3477
1.35149
1.36462
1.38721
1.34447
1.34297
1.34256
1.34292
1.34407
1.34598
1.34904
1.35374
1.36641
1.38771
1.35766
1.35673
1.35642
1.35667
1.35757
1.35917
1.36158
1.36487
1.36901
1.37352
1.3582
1.35702
1.35665
1.35697
1.35808
1.3601
1.36323
1.36775
1.37439
1.38229
1.35655
1.35524
1.35485
1.35517
1.35635
1.35853
1.36208
1.36764
1.37696
1.38863
1.35498
1.35358
1.35313
1.35339
1.35456
1.35677
1.36055
1.36672
1.37814
1.39327
1.35358
1.35203
1.35153
1.35168
1.35274
1.35485
1.35865
1.36504
1.37808
1.39623
1.35311
1.35155
1.35097
1.35105
1.35201
1.35396
1.35767
1.36398
1.37813
1.39861
1.35158
1.3499
1.34927
1.34923
1.35007
1.35183
1.35536
1.36147
1.37629
1.39864
1.35212
1.35049
1.34985
1.34986
1.35073
1.35249
1.35596
1.36182
1.37672
1.40013
1.35056
1.34891
1.34821
1.34814
1.34888
1.35053
1.35386
1.35962
1.37396
1.39842
1.34786
1.34625
1.34578
1.34616
1.34746
1.34976
1.3537
1.36006
1.37417
1.39893
1.36096
1.36028
1.36005
1.36024
1.36091
1.36204
1.36363
1.36559
1.36773
1.36956
1.36179
1.36079
1.36047
1.36075
1.36168
1.36332
1.36571
1.36884
1.37273
1.37648
1.36036
1.35914
1.35877
1.35908
1.36018
1.36214
1.36515
1.36937
1.3755
1.38199
1.35881
1.35743
1.35698
1.35727
1.35845
1.36062
1.36413
1.3693
1.37763
1.38712
1.35739
1.35583
1.35531
1.35553
1.35669
1.35892
1.36272
1.36853
1.37882
1.39132
1.35681
1.35519
1.3546
1.35476
1.35588
1.35809
1.36203
1.36821
1.38014
1.39541
1.35518
1.35343
1.35279
1.35286
1.35389
1.35601
1.35997
1.36635
1.37958
1.39747
1.3556
1.35388
1.35322
1.35332
1.35438
1.35652
1.36053
1.36701
1.38101
1.40099
1.35397
1.35222
1.35151
1.35155
1.35253
1.35458
1.3585
1.3651
1.37923
1.40128
1.35125
1.34953
1.34898
1.34933
1.3507
1.35319
1.35751
1.36454
1.37867
1.40224
1.36324
1.3628
1.36265
1.36279
1.36324
1.36398
1.36498
1.36614
1.3673
1.36819
1.36442
1.36365
1.36339
1.36361
1.36433
1.36555
1.36724
1.36932
1.37161
1.37358
1.36336
1.36231
1.36199
1.36226
1.3632
1.36481
1.36716
1.3702
1.37397
1.37753
1.36196
1.36071
1.36029
1.36058
1.36166
1.3636
1.36656
1.37058
1.37612
1.38174
1.36066
1.35918
1.3587
1.35895
1.36009
1.36222
1.36563
1.37047
1.37778
1.38568
1.36006
1.35849
1.35793
1.35814
1.35931
1.36154
1.36526
1.37073
1.37973
1.38995
1.35843
1.3567
1.35608
1.35623
1.35736
1.35961
1.36353
1.36947
1.37996
1.39258
1.35878
1.35706
1.35641
1.35659
1.35776
1.36008
1.36417
1.37046
1.3821
1.39687
1.35712
1.35535
1.35466
1.3548
1.35593
1.35821
1.36233
1.36895
1.38119
1.39825
1.35441
1.35266
1.35207
1.35242
1.35381
1.3564
1.3608
1.3678
1.38029
1.39924
1.36485
1.3646
1.3645
1.36459
1.36487
1.36533
1.36592
1.36656
1.36717
1.36757
1.3663
1.36575
1.36556
1.36572
1.36623
1.36707
1.3682
1.3695
1.37083
1.37189
1.36565
1.36482
1.36456
1.36478
1.36551
1.36675
1.36847
1.37057
1.3729
1.37488
1.36448
1.36341
1.36305
1.36331
1.36423
1.36583
1.36817
1.37117
1.37479
1.3781
1.36338
1.36207
1.36163
1.36188
1.36291
1.36479
1.36765
1.37148
1.37651
1.38142
1.36286
1.36141
1.36089
1.36113
1.36224
1.36431
1.3676
1.37216
1.37863
1.3853
1.36128
1.35966
1.35908
1.35927
1.36041
1.36259
1.36619
1.37135
1.37923
1.38782
1.36164
1.35999
1.35936
1.35959
1.36079
1.36309
1.36696
1.37263
1.38172
1.39218
1.35997
1.35825
1.3576
1.35779
1.35899
1.36132
1.36531
1.37142
1.38137
1.39397
1.35732
1.35561
1.35502
1.35535
1.35672
1.35927
1.36348
1.36995
1.38032
1.39463
1.36602
1.3659
1.36585
1.3659
1.36607
1.36634
1.36667
1.36703
1.36735
1.36753
1.36764
1.36728
1.36715
1.36726
1.3676
1.36815
1.36886
1.36966
1.37043
1.37102
1.36738
1.36675
1.36655
1.36671
1.36725
1.36815
1.36935
1.37076
1.37221
1.37337
1.36643
1.36558
1.36528
1.36549
1.36622
1.36748
1.36924
1.37139
1.37376
1.37578
1.36559
1.36448
1.3641
1.36432
1.36521
1.36677
1.36904
1.37195
1.37538
1.37848
1.36519
1.36392
1.36346
1.36369
1.36469
1.3665
1.36924
1.37286
1.37745
1.3818
1.36372
1.36226
1.36173
1.36194
1.36301
1.365
1.36812
1.37239
1.37815
1.38395
1.36413
1.36261
1.36204
1.36228
1.36343
1.36558
1.36903
1.37386
1.38072
1.388
1.36249
1.36088
1.36028
1.3605
1.36167
1.3639
1.36754
1.37285
1.38059
1.38964
1.35994
1.35833
1.35776
1.35808
1.35937
1.36176
1.36559
1.37124
1.37946
1.38982
1.36693
1.36688
1.36686
1.36689
1.36699
1.36714
1.36733
1.36753
1.36769
1.36775
1.36861
1.36838
1.3683
1.36837
1.36858
1.36893
1.36937
1.36985
1.37029
1.37061
1.36866
1.36822
1.36807
1.36819
1.36857
1.36918
1.36999
1.37091
1.3718
1.37248
1.36792
1.36727
1.36703
1.36719
1.36775
1.36868
1.36995
1.37144
1.37299
1.37424
1.36733
1.36643
1.36613
1.36631
1.36702
1.36826
1.36999
1.37211
1.37444
1.37642
1.36708
1.36601
1.36562
1.36583
1.36668
1.36818
1.37037
1.37313
1.37635
1.37921
1.36575
1.36448
1.36402
1.36422
1.36517
1.36689
1.36947
1.37285
1.377
1.38093
1.36624
1.3649
1.3644
1.36463
1.36567
1.36758
1.37051
1.37444
1.37951
1.38454
1.36465
1.3632
1.36267
1.36289
1.36398
1.366
1.36915
1.37354
1.37938
1.38571
1.36225
1.36079
1.36026
1.36055
1.36173
1.36387
1.36721
1.37191
1.37819
1.38549
1.36768
1.36767
1.36767
1.36768
1.36774
1.36782
1.36793
1.36803
1.36812
1.36812
1.36933
1.36919
1.36914
1.36918
1.36931
1.36953
1.36979
1.37007
1.37032
1.37051
1.36963
1.36932
1.36922
1.3693
1.36955
1.36997
1.37049
1.37107
1.37161
1.37201
1.36903
1.36855
1.36838
1.36849
1.36889
1.36956
1.37045
1.37145
1.37245
1.37322
1.36867
1.36798
1.36774
1.36788
1.36843
1.36937
1.37064
1.37214
1.37369
1.37496
1.36857
1.36771
1.36739
1.36757
1.36826
1.36945
1.37112
1.37316
1.37538
1.37727
1.36738
1.36632
1.36594
1.36612
1.36692
1.36834
1.37038
1.37296
1.3759
1.37855
1.36799
1.36686
1.36642
1.36664
1.36754
1.36916
1.37154
1.37461
1.37828
1.38171
1.36644
1.36519
1.36473
1.36494
1.3659
1.36764
1.37026
1.37375
1.37803
1.38237
1.36423
1.36296
1.36249
1.36275
1.36378
1.36563
1.36841
1.37218
1.37684
1.38185
1.36831
1.36833
1.36833
1.36834
1.36837
1.36842
1.36848
1.36853
1.36857
1.36855
1.36987
1.36979
1.36976
1.36978
1.36986
1.36999
1.37015
1.37031
1.37046
1.37056
1.37036
1.37016
1.37009
1.37014
1.37031
1.37057
1.37091
1.37126
1.37159
1.37182
1.36984
1.36951
1.36938
1.36946
1.36974
1.37021
1.3708
1.37147
1.3721
1.37258
1.3697
1.36918
1.369
1.36911
1.36952
1.3702
1.3711
1.37213
1.37316
1.37396
1.36972
1.36906
1.36881
1.36894
1.36948
1.37039
1.37163
1.37309
1.37459
1.37582
1.36866
1.36781
1.36751
1.36766
1.3683
1.36942
1.37099
1.37289
1.37493
1.3767
1.36941
1.36849
1.36813
1.36831
1.36906
1.37037
1.37224
1.37455
1.37715
1.37945
1.3679
1.36685
1.36647
1.36665
1.36746
1.3689
1.37099
1.37367
1.37674
1.37966
1.36591
1.36484
1.36444
1.36466
1.36553
1.36706
1.3693
1.3722
1.37557
1.37896
1.36887
1.36891
1.36891
1.36892
1.36894
1.36896
1.36899
1.36902
1.36904
1.36899
1.37029
1.37025
1.37023
1.37024
1.37029
1.37037
1.37046
1.37055
1.37064
1.3707
1.37093
1.3708
1.37076
1.37079
1.3709
1.37106
1.37127
1.37148
1.37168
1.37181
1.37044
1.37021
1.37012
1.37018
1.37037
1.37068
1.37107
1.3715
1.3719
1.3722
1.37047
1.3701
1.36997
1.37005
1.37034
1.37082
1.37144
1.37213
1.3728
1.3733
1.37058
1.37009
1.36991
1.37001
1.37041
1.37108
1.37197
1.37298
1.37399
1.37478
1.36964
1.36898
1.36875
1.36887
1.36937
1.37022
1.37138
1.37274
1.37413
1.3753
1.37053
1.36981
1.36952
1.36967
1.37027
1.37129
1.3727
1.3744
1.3762
1.37771
1.36904
1.36819
1.36789
1.36804
1.3687
1.36984
1.37145
1.37344
1.37559
1.37753
1.36731
1.36644
1.36611
1.36629
1.367
1.36822
1.36996
1.37212
1.3745
1.37676
1.36938
1.36942
1.36943
1.36943
1.36945
1.36946
1.36947
1.36949
1.36949
1.36944
1.37062
1.3706
1.37058
1.37059
1.37062
1.37067
1.37072
1.37078
1.37083
1.37086
1.37139
1.37131
1.37128
1.3713
1.37137
1.37147
1.37159
1.37172
1.37183
1.3719
1.37088
1.37072
1.37066
1.3707
1.37082
1.37102
1.37128
1.37155
1.3718
1.37199
1.37105
1.37079
1.3707
1.37075
1.37095
1.37128
1.3717
1.37216
1.37258
1.37289
1.37123
1.37088
1.37074
1.37081
1.3711
1.37158
1.3722
1.37289
1.37356
1.37406
1.37037
1.36988
1.36971
1.36979
1.37017
1.37079
1.37162
1.37257
1.37351
1.37427
1.3714
1.37086
1.37064
1.37076
1.37121
1.37198
1.37302
1.37422
1.37544
1.37642
1.36991
1.36924
1.36901
1.36913
1.36964
1.37051
1.37171
1.37314
1.37462
1.37589
1.36847
1.36778
1.36752
1.36767
1.36822
1.36916
1.37046
1.37202
1.37367
1.37515
1.36986
1.3699
1.36991
1.36991
1.36992
1.36993
1.36993
1.36994
1.36994
1.36989
1.37087
1.37086
1.37086
1.37086
1.37088
1.3709
1.37094
1.37097
1.371
1.37102
1.37177
1.37172
1.3717
1.37172
1.37176
1.37182
1.37189
1.37196
1.37203
1.37206
1.37119
1.37109
1.37105
1.37107
1.37115
1.37128
1.37144
1.37161
1.37177
1.37189
1.37148
1.37131
1.37125
1.37128
1.37142
1.37163
1.37191
1.3722
1.37247
1.37266
1.37169
1.37145
1.37135
1.37141
1.37161
1.37194
1.37236
1.37282
1.37325
1.37356
1.37091
1.37055
1.37042
1.37049
1.37076
1.3712
1.37178
1.37242
1.37303
1.37353
1.37207
1.37168
1.37152
1.37161
1.37194
1.3725
1.37324
1.37406
1.37489
1.3755
1.37054
1.37004
1.36986
1.36995
1.37033
1.37098
1.37184
1.37284
1.37383
1.37466
1.36942
1.3689
1.3687
1.36881
1.36923
1.36992
1.37087
1.37196
1.37308
1.37404
1.37031
1.37035
1.37037
1.37037
1.37037
1.37037
1.37038
1.37038
1.37037
1.37032
1.37106
1.37106
1.37105
1.37105
1.37106
1.37108
1.3711
1.37112
1.37114
1.37116
1.37209
1.37206
1.37206
1.37207
1.37209
1.37212
1.37217
1.37221
1.37224
1.37225
1.37141
1.37135
1.37132
1.37133
1.37138
1.37146
1.37156
1.37167
1.37177
1.37185
1.3718
1.37169
1.37165
1.37167
1.37176
1.3719
1.37208
1.37226
1.37242
1.37254
1.37202
1.37186
1.37179
1.37183
1.37197
1.37218
1.37246
1.37276
1.37304
1.37324
1.37129
1.37104
1.37095
1.371
1.37118
1.37149
1.37187
1.3723
1.3727
1.37302
1.37259
1.37232
1.37221
1.37227
1.37251
1.3729
1.3734
1.37396
1.3745
1.37488
1.37097
1.3706
1.37048
1.37054
1.37082
1.37127
1.37187
1.37256
1.37321
1.37375
1.37022
1.36984
1.3697
1.36978
1.37008
1.37058
1.37124
1.37198
1.37272
1.37334
1.37077
1.3708
1.37081
1.37081
1.37082
1.37082
1.37082
1.37082
1.37081
1.37076
1.37118
1.37118
1.37117
1.37118
1.37118
1.37119
1.37121
1.37122
1.37124
1.37125
1.37238
1.37237
1.37236
1.37237
1.37239
1.37241
1.37243
1.37245
1.37246
1.37246
1.37156
1.37152
1.3715
1.37151
1.37154
1.37159
1.37165
1.37172
1.37178
1.37183
1.37203
1.37196
1.37194
1.37195
1.37201
1.3721
1.37221
1.37232
1.37242
1.37248
1.37224
1.37213
1.37209
1.37211
1.3722
1.37234
1.37252
1.37271
1.37289
1.37301
1.37156
1.37139
1.37133
1.37137
1.37149
1.37169
1.37194
1.37222
1.37246
1.37267
1.373
1.37282
1.37274
1.37278
1.37294
1.37321
1.37355
1.37391
1.37426
1.37448
1.37125
1.37098
1.37089
1.37094
1.37113
1.37144
1.37185
1.3723
1.37272
1.37307
1.37093
1.37067
1.37056
1.37062
1.37083
1.37117
1.37162
1.37211
1.37259
1.37298
1.37126
1.3713
1.37131
1.37131
1.37131
1.37131
1.37131
1.3713
1.3713
1.37125
1.37122
1.37122
1.37122
1.37122
1.37122
1.37123
1.37124
1.37125
1.37126
1.37128
1.37264
1.37264
1.37264
1.37264
1.37265
1.37266
1.37267
1.37268
1.37269
1.37267
1.37166
1.37163
1.37162
1.37162
1.37164
1.37167
1.37171
1.37175
1.37178
1.37182
1.37218
1.37214
1.37212
1.37213
1.37217
1.37222
1.37229
1.37236
1.37242
1.37245
1.37236
1.37229
1.37226
1.37227
1.37233
1.37242
1.37253
1.37265
1.37277
1.37284
1.37174
1.37164
1.3716
1.37162
1.3717
1.37183
1.37199
1.37216
1.37231
1.37244
1.3733
1.37319
1.37313
1.37316
1.37327
1.37344
1.37366
1.37389
1.37413
1.37424
1.37138
1.37119
1.37113
1.37116
1.37129
1.3715
1.37176
1.37205
1.37231
1.37255
1.37163
1.37145
1.37138
1.37141
1.37155
1.37178
1.37208
1.37239
1.3727
1.37294
1.37193
1.37196
1.37197
1.37197
1.37197
1.37197
1.37196
1.37196
1.37195
1.3719
1.37115
1.37115
1.37115
1.37114
1.37115
1.37115
1.37116
1.37118
1.37119
1.37121
1.37285
1.37285
1.37285
1.37285
1.37286
1.37286
1.37287
1.37287
1.37288
1.37285
1.37171
1.3717
1.37169
1.3717
1.37171
1.37172
1.37174
1.37177
1.37178
1.37181
1.37225
1.37222
1.37221
1.37221
1.37224
1.37227
1.37231
1.37235
1.37239
1.37241
1.37238
1.37233
1.37231
1.37232
1.37236
1.37241
1.37248
1.37256
1.37263
1.37268
1.37185
1.37179
1.37177
1.37179
1.37184
1.37192
1.37202
1.37212
1.3722
1.37227
1.37347
1.3734
1.37336
1.37338
1.37344
1.37356
1.3737
1.37385
1.374
1.37406
1.37134
1.37122
1.37118
1.3712
1.37128
1.37142
1.37158
1.37176
1.37192
1.37208
1.37246
1.37234
1.37229
1.37231
1.3724
1.37255
1.37274
1.37294
1.37314
1.37328
1.37302
1.37304
1.37305
1.37305
1.37305
1.37305
1.37305
1.37304
1.37303
1.37299
1.3709
1.37089
1.37089
1.37089
1.37089
1.3709
1.3709
1.37091
1.37092
1.37095
1.37293
1.37293
1.37292
1.37292
1.37292
1.37292
1.37293
1.37294
1.37295
1.37293
1.37174
1.37173
1.37173
1.37174
1.37175
1.37176
1.37177
1.37177
1.37178
1.37179
1.37223
1.37221
1.37221
1.37221
1.37222
1.37224
1.37227
1.37229
1.37232
1.37233
1.37231
1.37228
1.37226
1.37227
1.37229
1.37233
1.37237
1.37242
1.37247
1.3725
1.3719
1.37187
1.37186
1.37187
1.3719
1.37195
1.37201
1.37207
1.37211
1.37215
1.37339
1.37333
1.3733
1.37331
1.37335
1.37343
1.37352
1.37362
1.37374
1.37378
1.37107
1.37099
1.37097
1.37099
1.37104
1.37112
1.37123
1.37134
1.37143
1.37154
1.37365
1.37357
1.37354
1.37355
1.37361
1.37371
1.37383
1.37396
1.3741
1.37417
1.37477
1.37479
1.37479
1.37478
1.37478
1.37478
1.37478
1.37478
1.37478
1.37475
1.37031
1.37031
1.37033
1.37034
1.37034
1.37034
1.37034
1.37034
1.37033
1.37034
1.37275
1.37273
1.37271
1.3727
1.3727
1.37271
1.37272
1.37274
1.37276
1.37277
1.37177
1.37177
1.37178
1.37178
1.37179
1.37179
1.3718
1.3718
1.37179
1.37179
1.37217
1.37215
1.37215
1.37215
1.37215
1.37217
1.37219
1.37221
1.37223
1.37224
1.3722
1.37218
1.37217
1.37217
1.37219
1.37221
1.37224
1.37227
1.37231
1.37233
1.3719
1.37189
1.37188
1.37189
1.37191
1.37195
1.37199
1.37203
1.37205
1.37207
1.37291
1.37285
1.37283
1.37283
1.37286
1.37291
1.37298
1.37306
1.37315
1.37321
1.37043
1.37039
1.37038
1.3704
1.37044
1.3705
1.37057
1.37063
1.37068
1.37072
1.3754
1.37535
1.37532
1.37533
1.37537
1.37544
1.37553
1.37562
1.37572
1.37577
1.37663
1.37661
1.3766
1.37659
1.37659
1.37659
1.3766
1.37661
1.37664
1.37667
1.36956
1.36962
1.36966
1.36968
1.36969
1.36968
1.36967
1.36964
1.36959
1.36951
1.37238
1.37234
1.37232
1.37231
1.37231
1.37231
1.37233
1.37235
1.37238
1.37243
1.37183
1.37184
1.37184
1.37185
1.37185
1.37186
1.37186
1.37186
1.37186
1.37184
1.37212
1.37211
1.3721
1.3721
1.37211
1.37212
1.37214
1.37215
1.37217
1.37218
1.37214
1.37212
1.37211
1.37211
1.37213
1.37215
1.37218
1.3722
1.37223
1.37225
1.37194
1.37192
1.37192
1.37193
1.37195
1.37198
1.37201
1.37205
1.37207
1.37208
1.37228
1.37222
1.3722
1.37221
1.37223
1.37228
1.37234
1.3724
1.37248
1.37256
1.36967
1.36966
1.36966
1.36967
1.36971
1.36976
1.36982
1.36988
1.3699
1.36986
1.37717
1.37713
1.37711
1.37712
1.37716
1.37722
1.37729
1.37737
1.37745
1.37749
1.47347
1.47906
1.47562
1.46844
1.50622
1.51195
1.50509
1.49433
1.53266
1.53771
1.52802
1.51471
1.55163
1.55553
1.54299
1.52768
1.56629
1.56879
1.55352
1.5367
1.57822
1.57926
1.56308
1.54432
1.58619
1.5856
1.56997
1.54887
1.59333
1.59099
1.57619
1.5528
1.59118
1.58698
1.57276
1.54732
1.58336
1.57815
1.56559
1.53901
1.37268
1.37236
1.37291
1.37397
1.39413
1.3955
1.3965
1.39617
1.41354
1.41625
1.4175
1.41558
1.43216
1.43607
1.43745
1.43362
1.44966
1.45442
1.45577
1.44986
1.46661
1.4719
1.47296
1.46537
1.48077
1.48632
1.48698
1.47828
1.49504
1.50067
1.50102
1.49169
1.50202
1.50765
1.50783
1.49828
1.50565
1.51177
1.51196
1.50276
1.3769
1.37734
1.37753
1.37754
1.38962
1.3906
1.39089
1.39074
1.4017
1.40329
1.40371
1.40336
1.41347
1.41573
1.41626
1.41555
1.42502
1.42792
1.42848
1.42724
1.43724
1.44076
1.4413
1.43937
1.44786
1.4519
1.45239
1.44968
1.45975
1.46419
1.4646
1.4611
1.46575
1.47053
1.47086
1.46651
1.46926
1.4748
1.47514
1.46976
1.37015
1.3701
1.37014
1.37024
1.37818
1.37842
1.37852
1.37854
1.38605
1.3866
1.3868
1.38676
1.39443
1.3954
1.39574
1.39557
1.40288
1.40435
1.40482
1.40442
1.41227
1.41427
1.41487
1.41415
1.42044
1.42297
1.42365
1.42252
1.43034
1.43335
1.43408
1.43247
1.43521
1.43864
1.43946
1.43735
1.43787
1.44217
1.44311
1.44032
1.36876
1.3687
1.3687
1.36876
1.37441
1.37456
1.37463
1.37462
1.37943
1.37975
1.37987
1.37984
1.38515
1.3857
1.3859
1.38585
1.39116
1.39198
1.39228
1.39217
1.39817
1.39932
1.39973
1.39952
1.40411
1.40562
1.40613
1.40577
1.41202
1.41388
1.41449
1.41392
1.41591
1.41812
1.4189
1.41812
1.41794
1.42093
1.4219
1.42067
1.36797
1.36787
1.36786
1.36792
1.3722
1.37225
1.37228
1.37229
1.3756
1.37572
1.37579
1.37581
1.37954
1.3798
1.37992
1.37994
1.38389
1.38431
1.3845
1.38452
1.3892
1.38984
1.39012
1.39011
1.39352
1.3944
1.39476
1.39471
1.39989
1.40102
1.40148
1.40135
1.40304
1.40443
1.40505
1.40485
1.40426
1.4063
1.40708
1.40654
1.36788
1.36777
1.36774
1.3678
1.37119
1.37122
1.37123
1.37124
1.37373
1.37379
1.37382
1.37384
1.37648
1.3766
1.37668
1.3767
1.37967
1.37989
1.38001
1.38005
1.38373
1.38408
1.38427
1.38431
1.38681
1.38732
1.38757
1.38762
1.39197
1.39265
1.39298
1.39301
1.3944
1.39526
1.39571
1.39572
1.39481
1.39621
1.39677
1.39649
1.36807
1.36796
1.36793
1.36799
1.3707
1.37072
1.37072
1.37073
1.37267
1.3727
1.37272
1.37272
1.37461
1.37468
1.37472
1.37474
1.37704
1.37716
1.37723
1.37726
1.38022
1.38042
1.38054
1.38058
1.38242
1.38271
1.38288
1.38294
1.38664
1.38704
1.38726
1.38733
1.38831
1.38883
1.38914
1.38919
1.38807
1.38907
1.38944
1.38924
1.36842
1.3683
1.36827
1.36833
1.37056
1.37056
1.37057
1.37057
1.37212
1.37213
1.37214
1.37215
1.37344
1.37348
1.3735
1.37351
1.37532
1.37539
1.37543
1.37545
1.37785
1.37797
1.37804
1.37807
1.37939
1.37956
1.37967
1.37971
1.38289
1.38313
1.38328
1.38333
1.38384
1.38417
1.38437
1.38442
1.38318
1.38393
1.38417
1.38398
1.36883
1.36871
1.36868
1.36874
1.37059
1.37059
1.3706
1.3706
1.37188
1.37189
1.3719
1.3719
1.37271
1.37273
1.37275
1.37276
1.37417
1.37421
1.37424
1.37425
1.37617
1.37625
1.37629
1.37631
1.3772
1.3773
1.37737
1.3774
1.38015
1.3803
1.38039
1.38043
1.38053
1.38073
1.38085
1.38089
1.37961
1.3802
1.38036
1.38017
1.36927
1.36915
1.36912
1.36918
1.37071
1.37072
1.37072
1.37072
1.37184
1.37185
1.37185
1.37185
1.37228
1.3723
1.37231
1.37231
1.37343
1.37345
1.37347
1.37348
1.375
1.37505
1.37508
1.37509
1.3756
1.37566
1.37571
1.37573
1.37814
1.37823
1.37829
1.37832
1.37806
1.37818
1.37826
1.37829
1.37703
1.37752
1.37763
1.37743
1.36972
1.36959
1.36956
1.36962
1.37087
1.37087
1.37087
1.37088
1.37192
1.37193
1.37193
1.37193
1.37204
1.37205
1.37206
1.37206
1.37297
1.37298
1.37299
1.373
1.3742
1.37423
1.37425
1.37426
1.37445
1.37449
1.37452
1.37454
1.37669
1.37675
1.37679
1.3768
1.37622
1.37631
1.37636
1.37637
1.37521
1.37562
1.3757
1.37551
1.37015
1.37002
1.36999
1.37005
1.37103
1.37103
1.37103
1.37103
1.37207
1.37207
1.37207
1.37207
1.37192
1.37193
1.37193
1.37194
1.37271
1.37271
1.37272
1.37272
1.37366
1.37368
1.37369
1.3737
1.37364
1.37366
1.37368
1.37369
1.37567
1.37571
1.37573
1.37574
1.37487
1.37492
1.37496
1.37497
1.37398
1.37434
1.37439
1.3742
1.37057
1.37045
1.37041
1.37047
1.37116
1.37116
1.37116
1.37117
1.37226
1.37226
1.37226
1.37225
1.37186
1.37187
1.37187
1.37187
1.37257
1.37257
1.37257
1.37257
1.3733
1.37332
1.37332
1.37333
1.37308
1.37309
1.3731
1.37311
1.37499
1.37501
1.37503
1.37503
1.37388
1.37392
1.37394
1.37395
1.37321
1.37352
1.37356
1.37339
1.371
1.37087
1.37084
1.3709
1.37125
1.37125
1.37125
1.37126
1.37247
1.37246
1.37246
1.37246
1.37184
1.37184
1.37184
1.37184
1.3725
1.3725
1.3725
1.3725
1.37306
1.37307
1.37307
1.37308
1.37269
1.3727
1.3727
1.37271
1.37456
1.37457
1.37458
1.37458
1.37315
1.37317
1.37319
1.37319
1.37282
1.37309
1.37311
1.37296
1.37148
1.37135
1.37132
1.37138
1.37128
1.37128
1.37128
1.37129
1.37268
1.37268
1.37267
1.37267
1.37182
1.37182
1.37182
1.37182
1.37246
1.37246
1.37246
1.37247
1.37288
1.37289
1.37289
1.37289
1.37243
1.37243
1.37244
1.37244
1.3743
1.37431
1.37432
1.37432
1.37259
1.3726
1.37262
1.37262
1.37277
1.373
1.37302
1.37288
1.37211
1.37199
1.37196
1.37202
1.37121
1.37121
1.37121
1.37121
1.37287
1.37287
1.37287
1.37286
1.37179
1.37179
1.37179
1.37179
1.37242
1.37242
1.37242
1.37242
1.37271
1.37272
1.37272
1.37272
1.37225
1.37224
1.37225
1.37225
1.37413
1.37413
1.37414
1.37414
1.3721
1.37211
1.37212
1.37212
1.37312
1.3733
1.37331
1.3732
1.37317
1.37305
1.37302
1.37308
1.37093
1.37093
1.37093
1.37094
1.37296
1.37297
1.37296
1.37296
1.37176
1.37176
1.37176
1.37176
1.37235
1.37235
1.37235
1.37235
1.37253
1.37253
1.37254
1.37253
1.37211
1.3721
1.3721
1.3721
1.37386
1.37388
1.37388
1.37388
1.37153
1.37153
1.37153
1.37154
1.37405
1.37418
1.37418
1.37411
1.3749
1.3748
1.37478
1.37484
1.37028
1.37027
1.37027
1.37028
1.37284
1.37285
1.37286
1.37286
1.37175
1.37174
1.37174
1.37174
1.37225
1.37226
1.37226
1.37226
1.37235
1.37236
1.37236
1.37236
1.37201
1.372
1.372
1.372
1.37334
1.37337
1.37337
1.37337
1.37064
1.37063
1.37063
1.37064
1.37574
1.37583
1.37584
1.37579
1.37677
1.37671
1.37671
1.37675
1.3693
1.36926
1.36925
1.36925
1.37253
1.37255
1.37256
1.37256
1.37179
1.37179
1.37178
1.37178
1.3722
1.3722
1.3722
1.3722
1.37226
1.37227
1.37227
1.37227
1.37203
1.37202
1.37201
1.37202
1.37273
1.37276
1.37277
1.37276
1.36958
1.36951
1.3695
1.36954
1.37768
1.37774
1.37774
1.37769
1.42995
1.40545
1.38431
1.37003
1.36146
1.35616
1.35268
1.3503
1.34865
1.34745
1.44223
1.40924
1.38405
1.36923
1.36099
1.35594
1.35269
1.35051
1.34903
1.34797
1.44376
1.40719
1.37969
1.36642
1.3586
1.35381
1.35067
1.34858
1.34723
1.34645
1.44054
1.40326
1.37432
1.36343
1.35615
1.3519
1.34907
1.3472
1.34598
1.34526
1.43463
1.3983
1.3695
1.36046
1.35357
1.34985
1.34729
1.34565
1.34458
1.34404
1.42736
1.39433
1.36611
1.3589
1.35232
1.34918
1.34685
1.34543
1.34448
1.34391
1.41713
1.38922
1.36155
1.35618
1.34977
1.3472
1.34504
1.34382
1.34295
1.34252
1.4092
1.38712
1.35999
1.35647
1.35017
1.34812
1.34601
1.34485
1.34396
1.34336
1.39817
1.38114
1.35513
1.3537
1.34786
1.34641
1.34436
1.34329
1.34244
1.34185
1.39506
1.38125
1.35582
1.35496
1.34826
1.34613
1.34329
1.34162
1.34029
1.3392
1.37774
1.37496
1.37163
1.36826
1.36504
1.36213
1.35963
1.35755
1.35586
1.35457
1.39541
1.38743
1.37999
1.37362
1.36834
1.36418
1.36096
1.35847
1.35652
1.35505
1.40834
1.39527
1.38409
1.37534
1.36849
1.3634
1.35965
1.35687
1.3548
1.35342
1.41796
1.40036
1.38598
1.37574
1.36799
1.36253
1.3586
1.35573
1.3536
1.35216
1.42427
1.40336
1.3863
1.37514
1.36686
1.36127
1.3573
1.35445
1.35231
1.35093
1.42906
1.40608
1.38682
1.37523
1.36665
1.36113
1.35718
1.35439
1.35226
1.3508
1.43065
1.40657
1.38548
1.3738
1.36503
1.35964
1.35573
1.353
1.35086
1.34945
1.43293
1.40878
1.38629
1.37492
1.36607
1.36087
1.35692
1.35414
1.35195
1.35032
1.43047
1.40642
1.38358
1.37315
1.36459
1.35963
1.35563
1.35281
1.35057
1.34889
1.43086
1.40744
1.38423
1.37385
1.36463
1.35905
1.35443
1.35109
1.34847
1.3463
1.37676
1.37472
1.37216
1.36957
1.36715
1.36499
1.3631
1.36149
1.36015
1.35911
1.38892
1.38438
1.37915
1.37448
1.37063
1.36748
1.36491
1.36279
1.36106
1.3597
1.39985
1.39196
1.38359
1.3767
1.37132
1.36716
1.36393
1.3614
1.35943
1.35805
1.40968
1.3981
1.3868
1.37817
1.37166
1.36681
1.36313
1.36033
1.35817
1.35663
1.41818
1.40277
1.38871
1.37866
1.37127
1.36595
1.36201
1.35906
1.35678
1.35524
1.42629
1.40725
1.39071
1.37959
1.37155
1.36597
1.36187
1.35885
1.35652
1.35486
1.43185
1.40946
1.3907
1.37883
1.37029
1.36457
1.36037
1.35732
1.35494
1.35332
1.43815
1.41304
1.39253
1.38031
1.37147
1.36569
1.36139
1.35826
1.35581
1.354
1.4392
1.41205
1.39096
1.3791
1.37032
1.36458
1.36016
1.35693
1.35441
1.35253
1.44035
1.41228
1.39088
1.37888
1.3696
1.36338
1.35853
1.35493
1.35214
1.3499
1.37018
1.3697
1.3689
1.36789
1.36678
1.36566
1.36458
1.3636
1.36273
1.36204
1.37822
1.37682
1.37487
1.37278
1.37071
1.36877
1.36702
1.36547
1.36413
1.36304
1.38585
1.38287
1.37909
1.37541
1.37208
1.36919
1.36675
1.3647
1.36302
1.36178
1.39377
1.38882
1.38303
1.37776
1.37323
1.36949
1.36644
1.36397
1.36197
1.36047
1.40128
1.39401
1.38606
1.37928
1.37369
1.36925
1.36574
1.36296
1.36073
1.35914
1.40918
1.39938
1.38925
1.38114
1.37465
1.36968
1.36583
1.36284
1.36046
1.35871
1.41524
1.40278
1.39052
1.38124
1.37399
1.36863
1.36452
1.36138
1.35887
1.3571
1.42254
1.40758
1.39345
1.38332
1.37551
1.36985
1.36552
1.36223
1.35963
1.35767
1.42528
1.40828
1.39315
1.3827
1.37462
1.36877
1.36424
1.36083
1.35813
1.35612
1.42742
1.40885
1.39288
1.3819
1.37333
1.36712
1.36228
1.35859
1.35572
1.35342
1.36862
1.36835
1.36793
1.3674
1.3668
1.36617
1.36555
1.36496
1.36443
1.36402
1.37443
1.3738
1.37285
1.37172
1.37051
1.3693
1.36815
1.36709
1.36615
1.36536
1.37941
1.37804
1.37615
1.37409
1.37205
1.37013
1.3684
1.36686
1.36555
1.36454
1.38511
1.38275
1.37965
1.37647
1.37348
1.3708
1.36846
1.36646
1.36478
1.36346
1.39097
1.38732
1.38278
1.3784
1.37445
1.37106
1.36819
1.36579
1.3638
1.36232
1.39761
1.39243
1.38632
1.38074
1.3759
1.37187
1.36856
1.36585
1.36363
1.36194
1.4029
1.39594
1.38817
1.38143
1.37576
1.3712
1.36751
1.36456
1.36214
1.36037
1.40985
1.40108
1.39171
1.38399
1.37762
1.3726
1.36859
1.36541
1.36286
1.36089
1.41314
1.40277
1.39231
1.3839
1.377
1.37163
1.36735
1.36402
1.36134
1.35931
1.41529
1.40339
1.39192
1.38284
1.37547
1.36976
1.36522
1.36167
1.35887
1.35661
1.3678
1.36767
1.36748
1.36722
1.36691
1.36658
1.36623
1.3659
1.36561
1.36539
1.37224
1.37196
1.37149
1.37089
1.37021
1.3695
1.36879
1.36812
1.3675
1.36696
1.37568
1.37507
1.37413
1.373
1.37178
1.37055
1.36937
1.36828
1.36732
1.36656
1.3797
1.37859
1.37696
1.37511
1.37321
1.37137
1.36967
1.36814
1.36681
1.36574
1.3841
1.3823
1.3798
1.37709
1.37443
1.37195
1.36974
1.3678
1.36613
1.36486
1.38941
1.38674
1.3832
1.37957
1.37613
1.37305
1.37036
1.36806
1.36612
1.36459
1.39361
1.38986
1.38516
1.38055
1.37634
1.37269
1.36957
1.36697
1.36478
1.36313
1.39972
1.39479
1.38889
1.38336
1.37844
1.37427
1.37078
1.3679
1.36554
1.36368
1.40284
1.3968
1.38988
1.38355
1.37801
1.37342
1.36962
1.36655
1.36404
1.3621
1.40436
1.39716
1.38936
1.38239
1.3764
1.37149
1.36746
1.36421
1.36159
1.35945
1.3677
1.36762
1.36751
1.36738
1.36722
1.36704
1.36685
1.36667
1.36651
1.36641
1.3712
1.37105
1.3708
1.37047
1.37008
1.36967
1.36924
1.36882
1.36843
1.36808
1.37377
1.37345
1.37293
1.37227
1.37153
1.37075
1.36997
1.36923
1.36856
1.36803
1.37659
1.37602
1.37512
1.37401
1.37279
1.37156
1.37036
1.36925
1.36825
1.36743
1.37988
1.37894
1.37752
1.37583
1.37405
1.3723
1.37066
1.36916
1.36784
1.36681
1.38404
1.38262
1.38055
1.37821
1.37582
1.37354
1.37146
1.36961
1.368
1.3667
1.3872
1.38516
1.38232
1.37924
1.37621
1.3734
1.37089
1.36871
1.36683
1.36539
1.39236
1.3896
1.38591
1.38208
1.37841
1.37511
1.37222
1.36975
1.36767
1.366
1.39491
1.39138
1.38687
1.38231
1.37807
1.37434
1.37114
1.36847
1.36622
1.36446
1.39565
1.39138
1.38621
1.38112
1.37648
1.37246
1.36904
1.3662
1.36386
1.36192
1.36788
1.36784
1.36778
1.36771
1.36762
1.36753
1.36742
1.36733
1.36725
1.36723
1.37071
1.37063
1.37049
1.37031
1.37009
1.36985
1.3696
1.36935
1.36911
1.36889
1.37269
1.37251
1.37221
1.37183
1.37138
1.37089
1.37039
1.36991
1.36946
1.36911
1.37468
1.37437
1.37384
1.37316
1.37239
1.37157
1.37076
1.36998
1.36927
1.36866
1.37719
1.37667
1.37582
1.37475
1.37358
1.37237
1.37119
1.37008
1.36908
1.36829
1.38046
1.37968
1.37843
1.37691
1.37527
1.37363
1.37208
1.37065
1.36938
1.36833
1.38277
1.38162
1.37988
1.37783
1.37568
1.3736
1.37165
1.36992
1.36838
1.36717
1.38706
1.38548
1.38317
1.38055
1.37789
1.37537
1.37308
1.37106
1.36932
1.36788
1.38884
1.38676
1.38386
1.38068
1.37754
1.37465
1.37207
1.36985
1.36793
1.3664
1.38896
1.38643
1.38307
1.37948
1.37601
1.37286
1.37009
1.36771
1.3657
1.364
1.36823
1.3682
1.36817
1.36813
1.36808
1.36803
1.36797
1.36793
1.36789
1.36791
1.37056
1.37052
1.37044
1.37034
1.37022
1.37008
1.36993
1.36979
1.36964
1.36951
1.37213
1.37202
1.37185
1.37162
1.37135
1.37105
1.37073
1.37042
1.37014
1.36992
1.37348
1.3733
1.37298
1.37257
1.37208
1.37155
1.37101
1.37049
1.36999
1.36956
1.37541
1.3751
1.37458
1.3739
1.37313
1.37231
1.37149
1.37071
1.36998
1.3694
1.378
1.37754
1.37676
1.37577
1.37467
1.37352
1.3724
1.37134
1.37038
1.36956
1.37963
1.37895
1.37786
1.37649
1.37501
1.3735
1.37205
1.37072
1.36951
1.36854
1.3832
1.38227
1.3808
1.37903
1.37715
1.37529
1.37354
1.37195
1.37056
1.36937
1.38425
1.38301
1.38115
1.37898
1.37673
1.37457
1.37256
1.37078
1.36921
1.36793
1.38393