/*--------------------------------*- C++ -*----------------------------------*\
| =========                 |                                                 |
| \\      /  F ield         | foam-extend: Open Source CFD                    |
|  \\    /   O peration     | Version:     4.0                                |
|   \\  /    A nd           | Web:         http://www.foam-extend.org         |
|    \\/     M anipulation  |                                                 |
\*---------------------------------------------------------------------------*/
FoamFile
{
    version     2.0;
    format      ascii;
    class       volScalarField;
    location    "1850";
    object      T;
}
// * * * * * * * * * * * * * * * * * * * * * * * * * * * * * * * * * * * * * //

dimensions      [0 0 0 1 0 0 0];

internalField   nonuniform List<scalar> 
34480
(
278.809
278.699
278.618
278.563
278.531
278.522
278.537
278.621
278.893
278.859
278.258
278.14
278.046
277.98
277.946
277.95
277.975
278.019
278.236
277.792
278.146
278.015
277.909
277.835
277.798
277.785
277.766
277.713
277.841
277.065
278.188
278.035
277.906
277.804
277.732
277.669
277.584
277.426
277.433
276.309
278.201
278.024
277.867
277.732
277.618
277.499
277.345
277.076
276.927
275.448
278.27
278.07
277.889
277.728
277.58
277.41
277.19
276.806
276.471
274.608
278.297
278.071
277.867
277.681
277.501
277.287
277.004
276.507
275.961
273.711
278.369
278.121
277.904
277.709
277.522
277.292
276.976
276.394
275.639
272.97
278.426
278.157
277.922
277.709
277.497
277.24
276.881
276.216
275.25
272.227
279.242
278.962
278.758
278.616
278.512
278.391
278.182
277.656
276.65
273.196
279.343
279.25
279.214
279.23
279.303
279.45
279.71
280.167
280.835
281.706
278.693
278.609
278.576
278.593
278.674
278.841
279.132
279.63
280.423
281.444
278.487
278.409
278.38
278.4
278.486
278.658
278.947
279.438
280.288
281.404
278.435
278.355
278.322
278.333
278.407
278.557
278.822
279.287
280.168
281.332
278.361
278.277
278.235
278.233
278.288
278.41
278.642
279.069
279.95
281.128
278.352
278.264
278.218
278.207
278.246
278.341
278.539
278.918
279.77
280.925
278.309
278.215
278.162
278.142
278.167
278.238
278.402
278.727
279.526
280.641
278.327
278.231
278.18
278.165
278.193
278.26
278.404
278.684
279.41
280.433
278.343
278.24
278.183
278.16
278.176
278.227
278.346
278.578
279.223
280.167
279.108
279.017
278.996
279.039
279.143
279.296
279.517
279.822
280.417
281.087
279.817
279.718
279.683
279.703
279.781
279.927
280.158
280.504
281.003
281.626
279.16
279.063
279.027
279.051
279.142
279.317
279.606
280.062
280.769
281.698
278.939
278.841
278.806
278.831
278.927
279.114
279.431
279.946
280.818
282.032
278.856
278.754
278.713
278.731
278.819
278.998
279.317
279.861
280.868
282.333
278.752
278.644
278.597
278.602
278.676
278.836
279.141
279.689
280.793
282.464
278.717
278.604
278.552
278.549
278.61
278.75
279.033
279.565
280.728
282.553
278.651
278.533
278.474
278.462
278.51
278.63
278.888
279.392
280.579
282.518
278.65
278.53
278.472
278.464
278.513
278.627
278.868
279.338
280.514
282.514
278.648
278.525
278.462
278.448
278.489
278.59
278.808
279.237
280.376
282.455
279.381
279.269
279.234
279.268
279.373
279.548
279.834
280.301
281.385
283.383
280.156
280.07
280.04
280.059
280.128
280.248
280.426
280.668
280.973
281.312
279.527
279.435
279.403
279.429
279.517
279.677
279.923
280.276
280.761
281.308
279.318
279.217
279.182
279.21
279.309
279.492
279.786
280.227
280.883
281.674
279.222
279.113
279.072
279.096
279.195
279.385
279.704
280.209
281.03
282.079
279.103
278.984
278.937
278.953
279.044
279.228
279.556
280.1
281.061
282.351
279.049
278.925
278.872
278.881
278.964
279.138
279.463
280.025
281.098
282.599
278.967
278.837
278.779
278.779
278.852
279.013
279.327
279.891
281.046
282.728
278.949
278.817
278.76
278.762
278.837
278.994
279.299
279.853
281.052
282.872
278.933
278.799
278.738
278.736
278.804
278.952
279.247
279.78
280.983
282.952
279.633
279.51
279.467
279.5
279.612
279.81
280.148
280.71
281.884
283.885
280.385
280.318
280.295
280.31
280.361
280.447
280.566
280.715
280.885
281.051
279.804
279.726
279.699
279.722
279.795
279.923
280.11
280.355
280.656
280.95
279.624
279.531
279.499
279.526
279.615
279.775
280.017
280.355
280.803
281.271
279.534
279.427
279.388
279.413
279.51
279.689
279.975
280.393
280.997
281.672
279.412
279.293
279.247
279.268
279.364
279.55
279.862
280.342
281.094
281.984
279.351
279.223
279.172
279.187
279.281
279.468
279.795
280.317
281.201
282.3
279.26
279.124
279.068
279.076
279.164
279.346
279.678
280.227
281.222
282.517
279.231
279.093
279.035
279.046
279.136
279.318
279.653
280.213
281.287
282.75
279.204
279.064
279.004
279.011
279.096
279.273
279.605
280.169
281.283
282.927
279.871
279.741
279.694
279.725
279.84
280.052
280.412
281.001
282.115
283.856
280.537
280.487
280.471
280.481
280.516
280.572
280.647
280.735
280.828
280.917
280.006
279.946
279.925
279.943
279.999
280.093
280.224
280.386
280.565
280.724
279.862
279.784
279.757
279.779
279.853
279.982
280.168
280.41
280.7
280.972
279.787
279.691
279.656
279.68
279.767
279.923
280.159
280.481
280.9
281.318
279.675
279.563
279.521
279.543
279.636
279.809
280.083
280.475
281.025
281.609
279.615
279.491
279.443
279.462
279.558
279.741
280.043
280.492
281.17
281.927
279.522
279.389
279.335
279.349
279.444
279.63
279.95
280.443
281.237
282.168
279.488
279.35
279.295
279.311
279.408
279.6
279.933
280.455
281.341
282.435
279.453
279.314
279.256
279.269
279.364
279.555
279.893
280.434
281.381
282.652
280.089
279.958
279.909
279.939
280.054
280.268
280.627
281.193
282.161
283.546
280.636
280.6
280.589
280.595
280.617
280.652
280.696
280.747
280.798
280.848
280.151
280.108
280.093
280.105
280.145
280.21
280.297
280.399
280.505
280.591
280.043
279.982
279.96
279.977
280.035
280.132
280.267
280.433
280.615
280.773
279.988
279.907
279.877
279.898
279.971
280.098
280.282
280.518
280.798
281.056
279.892
279.793
279.756
279.776
279.859
280.009
280.236
280.54
280.927
281.305
279.839
279.726
279.682
279.702
279.792
279.96
280.222
280.588
281.085
281.595
279.75
279.625
279.576
279.593
279.686
279.864
280.153
280.57
281.175
281.825
279.716
279.585
279.533
279.552
279.65
279.838
280.147
280.604
281.299
282.088
279.677
279.543
279.489
279.506
279.604
279.794
280.114
280.601
281.363
282.304
280.283
280.157
280.108
280.136
280.248
280.454
280.792
281.304
282.098
283.143
280.701
280.674
280.667
280.67
280.683
280.704
280.73
280.758
280.786
280.819
280.255
280.225
280.215
280.223
280.249
280.292
280.348
280.411
280.472
280.52
280.179
280.133
280.116
280.129
280.171
280.241
280.335
280.445
280.558
280.651
280.143
280.078
280.054
280.07
280.128
280.226
280.363
280.531
280.715
280.873
280.066
279.982
279.951
279.969
280.039
280.162
280.34
280.568
280.833
281.075
280.024
279.926
279.888
279.907
279.987
280.131
280.347
280.632
280.987
281.326
279.944
279.831
279.788
279.806
279.892
280.051
280.298
280.637
281.082
281.528
279.914
279.794
279.747
279.767
279.86
280.032
280.304
280.686
281.212
281.768
279.872
279.748
279.7
279.718
279.813
279.991
280.278
280.694
281.284
281.959
280.45
280.333
280.286
280.313
280.417
280.608
280.91
281.35
281.976
282.734
280.743
280.722
280.717
280.719
280.727
280.739
280.753
280.769
280.785
280.808
280.33
280.31
280.303
280.308
280.325
280.353
280.387
280.425
280.461
280.488
280.279
280.247
280.235
280.244
280.273
280.321
280.384
280.455
280.525
280.579
280.26
280.21
280.192
280.204
280.248
280.32
280.418
280.534
280.653
280.75
280.202
280.135
280.11
280.125
280.181
280.277
280.412
280.576
280.755
280.909
280.173
280.091
280.06
280.076
280.144
280.262
280.432
280.648
280.896
281.118
280.102
280.006
279.969
279.985
280.061
280.196
280.399
280.663
280.983
281.286
280.08
279.976
279.935
279.954
280.037
280.187
280.416
280.722
281.109
281.494
280.038
279.928
279.885
279.904
279.99
280.149
280.395
280.735
281.178
281.65
280.589
280.484
280.442
280.465
280.559
280.728
280.988
281.351
281.828
282.36
280.77
280.753
280.75
280.751
280.755
280.762
280.77
280.779
280.788
280.807
280.385
280.372
280.368
280.371
280.381
280.398
280.419
280.441
280.462
280.478
280.355
280.333
280.324
280.33
280.35
280.382
280.423
280.468
280.51
280.543
280.347
280.311
280.297
280.306
280.337
280.389
280.457
280.534
280.611
280.671
280.307
280.255
280.236
280.247
280.29
280.363
280.461
280.576
280.696
280.793
280.291
280.225
280.2
280.213
280.267
280.36
280.49
280.648
280.818
280.963
280.23
280.15
280.119
280.134
280.196
280.307
280.466
280.666
280.892
281.095
280.218
280.129
280.095
280.112
280.183
280.309
280.493
280.731
281.009
281.271
280.176
280.081
280.044
280.061
280.136
280.272
280.474
280.742
281.066
281.39
280.699
280.609
280.572
280.593
280.674
280.818
281.033
281.321
281.674
282.038
280.787
280.772
280.77
280.77
280.773
280.776
280.781
280.786
280.792
280.807
280.426
280.418
280.415
280.417
280.423
280.433
280.446
280.459
280.472
280.481
280.412
280.398
280.392
280.396
280.409
280.429
280.455
280.483
280.509
280.528
280.411
280.385
280.376
280.382
280.404
280.439
280.485
280.536
280.585
280.622
280.386
280.348
280.334
280.342
280.374
280.426
280.496
280.575
280.653
280.715
280.381
280.331
280.311
280.322
280.363
280.434
280.529
280.641
280.757
280.851
280.329
280.265
280.241
280.253
280.303
280.39
280.511
280.657
280.814
280.948
280.328
280.257
280.229
280.243
280.302
280.403
280.546
280.724
280.921
281.096
280.285
280.207
280.176
280.191
280.254
280.365
280.526
280.729
280.962
281.179
280.782
280.708
280.677
280.694
280.762
280.88
281.052
281.273
281.527
281.77
280.796
280.783
280.781
280.781
280.782
280.784
280.787
280.79
280.794
280.808
280.457
280.452
280.45
280.451
280.455
280.461
280.469
280.476
280.484
280.49
280.457
280.448
280.444
280.447
280.455
280.468
280.484
280.501
280.516
280.527
280.458
280.44
280.433
280.437
280.452
280.476
280.506
280.539
280.57
280.593
280.446
280.419
280.409
280.415
280.437
280.474
280.522
280.575
280.626
280.665
280.449
280.412
280.397
280.405
280.436
280.488
280.556
280.634
280.711
280.771
280.404
280.355
280.336
280.346
280.384
280.45
280.539
280.644
280.751
280.839
280.416
280.36
280.338
280.35
280.396
280.474
280.582
280.711
280.847
280.963
280.37
280.307
280.283
280.295
280.346
280.433
280.556
280.706
280.869
281.013
280.84
280.781
280.756
280.77
280.825
280.918
281.05
281.214
281.394
281.553
280.799
280.787
280.785
280.785
280.786
280.787
280.788
280.79
280.793
280.805
280.481
280.478
280.477
280.477
280.479
280.483
280.487
280.492
280.497
280.501
280.493
280.488
280.485
280.487
280.492
280.5
280.51
280.52
280.529
280.535
280.492
280.48
280.475
280.478
280.487
280.503
280.523
280.544
280.563
280.577
280.491
280.472
280.465
280.469
280.485
280.51
280.542
280.577
280.609
280.633
280.5
280.473
280.463
280.469
280.491
280.527
280.575
280.627
280.678
280.717
280.46
280.423
280.409
280.416
280.445
280.493
280.556
280.629
280.701
280.758
280.485
280.443
280.426
280.435
280.47
280.529
280.607
280.698
280.791
280.866
280.433
280.385
280.366
280.376
280.415
280.481
280.572
280.679
280.791
280.886
280.877
280.832
280.812
280.823
280.865
280.937
281.035
281.153
281.277
281.378
280.796
280.785
280.784
280.784
280.784
280.785
280.786
280.787
280.789
280.8
280.499
280.497
280.496
280.496
280.497
280.499
280.502
280.505
280.508
280.511
280.524
280.52
280.519
280.52
280.523
280.528
280.534
280.54
280.545
280.548
280.516
280.508
280.505
280.506
280.513
280.522
280.535
280.548
280.56
280.569
280.524
280.512
280.507
280.51
280.52
280.537
280.558
280.58
280.601
280.616
280.537
280.519
280.511
280.515
280.531
280.556
280.588
280.623
280.655
280.68
280.5
280.474
280.463
280.469
280.489
280.523
280.567
280.616
280.663
280.7
280.538
280.508
280.496
280.503
280.528
280.57
280.626
280.688
280.75
280.798
280.478
280.441
280.428
280.435
280.464
280.512
280.577
280.652
280.727
280.788
280.894
280.862
280.847
280.855
280.886
280.939
281.01
281.092
281.176
281.239
280.789
280.78
280.779
280.779
280.779
280.779
280.78
280.78
280.782
280.792
280.511
280.509
280.508
280.508
280.509
280.51
280.512
280.514
280.516
280.519
280.55
280.549
280.548
280.549
280.551
280.553
280.557
280.56
280.563
280.565
280.532
280.527
280.525
280.526
280.53
280.536
280.544
280.552
280.56
280.565
280.549
280.541
280.538
280.54
280.547
280.557
280.571
280.585
280.597
280.606
280.563
280.551
280.546
280.549
280.559
280.576
280.597
280.619
280.64
280.655
280.528
280.51
280.503
280.506
280.52
280.543
280.573
280.605
280.636
280.659
280.58
280.56
280.551
280.556
280.574
280.603
280.641
280.683
280.723
280.753
280.507
280.48
280.471
280.476
280.496
280.53
280.575
280.626
280.676
280.715
280.898
280.875
280.864
280.87
280.893
280.93
280.98
281.035
281.09
281.128
280.781
280.773
280.772
280.772
280.772
280.772
280.772
280.773
280.774
280.783
280.516
280.515
280.514
280.514
280.514
280.515
280.516
280.518
280.52
280.522
280.575
280.574
280.574
280.574
280.575
280.577
280.579
280.58
280.582
280.582
280.543
280.54
280.538
280.539
280.541
280.545
280.55
280.555
280.559
280.563
280.567
280.562
280.56
280.561
280.565
280.572
280.58
280.589
280.597
280.602
280.581
280.573
280.569
280.571
280.578
280.588
280.602
280.616
280.63
280.639
280.546
280.534
280.53
280.532
280.541
280.557
280.576
280.597
280.616
280.631
280.614
280.6
280.594
280.598
280.61
280.63
280.655
280.682
280.708
280.726
280.522
280.504
280.497
280.5
280.515
280.538
280.568
280.601
280.633
280.658
280.892
280.877
280.869
280.874
280.889
280.915
280.948
280.985
281.02
281.042
280.778
280.77
280.77
280.77
280.77
280.77
280.77
280.77
280.771
280.778
280.514
280.512
280.512
280.511
280.512
280.512
280.513
280.514
280.516
280.519
280.597
280.597
280.597
280.597
280.598
280.598
280.599
280.6
280.601
280.601
280.549
280.547
280.546
280.546
280.548
280.55
280.553
280.556
280.559
280.561
280.578
280.575
280.574
280.574
280.577
280.581
280.586
280.591
280.596
280.599
280.59
280.584
280.582
280.583
280.587
280.594
280.603
280.612
280.62
280.626
280.558
280.55
280.547
280.549
280.555
280.565
280.577
280.59
280.601
280.61
280.64
280.63
280.627
280.629
280.637
280.65
280.666
280.684
280.7
280.711
280.525
280.512
280.507
280.51
280.519
280.535
280.554
280.575
280.595
280.611
280.886
280.876
280.871
280.874
280.884
280.901
280.923
280.946
280.969
280.981
280.792
280.786
280.786
280.786
280.786
280.786
280.786
280.786
280.786
280.792
280.499
280.498
280.497
280.497
280.497
280.498
280.498
280.499
280.501
280.504
280.614
280.614
280.613
280.613
280.614
280.614
280.615
280.616
280.616
280.616
280.551
280.55
280.55
280.55
280.551
280.552
280.553
280.555
280.556
280.558
280.582
280.58
280.58
280.58
280.581
280.584
280.587
280.59
280.593
280.595
280.591
280.587
280.586
280.587
280.589
280.593
280.599
280.604
280.61
280.613
280.563
280.558
280.557
280.558
280.562
280.568
280.575
280.583
280.589
280.594
280.652
280.646
280.643
280.644
280.649
280.658
280.668
280.68
280.691
280.697
280.511
280.503
280.5
280.501
280.508
280.517
280.53
280.543
280.555
280.565
280.893
280.887
280.883
280.885
280.892
280.903
280.917
280.932
280.947
280.952
280.843
280.839
280.839
280.839
280.839
280.839
280.839
280.839
280.839
280.843
280.464
280.463
280.463
280.464
280.464
280.464
280.464
280.465
280.465
280.469
280.618
280.618
280.617
280.616
280.616
280.617
280.618
280.619
280.62
280.62
280.551
280.551
280.551
280.551
280.552
280.552
280.553
280.554
280.554
280.554
280.581
280.58
280.579
280.579
280.58
280.582
280.584
280.586
280.588
280.589
280.586
280.584
280.583
280.583
280.585
280.587
280.591
280.594
280.598
280.601
280.562
280.56
280.559
280.56
280.563
280.567
280.571
280.576
280.579
280.582
280.642
280.637
280.635
280.635
280.639
280.644
280.651
280.659
280.667
280.673
280.473
280.469
280.467
280.468
280.472
280.479
280.486
280.494
280.501
280.507
280.93
280.926
280.923
280.924
280.929
280.936
280.945
280.955
280.965
280.968
280.925
280.923
280.922
280.921
280.921
280.921
280.922
280.923
280.924
280.927
280.407
280.408
280.41
280.411
280.412
280.412
280.411
280.41
280.408
280.407
280.607
280.605
280.603
280.603
280.602
280.603
280.604
280.605
280.608
280.61
280.551
280.552
280.552
280.553
280.553
280.554
280.554
280.554
280.554
280.553
280.578
280.577
280.576
280.576
280.577
280.578
280.579
280.581
280.582
280.584
280.58
280.578
280.578
280.578
280.579
280.581
280.583
280.586
280.588
280.59
280.561
280.56
280.559
280.56
280.562
280.565
280.568
280.571
280.573
280.574
280.609
280.605
280.603
280.604
280.606
280.61
280.615
280.621
280.628
280.634
280.413
280.411
280.41
280.412
280.415
280.419
280.425
280.43
280.433
280.433
280.989
280.985
280.983
280.984
280.987
280.993
281
281.007
281.015
281.017
289.473
291.231
291.495
289.906
290.638
292.768
293.177
291.517
292.3
294.927
295.461
293.488
293.582
296.65
297.317
295.135
294.527
298.005
298.814
296.491
295.276
299.132
300.101
297.906
295.822
300.039
301.199
299.331
296.294
300.834
302.201
300.71
296.508
301.349
302.929
301.863
297.067
302.098
303.945
303.464
286.161
286.708
286.689
286.164
287.458
288.101
288.039
287.386
289.062
289.866
289.754
288.896
290.503
291.453
291.282
290.231
291.68
292.77
292.534
291.298
292.701
293.93
293.669
292.275
293.508
294.867
294.617
293.089
294.204
295.669
295.441
293.802
294.642
296.171
295.971
294.268
295.428
296.93
296.841
295.191
282.251
282.385
282.416
282.348
282.98
283.198
283.238
283.101
284.147
284.485
284.529
284.279
285.415
285.873
285.913
285.533
286.579
287.152
287.18
286.657
287.714
288.401
288.413
287.753
288.706
289.501
289.501
288.715
289.645
290.532
290.523
289.633
290.404
291.332
291.322
290.38
291.648
292.505
292.534
291.67
281.483
281.549
281.571
281.549
281.741
281.827
281.856
281.834
282.451
282.598
282.641
282.587
283.327
283.548
283.6
283.499
284.169
284.468
284.525
284.361
285.059
285.439
285.497
285.259
285.878
286.339
286.395
286.075
286.715
287.247
287.299
286.898
287.471
288.036
288.084
287.628
288.815
289.306
289.367
288.954
281.052
281.088
281.1
281.089
281.089
281.119
281.133
281.132
281.54
281.597
281.623
281.618
282.152
282.25
282.289
282.273
282.748
282.896
282.947
282.91
283.415
283.62
283.681
283.612
284.04
284.305
284.374
284.263
284.716
285.036
285.107
284.95
285.353
285.702
285.772
285.575
286.606
286.884
286.96
286.798
280.881
280.911
280.92
280.908
280.784
280.797
280.803
280.804
281.089
281.115
281.128
281.129
281.53
281.576
281.599
281.599
281.958
282.032
282.066
282.062
282.457
282.566
282.612
282.6
282.923
283.071
283.128
283.101
283.447
283.634
283.698
283.65
283.949
284.159
284.224
284.153
285.07
285.213
285.281
285.25
280.799
280.826
280.833
280.822
280.617
280.623
280.626
280.627
280.828
280.84
280.846
280.848
281.157
281.18
281.192
281.194
281.475
281.512
281.532
281.535
281.86
281.917
281.947
281.949
282.211
282.293
282.332
282.331
282.618
282.725
282.772
282.764
282.998
283.121
283.171
283.152
283.995
284.052
284.104
284.129
280.765
280.791
280.798
280.786
280.533
280.537
280.538
280.538
280.678
280.684
280.688
280.688
280.925
280.937
280.944
280.945
281.164
281.184
281.196
281.198
281.467
281.498
281.516
281.52
281.736
281.782
281.806
281.811
282.055
282.116
282.147
282.15
282.334
282.407
282.442
282.441
283.228
283.232
283.268
283.314
280.753
280.778
280.785
280.773
280.495
280.497
280.497
280.498
280.594
280.598
280.599
280.6
280.779
280.785
280.789
280.79
280.958
280.969
280.976
280.978
281.196
281.214
281.225
281.228
281.402
281.428
281.443
281.447
281.654
281.69
281.709
281.714
281.859
281.901
281.924
281.928
282.664
282.638
282.66
282.711
280.75
280.776
280.783
280.771
280.482
280.483
280.484
280.484
280.551
280.553
280.554
280.554
280.687
280.691
280.693
280.694
280.822
280.828
280.832
280.833
281.009
281.019
281.025
281.027
281.162
281.177
281.187
281.19
281.363
281.384
281.396
281.399
281.511
281.536
281.55
281.554
282.24
282.197
282.209
282.26
280.752
280.777
280.784
280.772
280.483
280.484
280.484
280.485
280.533
280.534
280.534
280.534
280.632
280.634
280.635
280.636
280.732
280.736
280.738
280.739
280.878
280.884
280.888
280.889
280.989
280.998
281.004
281.006
281.15
281.163
281.17
281.173
281.252
281.267
281.276
281.279
281.915
281.863
281.869
281.917
280.753
280.778
280.785
280.773
280.491
280.492
280.492
280.492
280.53
280.531
280.531
280.531
280.599
280.601
280.601
280.602
280.675
280.677
280.679
280.679
280.788
280.792
280.794
280.795
280.864
280.87
280.873
280.875
280.996
281.004
281.008
281.01
281.059
281.068
281.074
281.076
281.663
281.607
281.61
281.655
280.752
280.777
280.784
280.772
280.502
280.502
280.503
280.503
280.537
280.537
280.537
280.537
280.581
280.582
280.583
280.583
280.64
280.641
280.642
280.642
280.727
280.729
280.731
280.731
280.774
280.778
280.78
280.781
280.886
280.891
280.894
280.895
280.916
280.922
280.925
280.926
281.466
281.41
281.411
281.452
280.748
280.774
280.781
280.768
280.512
280.513
280.513
280.513
280.549
280.549
280.549
280.549
280.572
280.573
280.573
280.573
280.619
280.62
280.621
280.621
280.686
280.688
280.689
280.689
280.711
280.713
280.715
280.715
280.81
280.813
280.815
280.815
280.809
280.813
280.815
280.816
281.31
281.257
281.257
281.295
280.742
280.768
280.775
280.762
280.52
280.521
280.521
280.521
280.565
280.565
280.565
280.565
280.567
280.568
280.568
280.568
280.609
280.609
280.609
280.609
280.66
280.661
280.661
280.661
280.666
280.668
280.669
280.669
280.76
280.762
280.763
280.764
280.73
280.732
280.734
280.734
281.187
281.138
281.137
281.171
280.736
280.762
280.768
280.755
280.524
280.524
280.525
280.525
280.582
280.582
280.582
280.582
280.565
280.565
280.565
280.565
280.603
280.603
280.604
280.604
280.642
280.642
280.643
280.643
280.635
280.636
280.637
280.637
280.73
280.731
280.732
280.732
280.67
280.671
280.672
280.672
281.09
281.046
281.046
281.075
280.735
280.76
280.766
280.753
280.521
280.522
280.522
280.523
280.6
280.6
280.6
280.6
280.562
280.562
280.562
280.562
280.6
280.6
280.6
280.6
280.628
280.628
280.629
280.629
280.613
280.613
280.613
280.613
280.713
280.714
280.715
280.715
280.621
280.622
280.622
280.622
281.018
280.982
280.981
281.006
280.753
280.778
280.783
280.77
280.507
280.508
280.509
280.509
280.615
280.615
280.615
280.615
280.558
280.558
280.558
280.558
280.596
280.596
280.596
280.596
280.615
280.615
280.616
280.616
280.595
280.595
280.595
280.595
280.7
280.701
280.701
280.701
280.573
280.574
280.574
280.573
280.98
280.951
280.951
280.97
280.812
280.833
280.837
280.825
280.472
280.473
280.474
280.474
280.621
280.622
280.622
280.622
280.554
280.554
280.554
280.554
280.59
280.59
280.59
280.59
280.602
280.602
280.603
280.603
280.581
280.581
280.581
280.581
280.678
280.679
280.68
280.68
280.511
280.512
280.512
280.511
280.988
280.97
280.97
280.982
280.909
280.922
280.924
280.916
280.409
280.409
280.409
280.408
280.614
280.615
280.616
280.616
280.551
280.551
280.551
280.551
280.585
280.585
280.585
280.585
280.592
280.592
280.592
280.592
280.572
280.572
280.571
280.571
280.644
280.646
280.647
280.646
280.429
280.428
280.428
280.427
281.034
281.03
281.03
281.033
282.18
280.88
280.338
279.99
279.696
279.454
279.262
279.111
278.989
278.885
282.326
281.086
280.253
279.728
279.312
279.004
278.777
278.606
278.478
278.373
282.9
281.593
280.463
279.824
279.324
278.977
278.723
278.532
278.389
278.275
283.496
282.13
280.731
280.027
279.462
279.091
278.818
278.613
278.457
278.331
283.975
282.585
280.941
280.187
279.562
279.171
278.879
278.662
278.496
278.362
284.525
283.079
281.211
280.421
279.736
279.328
279.014
278.782
278.601
278.45
285.008
283.479
281.412
280.599
279.857
279.435
279.1
278.854
278.659
278.498
285.574
283.969
281.716
280.887
280.086
279.646
279.282
279.011
278.789
278.596
286.024
284.361
281.93
281.125
280.289
279.845
279.445
279.145
278.893
278.675
287.756
286.093
283.506
282.647
281.686
281.117
280.592
280.188
279.853
279.559
283.978
282.669
281.681
280.968
280.475
280.129
279.878
279.69
279.545
279.423
284.425
282.638
281.308
280.448
279.894
279.516
279.247
279.052
278.909
278.803
285.021
282.827
281.239
280.309
279.715
279.317
279.038
278.837
278.693
278.591
285.51
283.014
281.233
280.281
279.659
279.256
278.974
278.775
278.635
278.535
285.777
283.07
281.16
280.201
279.558
279.157
278.879
278.686
278.552
278.457
285.977
283.141
281.139
280.191
279.532
279.138
278.863
278.676
278.544
278.45
286.022
283.123
281.049
280.131
279.46
279.08
278.809
278.628
278.5
278.408
286.079
283.182
281.053
280.178
279.495
279.128
278.857
278.674
278.538
278.436
286.038
283.171
280.995
280.2
279.532
279.196
278.918
278.727
278.58
278.464
286.947
284.233
282.06
281.317
280.601
280.208
279.86
279.614
279.421
279.276
282.111
281.732
281.361
281.032
280.75
280.512
280.315
280.152
280.015
279.897
282.572
281.89
281.272
280.761
280.347
280.02
279.762
279.561
279.406
279.287
283.345
282.329
281.462
280.794
280.277
279.885
279.587
279.362
279.193
279.069
284.115
282.776
281.676
280.879
280.283
279.849
279.528
279.291
279.115
278.987
284.691
283.068
281.766
280.873
280.218
279.758
279.426
279.185
279.008
278.882
285.2
283.34
281.867
280.904
280.207
279.733
279.395
279.153
278.976
278.849
285.548
283.492
281.874
280.868
280.141
279.664
279.325
279.085
278.91
278.784
285.871
283.671
281.933
280.908
280.162
279.688
279.348
279.107
278.926
278.791
286.075
283.757
281.92
280.917
280.179
279.724
279.38
279.133
278.944
278.8
287.064
284.742
282.867
281.886
281.118
280.627
280.238
279.953
279.734
279.573
281.505
281.358
281.181
281
280.83
280.675
280.537
280.417
280.311
280.214
281.711
281.422
281.092
280.776
280.495
280.255
280.054
279.888
279.753
279.646
282.34
281.856
281.346
280.891
280.506
280.19
279.935
279.731
279.571
279.449
283.074
282.357
281.65
281.059
280.58
280.202
279.906
279.675
279.497
279.364
283.702
282.742
281.842
281.129
280.571
280.146
279.822
279.575
279.387
279.248
284.319
283.118
282.037
281.222
280.6
280.14
279.796
279.539
279.344
279.2
284.808
283.379
282.134
281.237
280.564
280.082
279.726
279.463
279.266
279.12
285.282
283.65
282.259
281.304
280.595
280.101
279.737
279.468
279.264
279.11
285.651
283.828
282.313
281.335
280.614
280.122
279.751
279.476
279.264
279.103
286.697
284.771
283.197
282.211
281.462
280.942
280.54
280.239
280.007
279.84
281.097
281.05
280.979
280.895
280.807
280.72
280.637
280.56
280.487
280.415
281.104
280.991
280.836
280.668
280.503
280.349
280.211
280.089
279.986
279.901
281.558
281.351
281.088
280.818
280.566
280.341
280.146
279.983
279.849
279.742
282.152
281.814
281.416
281.033
280.691
280.399
280.155
279.956
279.795
279.67
282.698
282.204
281.658
281.162
280.737
280.386
280.103
279.876
279.697
279.56
283.278
282.612
281.914
281.311
280.811
280.412
280.097
279.85
279.656
279.509
283.772
282.926
282.078
281.38
280.816
280.379
280.041
279.78
279.577
279.423
284.274
283.249
282.261
281.484
280.87
280.407
280.051
279.778
279.565
279.404
284.691
283.485
282.371
281.543
280.9
280.423
280.055
279.773
279.553
279.385
285.729
284.401
283.215
282.355
281.681
281.18
280.789
280.488
280.254
280.085
280.924
280.906
280.874
280.832
280.786
280.738
280.689
280.642
280.594
280.544
280.793
280.742
280.665
280.575
280.48
280.385
280.295
280.213
280.14
280.078
281.108
281.011
280.872
280.715
280.557
280.406
280.269
280.148
280.045
279.96
281.56
281.395
281.173
280.935
280.704
280.493
280.308
280.149
280.016
279.908
281.991
281.738
281.415
281.088
280.784
280.515
280.286
280.094
279.937
279.813
282.481
282.121
281.687
281.268
280.892
280.571
280.304
280.085
279.907
279.768
282.916
282.433
281.882
281.373
280.932
280.566
280.267
280.027
279.834
279.685
283.378
282.765
282.096
281.507
281.009
280.607
280.284
280.026
279.821
279.661
283.772
283.016
282.238
281.588
281.051
280.625
280.285
280.015
279.801
279.635
284.755
283.895
283.047
282.355
281.784
281.335
280.974
280.69
280.465
280.301
280.84
280.834
280.819
280.798
280.774
280.748
280.72
280.692
280.662
280.626
280.622
280.598
280.56
280.511
280.457
280.4
280.344
280.291
280.243
280.201
280.839
280.791
280.716
280.627
280.53
280.433
280.341
280.256
280.182
280.118
281.179
281.095
280.97
280.826
280.676
280.531
280.397
280.278
280.174
280.088
281.508
281.376
281.187
280.978
280.769
280.575
280.4
280.247
280.117
280.012
281.905
281.71
281.446
281.166
280.896
280.652
280.438
280.255
280.102
279.978
282.261
281.99
281.641
281.288
280.958
280.668
280.42
280.211
280.039
279.903
282.655
282.297
281.861
281.436
281.053
280.724
280.447
280.217
280.03
279.881
282.988
282.533
282.012
281.529
281.104
280.746
280.448
280.205
280.007
279.851
283.894
283.364
282.783
282.257
281.799
281.417
281.101
280.845
280.637
280.485
280.805
280.803
280.796
280.786
280.773
280.758
280.743
280.727
280.707
280.68
280.536
280.524
280.504
280.477
280.446
280.412
280.378
280.345
280.315
280.287
280.684
280.659
280.618
280.566
280.507
280.446
280.386
280.329
280.278
280.233
280.938
280.893
280.822
280.734
280.639
280.542
280.449
280.363
280.286
280.221
281.186
281.114
281.002
280.871
280.731
280.595
280.466
280.35
280.249
280.164
281.501
281.392
281.232
281.048
280.861
280.682
280.518
280.373
280.248
280.144
281.781
281.627
281.409
281.17
280.932
280.712
280.515
280.343
280.197
280.079
282.104
281.896
281.616
281.32
281.036
280.778
280.552
280.358
280.195
280.063
282.369
282.1
281.759
281.414
281.09
280.804
280.556
280.347
280.172
280.032
283.192
282.874
282.487
282.104
281.75
281.441
281.177
280.955
280.772
280.637
280.792
280.793
280.789
280.784
280.777
280.769
280.761
280.751
280.737
280.716
280.497
280.49
280.479
280.464
280.446
280.427
280.406
280.386
280.367
280.35
280.597
280.583
280.56
280.53
280.495
280.457
280.419
280.381
280.347
280.317
280.786
280.761
280.719
280.666
280.606
280.543
280.48
280.42
280.365
280.317
280.972
280.93
280.864
280.781
280.69
280.596
280.505
280.42
280.344
280.279
281.219
281.156
281.058
280.94
280.812
280.685
280.564
280.453
280.355
280.271
281.433
281.344
281.208
281.048
280.882
280.72
280.569
280.433
280.315
280.217
281.693
281.57
281.392
281.191
280.986
280.791
280.614
280.457
280.322
280.21
281.895
281.736
281.516
281.276
281.038
280.817
280.619
280.446
280.299
280.178
282.638
282.449
282.197
281.926
281.664
281.423
281.21
281.026
280.871