/*--------------------------------*- C++ -*----------------------------------*\
| =========                 |                                                 |
| \\      /  F ield         | foam-extend: Open Source CFD                    |
|  \\    /   O peration     | Version:     4.0                                |
|   \\  /    A nd           | Web:         http://www.foam-extend.org         |
|    \\/     M anipulation  |                                                 |
\*---------------------------------------------------------------------------*/
FoamFile
{
    version     2.0;
    format      ascii;
    class       volVectorField;
    location    "1850";
    object      U;
}
// * * * * * * * * * * * * * * * * * * * * * * * * * * * * * * * * * * * * * //

dimensions      [0 1 -1 0 0 0 0];

internalField   nonuniform List<vector> 
34480
(
(209.004 2.16634 3.2622)
(209.324 1.19924 1.52491)
(209.481 0.413437 -0.272533)
(209.487 -0.210658 -2.17581)
(209.338 -0.70538 -4.32536)
(208.996 -1.06696 -6.89853)
(208.38 -1.269 -10.297)
(207.214 -1.18854 -14.866)
(204.543 -0.590155 -22.7767)
(197.604 1.97999 -50.0408)
(209.934 3.07995 2.87534)
(210.194 2.25852 1.05454)
(210.321 1.53348 -0.769843)
(210.294 0.899054 -2.66881)
(210.059 0.327204 -4.76248)
(209.556 -0.19316 -7.26067)
(208.749 -0.672136 -10.6249)
(207.457 -1.04678 -15.5983)
(204.321 -1.14661 -24.4039)
(196.161 0.636414 -55.0989)
(210.621 2.71675 3.29035)
(210.856 1.83671 1.40696)
(210.95 1.06137 -0.497751)
(210.88 0.407059 -2.44187)
(210.585 -0.171351 -4.55646)
(210.057 -0.697104 -7.10126)
(209.306 -1.1866 -10.607)
(208.162 -1.55897 -16.1038)
(204.862 -1.63604 -25.7834)
(195.652 0.360755 -59.4536)
(210.627 3.26128 3.24026)
(210.863 2.4287 1.30128)
(210.972 1.68488 -0.63575)
(210.935 1.06056 -2.60734)
(210.701 0.511805 -4.75252)
(210.287 0.0145452 -7.36084)
(209.671 -0.450435 -10.9661)
(208.692 -0.790884 -16.8188)
(205.365 -0.820359 -27.1179)
(195.353 1.32503 -62.7262)
(210.785 2.72719 3.74653)
(211.05 1.82051 1.76911)
(211.197 1.02591 -0.247151)
(211.222 0.376527 -2.29373)
(211.08 -0.188636 -4.53545)
(210.801 -0.691529 -7.27427)
(210.333 -1.14356 -11.0414)
(209.538 -1.43952 -17.2745)
(206.311 -1.38366 -28.2375)
(195.655 0.926163 -65.396)
(210.67 3.41712 3.52196)
(210.945 2.52644 1.54687)
(211.113 1.74788 -0.430432)
(211.172 1.11901 -2.44578)
(211.097 0.589586 -4.65713)
(210.935 0.134209 -7.39145)
(210.62 -0.258124 -11.1644)
(210.039 -0.482624 -17.586)
(207.059 -0.321098 -29.0302)
(196.005 2.0872 -67.368)
(210.75 2.58083 4.03794)
(211.066 1.59515 2.06189)
(211.262 0.742492 0.0424593)
(211.36 0.0526117 -2.0046)
(211.344 -0.530415 -4.26712)
(211.279 -1.0235 -7.0738)
(211.105 -1.41136 -10.9446)
(210.74 -1.57064 -17.6116)
(208.092 -1.20989 -29.6303)
(196.742 1.49024 -68.9919)
(210.577 3.35693 3.56693)
(210.898 2.35898 1.62297)
(211.073 1.52557 -0.316934)
(211.129 0.862746 -2.29816)
(211.073 0.338245 -4.47219)
(210.99 -0.083584 -7.17326)
(210.861 -0.377919 -10.9052)
(210.654 -0.414946 -17.4901)
(208.413 0.250483 -29.6937)
(197.099 3.31561 -69.5904)
(210.522 2.04081 4.11502)
(210.886 0.925607 2.22432)
(211.093 -0.0310442 0.308871)
(211.187 -0.845198 -1.64846)
(211.181 -1.54867 -3.84115)
(211.142 -2.1474 -6.58007)
(211.082 -2.56086 -10.4043)
(211.015 -2.61189 -17.1051)
(209.104 -1.5571 -29.6774)
(197.674 2.45916 -69.5443)
(209.557 2.78756 3.53127)
(209.831 1.57024 1.5988)
(209.778 0.616453 -0.311503)
(209.42 -0.169432 -2.27806)
(208.802 -0.775382 -4.43653)
(208.016 -1.21614 -7.0732)
(207.148 -1.39983 -10.665)
(206.362 -1.10901 -16.817)
(204.426 0.415668 -28.5346)
(194.242 5.28081 -66.5)
(205.888 1.91177 3.00064)
(206.366 1.10926 1.54402)
(206.553 0.426202 -0.00980901)
(206.47 -0.117715 -1.60988)
(206.092 -0.546783 -3.31959)
(205.33 -0.861545 -5.15133)
(203.982 -1.0661 -7.15883)
(201.617 -1.17193 -9.31706)
(198.151 -1.25699 -11.2447)
(193.576 -1.15913 -14.3931)
(207.185 2.86758 2.79832)
(207.616 2.16332 1.16225)
(207.788 1.51856 -0.491745)
(207.699 0.943147 -2.18856)
(207.288 0.415881 -3.99575)
(206.433 -0.0693046 -5.97123)
(204.939 -0.527545 -8.20814)
(202.354 -0.993802 -10.9576)
(198.185 -1.58429 -14.0063)
(192.501 -1.82459 -20.5811)
(208.132 2.57688 3.3075)
(208.541 1.77092 1.54526)
(208.699 1.04439 -0.256103)
(208.599 0.422335 -2.08945)
(208.163 -0.133794 -4.02896)
(207.289 -0.636545 -6.15845)
(205.805 -1.11524 -8.66683)
(203.228 -1.58659 -12.0861)
(198.684 -2.15765 -16.3325)
(192.065 -2.07183 -26.7163)
(208.374 3.17762 3.30385)
(208.789 2.4032 1.45658)
(208.968 1.69429 -0.402797)
(208.911 1.08818 -2.29627)
(208.537 0.546393 -4.30918)
(207.766 0.0572127 -6.56799)
(206.394 -0.412485 -9.29851)
(203.91 -0.855589 -13.2578)
(199.137 -1.36397 -18.4758)
(191.705 -0.934121 -32.4538)
(208.726 2.66832 3.83864)
(209.169 1.80899 1.93612)
(209.387 1.04222 -0.0198405)
(209.394 0.408684 -2.00799)
(209.113 -0.146808 -4.14534)
(208.477 -0.63557 -6.58578)
(207.256 -1.09248 -9.5715)
(204.934 -1.48872 -14.0621)
(200.083 -1.90256 -20.23)
(191.943 -1.07339 -37.693)
(208.761 3.39311 3.63452)
(209.219 2.54126 1.72021)
(209.462 1.7837 -0.206355)
(209.512 1.16384 -2.175)
(209.304 0.635032 -4.29695)
(208.797 0.182847 -6.77219)
(207.741 -0.223976 -9.84252)
(205.64 -0.547925 -14.6614)
(200.876 -0.83019 -21.5467)
(192.212 0.364502 -42.2101)
(208.966 2.56693 4.16026)
(209.459 1.61615 2.23777)
(209.733 0.786507 0.259467)
(209.829 0.114325 -1.74903)
(209.689 -0.450563 -3.9351)
(209.296 -0.919764 -6.51485)
(208.403 -1.30981 -9.74342)
(206.547 -1.56807 -14.9168)
(201.99 -1.65613 -22.5668)
(192.902 0.00115757 -46.2452)
(208.88 3.37377 3.69601)
(209.381 2.40951 1.80374)
(209.645 1.59809 -0.0878653)
(209.715 0.950792 -2.02384)
(209.559 0.441254 -4.11964)
(209.187 0.0373833 -6.62186)
(208.388 -0.263747 -9.78019)
(206.753 -0.418133 -15.0042)
(202.525 -0.207844 -23.0517)
(193.309 1.83475 -49.2177)
(208.891 2.05543 4.24556)
(209.425 0.977344 2.40231)
(209.717 0.066129 0.526374)
(209.822 -0.688906 -1.37717)
(209.724 -1.31833 -3.47992)
(209.427 -1.8346 -6.02945)
(208.749 -2.18986 -9.33416)
(207.341 -2.32138 -14.7924)
(203.452 -1.74159 -23.4875)
(193.986 1.00327 -51.4982)
(207.969 2.86392 3.63735)
(208.446 1.69317 1.7899)
(208.564 0.796379 -0.034323)
(208.35 0.0678867 -1.90495)
(207.823 -0.474062 -3.92912)
(207.016 -0.855468 -6.35284)
(205.816 -1.01314 -9.46851)
(204.015 -0.831977 -14.5628)
(200.274 0.222356 -23.0369)
(191.629 4.0376 -51.345)
(203.513 1.42755 2.33447)
(204.016 0.833219 1.21642)
(204.197 0.302216 -0.0131082)
(204.093 -0.132041 -1.26323)
(203.693 -0.482615 -2.55442)
(202.946 -0.746938 -3.83224)
(201.76 -0.934785 -5.04885)
(199.985 -1.07168 -6.0546)
(197.43 -1.24303 -6.49833)
(194.213 -1.43237 -6.51675)
(204.906 2.41345 2.3136)
(205.402 1.87116 0.946523)
(205.581 1.34495 -0.448371)
(205.458 0.854376 -1.86533)
(204.995 0.389369 -3.33089)
(204.106 -0.0554306 -4.84768)
(202.633 -0.493347 -6.37928)
(200.305 -0.956043 -7.86258)
(196.682 -1.55492 -8.80212)
(191.842 -2.13701 -9.81051)
(205.939 2.21142 2.9484)
(206.439 1.52831 1.39586)
(206.62 0.890228 -0.208225)
(206.495 0.326857 -1.83746)
(206.008 -0.193823 -3.53814)
(205.055 -0.681749 -5.32704)
(203.439 -1.16169 -7.21395)
(200.794 -1.66383 -9.29142)
(196.293 -2.33255 -11.0023)
(189.851 -2.91167 -13.5838)
(206.335 2.89664 2.99445)
(206.858 2.2201 1.31844)
(207.064 1.57944 -0.380382)
(206.974 1.01441 -2.11176)
(206.524 0.491542 -3.93963)
(205.608 0.00107322 -5.92232)
(203.976 -0.4889 -8.10576)
(201.163 -0.995847 -10.7399)
(195.925 -1.68115 -13.2001)
(187.989 -2.16661 -17.5586)
(206.837 2.42634 3.56901)
(207.391 1.64997 1.80573)
(207.634 0.940826 -0.0191444)
(207.6 0.340662 -1.87688)
(207.22 -0.200944 -3.86885)
(206.393 -0.692506 -6.08559)
(204.82 -1.16952 -8.60186)
(201.962 -1.63802 -11.831)
(196.176 -2.28623 -15.1296)
(186.92 -2.57794 -21.5718)
(207.002 3.20022 3.38993)
(207.576 2.41746 1.59409)
(207.845 1.70795 -0.222128)
(207.854 1.11507 -2.08394)
(207.535 0.594299 -4.09165)
(206.806 0.1333 -6.38682)
(205.333 -0.303388 -9.06228)
(202.534 -0.715368 -12.714)
(196.402 -1.27656 -16.7145)
(186.054 -1.34005 -25.3333)
(207.319 2.39057 3.93898)
(207.925 1.50298 2.11684)
(208.224 0.720318 0.231591)
(208.278 0.0787206 -1.68903)
(208.022 -0.470199 -3.78474)
(207.392 -0.934762 -6.22032)
(206.038 -1.33742 -9.12088)
(203.358 -1.669 -13.2313)
(197.052 -2.0685 -18.0269)
(185.775 -1.79908 -28.9567)
(207.326 3.2355 3.4791)
(207.939 2.33242 1.68374)
(208.233 1.5658 -0.11731)
(208.27 0.948669 -1.96967)
(208.007 0.454445 -3.98409)
(207.404 0.0568433 -6.36654)
(206.135 -0.256972 -9.25968)
(203.609 -0.487574 -13.5535)
(197.318 -0.620274 -18.8717)
(185.379 -0.0693464 -31.8732)
(207.418 1.9036 4.03316)
(208.05 0.887458 2.27531)
(208.365 0.0349367 0.473044)
(208.43 -0.660621 -1.36112)
(208.209 -1.23112 -3.38719)
(207.669 -1.68683 -5.81436)
(206.511 -1.99244 -8.87554)
(204.179 -2.12646 -13.514)
(198.021 -1.86046 -19.6415)
(185.299 -0.798957 -34.2644)
(206.562 2.76972 3.39263)
(207.142 1.67676 1.66404)
(207.327 0.850721 -0.052316)
(207.155 0.187446 -1.82412)
(206.618 -0.293534 -3.74789)
(205.707 -0.615233 -6.03739)
(204.191 -0.726372 -8.92143)
(201.621 -0.54704 -13.3048)
(195.601 0.217709 -19.5464)
(182.821 2.30044 -34.6952)
(201.776 0.948818 1.70191)
(202.214 0.547419 0.911543)
(202.364 0.165371 0.00805351)
(202.266 -0.158122 -0.896257)
(201.917 -0.428822 -1.79991)
(201.302 -0.64138 -2.62132)
(200.391 -0.808015 -3.29551)
(199.156 -0.952244 -3.68706)
(197.597 -1.12946 -3.5804)
(195.866 -1.36503 -2.75284)
(203.096 1.90681 1.79169)
(203.564 1.53137 0.718448)
(203.727 1.13426 -0.387375)
(203.596 0.741288 -1.49676)
(203.148 0.353666 -2.60134)
(202.338 -0.0313995 -3.67059)
(201.09 -0.424575 -4.62851)
(199.297 -0.848349 -5.34675)
(196.832 -1.37093 -5.40285)
(194.034 -1.93824 -4.61968)
(204.084 1.7594 2.5038)
(204.594 1.21958 1.2064)
(204.77 0.689865 -0.150416)
(204.629 0.204374 -1.51753)
(204.129 -0.26034 -2.91164)
(203.201 -0.71261 -4.31288)
(201.71 -1.17186 -5.6548)
(199.461 -1.66439 -6.84593)
(196.107 -2.29592 -7.29969)
(192.027 -2.99179 -6.92403)
(204.543 2.52634 2.5873)
(205.099 1.97202 1.13204)
(205.305 1.42075 -0.354203)
(205.182 0.916112 -1.86073)
(204.682 0.43293 -3.42319)
(203.715 -0.0381046 -5.05582)
(202.088 -0.526077 -6.71281)
(199.501 -1.05346 -8.37888)
(195.284 -1.75941 -9.29318)
(189.82 -2.52584 -9.54036)
(205.128 2.10096 3.20289)
(205.729 1.43203 1.62554)
(205.969 0.800359 -0.0196522)
(205.888 0.250093 -1.687)
(205.423 -0.261246 -3.45115)
(204.48 -0.741609 -5.3557)
(202.803 -1.22396 -7.38129)
(200 -1.72758 -9.61076)
(195.032 -2.44201 -11.1398)
(188.228 -3.1813 -12.3681)
(205.384 2.92943 3.05282)
(206.013 2.23941 1.41855)
(206.281 1.59641 -0.243548)
(206.234 1.04585 -1.94344)
(205.808 0.548989 -3.75816)
(204.914 0.093336 -5.77952)
(203.245 -0.358809 -8.01058)
(200.335 -0.826089 -10.668)
(194.762 -1.50665 -12.741)
(186.75 -2.16645 -15.1353)
(205.786 2.14617 3.63101)
(206.448 1.34332 1.94771)
(206.743 0.623527 0.19466)
(206.737 0.0244227 -1.58863)
(206.358 -0.497977 -3.52057)
(205.529 -0.951473 -5.71708)
(203.907 -1.36261 -8.22108)
(200.968 -1.7444 -11.367)
(194.936 -2.30024 -14.1232)
(185.834 -2.77384 -17.9498)
(205.873 3.04182 3.18207)
(206.543 2.21936 1.51813)
(206.836 1.51094 -0.159079)
(206.818 0.933929 -1.88627)
(206.434 0.463428 -3.75538)
(205.621 0.0771882 -5.92553)
(204.038 -0.246749 -8.46691)
(201.138 -0.535687 -11.856)
(194.848 -0.88044 -15.1098)
(184.86 -1.19362 -20.3188)
(206.033 1.70845 3.76484)
(206.713 0.770917 2.12383)
(207.023 -0.0163946 0.424183)
(207.028 -0.652793 -1.30759)
(206.679 -1.16962 -3.20976)
(205.909 -1.57403 -5.43743)
(204.384 -1.84557 -8.14263)
(201.573 -1.99521 -11.8885)
(195.213 -1.9473 -15.9859)
(184.249 -1.89895 -22.3812)
(205.245 2.64815 3.10291)
(205.878 1.64529 1.51497)
(206.096 0.893135 -0.0756176)
(205.932 0.293723 -1.72635)
(205.362 -0.131627 -3.51591)
(204.338 -0.403012 -5.61212)
(202.573 -0.481636 -8.16633)
(199.573 -0.316532 -11.725)
(193.232 0.228316 -16.0575)
(181.778 1.20183 -22.8639)
(200.565 0.550885 1.19406)
(200.908 0.29468 0.666233)
(201.022 0.0338305 0.0358943)
(200.947 -0.195499 -0.582957)
(200.689 -0.396862 -1.1873)
(200.25 -0.562591 -1.69739)
(199.638 -0.702246 -2.06651)
(198.875 -0.830971 -2.20472)
(198.01 -0.975244 -2.02029)
(197.158 -1.14174 -1.42913)
(201.72 1.43399 1.3116)
(202.114 1.19952 0.510499)
(202.251 0.920287 -0.320976)
(202.138 0.621757 -1.14535)
(201.764 0.31315 -1.93565)
(201.116 -0.00428709 -2.64872)
(200.172 -0.335076 -3.21044)
(198.927 -0.689038 -3.51244)
(197.405 -1.09444 -3.3275)
(195.907 -1.51156 -2.51773)
(202.569 1.29234 2.05063)
(203.04 0.890291 1.01588)
(203.202 0.470567 -0.0829925)
(203.068 0.0688084 -1.18004)
(202.616 -0.329741 -2.26721)
(201.806 -0.729723 -3.30304)
(200.576 -1.14436 -4.20301)
(198.858 -1.59116 -4.83714)
(196.575 -2.12542 -4.81311)
(194.186 -2.69433 -3.92707)
(203.008 2.11719 2.14849)
(203.551 1.69101 0.93566)
(203.747 1.23756 -0.315213)
(203.617 0.803305 -1.57387)
(203.127 0.372996 -2.8467)
(202.217 -0.0598983 -4.11406)
(200.767 -0.519519 -5.29375)
(198.634 -1.02509 -6.27029)
(195.544 -1.66458 -6.46622)
(192.075 -2.36904 -5.60765)
(203.607 1.72877 2.79432)
(204.212 1.17904 1.43106)
(204.444 0.635945 -0.00633958)
(204.34 0.146136 -1.45357)
(203.85 -0.322645 -2.95318)
(202.9 -0.776368 -4.50611)
(201.308 -1.24355 -6.04423)
(198.852 -1.74652 -7.49192)
(194.988 -2.42619 -8.08592)
(190.371 -3.19375 -7.53453)
(203.904 2.60724 2.66966)
(204.551 2.0247 1.22697)
(204.813 1.46034 -0.251654)
(204.732 0.962479 -1.75744)
(204.255 0.501049 -3.33631)
(203.299 0.0648869 -5.02933)
(201.628 -0.383401 -6.78368)
(198.944 -0.870132 -8.60539)
(194.384 -1.55902 -9.55961)
(188.644 -2.35291 -9.45976)
(204.352 1.85351 3.2757)
(205.04 1.15126 1.76119)
(205.328 0.506011 0.169255)
(205.281 -0.0417163 -1.44457)
(204.83 -0.528787 -3.16796)
(203.897 -0.962167 -5.06261)
(202.196 -1.37066 -7.11138)
(199.361 -1.77927 -9.39641)
(194.205 -2.37944 -10.878)
(187.381 -3.09934 -11.5025)
(204.494 2.80598 2.83946)
(205.194 2.07982 1.33405)
(205.485 1.44075 -0.193331)
(205.429 0.912288 -1.76615)
(204.971 0.473681 -3.44862)
(204.035 0.106332 -5.34392)
(202.318 -0.218346 -7.45791)
(199.411 -0.542868 -9.99033)
(193.83 -0.990948 -11.8662)
(186.046 -1.65628 -13.246)
(204.706 1.47471 3.45756)
(205.415 0.630564 1.95884)
(205.719 -0.0842419 0.386667)
(205.681 -0.659496 -1.21478)
(205.246 -1.12405 -2.95707)
(204.338 -1.48249 -4.93666)
(202.635 -1.727 -7.22462)
(199.706 -1.8901 -10.0741)
(193.88 -1.98161 -12.6837)
(185.048 -2.39449 -14.8192)
(203.98 2.50159 2.77499)
(204.645 1.59942 1.34492)
(204.887 0.925216 -0.103494)
(204.731 0.389952 -1.61292)
(204.143 0.0175552 -3.23986)
(203.059 -0.209228 -5.1015)
(201.19 -0.263928 -7.27215)
(198.093 -0.118905 -10.0001)
(192.166 0.260105 -12.811)
(182.625 0.640481 -15.1317)
(199.733 0.251502 0.824991)
(199.987 0.0929431 0.48852)
(200.069 -0.07973 0.0637155)
(200.017 -0.236667 -0.342605)
(199.842 -0.382248 -0.735296)
(199.554 -0.507488 -1.04642)
(199.169 -0.618632 -1.25081)
(198.718 -0.723157 -1.29409)
(198.241 -0.831795 -1.14383)
(197.785 -0.943337 -0.777535)
(200.709 1.04006 0.911049)
(201.012 0.910707 0.336917)
(201.119 0.727891 -0.259956)
(201.031 0.512173 -0.844977)
(200.747 0.276976 -1.3863)
(200.269 0.0265221 -1.84314)
(199.605 -0.237948 -2.15814)
(198.786 -0.517012 -2.25859)
(197.878 -0.815609 -2.03776)
(197.071 -1.10388 -1.43106)
(201.382 0.861325 1.63618)
(201.78 0.574831 0.842408)
(201.918 0.254675 -0.0150622)
(201.805 -0.0661499 -0.863539)
(201.428 -0.395808 -1.68062)
(200.776 -0.734793 -2.41769)
(199.831 -1.08968 -2.99841)
(198.602 -1.46917 -3.31443)
(197.128 -1.89532 -3.1438)
(195.741 -2.32528 -2.34662)
(201.749 1.712 1.72048)
(202.238 1.40389 0.746339)
(202.414 1.04634 -0.269069)
(202.293 0.685593 -1.28294)
(201.851 0.315331 -2.28007)
(201.06 -0.066817 -3.22081)
(199.862 -0.477523 -4.01823)
(198.222 -0.92929 -4.54509)
(196.088 -1.46838 -4.43714)
(193.946 -2.04059 -3.43919)
(202.306 1.34322 2.37754)
(202.875 0.911056 1.23671)
(203.088 0.459679 0.0181326)
(202.978 0.036255 -1.19998)
(202.506 -0.381241 -2.4324)
(201.626 -0.795443 -3.64915)
(200.23 -1.22809 -4.76343)
(198.226 -1.69868 -5.64676)
(195.407 -2.29694 -5.77429)
(192.4 -2.96187 -4.76582)
(202.601 2.25842 2.26788)
(203.226 1.78748 1.03193)
(203.472 1.30788 -0.24643)
(203.374 0.86972 -1.54171)
(202.888 0.452371 -2.87056)
(201.955 0.0476336 -4.23216)
(200.414 -0.377303 -5.54338)
(198.114 -0.848903 -6.7118)
(194.632 -1.48285 -7.04633)
(190.715 -2.22616 -6.09558)
(203.06 1.53087 2.89461)
(203.737 0.93696 1.56781)
(204.011 0.373606 0.156943)
(203.935 -0.116064 -1.26696)
(203.454 -0.560528 -2.76031)
(202.501 -0.964834 -4.33654)
(200.866 -1.35665 -5.93735)
(198.333 -1.76565 -7.50432)
(194.237 -2.3429 -8.22474)
(189.387 -3.07446 -7.5589)
(203.229 2.54066 2.46842)
(203.927 1.92031 1.14032)
(204.208 1.35855 -0.217748)
(204.125 0.885318 -1.61507)
(203.629 0.485371 -3.08674)
(202.65 0.14421 -4.68395)
(200.948 -0.16865 -6.36103)
(198.258 -0.500975 -8.14025)
(193.676 -0.97309 -9.13446)
(187.945 -1.71673 -8.79383)
(203.478 1.21057 3.12336)
(204.186 0.469847 1.78574)
(204.477 -0.166922 0.361021)
(204.408 -0.679331 -1.08779)
(203.925 -1.09241 -2.64444)
(202.953 -1.40821 -4.35214)
(201.226 -1.62826 -6.21863)
(198.433 -1.7946 -8.27872)
(193.514 -1.95793 -9.83229)
(186.806 -2.51387 -9.91507)
(202.802 2.33629 2.41871)
(203.471 1.54228 1.15897)
(203.723 0.949147 -0.13379)
(203.572 0.478304 -1.4852)
(202.984 0.156567 -2.92802)
(201.889 -0.0307415 -4.53174)
(200.038 -0.0679883 -6.3064)
(197.084 0.0556776 -8.29676)
(191.987 0.313798 -9.98382)
(184.559 0.41272 -10.0831)
(199.159 0.0419894 0.576457)
(199.344 -0.0567181 0.369855)
(199.399 -0.170556 0.0877244)
(199.367 -0.275944 -0.172362)
(199.257 -0.379399 -0.425464)
(199.079 -0.47153 -0.616409)
(198.849 -0.55619 -0.736374)
(198.59 -0.635652 -0.752726)
(198.328 -0.712922 -0.658294)
(198.067 -0.78414 -0.451672)
(199.98 0.740442 0.599158)
(200.197 0.68213 0.200362)
(200.275 0.571851 -0.211078)
(200.213 0.423382 -0.609689)
(200.012 0.251543 -0.96669)
(199.681 0.0620182 -1.25018)
(199.239 -0.139857 -1.42124)
(198.722 -0.349729 -1.43687)
(198.188 -0.562479 -1.25227)
(197.75 -0.75444 -0.850912)
(200.476 0.495382 1.28432)
(200.79 0.296319 0.694438)
(200.901 0.0590279 0.0458816)
(200.812 -0.189351 -0.590922)
(200.52 -0.453056 -1.18874)
(200.026 -0.729358 -1.70204)
(199.34 -1.01952 -2.07133)
(198.498 -1.32476 -2.22251)
(197.571 -1.64856 -2.04283)
(196.766 -1.95758 -1.47336)
(200.748 1.34211 1.33069)
(201.161 1.13263 0.574008)
(201.311 0.861691 -0.222628)
(201.206 0.572029 -1.0122)
(200.836 0.263902 -1.76768)
(200.191 -0.0610987 -2.44268)
(199.257 -0.411561 -2.96147)
(198.054 -0.792457 -3.22026)
(196.628 -1.222 -3.01366)
(195.315 -1.65781 -2.19312)
(201.229 0.972833 1.97819)
(201.732 0.646645 1.0518)
(201.92 0.28332 0.0481754)
(201.815 -0.0722712 -0.947917)
(201.393 -0.433409 -1.93175)
(200.63 -0.799012 -2.85702)
(199.477 -1.18317 -3.63799)
(197.923 -1.59919 -4.14852)
(195.944 -2.09666 -4.06598)
(194.01 -2.6276 -3.1186)
(201.487 1.90646 1.86996)
(202.06 1.54199 0.842018)
(202.283 1.14742 -0.231634)
(202.18 0.772468 -1.31379)
(201.723 0.405174 -2.39844)
(200.872 0.041039 -3.45731)
(199.537 -0.345154 -4.39837)
(197.667 -0.774744 -5.09965)
(195.118 -1.31964 -5.10523)
(192.495 -1.94546 -4.03119)
(201.929 1.19716 2.50645)
(202.564 0.711328 1.37484)
(202.815 0.232494 0.155223)
(202.726 -0.195064 -1.06951)
(202.253 -0.591441 -2.32892)
(201.347 -0.959006 -3.60143)
(199.873 -1.32136 -4.80819)
(197.731 -1.7065 -5.82707)
(194.623 -2.22147 -6.09924)
(191.257 -2.86436 -5.07364)
(202.1 2.26006 2.08466)
(202.765 1.74829 0.943488)
(203.027 1.26791 -0.233509)
(202.93 0.854296 -1.44304)
(202.433 0.498054 -2.69409)
(201.479 0.188819 -3.99726)
(199.901 -0.101783 -5.27578)
(197.552 -0.417397 -6.45321)
(193.97 -0.857624 -6.88322)
(189.871 -1.53896 -5.92367)
(202.368 0.926563 2.77535)
(203.048 0.293604 1.60974)
(203.321 -0.262186 0.346063)
(203.233 -0.711046 -0.935271)
(202.737 -1.07353 -2.29224)
(201.771 -1.34927 -3.72546)
(200.138 -1.54582 -5.2008)
(197.637 -1.70574 -6.62893)
(193.696 -1.88939 -7.4639)
(188.781 -2.41847 -6.70061)
(201.73 2.16038 2.04547)
(202.377 1.47803 0.962477)
(202.626 0.967508 -0.165507)
(202.483 0.560837 -1.34743)
(201.914 0.287504 -2.59359)
(200.858 0.135053 -3.93366)
(199.122 0.11037 -5.33102)
(196.466 0.213175 -6.71443)
(192.31 0.384916 -7.61571)
(186.778 0.37251 -6.7817)
(198.752 -0.0986065 0.417863)
(198.889 -0.162836 0.295639)
(198.927 -0.239795 0.107106)
(198.908 -0.310429 -0.0577801)
(198.841 -0.383584 -0.222934)
(198.736 -0.450105 -0.343311)
(198.602 -0.512551 -0.420346)
(198.456 -0.570507 -0.432984)
(198.31 -0.623782 -0.383296)
(198.143 -0.668329 -0.273376)
(199.455 0.530535 0.367342)
(199.603 0.516783 0.0967964)
(199.657 0.45773 -0.176493)
(199.615 0.360692 -0.437903)
(199.481 0.240287 -0.664827)
(199.263 0.102512 -0.835039)
(198.981 -0.0454363 -0.924268)
(198.663 -0.19724 -0.908677)
(198.351 -0.344907 -0.771812)
(198.108 -0.470729 -0.513444)
(199.796 0.20485 1.0021)
(200.03 0.0667015 0.574609)
(200.114 -0.105995 0.096171)
(200.049 -0.293394 -0.370691)
(199.835 -0.498033 -0.800065)
(199.48 -0.715554 -1.15452)
(199.003 -0.943839 -1.39148)
(198.444 -1.17937 -1.46525)
(197.867 -1.41706 -1.32175)
(197.397 -1.63205 -0.946403)
(199.973 1.02655 0.994564)
(200.302 0.893062 0.424448)
(200.424 0.695307 -0.180628)
(200.34 0.470227 -0.776215)
(200.048 0.222064 -1.33166)
(199.548 -0.0447902 -1.8031)
(198.853 -0.332176 -2.13139)
(198.001 -0.639206 -2.2426)
(197.066 -0.967584 -2.02953)
(196.262 -1.28544 -1.42357)
(200.36 0.639361 1.61499)
(200.782 0.401773 0.883255)
(200.94 0.117841 0.0790173)
(200.849 -0.17248 -0.713799)
(200.493 -0.475899 -1.4794)
(199.868 -0.788169 -2.16731)
(198.96 -1.11668 -2.70364)
(197.8 -1.46771 -2.98651)
(196.444 -1.86372 -2.83139)
(195.209 -2.26655 -2.08461)
(200.563 1.57191 1.49514)
(201.063 1.30186 0.664702)
(201.256 0.987539 -0.21101)
(201.159 0.675791 -1.08909)
(200.754 0.361606 -1.94891)
(200.021 0.044022 -2.7487)
(198.922 -0.293698 -3.40228)
(197.463 -0.665702 -3.7955)
(195.649 -1.10972 -3.64697)
(193.912 -1.60313 -2.71231)
(200.967 0.870882 2.12905)
(201.537 0.485979 1.18916)
(201.76 0.089739 0.161068)
(201.669 -0.274562 -0.865892)
(201.231 -0.61958 -1.90106)
(200.42 -0.944817 -2.90231)
(199.159 -1.26841 -3.78736)
(197.425 -1.61256 -4.42099)
(195.14 -2.04633 -4.4475)
(192.84 -2.56736 -3.45704)
(201.118 1.97928 1.70445)
(201.725 1.57232 0.750316)
(201.962 1.17334 -0.242299)
(201.861 0.821152 -1.261)
(201.392 0.511721 -2.29417)
(200.515 0.238508 -3.32537)
(199.129 -0.0223109 -4.26576)
(197.172 -0.305607 -5.00175)
(194.468 -0.683424 -5.08982)
(191.595 -1.24152 -4.0296)
(201.393 0.634548 2.42803)
(202.022 0.107897 1.43679)
(202.27 -0.366982 0.340419)
(202.175 -0.753014 -0.766932)
(201.696 -1.06621 -1.92161)
(200.79 -1.30403 -3.09447)
(199.326 -1.4772 -4.22884)
(197.199 -1.6238 -5.18397)
(194.158 -1.79818 -5.56526)
(190.657 -2.23189 -4.57298)
(200.78 1.9834 1.66798)
(201.381 1.41191 0.761519)
(201.617 0.983406 -0.197979)
(201.483 0.639673 -1.20528)
(200.953 0.41219 -2.25161)
(199.977 0.290354 -3.33721)
(198.424 0.274646 -4.39679)
(196.148 0.358366 -5.3104)
(192.893 0.469029 -5.69522)
(188.917 0.424432 -4.59165)
(198.453 -0.191834 0.32135)
(198.56 -0.237064 0.252282)
(198.585 -0.292042 0.122549)
(198.575 -0.340208 0.0170734)
(198.536 -0.392448 -0.0945254)
(198.475 -0.440151 -0.174393)
(198.399 -0.485364 -0.229684)
(198.318 -0.526607 -0.245358)
(198.234 -0.562652 -0.226352)
(198.114 -0.590065 -0.173647)
(199.073 0.39622 0.199474)
(199.17 0.4089 0.0190907)
(199.207 0.384338 -0.155748)
(199.181 0.324834 -0.320339)
(199.094 0.244129 -0.458542)
(198.957 0.147889 -0.556142)
(198.781 0.0433778 -0.59894)
(198.59 -0.0628913 -0.574052)
(198.408 -0.163193 -0.477313)
(198.271 -0.24451 -0.311661)
(199.288 -0.0129131 0.785443)
(199.454 -0.111461 0.481382)
(199.515 -0.236369 0.134777)
(199.47 -0.375003 -0.202037)
(199.32 -0.529612 -0.5073)
(199.075 -0.69571 -0.752785)
(198.755 -0.869443 -0.909741)
(198.394 -1.04524 -0.952024)
(198.039 -1.21533 -0.854284)
(197.763 -1.36168 -0.621851)
(199.385 0.772889 0.717049)
(199.635 0.694024 0.299559)
(199.729 0.554783 -0.145916)
(199.666 0.385365 -0.581596)
(199.446 0.191831 -0.978573)
(199.077 -0.0198926 -1.30014)
(198.578 -0.24729 -1.50349)
(197.992 -0.485953 -1.54009)
(197.386 -0.729704 -1.35769)
(196.893 -0.954853 -0.931581)
(199.676 0.356348 1.29882)
(200.014 0.188244 0.735153)
(200.142 -0.0278166 0.10695)
(200.067 -0.258529 -0.508537)
(199.783 -0.506217 -1.09108)
(199.292 -0.764555 -1.59399)
(198.607 -1.03608 -1.95887)
(197.768 -1.32114 -2.1124)
(196.854 -1.62646 -1.95417)
(196.068 -1.9208 -1.41129)
(199.816 1.27005 1.15765)
(200.233 1.07852 0.505652)
(200.394 0.835945 -0.18785)
(200.309 0.584224 -0.879808)
(199.968 0.323262 -1.54228)
(199.367 0.0548463 -2.13053)
(198.499 -0.229929 -2.57192)
(197.4 -0.538823 -2.77554)
(196.134 -0.886408 -2.57471)
(194.994 -1.25699 -1.84134)
(200.173 0.56798 1.77725)
(200.663 0.27198 1.01654)
(200.854 -0.0474166 0.171339)
(200.768 -0.350166 -0.668451)
(200.385 -0.642968 -1.49879)
(199.693 -0.922767 -2.26924)
(198.662 -1.20237 -2.90495)
(197.31 -1.49671 -3.28527)
(195.668 -1.84676 -3.19666)
(194.116 -2.2452 -2.37614)
(200.285 1.71235 1.34267)
(200.817 1.40114 0.567101)
(201.025 1.07982 -0.246045)
(200.928 0.788222 -1.07964)
(200.507 0.526635 -1.9079)
(199.741 0.291753 -2.69971)
(198.577 0.0654579 -3.36778)
(197.01 -0.177874 -3.80031)
(195.023 -0.485171 -3.70309)
(193.043 -0.910246 -2.75664)
(200.56 0.346246 2.09544)
(201.121 -0.080733 1.27286)
(201.339 -0.477825 0.34252)
(201.244 -0.803417 -0.592648)
(200.806 -1.06939 -1.55262)
(199.998 -1.27138 -2.49077)
(198.746 -1.42114 -3.34285)
(197.009 -1.54996 -3.9625)
(194.732 -1.70137 -4.08222)
(192.295 -2.03007 -3.14751)
(199.959 1.81528 1.29886)
(200.497 1.34972 0.562183)
(200.712 1.00032 -0.230999)
(200.591 0.717038 -1.06526)
(200.114 0.532352 -1.91738)
(199.249 0.437191 -2.76886)
(197.915 0.427849 -3.54124)
(196.044 0.494932 -4.10955)
(193.574 0.563011 -4.17945)
(190.8 0.519325 -3.11581)
(198.225 -0.255854 0.265901)
(198.312 -0.290797 0.229595)
(198.33 -0.333251 0.135516)
(198.325 -0.367383 0.0658365)
(198.302 -0.405709 -0.0139819)
(198.268 -0.440194 -0.0711273)
(198.225 -0.472805 -0.115483)
(198.18 -0.501835 -0.135277)
(198.129 -0.525922 -0.136024)
(198.036 -0.542353 -0.116957)
(198.792 0.320906 0.0782371)
(198.853 0.348754 -0.0402788)
(198.878 0.346679 -0.147077)
(198.862 0.313641 -0.24522)
(198.808 0.262409 -0.324126)
(198.723 0.197963 -0.3753)
(198.617 0.126673 -0.390958)
(198.503 0.0543726 -0.363964)
(198.397 -0.0125909 -0.295248)
(198.317 -0.0646308 -0.185946)
(198.907 -0.167895 0.624903)
(199.02 -0.24212 0.411055)
(199.062 -0.333105 0.162486)
(199.032 -0.434406 -0.0787371)
(198.931 -0.548654 -0.295589)
(198.768 -0.672219 -0.467998)
(198.56 -0.800651 -0.577314)
(198.331 -0.928188 -0.609469)
(198.115 -1.04732 -0.552165)
(197.951 -1.14539 -0.417682)
(198.946 0.58005 0.495756)
(199.129 0.538068 0.198358)
(199.198 0.443463 -0.119677)
(199.153 0.319879 -0.428814)
(198.994 0.173668 -0.704641)
(198.731 0.011303 -0.918864)
(198.385 -0.162715 -1.04214)
(197.992 -0.342451 -1.04425)
(197.603 -0.519242 -0.902025)
(197.299 -0.676011 -0.609711)
(199.148 0.129703 1.03346)
(199.408 0.0131643 0.608834)
(199.506 -0.147465 0.129449)
(199.448 -0.326196 -0.337756)
(199.23 -0.522775 -0.772494)
(198.862 -0.730115 -1.13573)
(198.362 -0.947511 -1.38415)
(197.772 -1.17156 -1.4691)
(197.164 -1.40135 -1.33822)
(196.665 -1.61113 -0.963674)
(199.227 1.01003 0.866084)
(199.559 0.88 0.36842)
(199.689 0.698521 -0.164679)
(199.619 0.501183 -0.694176)
(199.345 0.290888 -1.19043)
(198.872 0.0712334 -1.61234)
(198.211 -0.160571 -1.90293)
(197.408 -0.407679 -1.99707)
(196.539 -0.671284 -1.7986)
(195.796 -0.940451 -1.25427)
(199.535 0.300418 1.46162)
(199.94 0.0787614 0.861066)
(200.097 -0.172255 0.183105)
(200.023 -0.41762 -0.487078)
(199.703 -0.659702 -1.138)
(199.138 -0.893543 -1.71954)
(198.326 -1.12769 -2.16947)
(197.305 -1.3701 -2.39233)
(196.148 -1.6439 -2.26747)
(195.112 -1.93633 -1.63866)
(199.596 1.47079 1.01137)
(200.044 1.24266 0.399078)
(200.22 0.992228 -0.246643)
(200.133 0.757945 -0.908202)
(199.772 0.543184 -1.55194)
(199.131 0.347071 -2.14156)
(198.192 0.157449 -2.59942)
(196.981 -0.0436273 -2.83421)
(195.554 -0.284508 -2.65433)
(194.21 -0.594679 -1.88867)
(199.868 0.0718572 1.78978)
(200.35 -0.266053 1.1233)
(200.536 -0.591196 0.350808)
(200.449 -0.860419 -0.421429)
(200.067 -1.08211 -1.20229)
(199.377 -1.25065 -1.93798)
(198.347 -1.37743 -2.56669)
(196.981 -1.4862 -2.96008)
(195.318 -1.60984 -2.94826)
(193.655 -1.84755 -2.178)
(199.27 1.66548 0.949286)
(199.732 1.29748 0.369965)
(199.92 1.02201 -0.264748)
(199.814 0.795351 -0.933848)
(199.402 0.649846 -1.60476)
(198.664 0.577696 -2.24961)
(197.562 0.572858 -2.78836)
(196.079 0.625913 -3.11469)
(194.257 0.664595 -3.01108)
(192.369 0.633262 -2.10721)
(198.044 -0.304411 0.237598)
(198.119 -0.333789 0.221039)
(198.132 -0.369484 0.147762)
(198.13 -0.395184 0.098776)
(198.117 -0.424577 0.0372882)
(198.098 -0.450145 -0.00769221)
(198.074 -0.473945 -0.0469024)
(198.048 -0.494389 -0.0705459)
(198.017 -0.510315 -0.0840287)
(197.937 -0.51964 -0.0851454)
(198.579 0.289448 -0.0112733)
(198.618 0.326147 -0.0878319)
(198.634 0.338445 -0.148347)
(198.624 0.323692 -0.201456)
(198.592 0.293724 -0.240938)
(198.541 0.25267 -0.261981)
(198.477 0.20576 -0.260743)
(198.41 0.157835 -0.232955)
(198.347 0.113705 -0.181709)
(198.3 0.0806056 -0.105134)
(198.616 -0.272983 0.509408)
(198.69 -0.332907 0.359305)
(198.718 -0.400537 0.181119)
(198.699 -0.474322 0.00778401)
(198.633 -0.557493 -0.147806)
(198.528 -0.647404 -0.272101)
(198.396 -0.739966 -0.353198)
(198.254 -0.830149 -0.384025)
(198.123 -0.911812 -0.357659)
(198.026 -0.976318 -0.288248)
(198.622 0.441383 0.323928)
(198.75 0.422837 0.118117)
(198.8 0.360951 -0.101815)
(198.769 0.273643 -0.314242)
(198.658 0.166723 -0.500199)
(198.477 0.0463423 -0.638987)
(198.244 -0.0825943 -0.711383)
(197.985 -0.214024 -0.699074)
(197.737 -0.339545 -0.5937)
(197.55 -0.447367 -0.395075)
(198.746 -0.0407619 0.817227)