/*--------------------------------*- C++ -*----------------------------------*\
| =========                 |                                                 |
| \\      /  F ield         | foam-extend: Open Source CFD                    |
|  \\    /   O peration     | Version:     4.0                                |
|   \\  /    A nd           | Web:         http://www.foam-extend.org         |
|    \\/     M anipulation  |                                                 |
\*---------------------------------------------------------------------------*/
FoamFile
{
    version     2.0;
    format      ascii;
    class       volScalarField;
    location    "550";
    object      alphat;
}
// * * * * * * * * * * * * * * * * * * * * * * * * * * * * * * * * * * * * * //

dimensions      [1 -1 -1 0 0 0 0];

internalField   nonuniform List<scalar> 
34480
(
0.00190679
0.00190551
0.00190518
0.0019057
0.00190739
0.00191087
0.00191792
0.00193464
0.00197173
0.00203999
0.0153807
0.0146035
0.0142986
0.0139559
0.0121685
0.00749859
0.00310825
0.00131568
0.00102726
0.00151365
0.0429466
0.0412314
0.0395539
0.0359633
0.0268082
0.013242
0.00466728
0.00178876
0.0013013
0.00189857
0.0471033
0.045
0.0431445
0.0390034
0.0281673
0.0130818
0.00446723
0.00173759
0.00133029
0.00204741
0.0465596
0.0443461
0.0427341
0.0388545
0.0278434
0.0125476
0.00421931
0.00165765
0.0013267
0.00214664
0.0450274
0.0428351
0.041354
0.0375692
0.026304
0.0113405
0.003783
0.00153993
0.0013233
0.00225872
0.0431054
0.04111
0.0398404
0.0362794
0.0251351
0.0105469
0.00350229
0.00146081
0.00132398
0.00235472
0.0358299
0.0344249
0.0335627
0.0308995
0.0214943
0.0087589
0.00285713
0.00124526
0.00124119
0.00235059
0.0122788
0.0120325
0.011972
0.0117237
0.00997652
0.00518997
0.00170596
0.000743327
0.000835748
0.00178096
0.00180303
0.00180363
0.00180554
0.00180857
0.00181274
0.00181796
0.00182474
0.00183424
0.00184876
0.00180561
0.00190634
0.00190448
0.00190376
0.00190404
0.00190554
0.00190865
0.00191402
0.00192271
0.0019396
0.00197854
0.0145271
0.0138937
0.0136934
0.0138451
0.014221
0.0142851
0.0125573
0.00743585
0.00254012
0.00216108
0.0398174
0.0385201
0.0378797
0.0373727
0.0357466
0.0309957
0.022135
0.0109298
0.00335138
0.00298867
0.0439185
0.0422789
0.0415638
0.0410431
0.0391714
0.0335898
0.0234416
0.0110808
0.00332825
0.00333144
0.0438296
0.0420364
0.0414352
0.0411461
0.0396335
0.0342687
0.0239191
0.0110037
0.00323779
0.00358044
0.0427643
0.0409402
0.0403835
0.0402376
0.039
0.0339094
0.0236603
0.010665
0.00315078
0.00388482
0.0412955
0.0395929
0.0391371
0.0390902
0.0381124
0.0334091
0.0234679
0.0104768
0.00310579
0.0041694
0.0347002
0.03348
0.033168
0.0332399
0.0327562
0.0294174
0.0211608
0.0093778
0.00282096
0.00420699
0.012235
0.0119939
0.0119719
0.0120529
0.0122147
0.0121574
0.0107426
0.0055128
0.0016919
0.00279147
0.00179782
0.0017961
0.00179593
0.00179698
0.00179925
0.00180268
0.00180782
0.00181598
0.00183798
0.00188065
0.00190121
0.00189959
0.00189897
0.00189925
0.00190061
0.0019032
0.00190732
0.00191311
0.00192181
0.00193497
0.0137299
0.0132943
0.0131443
0.0132685
0.0136867
0.014371
0.0149785
0.0141756
0.0101349
0.00594728
0.0366254
0.035593
0.0352625
0.03544
0.0358025
0.0354496
0.0325673
0.0249874
0.0132984
0.00731937
0.040546
0.0392593
0.0388861
0.0391564
0.0396725
0.0393147
0.0357379
0.0261074
0.0123658
0.00741571
0.0408177
0.0394251
0.0391128
0.0395101
0.0403164
0.0403952
0.0369944
0.0261734
0.0111737
0.00736337
0.0401785
0.0387546
0.038446
0.0389159
0.0399447
0.0404842
0.0374588
0.0257101
0.0100335
0.00739937
0.0391531
0.037804
0.0375511
0.0380381
0.0391801
0.0400801
0.0375676
0.0251979
0.0091205
0.00743248
0.0333359
0.0323701
0.0321848
0.0325745
0.0335362
0.034654
0.0334288
0.0224402
0.00772492
0.00706544
0.0121543
0.0119522
0.0119404
0.012019
0.0122257
0.0125664
0.0127641
0.0106852
0.00439639
0.00440127
0.00179023
0.00178797
0.00178738
0.00178815
0.00179035
0.00179411
0.00180026
0.00181054
0.00183515
0.00188505
0.0018923
0.00189113
0.00189068
0.00189092
0.00189194
0.00189378
0.00189645
0.00189961
0.00190359
0.0019083
0.013212
0.0129312
0.0128213
0.0128966
0.013178
0.0136871
0.0143982
0.0150112
0.0148584
0.0131319
0.0337341
0.0329916
0.0327924
0.0330153
0.0336231
0.0343916
0.0345436
0.0323994
0.025799
0.0177176
0.0374127
0.036478
0.0362432
0.0365621
0.0373834
0.0383984
0.0384369
0.0350508
0.0256163
0.0170005
0.0379771
0.0369701
0.0367723
0.0371681
0.0381784
0.0395156
0.0398025
0.0357591
0.0242126
0.0161064
0.0377212
0.0366744
0.0364627
0.0369049
0.0380602
0.0397328
0.0404128
0.0358946
0.0225533
0.0154951
0.0370983
0.036081
0.035903
0.0363489
0.0375554
0.0394216
0.0404713
0.0356363
0.0208748
0.0149186
0.0320586
0.0313243
0.031189
0.0315293
0.0324461
0.0340309
0.0354115
0.0316744
0.0179021
0.0136496
0.0121109
0.0119427
0.0119365
0.0119965
0.0121523
0.0124212
0.0126958
0.0127066
0.00940726
0.00816123
0.00178126
0.00177875
0.00177798
0.00177867
0.00178095
0.00178505
0.00179192
0.00180324
0.00182754
0.00187226
0.00188043
0.00187968
0.00187939
0.00187957
0.00188026
0.00188144
0.00188307
0.00188465
0.00188634
0.00188792
0.0129792
0.0128014
0.0127219
0.0127663
0.0129454
0.0132665
0.0137175
0.0141872
0.0146533
0.014895
0.0314149
0.0309573
0.0308419
0.0309818
0.0314011
0.0321049
0.0329684
0.03344
0.0321409
0.0280714
0.0347713
0.0341628
0.0340117
0.0342248
0.0348281
0.0358256
0.0369525
0.0372048
0.0342513
0.0279323
0.0355127
0.0348417
0.0347123
0.0349793
0.035717
0.0369468
0.0383319
0.0384562
0.0340271
0.0266333
0.0355474
0.0348215
0.0346685
0.0349754
0.0358262
0.0373043
0.0390446
0.0391858
0.0333121
0.0255949
0.0352433
0.034509
0.0343753
0.0346911
0.0355887
0.0371918
0.0391733
0.0393098
0.0321
0.0244882
0.0309213
0.0303806
0.0302766
0.0305216
0.0311899
0.0324472
0.0342181
0.0347367
0.0281711
0.0221183
0.0121107
0.0119698
0.0119673
0.0120091
0.0121153
0.0122896
0.0124408
0.0127433
0.0124313
0.0120123
0.00177104
0.00176842
0.00176753
0.00176816
0.00177046
0.0017747
0.00178175
0.00179294
0.00181415
0.00184892
0.00186617
0.00186575
0.00186558
0.00186569
0.00186612
0.00186683
0.00186777
0.00186853
0.00186921
0.00186971
0.0129704
0.0128595
0.0128027
0.0128311
0.0129496
0.0131562
0.0134291
0.0136793
0.0139578
0.0141988
0.0297931
0.0295488
0.0294913
0.0295623
0.0297838
0.0301863
0.0308049
0.0315938
0.0321937
0.0319753
0.0327528
0.0323971
0.0323072
0.0324248
0.0327738
0.0334062
0.0343594
0.0355038
0.0359731
0.03465
0.0335259
0.0331161
0.033039
0.0331946
0.0336406
0.0344424
0.0356363
0.0369853
0.0370371
0.0345376
0.0337298
0.033258
0.0331539
0.0333444
0.0338856
0.0348847
0.0363979
0.0380668
0.037639
0.0341281
0.0336399
0.0331369
0.0330426
0.0332461
0.0338391
0.0349468
0.0366527
0.0385007
0.0374558
0.0331592
0.0299448
0.0295649
0.0294902
0.0296552
0.0300996
0.0309484
0.0323238
0.0340103
0.0331778
0.0297553
0.0121577
0.0120398
0.012041
0.0120688
0.0121364
0.0122362
0.0122678
0.012391
0.0126685
0.0135021
0.00175939
0.00175679
0.00175585
0.00175644
0.00175868
0.00176285
0.00176961
0.0017799
0.00179719
0.00182238
0.00184995
0.00184974
0.00184965
0.00184972
0.00184997
0.00185038
0.00185091
0.00185127
0.00185153
0.00185169
0.0131172
0.0130511
0.0130115
0.0130312
0.0131132
0.0132526
0.0134277
0.0135701
0.0137246
0.0138538
0.0288028
0.0286851
0.0286623
0.0286956
0.0287977
0.0289861
0.0292928
0.0297467
0.0303079
0.0307468
0.031351
0.0311576
0.0311079
0.0311662
0.0313429
0.0316695
0.0322003
0.0330041
0.0339463
0.0346087
0.0320409
0.0318082
0.0317675
0.0318497
0.0320895
0.0325241
0.0332221
0.0342721
0.0353921
0.0360107
0.0323048
0.032015
0.0319489
0.0320585
0.0323725
0.0329555
0.0339043
0.0353349
0.036678
0.0371183
0.0323315
0.032003
0.0319411
0.0320633
0.0324259
0.0331036
0.0342146
0.0358909
0.037233
0.0372411
0.0291602
0.0289053
0.0288557
0.0289607
0.0292358
0.0297536
0.0306109
0.0319858
0.0331783
0.0334292
0.0122612
0.0121613
0.0121656
0.0121828
0.012222
0.0122676
0.0122142
0.0121617
0.0122522
0.0129154
0.00174616
0.00174369
0.00174276
0.00174331
0.00174541
0.00174931
0.00175545
0.00176439
0.0017779
0.00179558
0.00183203
0.00183195
0.00183192
0.00183195
0.0018321
0.00183232
0.00183262
0.0018328
0.00183289
0.00183293
0.0133682
0.0133337
0.0133072
0.013322
0.0133803
0.0134781
0.0135973
0.0136918
0.0137919
0.0138796
0.0282748
0.0282233
0.0282188
0.0282351
0.0282794
0.0283606
0.0284966
0.0287102
0.0290206
0.0293188
0.0304523
0.0303502
0.0303243
0.0303516
0.0304346
0.0305869
0.0308368
0.0312383
0.0318129
0.0324128
0.0310036
0.0308784
0.0308599
0.0309003
0.0310185
0.031228
0.0315637
0.0321029
0.0328674
0.0337516
0.0312534
0.0310836
0.0310443
0.0311038
0.0312737
0.0315833
0.0320844
0.0328951
0.0339938
0.0352775
0.0313231
0.031117
0.0310793
0.0311481
0.0313568
0.0317388
0.0323591
0.0333712
0.0346711
0.0361333
0.028578
0.0284146
0.0283846
0.0284479
0.0286063
0.0288949
0.0293556
0.0301348
0.0312294
0.0326794
0.0124283
0.0123413
0.0123479
0.0123577
0.0123771
0.0123859
0.0122799
0.0121293
0.0120398
0.012282
0.00173122
0.00172897
0.0017281
0.00172859
0.0017305
0.00173398
0.00173929
0.0017467
0.00175691
0.00176909
0.00181258
0.00181257
0.00181256
0.00181258
0.00181266
0.00181278
0.00181295
0.00181305
0.00181308
0.00181308
0.0136936
0.0136823
0.0136658
0.0136775
0.0137198
0.0137898
0.0138746
0.0139456
0.0140188
0.014088
0.0280452
0.0280265
0.0280307
0.02804
0.0280591
0.0280935
0.028154
0.0282581
0.0284363
0.0286402
0.0299141
0.0298598
0.0298465
0.029859
0.0298968
0.029965
0.030077
0.0302637
0.0305648
0.0309221
0.0303222
0.0302565
0.0302497
0.0302684
0.0303228
0.0304158
0.030561
0.0307961
0.0311747
0.0316917
0.0305223
0.0304259
0.030404
0.0304347
0.0305217
0.0306754
0.0309166
0.0313013
0.0318862
0.032717
0.0305901
0.0304642
0.0304429
0.0304795
0.0305936
0.0307965
0.031114
0.0316223
0.0323598
0.03342
0.0281916
0.0280907
0.0280748
0.0281109
0.0281944
0.0283392
0.028553
0.0289057
0.0294977
0.0305226
0.0126651
0.0125866
0.0125944
0.0125994
0.012606
0.0125913
0.0124574
0.0122698
0.0120944
0.0121401
0.00171445
0.00171249
0.00171172
0.00171215
0.00171381
0.00171679
0.00172119
0.00172707
0.00173455
0.0017428
0.00179166
0.00179169
0.0017917
0.00179171
0.00179175
0.00179181
0.0017919
0.00179198
0.00179199
0.00179199
0.0140814
0.0140873
0.0140785
0.014088
0.014119
0.0141699
0.014232
0.0142894
0.0143464
0.0144031
0.0279948
0.0279923
0.028
0.0280063
0.028015
0.0280299
0.0280587
0.0281155
0.0282323
0.0283951
0.0296122
0.0295819
0.0295749
0.0295808
0.0295979
0.0296285
0.0296796
0.0297702
0.0299384
0.0301726
0.0298997
0.0298645
0.0298628
0.0298711
0.0298948
0.0299335
0.0299924
0.0300893
0.0302699
0.030562
0.0300426
0.0299886
0.0299769
0.0299922
0.0300346
0.030107
0.0302167
0.0303858
0.0306647
0.0311145
0.0300891
0.0300126
0.0300011
0.0300196
0.0300796
0.0301828
0.0303373
0.0305724
0.0309286
0.0314945
0.0279799
0.0279193
0.0279124
0.0279319
0.0279708
0.0280322
0.0281085
0.0282326
0.0284854
0.0290209
0.0129771
0.0129031
0.0129113
0.0129135
0.0129124
0.0128839
0.0127406
0.0125531
0.0123539
0.0123455
0.00169579
0.00169415
0.0016935
0.00169385
0.00169524
0.0016977
0.00170119
0.00170568
0.00171102
0.00171651
0.00176929
0.00176934
0.00176935
0.00176935
0.00176938
0.00176941
0.00176946
0.00176952
0.00176953
0.00176954
0.0145313
0.0145502
0.0145471
0.0145552
0.0145782
0.0146156
0.0146619
0.0147096
0.0147552
0.014801
0.0280484
0.0280537
0.0280622
0.0280671
0.0280715
0.0280784
0.0280933
0.0281281
0.028212
0.0283504
0.029455
0.0294369
0.0294329
0.0294357
0.0294437
0.0294579
0.0294824
0.0295303
0.0296341
0.0298071
0.0296524
0.0296321
0.0296318
0.0296354
0.0296454
0.0296609
0.0296841
0.0297243
0.0298159
0.0299998
0.0297461
0.0297155
0.0297092
0.0297167
0.0297366
0.0297692
0.0298169
0.0298887
0.0300212
0.0302766
0.0297685
0.0297209
0.0297149
0.029724
0.0297549
0.0298061
0.0298792
0.0299847
0.0301511
0.0304528
0.0279139
0.0278774
0.0278756
0.0278857
0.0278999
0.027917
0.0279252
0.0279446
0.0280291
0.0283045
0.0133701
0.0132976
0.0133054
0.0133061
0.0133012
0.0132655
0.0131263
0.012959
0.0127692
0.0127658
0.00167518
0.00167387
0.00167333
0.00167362
0.00167474
0.00167668
0.00167934
0.00168265
0.00168637
0.00168995
0.00174543
0.00174549
0.0017455
0.0017455
0.00174552
0.00174553
0.00174556
0.0017456
0.00174563
0.00174564
0.0150511
0.01508
0.0150814
0.0150885
0.0151057
0.0151335
0.0151683
0.0152066
0.0152445
0.0152792
0.0281617
0.0281705
0.0281786
0.0281825
0.028185
0.0281886
0.0281971
0.0282199
0.0282824
0.0284009
0.0293819
0.0293702
0.0293676
0.029369
0.0293729
0.0293798
0.0293923
0.0294198
0.0294886
0.0296241
0.0295166
0.0295033
0.0295029
0.0295045
0.0295089
0.0295155
0.0295251
0.0295431
0.0295939
0.0297201
0.0295742
0.0295561
0.0295527
0.0295564
0.0295654
0.0295796
0.0295995
0.0296296
0.029695
0.0298515
0.0295787
0.0295476
0.0295442
0.0295488
0.0295649
0.0295906
0.0296253
0.0296734
0.0297532
0.0299272
0.0279612
0.0279384
0.0279392
0.027944
0.0279461
0.0279422
0.0279219
0.0279015
0.0279145
0.0280682
0.013852
0.0137788
0.0137854
0.0137856
0.0137796
0.0137408
0.0136163
0.0134778
0.0133127
0.0133354
0.00165258
0.00165157
0.00165115
0.00165138
0.00165224
0.00165371
0.00165567
0.00165803
0.00166055
0.00166286
0.00172003
0.00172009
0.00172011
0.00172011
0.00172012
0.00172012
0.00172014
0.00172016
0.0017202
0.0017202
0.0156546
0.0156918
0.0156968
0.0157032
0.0157161
0.0157369
0.015763
0.0157927
0.0158236
0.0158463
0.0283098
0.0283197
0.0283267
0.0283299
0.0283315
0.0283336
0.0283388
0.0283543
0.0284009
0.0285003
0.0293555
0.0293474
0.0293456
0.0293463
0.0293482
0.0293517
0.0293584
0.029375
0.0294223
0.0295299
0.0294484
0.0294386
0.0294376
0.0294383
0.0294406
0.0294441
0.029449
0.0294585
0.0294894
0.0295795
0.029482
0.0294707
0.0294687
0.0294705
0.0294746
0.0294807
0.0294889
0.0295016
0.0295359
0.0296373
0.0294772
0.0294557
0.0294534
0.029456
0.0294649
0.0294787
0.0294963
0.02952
0.0295614
0.0296706
0.0280912
0.0280756
0.0280774
0.0280796
0.0280765
0.0280647
0.0280372
0.0280073
0.0279952
0.0280915
0.0144344
0.0143589
0.0143637
0.0143639
0.0143587
0.0143197
0.0142179
0.0141102
0.0139748
0.0140285
0.00162797
0.00162722
0.0016269
0.00162708
0.00162772
0.00162879
0.00163018
0.0016318
0.00163346
0.00163493
0.00169301
0.00169307
0.00169309
0.00169309
0.00169309
0.00169309
0.0016931
0.00169311
0.00169314
0.00169314
0.0163619
0.0164066
0.0164149
0.0164207
0.0164305
0.0164458
0.016465
0.0164869
0.01651
0.0165191
0.0284786
0.0284883
0.028494
0.0284965
0.0284976
0.0284989
0.0285023
0.0285128
0.0285467
0.0286272
0.0293543
0.0293486
0.0293473
0.0293475
0.0293484
0.0293501
0.0293536
0.0293638
0.0293964
0.0294809
0.0294192
0.0294114
0.0294101
0.0294104
0.0294119
0.0294144
0.0294178
0.0294239
0.029444
0.0295089
0.0294381
0.0294306
0.0294292
0.02943
0.029432
0.0294348
0.0294383
0.0294441
0.0294634
0.0295314
0.0294315
0.0294158
0.0294141
0.0294158
0.0294214
0.0294297
0.0294398
0.0294533
0.0294774
0.0295514
0.0282772
0.0282653
0.0282671
0.0282681
0.0282636
0.0282505
0.028226
0.0281992
0.0281821
0.0282498
0.0151348
0.0150559
0.0150585
0.0150591
0.015056
0.0150215
0.0149458
0.0148671
0.0147613
0.0148437
0.0016013
0.00160077
0.00160055
0.00160068
0.00160113
0.00160188
0.00160283
0.00160391
0.00160498
0.0016059
0.00166427
0.00166433
0.00166435
0.00166435
0.00166435
0.00166435
0.00166435
0.00166435
0.00166437
0.00166436
0.0172002
0.017253
0.0172644
0.0172699
0.0172772
0.0172881
0.0173016
0.0173164
0.0173295
0.0173232
0.0286591
0.0286679
0.0286724
0.0286742
0.028675
0.028676
0.0286783
0.0286852
0.0287088
0.0287706
0.0293664
0.0293623
0.0293614
0.0293614
0.0293618
0.0293624
0.0293641
0.0293702
0.0293921
0.0294562
0.0294118
0.0294056
0.029404
0.0294041
0.0294053
0.0294074
0.0294102
0.0294148
0.0294285
0.0294748
0.0294218
0.0294166
0.0294154
0.0294158
0.0294169
0.0294183
0.0294202
0.0294233
0.029435
0.0294813
0.0294184
0.0294068
0.0294053
0.0294066
0.0294105
0.0294162
0.0294231
0.029432
0.0294477
0.0295008
0.028497
0.028487
0.0284885
0.0284889
0.0284849
0.0284737
0.028456
0.0284362
0.0284214
0.0284735
0.0159794
0.0158968
0.0158972
0.0158983
0.0158979
0.0158754
0.0158241
0.015771
0.0156927
0.0157981
0.00157257
0.00157221
0.00157206
0.00157215
0.00157246
0.00157296
0.0015736
0.00157429
0.00157496
0.00157552
0.00163373
0.00163379
0.00163381
0.00163381
0.00163381
0.00163381
0.00163381
0.0016338
0.00163381
0.00163378
0.0182074
0.0182699
0.0182846
0.0182899
0.018295
0.0183022
0.0183109
0.018319
0.0183216
0.0182966
0.0288445
0.0288521
0.0288553
0.0288565
0.0288571
0.0288579
0.0288595
0.028864
0.0288797
0.0289237
0.0293852
0.0293823
0.0293818
0.0293817
0.0293817
0.0293817
0.0293824
0.0293858
0.0293999
0.0294459
0.029416
0.0294112
0.0294096
0.0294095
0.0294104
0.0294122
0.0294147
0.0294183
0.0294278
0.0294603
0.0294205
0.0294167
0.0294157
0.0294158
0.0294164
0.0294174
0.0294187
0.0294208
0.0294284
0.0294602
0.0294223
0.0294138
0.0294126
0.0294135
0.0294165
0.0294208
0.029426
0.0294324
0.0294432
0.0294825
0.0287322
0.0287231
0.028724
0.0287242
0.0287213
0.0287141
0.0287029
0.0286903
0.0286799
0.0287222
0.0170085
0.0169228
0.0169212
0.0169228
0.0169252
0.0169181
0.01689
0.0168586
0.0168059
0.0169267
0.00154177
0.00154154
0.00154144
0.0015415
0.0015417
0.00154203
0.00154244
0.00154287
0.00154327
0.00154361
0.0016014
0.00160145
0.00160147
0.00160147
0.00160147
0.00160147
0.00160147
0.00160146
0.00160145
0.0016014
0.0194369
0.0195122
0.0195306
0.0195357
0.0195389
0.0195426
0.0195468
0.0195485
0.0195405
0.0194957
0.0290277
0.0290338
0.0290358
0.0290364
0.0290368
0.0290374
0.0290387
0.0290417
0.0290517
0.0290804
0.0294067
0.0294048
0.0294045
0.0294045
0.0294043
0.0294041
0.0294042
0.0294059
0.0294143
0.0294449
0.0294261
0.0294223
0.0294208
0.0294206
0.0294213
0.0294227
0.0294248
0.0294276
0.0294344
0.0294567
0.0294269
0.029424
0.029423
0.0294229
0.0294234
0.0294242
0.0294253
0.0294269
0.0294321
0.0294538
0.0294331
0.0294271
0.029426
0.0294267
0.0294289
0.0294322
0.0294361
0.0294409
0.0294484
0.0294772
0.0289657
0.0289566
0.028957
0.0289572
0.0289556
0.0289521
0.0289463
0.0289395
0.0289332
0.0289686
0.0182841
0.0181975
0.0181951
0.0181969
0.0182005
0.0182044
0.0181996
0.0181865
0.0181589
0.0182849
0.00150897
0.00150883
0.00150876
0.0015088
0.00150892
0.00150912
0.00150939
0.00150964
0.00150989
0.00151008
0.0015674
0.00156746
0.00156748
0.00156748
0.00156748
0.00156748
0.00156747
0.00156746
0.00156744
0.00156738
0.0209718
0.0210584
0.0210804
0.0210855
0.0210866
0.021087
0.021087
0.0210851
0.0210721
0.0210072
0.0291992
0.0292031
0.0292038
0.0292039
0.029204
0.0292046
0.0292058
0.0292081
0.0292147
0.0292321
0.0294283
0.029427
0.0294269
0.0294268
0.0294266
0.0294263
0.0294263
0.0294271
0.0294316
0.0294499
0.0294385
0.0294356
0.0294342
0.0294339
0.0294343
0.0294354
0.029437
0.0294393
0.0294441
0.0294591
0.029437
0.0294349
0.0294339
0.0294337
0.0294339
0.0294345
0.0294355
0.0294369
0.0294405
0.0294551
0.029444
0.02944
0.029439
0.0294394
0.0294409
0.0294432
0.029446
0.0294494
0.0294544
0.0294743
0.029178
0.0291693
0.0291692
0.0291694
0.029169
0.0291679
0.0291654
0.0291626
0.0291596
0.0291896
0.0199088
0.019824
0.0198217
0.0198236
0.0198268
0.0198312
0.0198353
0.0198384
0.0198387
0.0199556
0.00147435
0.00147425
0.00147421
0.00147423
0.0014743
0.00147442
0.00147458
0.00147474
0.0014749
0.001475
0.00153192
0.00153195
0.00153196
0.00153196
0.00153196
0.00153196
0.00153195
0.00153195
0.00153194
0.0015319
0.0229567
0.0230473
0.0230671
0.0230712
0.0230721
0.0230721
0.0230715
0.0230686
0.023053
0.0229708
0.029346
0.0293468
0.0293462
0.0293456
0.0293456
0.0293462
0.0293475
0.0293497
0.0293546
0.0293657
0.0294476
0.0294467
0.0294465
0.0294463
0.0294462
0.0294461
0.0294461
0.0294465
0.0294487
0.0294581
0.0294519
0.0294497
0.0294486
0.0294482
0.0294485
0.0294492
0.0294504
0.0294522
0.0294555
0.0294652
0.0294497
0.029448
0.0294472
0.0294469
0.029447
0.0294475
0.0294482
0.0294494
0.029452
0.0294612
0.0294524
0.0294498
0.0294491
0.0294492
0.02945
0.0294515
0.0294533
0.0294555
0.0294587
0.0294706
0.0293483
0.0293412
0.0293408
0.0293407
0.0293405
0.02934
0.0293392
0.0293385
0.0293377
0.0293627
0.0220549
0.0219766
0.0219749
0.0219765
0.0219792
0.0219827
0.0219861
0.0219882
0.0219883
0.022093
0.00143802
0.00143796
0.00143792
0.00143793
0.00143798
0.00143805
0.00143815
0.00143825
0.00143837
0.00143843
0.00149406
0.00149404
0.00149403
0.00149402
0.00149402
0.00149402
0.00149403
0.00149405
0.00149408
0.0014941
0.025643
0.0257242
0.0257383
0.0257413
0.025742
0.0257417
0.0257406
0.0257375
0.0257232
0.025638
0.0294538
0.0294518
0.0294503
0.0294494
0.0294492
0.0294497
0.0294509
0.0294529
0.0294566
0.0294648
0.0294642
0.0294637
0.0294634
0.0294632
0.0294631
0.0294632
0.0294633
0.0294636
0.0294645
0.0294678
0.0294667
0.0294653
0.0294645
0.0294642
0.0294644
0.0294649
0.0294657
0.0294669
0.0294689
0.0294742
0.0294655
0.0294643
0.0294636
0.0294634
0.0294635
0.0294639
0.0294645
0.0294655
0.0294671
0.0294722
0.0294628
0.0294613
0.0294607
0.0294607
0.0294612
0.0294621
0.0294633
0.0294648
0.0294667
0.029472
0.0294631
0.0294581
0.0294572
0.0294569
0.0294566
0.0294565
0.0294564
0.0294567
0.0294582
0.029476
0.0250398
0.0249806
0.0249797
0.0249808
0.0249827
0.0249851
0.0249875
0.0249888
0.0249883
0.0250648
0.00139927
0.00139921
0.00139919
0.0013992
0.00139923
0.00139929
0.00139936
0.00139944
0.00139953
0.00139959
0.00234814
0.00236799
0.00235715
0.00232273
0.00143366
0.00145407
0.00144958
0.0014425
0.00189994
0.00193773
0.00192644
0.00189941
0.00226
0.00231248
0.0022911
0.00224312
0.00258191
0.00264614
0.00261372
0.00254979
0.00290353
0.0029781
0.00294081
0.00287146
0.00317259
0.00325517
0.00321584
0.00314673
0.00333736
0.0034264
0.00338887
0.00332396
0.00297699
0.00305916
0.00302126
0.00296775
0.00235085
0.00236622
0.00233304
0.0022557
0.00204247
0.00204815
0.002049
0.0020453
0.00251833
0.00260086
0.00249912
0.0022926
0.00349523
0.00360126
0.00346046
0.0032047
0.00418766
0.004338
0.00416575
0.00385373
0.00489563
0.00510321
0.00489126
0.00450476
0.00580932
0.00609607
0.00583386
0.00534278
0.00671351
0.00707906
0.00675449
0.00615843
0.00737687
0.00782269
0.00743974
0.00675329
0.00580108
0.00619528
0.00581632
0.00523009
0.00216465
0.00219526
0.0021884
0.00215456
0.00194916
0.00195118
0.00195126
0.00194989
0.00427243
0.0042665
0.00427582
0.00436687
0.00523764
0.00521869
0.00522526
0.00533312
0.00566438
0.0056691
0.00567064
0.0057321
0.00610273
0.00612841
0.00610464
0.00607446
0.00678182
0.00683885
0.0067592
0.00658759
0.00747374
0.00754834
0.00739035
0.00706258
0.0079563
0.00806515
0.00783039
0.00734429
0.00599818
0.00610373
0.00588814
0.00541994
0.0020364
0.00205271
0.00205078
0.00203397
0.00191086
0.00191103
0.00191111
0.00191113
0.010588
0.0103287
0.010473
0.0109924
0.0123863
0.0120476
0.0123493
0.0132705
0.011743
0.0115398
0.0119056
0.0128452
0.0112775
0.0111771
0.011553
0.0124293
0.0113051
0.0112947
0.0116441
0.012407
0.0114118
0.0114534
0.0117434
0.0123525
0.011263
0.0113834
0.0116025
0.0119962
0.00785461
0.00801005
0.00809941
0.00815486
0.00194881
0.00195878
0.00195969
0.00195216
0.00188854
0.00188849
0.00188849
0.00188853
0.0150217
0.0149762
0.0150012
0.0150909
0.0245615
0.0242329
0.0244124
0.0250336
0.0227849
0.0224654
0.0228097
0.0237587
0.0207432
0.0205166
0.0209793
0.0221236
0.0195576
0.0194681
0.0200075
0.0212431
0.0186116
0.0186216
0.0191718
0.0203915
0.0172574
0.0174137
0.0179234
0.0189492
0.0106893
0.010898
0.0111142
0.0114337
0.00188817
0.00189435
0.00189574
0.00189257
0.0018698
0.00186969
0.00186964
0.00186968
0.0146034
0.0145451
0.0145283
0.0145562
0.0313184
0.0311928
0.031191
0.0313072
0.0324933
0.0322181
0.0322797
0.0326433
0.0309172
0.0305781
0.0307668
0.0314256
0.0293712
0.0290954
0.029447
0.0303772
0.0276373
0.0274507
0.0279192
0.0290351
0.0247318
0.0247496
0.0252605
0.0263136
0.0129857
0.013186
0.0133354
0.0134863
0.00184228
0.001846
0.00184723
0.001846
0.00185171
0.00185159
0.00185154
0.00185157
0.0142178
0.0141432
0.0141195
0.0141487
0.0308645
0.0308492
0.0308319
0.0308196
0.0344551
0.0344147
0.0344052
0.0344335
0.0353407
0.0352348
0.0352489
0.0353832
0.0356967
0.0355531
0.0356409
0.0359449
0.0348897
0.034724
0.0349017
0.0353975
0.0310417
0.031029
0.0312874
0.0318054
0.0131641
0.0133976
0.0134256
0.0133061
0.00180564
0.00180791
0.00180882
0.00180838
0.00183298
0.00183287
0.00183283
0.00183285
0.0142298
0.0141492
0.0141245
0.014157
0.0294407
0.0294254
0.0294034
0.0293808
0.0324867
0.0324797
0.0324599
0.0324367
0.0338371
0.0338287
0.0338134
0.0338058
0.035412
0.0354238
0.0354298
0.0354485
0.0360826
0.0360868
0.0361104
0.0361741
0.0325523
0.032653
0.0327186
0.0327707
0.012297
0.0125149
0.0125262
0.0123796
0.00177432
0.00177575
0.00177636
0.00177617
0.00181321
0.00181311
0.00181307
0.00181309
0.0144369
0.014353
0.0143287
0.0143647
0.0287498
0.0287363
0.0287174
0.0286975
0.030956
0.0309447
0.0309239
0.0309004
0.0317418
0.0317278
0.0317057
0.0316862
0.0329141
0.0329273
0.0329146
0.0328919
0.0336891
0.0337188
0.0337072
0.0336782
0.0307584
0.0308742
0.0308871
0.0308235
0.011906
0.0121038
0.0121247
0.0119974
0.00174563
0.00174659
0.00174698
0.00174683
0.0017922
0.00179211
0.00179207
0.00179209
0.0147529
0.0146654
0.0146414
0.0146811
0.0285032
0.0284932
0.0284789
0.0284637
0.0301977
0.0301893
0.0301736
0.0301553
0.0305763
0.0305614
0.0305425
0.0305268
0.0312069
0.0312047
0.0311887
0.0311686
0.0316189
0.0316234
0.0316041
0.0315759
0.0290793
0.0291563
0.0291574
0.0290978
0.0120093
0.0122097
0.0122371
0.0121114
0.00171808
0.00171878
0.00171902
0.00171886
0.00176982
0.00176975
0.00176971
0.00176972
0.0151524
0.0150608
0.0150367
0.0150804
0.0284548
0.0284472
0.0284367
0.028426
0.0298365
0.0298326
0.0298224
0.029809
0.0300137
0.0300041
0.0299914
0.0299799
0.0303289
0.0303251
0.030313
0.0302981
0.0305008
0.0304968
0.0304803
0.0304598
0.028258
0.0283137
0.028314
0.0282666
0.0123927
0.012609
0.0126419
0.0125091
0.00169085
0.00169139
0.00169154
0.00169136
0.00174598
0.00174592
0.00174589
0.00174589
0.0156337
0.0155373
0.015513
0.0155608
0.0284984
0.0284919
0.0284843
0.0284777
0.0296576
0.0296572
0.0296512
0.0296416
0.02974
0.0297356
0.0297279
0.0297197
0.0298921
0.0298908
0.0298833
0.0298726
0.0299521
0.0299488
0.0299377
0.0299234
0.0279883
0.0280362
0.0280392
0.028001
0.0129463
0.0131844
0.0132231
0.0130801
0.00166336
0.00166381
0.0016639
0.00166371
0.0017206
0.00172054
0.00172051
0.0017205
0.016206
0.0161041
0.0160793
0.0161313
0.0285894
0.0285837
0.0285783
0.0285749
0.0295655
0.0295675
0.0295642
0.0295571
0.0296031
0.0296023
0.029598
0.029592
0.0296725
0.0296735
0.0296693
0.0296615
0.0296892
0.0296882
0.0296815
0.0296718
0.0280051
0.0280492
0.0280549
0.0280238
0.0136288
0.0138916
0.0139363
0.0137813
0.0016352
0.00163559
0.00163565
0.00163545
0.00169357
0.00169352
0.00169348
0.00169347
0.0168868
0.0167785
0.0167529
0.0168092
0.0287079
0.028703
0.0286994
0.0286983
0.0295167
0.0295203
0.0295188
0.0295131
0.0295333
0.0295345
0.0295324
0.0295277
0.0295616
0.0295639
0.0295617
0.0295559
0.029568
0.0295687
0.0295651
0.0295587
0.0281661
0.028207
0.0282143
0.0281887
0.0144337
0.0147239
0.0147747
0.0146058
0.00160603
0.00160637
0.00160641
0.00160622
0.0016648
0.00166474
0.00166471
0.00166469
0.017702
0.0175863
0.0175593
0.01762
0.0288434
0.0288396
0.0288373
0.0288374
0.0294906
0.0294951
0.0294947
0.0294896
0.0294975
0.0294998
0.0294988
0.0294949
0.0295064
0.0295091
0.029508
0.0295035
0.0295168
0.0295186
0.0295169
0.0295126
0.028397
0.0284344
0.0284423
0.0284209
0.015376
0.0156967
0.0157535
0.0155685
0.00157556
0.00157586
0.00157589
0.00157571
0.00163422
0.00163414
0.00163411
0.0016341
0.0186897
0.0185648
0.0185357
0.0186011
0.0289884
0.0289859
0.0289846
0.0289849
0.0294768
0.0294817
0.0294817
0.0294769
0.0294797
0.0294822
0.0294819
0.0294786
0.0294799
0.0294823
0.0294817
0.0294783
0.0294987
0.0295011
0.0295005
0.0294974
0.028656
0.0286897
0.0286973
0.0286791
0.0164884
0.0168429
0.0169055
0.0167016
0.0015436
0.00154386
0.00154388
0.00154371
0.00160182
0.00160173
0.00160169
0.0016017
0.0199059
0.0197687
0.0197365
0.0198075
0.0291355
0.0291341
0.0291333
0.0291332
0.02947
0.0294746
0.0294748
0.0294705
0.0294718
0.0294742
0.0294741
0.0294715
0.029468
0.0294699
0.0294695
0.0294669
0.0294932
0.0294959
0.0294959
0.0294933
0.0289159
0.0289453
0.0289519
0.0289363
0.0178219
0.0182126
0.0182802
0.0180552
0.00151005
0.00151027
0.00151028
0.00151014
0.00156777
0.00156767
0.00156763
0.00156765
0.0214348
0.0212804
0.0212437
0.0213223
0.0292762
0.0292756
0.029275
0.0292743
0.0294677
0.0294713
0.0294715
0.0294682
0.0294698
0.0294717
0.0294717
0.0294698
0.0294639
0.029465
0.0294647
0.029463
0.0294887
0.0294914
0.0294916
0.0294894
0.0291532
0.0291779
0.0291831
0.0291694
0.0194488
0.0198715
0.0199418
0.0196967
0.00147497
0.00147515
0.00147516
0.00147505
0.00153227
0.00153216
0.00153213
0.00153217
0.0234095
0.02323
0.0231873
0.0232777
0.029397
0.0293968
0.0293963
0.0293956
0.0294683
0.0294706
0.0294709
0.0294689
0.0294717
0.0294729
0.0294729
0.0294718
0.0294652
0.0294655
0.0294653
0.0294645
0.0294811
0.029483
0.0294832
0.0294818
0.0293448
0.0293636
0.0293669
0.0293557
0.0215718
0.0220274
0.022095
0.021825
0.00143852
0.00143867
0.00143868
0.0014386
0.00149449
0.00149439
0.00149438
0.00149444
0.0260412
0.0258336
0.0257882
0.0258949
0.0294808
0.0294806
0.0294805
0.0294803
0.0294714
0.0294725
0.0294728
0.029472
0.0294771
0.0294776
0.0294777
0.0294772
0.0294727
0.0294725
0.0294723
0.0294723
0.0294763
0.0294771
0.0294773
0.0294768
0.0294715
0.0294812
0.0294822
0.0294761
0.0245996
0.0250299
0.0250806
0.0248177
0.00139995
0.00140008
0.00140008
0.00139999
0.00216434
0.00205019
0.00198819
0.00195729
0.00193905
0.00192734
0.00191988
0.00191509
0.00191189
0.0019097
0.00182715
0.00177622
0.00509641
0.00970136
0.0140589
0.0170702
0.0184162
0.0184216
0.0176875
0.0166927
0.00245482
0.0029563
0.00780754
0.0159371
0.0251138
0.0330319
0.0388413
0.0424271
0.0440287
0.0441181
0.00282625
0.00396268
0.00870632
0.0181505
0.0291634
0.0382919
0.0445956
0.0481204
0.0493128
0.0488564
0.00309478
0.00406003
0.00897979
0.0195204
0.0319166
0.0415351
0.0475106
0.0501483
0.0502786
0.0489462
0.00337971
0.0040974
0.00904352
0.0204349
0.033955
0.0437372
0.0490856
0.050663
0.0497732
0.0477485
0.00359963
0.00405517
0.00897097
0.021059
0.0354901
0.0450962
0.0495223
0.0499531
0.0481923
0.0457884