/*--------------------------------*- C++ -*----------------------------------*\
| =========                 |                                                 |
| \\      /  F ield         | foam-extend: Open Source CFD                    |
|  \\    /   O peration     | Version:     4.0                                |
|   \\  /    A nd           | Web:         http://www.foam-extend.org         |
|    \\/     M anipulation  |                                                 |
\*---------------------------------------------------------------------------*/
FoamFile
{
    version     2.0;
    format      ascii;
    class       volScalarField;
    location    "550";
    object      k;
}
// * * * * * * * * * * * * * * * * * * * * * * * * * * * * * * * * * * * * * //

dimensions      [0 2 -2 0 0 0 0];

internalField   nonuniform List<scalar> 
34480
(
8.74403
8.74224
8.74198
8.74285
8.74541
8.75121
8.76774
8.82902
9.05151
9.65933
8.65298
8.12541
8.05816
8.32701
8.90673
9.84406
11.6869
16.1601
30.1779
69.8064
13.6477
12.3404
11.9966
12.2027
12.8344
14.029
16.7131
23.1477
43.4141
105.07
13.2495
11.9366
11.6181
11.8826
12.6483
14.1546
17.4856
25.2955
50.193
129.677
12.4489
11.2753
11.0607
11.4005
12.3001
14.0518
17.8411
26.6389
55.4121
151.453
11.5126
10.4687
10.2835
10.6385
11.5817
13.497
17.6855
27.5294
60.6483
174.898
10.8317
9.91938
9.78036
10.1302
11.0823
13.0688
17.4951
28.0745
64.7126
194.934
9.56054
8.87791
8.76242
9.04104
9.80511
11.4964
15.528
25.8806
63.6449
202.09
6.82179
6.60278
6.58285
6.7125
7.05529
7.78827
9.76876
16.1772
42.7989
146.71
9.1817
9.18288
9.18834
9.19971
9.2164
9.23677
9.26051
9.29505
9.36094
9.42205
8.65387
8.65148
8.65091
8.65198
8.65553
8.66317
8.67819
8.70833
8.78408
9.0375
7.54121
7.1611
7.07906
7.23005
7.65854
8.50175
10.0262
12.0862
16.0413
43.2673
11.3383
10.3561
10.1164
10.3435
11.0313
12.3317
14.6553
17.9375
24.5986
69.811
11.3068
10.2698
10.0308
10.3062
11.1114
12.6509
15.4351
19.5733
28.7152
88.7796
10.9178
9.95191
9.77728
10.0932
10.9872
12.6947
15.8093
20.5347
31.7073
105.697
10.3054
9.42347
9.2592
9.57775
10.4886
12.285
15.6538
20.9416
34.3835
123.975
9.8608
9.06864
8.93839
9.24278
10.1412
11.9549
15.4692
21.1358
36.4302
140.088
8.85868
8.25894
8.14474
8.38178
9.08811
10.585
13.6685
19.0085
34.9503
145.749
6.60464
6.39941
6.36909
6.45869
6.73104
7.31693
8.64336
11.4678
22.0342
100.58
9.05464
9.05112
9.05153
9.05742
9.06836
9.0836
9.10284
9.13416
9.2004
9.37241
8.55129
8.54891
8.54808
8.54861
8.55097
8.5558
8.56429
8.57864
8.61031
8.67732
6.57349
6.36999
6.31686
6.39072
6.61999
7.08496
7.96388
9.44511
11.5245
17.2151
9.18602
8.58986
8.45735
8.63712
9.16271
10.1494
11.872
14.5268
18.0352
30.6595
9.40118
8.72744
8.58409
8.81325
9.46441
10.7039
12.8958
16.3309
21.2252
42.1702
9.34799
8.69214
8.58542
8.84479
9.57522
10.9818
13.5125
17.4958
23.5413
53.3553
9.0295
8.40869
8.30038
8.56587
9.32114
10.8317
13.6455
18.1589
25.5441
65.6015
8.80604
8.229
8.14267
8.39953
9.15327
10.6993
13.6872
18.561
27.1031
77.0379
8.08973
7.64683
7.56801
7.77052
8.36252
9.6358
12.2704
16.8851
25.9495
82.3198
6.3575
6.1973
6.17583
6.24809
6.46306
6.92296
7.94908
10.2773
16.3036
56.0274
8.93598
8.9295
8.92707
8.92996
8.93787
8.95054
8.96729
8.99659
9.06844
9.25665
8.43526
8.43376
8.43331
8.43382
8.43558
8.43871
8.44333
8.44866
8.46065
8.48237
5.90789
5.81137
5.78107
5.81205
5.9172
6.132
6.53824
7.26782
8.34932
10.4068
7.55713
7.23992
7.17285
7.27722
7.5889
8.18467
9.23283
10.9357
13.1275
17.9951
7.87309
7.47877
7.39568
7.5424
7.96439
8.77948
10.2254
12.6103
15.755
24.416
8.02931
7.62261
7.55895
7.73132
8.22322
9.18418
10.9214
13.821
17.7278
30.8357
7.92915
7.52228
7.45022
7.635
8.16255
9.23215
11.2383
14.6738
19.469
38.1482
7.87496
7.47793
7.4189
7.60352
8.1458
9.26932
11.452
15.2701
20.8049
45.1286
7.40837
7.09515
7.03895
7.18958
7.62205
8.55404
10.485
14.148
20.0251
48.4407
6.13377
6.01086
5.99499
6.04887
6.20727
6.53879
7.24251
8.90763
12.6492
32.3128
8.80344
8.79674
8.79399
8.79645
8.804
8.81689
8.83493
8.8649
8.93189
9.07863
8.30736
8.30665
8.30651
8.30688
8.30794
8.30958
8.31149
8.31179
8.31424
8.31859
5.49641
5.45271
5.4358
5.44643
5.48852
5.57553
5.7381
6.02927
6.44767
7.00615
6.45895
6.30714
6.27659
6.3241
6.47168
6.75872
7.27362
8.14942
9.3082
11.0286
6.76253
6.54861
6.50177
6.57902
6.80612
7.24868
8.04199
9.41563
11.266
14.6447
7.00629
6.77062
6.73387
6.83109
7.11317
7.66497
8.66874
10.4445
12.8632
18.298
7.03763
6.78425
6.73621
6.8483
7.16936
7.81927
9.04245
11.2794
14.3806
22.6298
7.09148
6.82917
6.78816
6.90531
7.25108
7.96239
9.34073
11.9281
15.5829
26.8205
6.82171
6.60756
6.56678
6.66763
6.95216
7.55627
8.78952
11.3032
15.2121
28.8416
5.93257
5.83976
5.82768
5.86472
5.9744
6.19761
6.64158
7.67772
9.85646
18.811
8.66164
8.65488
8.65192
8.65399
8.66108
8.67361
8.69163
8.7196
8.77602
8.88201
8.16841
8.16827
8.16836
8.16861
8.16915
8.16986
8.17038
8.16909
8.16885
8.16929
5.25893
5.23903
5.22953
5.23235
5.24801
5.28206
5.34711
5.46502
5.63551
5.81444
5.77577
5.71015
5.69938
5.71792
5.77719
5.89339
6.105
6.4764
6.99712
7.61808
6.00972
5.90092
5.87665
5.91322
6.02174
6.23088
6.60188
7.25792
8.19404
9.56113
6.25587
6.12864
6.11037
6.16026
6.3058
6.58429
7.08137
7.98487
9.28589
11.5902
6.34646
6.1976
6.16823
6.2314
6.41069
6.76517
7.41687
8.64751
10.4342
14.1066
6.45432
6.28983
6.26403
6.33346
6.53834
6.94833
7.7193
9.21902
11.4082
16.5426
6.32775
6.18911
6.16205
6.22623
6.40216
6.76457
7.47423
8.96234
11.3313
17.6781
5.75389
5.6862
5.67804
5.70251
5.77582
5.92063
6.19016
6.78419
7.9204
11.5852
8.50967
8.50313
8.50015
8.50193
8.5085
8.52032
8.53736
8.56226
8.60631
8.67654
8.01897
8.01917
8.01938
8.01954
8.01975
8.01992
8.01979
8.01829
8.01754
8.01739
5.12823
5.11836
5.1127
5.11288
5.11833
5.13189
5.16029
5.21569
5.30284
5.39562
5.37512
5.34954
5.34803
5.35421
5.37395
5.41379
5.49036
5.63235
5.84804
6.07772
5.52872
5.4753
5.46365
5.47964
5.52699
5.61642
5.77153
6.04482
6.45699
6.99135
5.73479
5.67016
5.66295
5.68648
5.75509
5.88167
6.09895
6.49035
7.08651
8.02126
5.8375
5.75446
5.73802
5.77137
5.86445
6.04216
6.35441
6.93712
7.82599
9.40723
5.96082
5.86243
5.84786
5.88633
6.0002
6.21977
6.61195
7.3664
8.51239
10.7774
5.93017
5.84549
5.82915
5.86787
5.97004
6.1735
6.55069
7.32654
8.59509
11.4228
5.60169
5.55372
5.54883
5.56419
5.61131
5.70169
5.86101
6.18784
6.76028
8.15489
8.34696
8.34087
8.33801
8.33956
8.34551
8.35626
8.37151
8.39279
8.42634
8.47249
7.85936
7.85971
7.85997
7.86007
7.8601
7.86001
7.85966
7.85845
7.85784
7.85786
5.05792
5.05221
5.04856
5.04806
5.04992
5.05589
5.07033
5.10191
5.15877
5.2314
5.14921
5.14084
5.143
5.14465
5.14901
5.15929
5.184
5.23855
5.33666
5.44879
5.23493
5.20882
5.20362
5.2102
5.22926
5.2646
5.32528
5.43299
5.60886
5.83364
5.38892
5.35778
5.35631
5.36651
5.39599
5.448
5.5337
5.68494
5.93042
6.3048
5.47924
5.43508
5.42681
5.44341
5.48844
5.57116
5.70938
5.95689
6.34848
7.00385
5.59507
5.5387
5.5316
5.55153
5.6111
5.7215
5.90774
6.24947
6.77805
7.72618
5.62332
5.57506
5.56643
5.5886
5.64396
5.75066
5.93871
6.30706
6.91413
8.10732
5.47678
5.44358
5.44119
5.45036
5.4796
5.53403
5.62629
5.80214
6.09105
6.64137
8.17296
8.16752
8.16491
8.16624
8.17147
8.18088
8.19387
8.21133
8.23628
8.26703
7.68968
7.69006
7.69032
7.69038
7.69034
7.69015
7.68978
7.68896
7.6886
7.68889
5.01975
5.01588
5.01336
5.01282
5.01354
5.0167
5.02542
5.04647
5.08947
5.15507
5.0254
5.02396
5.0271
5.02735
5.02663
5.02691
5.03335
5.05605
5.10977
5.18689
5.06224
5.04904
5.04684
5.04939
5.05635
5.06915
5.09174
5.13455
5.21575
5.33307
5.16842
5.15395
5.15487
5.15885
5.16999
5.18858
5.21847
5.27194
5.37086
5.53733
5.23756
5.21507
5.21148
5.21925
5.23925
5.27456
5.33125
5.42873
5.59175
5.87249
5.3353
5.30409
5.30141
5.311
5.3402
5.39223
5.47576
5.62038
5.84653
6.23915
5.39626
5.37113
5.36756
5.37959
5.40701
5.45828
5.54562
5.70832
5.9782
6.47332
5.37803
5.35535
5.35468
5.35989
5.37754
5.40935
5.46185
5.5551
5.70054
5.93949
7.98725
7.98259
7.98031
7.98143
7.98589
7.99378
8.00434
8.01811
8.03618
8.05661
7.50988
7.51024
7.51047
7.5105
7.51043
7.51025
7.50994
7.50945
7.5093
7.50981
4.99798
4.99507
4.99324
4.9928
4.99321
4.99526
5.00127
5.01669
5.05153
5.1126
4.95894
4.96003
4.96303
4.96298
4.9611
4.95878
4.9594
4.97014
5.00477
5.06807
4.96422
4.95702
4.95608
4.957
4.95915
4.96317
4.9711
4.98893
5.03146
5.10785
5.03305
5.02625
5.02775
5.02903
5.03233
5.03729
5.04546
5.06222
5.10359
5.19245
5.0811
5.07002
5.06882
5.07221
5.08001
5.09314
5.11378
5.14907
5.21619
5.35133
5.15829
5.14128
5.14087
5.14511
5.15837
5.18104
5.2161
5.27407
5.36799
5.54293
5.23515
5.22375
5.22317
5.22934
5.24113
5.26252
5.29867
5.36448
5.47778
5.6942
5.30264
5.28713
5.28749
5.29037
5.30088
5.31915
5.34871
5.39772
5.46983
5.58407
7.78951
7.78569
7.78378
7.78471
7.78837
7.79472
7.80293
7.81339
7.82612
7.83949
7.31984
7.32015
7.32035
7.32036
7.3203
7.32014
7.31991
7.31965
7.31966
7.32031
4.98441
4.98209
4.98072
4.9804
4.98072
4.98223
4.98667
4.99848
5.02737
5.08415
4.92374
4.92553
4.92798
4.92793
4.92621
4.9238
4.92293
4.92878
4.95327
5.0077
4.9104
4.90603
4.90556
4.90584
4.90626
4.90714
4.90965
4.91765
4.94264
4.99906
4.95284
4.94927
4.95051
4.95076
4.95113
4.95132
4.95206
4.95613
4.97473
5.03005
4.98381
4.9784
4.97826
4.9796
4.98192
4.98546
4.99117
5.002
5.02967
5.10363
5.04247
5.03302
5.03352
5.03522
5.0407
5.04961
5.06301
5.08484
5.12348
5.21099
5.12544
5.12156
5.12253
5.12551
5.12923
5.13566
5.14716
5.16948
5.21287
5.31601
5.2468
5.23599
5.23689
5.2385
5.24485
5.25544
5.27214
5.29794
5.33292
5.39273
7.57955
7.57656
7.57505
7.57579
7.57867
7.58355
7.58968
7.59733
7.60605
7.61466
7.11942
7.11968
7.11983
7.11984
7.11979
7.11967
7.11951
7.11938
7.11949
7.1202
4.97496
4.97304
4.972
4.97176
4.97203
4.97319
4.97654
4.98569
5.00968
5.06179
4.90515
4.90691
4.90872
4.90871
4.90746
4.90563
4.90468
4.90823
4.92616
4.97268
4.88175
4.87882
4.87853
4.87857
4.87844
4.87832
4.87894
4.88283
4.89871
4.94243
4.90688
4.90454
4.90528
4.90518
4.90475
4.90378
4.90269
4.90304
4.91234
4.94996
4.92563
4.92289
4.9231
4.92355
4.92368
4.92359
4.92377
4.92572
4.93719
4.98175
4.96958
4.96395
4.96464
4.96527
4.96731
4.97033
4.97481
4.98247
4.99859
5.0477
5.05352
5.05337
5.05498
5.05631
5.05631
5.05605
5.05667
5.06072
5.07396
5.12784
5.20632
5.19853
5.19964
5.20064
5.20471
5.21118
5.22089
5.23475
5.2513
5.28605
7.3573
7.35508
7.35393
7.3545
7.35668
7.36026
7.36467
7.37005
7.37585
7.38131
6.90846
6.90868
6.9088
6.9088
6.90876
6.90867
6.90856
6.9085
6.90867
6.90937
4.96764
4.96601
4.9652
4.96502
4.96525
4.96612
4.96862
4.97565
4.99533
5.04213
4.89522
4.89666
4.89789
4.8979
4.89709
4.89589
4.89521
4.89749
4.91059
4.94928
4.86702
4.86492
4.86471
4.86466
4.86441
4.86403
4.86401
4.86603
4.87648
4.91052
4.88134
4.87946
4.87972
4.87955
4.87909
4.87824
4.87722
4.87692
4.88221
4.90878
4.89211
4.89058
4.89082
4.8909
4.89036
4.88924
4.88785
4.8871
4.89197
4.92052
4.92529
4.92157
4.92213
4.92238
4.92309
4.92398
4.92524
4.92786
4.93512
4.96564
5.00778
5.00919
5.0109
5.01145
5.01007
5.00739
5.00398
5.0013
5.00232
5.03328
5.17721
5.17139
5.17251
5.17329
5.17616
5.18055
5.18655
5.19439
5.20195
5.22477
7.1228
7.12123
7.1204
7.12083
7.1224
7.12489
7.12797
7.13161
7.13533
7.13874
6.68684
6.68703
6.68713
6.68713
6.6871
6.68704
6.68697
6.68693
6.6871
6.68772
4.96148
4.96007
4.95945
4.95933
4.95949
4.96011
4.96192
4.96721
4.98298
5.02371
4.88969
4.89073
4.89148
4.89149
4.891
4.8903
4.88993
4.89144
4.90079
4.9316
4.85981
4.85828
4.85814
4.85807
4.85781
4.8574
4.85716
4.85821
4.86511
4.89106
4.86757
4.86592
4.86584
4.86568
4.86541
4.86496
4.86445
4.86435
4.86776
4.88668
4.87345
4.87246
4.87261
4.87256
4.87196
4.87083
4.86938
4.8682
4.87043
4.88942
4.89912
4.89642
4.89676
4.89692
4.89724
4.89756
4.89796
4.89908
4.90294
4.92359
4.97898
4.98079
4.98236
4.98256
4.98093
4.97788
4.97364
4.96923
4.9659
4.98555
5.15601
5.15154
5.1526
5.15333
5.15561
5.15895
5.16303
5.16786
5.17105
5.1879
6.87616
6.87511
6.87455
6.87486
6.87595
6.8776
6.87968
6.88204
6.88434
6.88643
6.45449
6.45467
6.45475
6.45476
6.45474
6.4547
6.45464
6.45461
6.45474
6.45524
4.95605
4.95484
4.95437
4.9543
4.95441
4.95482
4.95606
4.95989
4.97209
5.00602
4.8863
4.88696
4.88733
4.88732
4.88705
4.88671
4.88658
4.88761
4.89405
4.91719
4.85667
4.85557
4.8555
4.85543
4.85519
4.85481
4.85449
4.85499
4.85941
4.87844
4.86042
4.85897
4.8587
4.85857
4.85847
4.85836
4.85829
4.85849
4.8609
4.87428
4.86344
4.86269
4.86273
4.86264
4.86217
4.86135
4.8603
4.85938
4.86057
4.87351
4.88389
4.88181
4.88196
4.88211
4.88238
4.88268
4.88302
4.88382
4.88633
4.9012
4.96018
4.96182
4.96314
4.96321
4.96182
4.95925
4.95549
4.95138
4.94699
4.96075
5.13993
5.13651
5.13746
5.13824
5.14021
5.143
5.14609
5.1494
5.15036
5.16387
6.61762
6.61696
6.61661
6.61682
6.61753
6.6186
6.61994
6.6214
6.62274
6.62401
6.21143
6.21162
6.21169
6.2117
6.21168
6.21165
6.21161
6.21158
6.21165
6.21199
4.95115
4.95014
4.94982
4.94981
4.94988
4.95012
4.95091
4.95352
4.96251
4.98911
4.88381
4.88414
4.88421
4.88417
4.88404
4.88393
4.884
4.88474
4.88903
4.90516
4.85577
4.85501
4.855
4.85495
4.85474
4.8544
4.85406
4.85422
4.85692
4.87007
4.85695
4.85574
4.85539
4.85528
4.85528
4.85537
4.85555
4.85592
4.8577
4.86707
4.85835
4.85772
4.85767
4.85757
4.85727
4.85677
4.85614
4.8556
4.85638
4.86534
4.87488
4.87327
4.87328
4.87342
4.87372
4.87411
4.87455
4.87531
4.87714
4.88817
4.9464
4.94761
4.94864
4.94868
4.94769
4.94582
4.94299
4.93982
4.93571
4.94621
5.12683
5.1243
5.12516
5.12599
5.12779
5.13023
5.13279
5.13525
5.13497
5.14609
6.34751
6.34712
6.34691
6.34705
6.34749
6.34817
6.34899
6.34983
6.35056
6.35131
5.95787
5.95806
5.95813
5.95814
5.95813
5.95811
5.95807
5.95803
5.95805
5.95822
4.94669
4.94592
4.94576
4.94583
4.94588
4.94599
4.94641
4.94802
4.9542
4.97341
4.88154
4.88155
4.8814
4.88131
4.88126
4.8813
4.8815
4.8821
4.88492
4.89531
4.8561
4.85561
4.85564
4.8556
4.85543
4.85514
4.85484
4.85482
4.85631
4.86473
4.85559
4.85462
4.85428
4.85417
4.85422
4.85438
4.85464
4.85505
4.85637
4.86286
4.85609
4.85557
4.85546
4.85536
4.85519
4.85493
4.8546
4.85435
4.85493
4.86117
4.86914
4.86794
4.86785
4.86797
4.86826
4.86867
4.86914
4.86982
4.87117
4.87926
4.93416
4.93484
4.93559
4.93564
4.93502
4.93381
4.93191
4.92975
4.92639
4.93497
5.11489
5.11317
5.11392
5.1148
5.11645
5.11865
5.12084
5.12273
5.12167
5.1305
6.06635
6.06614
6.06604
6.06612
6.06637
6.06676
6.06724
6.06769
6.06805
6.06846
5.6943
5.69451
5.69457
5.69459
5.69459
5.69456
5.69453
5.69449
5.69447
5.6945
4.94243
4.942
4.94204
4.9422
4.94226
4.94227
4.94239
4.94319
4.94696
4.95933
4.87914
4.87882
4.87851
4.87837
4.87836
4.87848
4.87875
4.87929
4.88118
4.88757
4.85698
4.85668
4.85671
4.85667
4.85654
4.85633
4.85611
4.85603
4.85676
4.86162
4.8555
4.85478
4.85449
4.85441
4.85445
4.8546
4.85484
4.85519
4.85614
4.86055
4.85562
4.8552
4.85507
4.85498
4.85488
4.85476
4.85461
4.85452
4.85495
4.85921
4.86484
4.86399
4.86387
4.86394
4.86416
4.86449
4.86488
4.86539
4.86631
4.87188
4.92122
4.9214
4.92189
4.92194
4.92158
4.92084
4.91964
4.91828
4.91584
4.92312
5.10168
5.10072
5.10138
5.10225
5.10371
5.10563
5.1075
5.10885
5.10727
5.1135
5.77496
5.77486
5.77482
5.77486
5.77498
5.77516
5.77539
5.7756
5.77578
5.77597
5.42155
5.42172
5.42176
5.42177
5.42177
5.42176
5.42174
5.42171
5.42169
5.42161
4.93707
4.93708
4.93743
4.9377
4.93779
4.93771
4.93758
4.93769
4.93936
4.94599
4.87657
4.8759
4.87552
4.87535
4.87535
4.87549
4.87576
4.87625
4.87754
4.88163
4.85787
4.85768
4.85767
4.85762
4.85754
4.85742
4.8573
4.85724
4.85755
4.85999
4.85633
4.85584
4.85564
4.85557
4.8556
4.85571
4.85588
4.85613
4.85674
4.85955
4.85637
4.85607
4.85596
4.85589
4.85583
4.85577
4.8557
4.85567
4.85596
4.85864
4.8612
4.86068
4.86057
4.86059
4.86071
4.8609
4.86113
4.86143
4.86197
4.86524
4.90648
4.90627
4.9065
4.90649
4.90624
4.90575
4.905
4.90418
4.90275
4.90877
5.08105
5.08074
5.0813
5.08207
5.08323
5.08472
5.08613
5.08693
5.08513
5.08827
5.4743
5.47426
5.47425
5.47426
5.4743
5.47436
5.47444
5.4745
5.47454
5.47462
5.13936
5.13945
5.13946
5.13946
5.13946
5.13946
5.13945
5.13945
5.13945
5.13939
4.92314
4.9237
4.92442
4.92482
4.92494
4.92481
4.92449
4.92404
4.92376
4.92573
4.87313
4.87229
4.8719
4.87172
4.8717
4.87182
4.87206
4.87248
4.87334
4.87603
4.85871
4.8586
4.85856
4.85852
4.85848
4.85843
4.8584
4.85839
4.8585
4.85935
4.85789
4.85763
4.85752
4.85748
4.8575
4.85756
4.85765
4.8578
4.85812
4.85954
4.85799
4.85783
4.85776
4.85771
4.85768
4.85765
4.85762
4.85761
4.85775
4.85906
4.85914
4.85891
4.85884
4.85884
4.85888
4.85896
4.85906
4.85918
4.85942
4.86072
4.88919
4.88874
4.88872
4.88863
4.88841
4.88806
4.88761
4.8872
4.88687
4.8911
5.03124
5.03131
5.0317
5.03221
5.03294
5.03385
5.0347
5.03501
5.03356
5.03363
5.16441
5.16438
5.16438
5.16439
5.16439
5.1644
5.1644
5.1644
5.16437
5.16443
11.2276
11.3283
11.2713
11.0431
85.5582
87.2587
87.4211
87.6417
145.12
149.801
149.802
147.935
200.783
208.931
208.227
203.243
257.91
269.741
267.987
260.301
322.161
338.153
335.756
327.727
381.468
401.603
399.024
392.325
418.923
442.684
440.607
436.552
334.668
355.194
352.424
351.191
11.3291
11.5519
11.3992
11.0204
9.69008
9.74635
9.74459
9.69285
79.3
81.9865
82.4375
81.851
137.468
147.062
147.508
144.335
193.145
212.475
212.09
205.216
251.964
283.223
281.396
271.119
320.813
366.524
364.715
352.721
386.857
447.937
447.149
435.278
431.711
506.939
508.337
498.368
338.839
406.103
404.309
400.142
10.5833
10.7953
10.7231
10.5124
8.75983
8.77186
8.76966
8.7568
27.6753
30.09
29.2247
26.4714
50.9862
55.1173
53.122
48.1097
75.3144
81.3617
77.7752
70.0479
102.693
110.991
105.34
94.3128
136.894
148.463
140.595
125.123
172.72
187.733
177.4
157.196
201.468
219.961
207.585
183.138
159.053
173.899
162.332
142.389
9.80998
9.89254
9.86698
9.77291
8.49332
8.49454
8.49444
8.49343
12.0807
12.3298
12.262
12.0012
22.115
22.7301
22.5403
21.8993
32.5876
33.7843
33.3219
31.9359
44.5696
46.4696
45.5164
43.0138
60.0376
62.9951
61.3339
57.1873
76.5746
80.6004
77.9605
71.8573
90.2236
95.5176
91.871
83.6721
69.4144
73.6822
69.9741
62.799
9.36105
9.40131
9.39667
9.35846
8.31303
8.31268
8.31236
8.31206
7.45684
7.54714
7.5592
7.50787
12.2836
12.5249
12.5529
12.4314
17.3132
17.7932
17.7934
17.5013
23.0269
23.7956
23.6769
23.0753
30.6097
31.8416
31.5226
30.3809
38.6935
40.3832
39.7129
37.8409
45.2331
47.5271
46.4492
43.6426
33.2054
35
33.6736
30.9537
9.02228
9.04386
9.04446
9.02844
8.16128
8.16083
8.16044
8.16014
5.90483
5.91734
5.91337
5.89775
7.88161
7.9178
7.91801
7.89892
10.2726
10.3842
10.396
10.3549
13.0387
13.2575
13.2568
13.148
16.8589
17.2787
17.2444
16.9805
20.8853
21.5068
21.3676
20.8581
24.0214
24.9458
24.6681
23.776
16.9029
17.5904
17.1448
16.194
8.74558
8.75623
8.75796
8.7522
8.00972
8.00943
8.00912
8.0088
5.43069
5.43387
5.42765
5.41491
6.12299
6.11868
6.10643
6.09372
7.15697
7.1686
7.16083
7.15025
8.43401
8.47825
8.47217
8.45204
10.3417
10.4687
10.4661
10.4068
12.3434
12.5525
12.5252
12.3946
13.8546
14.2101
14.1484
13.8802
9.9287
10.1681
10.0358
9.75861
8.5052
8.51005
8.51178
8.51054
7.85123
7.85116
7.85093
7.85059
5.25776
5.26033
5.25472
5.24333
5.45457
5.44543
5.43289
5.42179
5.85724
5.84544
5.83169
5.82464
6.39779
6.39027
6.37521
6.36859
7.29719
7.32016
7.30893
7.29206
8.2497
8.30062
8.28349
8.24827
8.99023
9.10977
9.09113
9.0104
7.17616
7.24385
7.20862
7.14416
8.28308
8.28508
8.28636
8.28662
7.68341
7.68355
7.6834
7.68301
5.18024
5.18331
5.17877
5.16877
5.19345
5.1872
5.17776
5.16862
5.33289
5.3209
5.30947
5.30392
5.5511
5.53579
5.5218
5.51761
5.96101
5.95543
5.94201
5.93406
6.397
6.39656
6.37942
6.36707
6.77807
6.80912
6.79607
6.76823
6.09865
6.11016
6.09827
6.08683
8.06508
8.06576
8.06655
8.06709
7.5055
7.50584
7.50576
7.5053
5.13671
5.13986
5.13621
5.12772
5.07915
5.07559
5.06896
5.06194
5.10951
5.10116
5.09321
5.08921
5.19418
5.18198
5.17197
5.16915
5.3833
5.37417
5.36365
5.35875
5.58907
5.57778
5.56391
5.55795
5.80545
5.80937
5.7986
5.78564
5.63455
5.63001
5.62329
5.62302
7.84423
7.84433
7.84476
7.84525
7.3171
7.31762
7.31759
7.31705
5.10675
5.10965
5.10672
5.09972
5.02137
5.01947
5.01493
5.00984
5.00513
4.99987
4.99468
4.99201
5.0335
5.02537
5.01891
5.0172
5.12149
5.11465
5.10769
5.10453
5.22739
5.21715
5.20752
5.20413
5.36652
5.36465
5.35673
5.34875
5.41303
5.40523
5.40021
5.40172
7.61739
7.61728
7.6175
7.61784
7.11798
7.11864
7.11865
7.11804
5.08269
5.08522
5.08288
5.07726
4.98714
4.98621
4.98321
4.97972
4.95132
4.94812
4.94485
4.94315
4.9558
4.95065
4.94669
4.94581
4.99538
4.99103
4.98677
4.98482
5.05675
5.04943
5.04324
5.04136
5.15817
5.15618
5.15083
5.14526
5.29932
5.29214
5.28823
5.28953
7.38286
7.38272
7.38283
7.38301
6.90797
6.90873
6.90876
6.90809
5.06134
5.06353
5.06172
5.05723
4.96351
4.96321
4.96135
4.95908
4.92055
4.91871
4.9167
4.91559
4.9156
4.9124
4.91007
4.90971
4.93171
4.92908
4.92658
4.92543
4.97283
4.96794
4.96413
4.96322
5.05544
5.05429
5.05083
5.04678
5.23777
5.23223
5.22923
5.22988
7.13954
7.13947
7.13952
7.13956
6.68698
6.68778
6.68781
6.68711
5.04129
5.04327
5.04191
5.03827
4.94508
4.94529
4.94429
4.94281
4.901
4.90006
4.89886
4.89803
4.89328
4.89132
4.88998
4.88988
4.89838
4.89679
4.89533
4.89468
4.93025
4.92709
4.9248
4.92448
5.0034
5.00297
5.00075
4.99769
5.20246
5.19871
5.19644
5.19629
6.88669
6.88675
6.88676
6.88667
6.45497
6.45575
6.45578
6.45507
5.02193
5.02382
5.02283
5.01971
4.92956
4.93024
4.92985
4.92875
4.88743
4.88709
4.88638
4.88562
4.87997
4.87878
4.87802
4.87799
4.88034
4.87932
4.87845
4.87808
4.90773
4.90579
4.90445
4.90438
4.97581
4.97587
4.9744
4.97195
5.18017
5.17812
5.17642
5.17542
6.62385
6.62404
6.62404
6.62384
6.21201
6.21272
6.21272
6.21206
5.00308
5.00495
5.00423
5.00138
4.91607
4.91715
4.91711
4.91607
4.87751
4.87756
4.87714
4.87636
4.87159
4.87087
4.87042
4.87035
4.87023
4.8695
4.86893
4.86872
4.89468
4.89362
4.89287
4.89283
4.95924
4.95964
4.95862
4.95648
5.16361
5.16312
5.16187
5.16003
6.35081
6.35112
6.35113
6.35084
5.95839
5.95897
5.95895
5.95837
4.98493
4.98673
4.98618
4.98351
4.90438
4.90567
4.90576
4.9046
4.87032
4.87057
4.87031
4.86957
4.86621
4.86577
4.86546
4.86534
4.86439
4.86377
4.86336
4.86326
4.88557
4.88515
4.88475
4.88464
4.94635
4.94704
4.94626
4.94425
5.14817
5.14906
5.14821
5.14562
6.06767
6.06809
6.06809
6.06776
5.69475
5.69514
5.69509
5.69465
4.96793
4.96953
4.96911
4.96676
4.89445
4.89569
4.89572
4.89448
4.86538
4.86568
4.86552
4.86492
4.86286
4.86256
4.86232
4.86217
4.86105
4.86046
4.86013
4.86014
4.87746
4.87744
4.87724
4.87705
4.93276
4.93367
4.93303
4.93107
5.12968
5.13181
5.13136
5.12817
5.77497
5.77543
5.77545
5.7751
5.422
5.42215
5.42207
5.42181
4.95189
4.95324
4.95302
4.95123
4.88603
4.8869
4.88682
4.88574
4.86219
4.86243
4.86236
4.86198
4.86099
4.86075
4.86055
4.86043
4.85943
4.85886
4.85858
4.85869
4.8693
4.86942
4.86933
4.86916
4.91577
4.9166
4.91604
4.91437
5.1006
5.10392
5.10391
5.10024
5.4737
5.47421
5.47423
5.47389
5.14005
5.13988
5.1398
5.13982
4.92978
4.93119
4.93125
4.92994
4.87787
4.87812
4.87797
4.87737
4.86028
4.86041
4.8604
4.86025
4.86021
4.86001
4.85985
4.85979
4.85914
4.85869
4.85847
4.85859
4.86254
4.86259
4.86255
4.86248
4.89425
4.89416
4.89365
4.89306
5.03865
5.0426
5.04293
5.03913
5.16394
5.16447
5.16448
5.16412
10.0712
9.33331
9.02528
8.91392
8.84815
8.80311
8.77533
8.75957
8.75049
8.74553
104.685
49.6176
35.6857
29.117
23.4081
18.794
15.3055
12.7587
10.9625
9.6925
160.821
71.3021
50.6502
42.1957
35.176
29.3666
24.6664
20.96
18.0654
15.7956
201.462
81.3938
54.655
44.4751
36.7706
30.264
25.0109
20.9289
17.8077
15.4237
232.985
85.7196
56.6185
45.2265
37.1691
30.0495
24.386
20.0712
16.8457
14.4833
267.012
90.4169
58.1322
45.3391
36.8819
29.1685
23.2029
18.7728
15.5844
13.3452
294.174
93.2585
58.5268
44.7644
36.1482
28.0694
21.9999
17.604
14.5218
12.4465
302.278
88.9226
53.5961
39.5709
31.49
23.8551
18.4624
14.7491
12.3187
10.7445
214.1
52.9068
28.8482
19.9237
15.352
11.6049
9.54247
8.33829
7.61646
7.15544
9.49352
9.46387
9.31381
9.28939
9.24625
9.22358
9.20615
9.19754
9.19162
9.18602
9.32733
9.02755
8.87887
8.79261
8.73766
8.7017
8.67912
8.66666
8.65933
8.6549
53.8795
29.4639
23.1124
19.4953
16.4069
13.7881
11.709
10.1519
9.02935
8.25071
90.229
46.9485
36.2195
30.6913
26.4005
22.5411
19.2919
16.6631
14.5758
12.974
119.805
58.077
42.3584
34.553
29.1181
24.2824
20.3257
17.2158
14.8258
13.0528
147.432
66.9107
46.4037
36.7802
30.4698
24.8619
20.3997
16.9883
14.431
12.6148
179.454
75.9264
49.9467
38.2861
31.0991
24.7536
19.8736
16.2511
13.6476
11.8787
208.251
82.6362
51.9871
38.7944
31.0968
24.2836
19.2012
15.5334
12.9601
11.2818
223.593
82.6098
49.1133
35.1724
27.5957
21.0232
16.4121
13.2597
11.2031
9.91518
159.61
51.762
27.4183
18.2948
13.9149
10.7149
8.93978
7.91009
7.28854
6.90652
9.71965
9.41608
9.25236
9.19335
9.14268
9.11315
9.09225
9.08006
9.0712
9.06251
8.71588
8.67531
8.64139
8.61211
8.58918
8.57301
8.56282
8.55705
8.55333
8.55087
20.4791
17.0789
14.8779
12.8775
11.1511
9.73994
8.66392
7.88378
7.32554
6.93584
36.4939
29.2914
25.2497
21.7044
18.6992
16.1538
14.0938
12.4628
11.1762
10.1935
50.8418
37.901
31.231
25.7602
21.5119
18.0562
15.3547
13.2808
11.7042
10.5464
64.9444
44.8653
35.5966
28.4044
23.164
19
15.8385
13.4821
11.7355
10.507
81.0661
51.7351
39.4708
30.4366
24.2245
19.3694
15.7943
13.2062
11.3712
10.1386
95.8821
56.8323
41.9422
31.4825
24.654
19.3531
15.5568
12.8863
11.0348
9.83753
104.409
56.9638
40.2197
29.0537
22.2252
17.0667
13.5945
11.2857
9.79701
8.86744
72.3456
34.6071
22.5057
15.3676
11.6274
9.30539
8.04885
7.31665
6.86512
6.58429
9.4791
9.29265
9.16523
9.09064
9.03761
9.00517
8.98297
8.96821
8.95685
8.9462
8.48916
8.47895
8.46642
8.45461
8.44564
8.43981
8.43656
8.43515
8.43408
8.43328
11.3513
10.5343
9.63192
8.68659
7.87396
7.24732
6.79187
6.46797
6.23404
6.0669
20.3575
18.5284
16.5677
14.5276
12.7573
11.3157
10.1834
9.30613
8.62084
8.09747
28.5857
24.7685
21.1614
17.7904
15.0922
12.9738
11.3513
10.1265
9.20775
8.5384
36.8389
30.2737
24.8531
20.1817
16.6737
13.9989
12.0087
10.5533
9.48764
8.74107
46.517
35.9982
28.4051
22.2631
17.8891
14.6267
12.2697
10.5963
9.42542
8.64256
55.4464
40.4726
30.9252
23.5792
18.588
14.9229
12.3493
10.5766
9.35848
8.56907
60.5933
41.2165
30.2278
22.2221
17.1129
13.5015
11.1229
9.57268
8.57621
7.94694
40.7211
24.7262
16.9334
12.117
9.59607
8.12537
7.30537
6.81332
6.49844
6.29859
9.24224
9.10907
9.00776
8.94303
8.89875
8.87008
8.84974
8.83542
8.82411
8.81372
8.31328
8.31148
8.30843
8.30559
8.30368
8.30277
8.3027
8.30338
8.30391
8.30424
7.33522
7.07232
6.7738
6.46662
6.19916
5.98748
5.82836
5.7106
5.62257
5.55824
12.0443
11.36
10.5189
9.63027
8.83414
8.17718
7.66155
7.26538
6.95537
6.71508
16.667
15.1847
13.4954
11.8593
10.486
9.3903
8.54879
7.91828
7.44946
7.10932
21.4648
18.8203
16.1051
13.6731
11.7542
10.2788
9.18232
8.38902
7.81052
7.40416
27.3545
22.9207
18.8531
15.4293
12.8631
10.9466
9.56441
8.59222
7.91494
7.46166
32.8698
26.3674
20.993
16.6962
13.6228
11.3844
9.81814
8.74985
8.01271
7.52947
36.0867
27.3841
20.9549
16.1163
12.8761
10.6311
9.1574
8.19961
7.57638
7.17515
23.3405
16.3489
12.1063
9.49968
8.07288
7.22186
6.7154
6.39795
6.18527
6.04818
8.97691
8.89739
8.8302
8.78291
8.74851
8.7241
8.70589
8.69241
8.68157
8.67165
8.16238
8.16232
8.16137
8.1606
8.16036
8.16065
8.16136
8.16253
8.16378
8.1647
5.85168
5.78247
5.69524
5.59887
5.50955
5.43535
5.37768
5.33419
5.30208
5.27951
7.82601
7.62777
7.33298
7.00295
6.6985
6.44608
6.24949
6.09983
5.98109
5.88546
10.1877
9.67629
8.98655
8.2856
7.6788
7.19063
6.81507
6.53397
6.32536
6.17398
12.776
11.7752
10.5697
9.44744
8.53622
7.83309
7.31063
6.93364
6.65628
6.45938
16.1649
14.351
12.3975
10.6945
9.3766
8.38943
7.67503
7.17105
6.81706
6.57937
19.407
16.6459
13.9284
11.6881
10.0307
8.82438
7.97636
7.39549
6.98624
6.71319
21.348
17.5247
14.1529
11.5549
9.75675
8.51609
7.69174
7.14712
6.78382
6.54548
13.7164
10.937
8.98752
7.75512
7.0212
6.55491
6.25527
6.05873
5.9206
5.83134
8.72998
8.68622
8.64497
8.61215
8.58607
8.56596
8.55022
8.53806
8.52815
8.51904
8.01106
8.01119
8.01061
8.01022
8.01027
8.01071
8.01144
8.01253
8.01392
8.01508
5.38486
5.34792
5.30697
5.26412
5.22508
5.19296
5.16849
5.15086
5.13929
5.13262
6.06481
6.00234
5.90454
5.79239
5.68833
5.60285
5.53784
5.48996
5.45166
5.41866
7.11065
6.94021
6.68718
6.423
6.19062
6.00145
5.85398
5.74254
5.66026
5.60117
8.3632
7.99578
7.51711
7.06591
6.69589
6.40835
6.19211
6.03449
5.91627
5.83136
10.1712
9.43363
8.58427
7.83585
7.24798
6.80309
6.47493
6.23841
6.06937
5.95651
11.9539
10.7869
9.5451
8.51132
7.73166
7.15857
6.74707
6.4588
6.24829
6.1053
13.0762
11.4142
9.82738
8.59182
7.71329
7.09727
6.67444
6.38557
6.18712
6.0557
9.04657
8.03357
7.2359
6.69191
6.33047
6.08237
5.91061
5.79323
5.70662
5.65151
8.50142
8.47835
8.45351
8.43106
8.41169
8.39568
8.38257
8.37207
8.3634
8.35536
7.85256
7.85255
7.85196
7.85157
7.85155
7.85184
7.85235
7.85317
7.85441
7.85558
5.21796
5.18621
5.15506
5.12635
5.10229
5.08367
5.07036
5.06176
5.05748
5.05645
5.40146
5.37056
5.32882
5.28444
5.24557
5.21575
5.19543
5.1829
5.17384
5.16501
5.81135
5.75071
5.65861
5.56273
5.47827
5.4089
5.35423
5.31313
5.28437
5.26517
6.34704
6.21774
6.04509
5.88354
5.75084
5.64632
5.56622
5.50753
5.46321
5.43167
7.21873
6.93326
6.60201
6.31067
6.07863
5.8982
5.76003
5.65717
5.58304
5.53562
8.11171
7.64834
7.14463
6.72513
6.4021
6.15741
5.97436
5.8417
5.74077
5.67168
8.73929
8.06032
7.39635
6.87248
6.48633
6.20463
6.00172
5.85744
5.7562
5.69014
6.96658
6.61176
6.29744
6.06034
5.88529
5.75589
5.66011
5.5924
5.5399
5.5078
8.28248
8.27002
8.2549
8.23973
8.2257
8.21341
8.2029
8.1942
8.18693
8.18016
7.68459
7.68439
7.68376
7.68331
7.68319
7.68331
7.68359
7.68412
7.68511
7.68619
5.14626
5.11546
5.08708
5.06333
5.04493
5.03155
5.02257
5.01738
5.01567
5.01642
5.15071
5.12417
5.09575
5.07038
5.051
5.03825
5.03169
5.03
5.03031
5.02995
5.29487
5.26266
5.22067
5.18074
5.14741
5.12087
5.1005
5.08612
5.078
5.07427
5.50928
5.4559
5.39074
5.33371
5.28861
5.25348
5.22673
5.208
5.19469
5.18609
5.90497
5.79007
5.66514
5.55815
5.47247
5.40373
5.34891
5.30709
5.27793
5.26189
6.32146
6.14441
5.95657
5.80159
5.67916
5.58222
5.50606
5.44921
5.40444
5.37425
6.67027
6.40456
6.14892
5.94342
5.78511
5.66363
5.57173
5.50417
5.45687
5.42805
6.04382
5.91394
5.78877
5.68511
5.6014
5.5352
5.48316
5.44543
5.41461
5.39704
8.06469
8.05773
8.04849
8.03843