/*--------------------------------*- C++ -*----------------------------------*\
| =========                 |                                                 |
| \\      /  F ield         | foam-extend: Open Source CFD                    |
|  \\    /   O peration     | Version:     4.0                                |
|   \\  /    A nd           | Web:         http://www.foam-extend.org         |
|    \\/     M anipulation  |                                                 |
\*---------------------------------------------------------------------------*/
FoamFile
{
    version     2.0;
    format      ascii;
    class       volScalarField;
    location    "550";
    object      MaU;
}
// * * * * * * * * * * * * * * * * * * * * * * * * * * * * * * * * * * * * * //

dimensions      [0 0 0 0 0 0 0];

internalField   nonuniform List<scalar> 
34480
(
0.598668
0.59983
0.60062
0.60107
0.601177
0.600884
0.600082
0.598126
0.593032
0.588553
0.601895
0.603065
0.603945
0.604445
0.604408
0.60372
0.602392
0.60015
0.593977
0.590035
0.604983
0.606105
0.606934
0.607357
0.607211
0.606558
0.605537
0.604049
0.597943
0.594812
0.60659
0.607722
0.608573
0.609102
0.60918
0.608957
0.608499
0.607876
0.602338
0.599992
0.6089
0.610073
0.610977
0.611666
0.612029
0.612267
0.612382
0.612637
0.608025
0.606367
0.610298
0.611455
0.612373
0.613152
0.613724
0.614348
0.615001
0.616127
0.612779
0.61205
0.612011
0.613229
0.614198
0.615091
0.615853
0.616799
0.617937
0.619893
0.618028
0.618159
0.612664
0.61386
0.614774
0.615567
0.616231
0.617136
0.618415
0.620881
0.620521
0.621863
0.613587
0.614808
0.61579
0.616714
0.617564
0.618634
0.62015
0.623072
0.62398
0.625379
0.610358
0.61132
0.611551
0.611134
0.610136
0.608897
0.607839
0.608321
0.608824
0.612503
0.589802
0.591359
0.592127
0.592155
0.591354
0.589454
0.585837
0.57916
0.569212
0.556383
0.594312
0.595881
0.596753
0.596896
0.59611
0.594037
0.590066
0.582795
0.570791
0.555816
0.598259
0.59977
0.600628
0.600786
0.599993
0.597971
0.594179
0.587208
0.574518
0.558744
0.600537
0.602057
0.602944
0.603221
0.602652
0.601025
0.59773
0.591372
0.578538
0.562712
0.603348
0.604896
0.605832
0.606274
0.605984
0.604816
0.60209
0.596509
0.583965
0.568559
0.605107
0.606644
0.607604
0.608154
0.608084
0.607325
0.605159
0.60043
0.588558
0.574107
0.607129
0.608708
0.609719
0.610394
0.610527
0.610125
0.608487
0.604636
0.593761
0.580512
0.608004
0.609557
0.610527
0.61113
0.61122
0.610879
0.609515
0.606358
0.59668
0.58521
0.609116
0.610653
0.611667
0.612372
0.612638
0.612526
0.611534
0.609084
0.600653
0.590181
0.606068
0.60741
0.607904
0.607649
0.606606
0.604902
0.602246
0.598462
0.590425
0.583165
0.583104
0.584722
0.585427
0.585313
0.584329
0.582309
0.578947
0.573729
0.565999
0.556173
0.588025
0.589758
0.59059
0.590537
0.589471
0.587119
0.582944
0.576022
0.564853
0.549957
0.592229
0.593989
0.594854
0.594848
0.593788
0.591357
0.586899
0.579232
0.565622
0.546314
0.59487
0.596688
0.597604
0.597712
0.596812
0.594598
0.590268
0.582388
0.566915
0.543844
0.597984
0.599855
0.60083
0.601095
0.600424
0.598549
0.594536
0.586804
0.570081
0.544035
0.59999
0.601875
0.602895
0.603278
0.602806
0.601265
0.597634
0.590275
0.572844
0.544676
0.602234
0.604162
0.605238
0.605752
0.605476
0.604258
0.601044
0.594212
0.576593
0.546973
0.603304
0.605211
0.606262
0.606732
0.606439
0.605309
0.602356
0.596054
0.578707
0.548431
0.604598
0.606461
0.60754
0.608083
0.607911
0.606967
0.604358
0.598704
0.582029
0.55064
0.601775
0.603454
0.604146
0.603969
0.60283
0.600718
0.596961
0.590516
0.574353
0.543546
0.578386
0.579786
0.580355
0.580191
0.579276
0.577541
0.574874
0.57116
0.566347
0.560938
0.583158
0.584778
0.5855
0.585338
0.584211
0.581954
0.57828
0.572768
0.564888
0.555765
0.587188
0.588956
0.589749
0.589607
0.5884
0.58589
0.581609
0.574854
0.564356
0.551318
0.589905
0.591804
0.592669
0.592606
0.591451
0.588932
0.5844
0.576861
0.563978
0.546916
0.593122
0.59512
0.596054
0.596118
0.595102
0.592735
0.588194
0.580244
0.565362
0.544584
0.595253
0.597304
0.598297
0.598466
0.59759
0.59542
0.590992
0.582898
0.566414
0.542414
0.597633
0.599739
0.600791
0.601082
0.600364
0.598425
0.594207
0.586188
0.568575
0.541876
0.598854
0.600947
0.601988
0.602251
0.601524
0.599644
0.595564
0.587742
0.569533
0.540805
0.600286
0.602322
0.603377
0.603697
0.603065
0.601316
0.597416
0.589936
0.571769
0.540844
0.597691
0.599557
0.600339
0.600145
0.598836
0.596285
0.591615
0.583523
0.56554
0.53362
0.57529
0.576383
0.576808
0.576665
0.575963
0.5747
0.572878
0.570552
0.567848
0.565162
0.579597
0.580961
0.58155
0.581373
0.580389
0.578525
0.575676
0.571744
0.566688
0.561487
0.583138
0.584761
0.585457
0.585265
0.584106
0.58184
0.578211
0.572922
0.565573
0.557543
0.585672
0.587505
0.588297
0.588143
0.586925
0.584448
0.580288
0.573921
0.564276
0.552984
0.588777
0.590772
0.59165
0.591585
0.590407
0.58789
0.583429
0.576273
0.564466
0.549808
0.590883
0.592984
0.593938
0.593956
0.592844
0.590365
0.585747
0.578044
0.564276
0.546357
0.593281
0.595469
0.596489
0.596612
0.595604
0.593235
0.588598
0.580583
0.565184
0.544234
0.594576
0.596772
0.597796
0.597903
0.59688
0.594517
0.589858
0.581703
0.565142
0.541582
0.596094
0.598237
0.599268
0.599417
0.59846
0.596183
0.591581
0.583417
0.566318
0.540041
0.593707
0.595692
0.596536
0.596323
0.594897
0.592066
0.586938
0.578255
0.560946
0.53279
0.57335
0.574157
0.574455
0.574351
0.573866
0.573026
0.571867
0.570476
0.56897
0.567526
0.577116
0.578173
0.578625
0.578472
0.577701
0.576298
0.574252
0.571593
0.568426
0.565332
0.580033
0.581409
0.581985
0.581794
0.580792
0.578921
0.576082
0.572216
0.567318
0.562339
0.58222
0.583866
0.584555
0.584365
0.583217
0.581001
0.577497
0.572516
0.565731
0.558455
0.585048
0.586916
0.587708
0.587568
0.586369
0.583956
0.579956
0.574015
0.565287
0.555433
0.587002
0.589031
0.589915
0.589831
0.588621
0.586098
0.581728
0.574994
0.564349
0.551788
0.589315
0.591472
0.592431
0.592428
0.591258
0.58872
0.584131
0.576804
0.564415
0.549145
0.590603
0.592798
0.593778
0.593761
0.592558
0.58996
0.585197
0.577458
0.563672
0.545878
0.592154
0.594313
0.595299
0.595312
0.594144
0.591577
0.586758
0.578755
0.564086
0.543647
0.58994
0.591955
0.592819
0.592583
0.591095
0.588142
0.582936
0.574451
0.559308
0.536831
0.572178
0.572764
0.572965
0.572899
0.572588
0.572064
0.571365
0.570562
0.569727
0.568897
0.575444
0.576215
0.576542
0.576427
0.575871
0.574885
0.573497
0.571761
0.569773
0.567815
0.577724
0.578819
0.579271
0.579107
0.578309
0.576867
0.574774
0.572071
0.568867
0.565684
0.579492
0.580883
0.581455
0.581267
0.580275
0.578431
0.57566
0.571959
0.567344
0.562627
0.581942
0.583596
0.58428
0.584111
0.582999
0.580859
0.577502
0.572837
0.566647
0.56009
0.583651
0.585511
0.586302
0.58616
0.58497
0.582607
0.578753
0.573203
0.565343
0.556728
0.585797
0.587826
0.5887
0.588613
0.587402
0.584916
0.580699
0.574406
0.564925
0.554131
0.587001
0.589101
0.59001
0.589909
0.588639
0.586028
0.58152
0.574646
0.563772
0.550841
0.588536
0.590626
0.591546
0.591464
0.590198
0.587562
0.582908
0.575616
0.563741
0.548586
0.586453
0.588415
0.589262
0.58901
0.587525
0.58461
0.579645
0.571892
0.559407
0.542466
0.571481
0.571915
0.572048
0.57201
0.571821
0.571508
0.571099
0.570643
0.570172
0.569637
0.574334
0.574872
0.575099
0.575019
0.57464
0.573982
0.573077
0.571966
0.570693
0.569336
0.576034
0.576861
0.577198
0.57707
0.576474
0.575425
0.57395
0.572118
0.570024
0.567884
0.577388
0.578503
0.578957
0.578792
0.57799
0.576544
0.574459
0.571812
0.568725
0.565608
0.579416
0.580809
0.581378
0.58121
0.580249
0.578464
0.575793
0.572282
0.568
0.56363
0.580829
0.582457
0.583137
0.582973
0.581888
0.579814
0.576598
0.572227
0.566597
0.560741
0.582755
0.584583
0.585353
0.585221
0.584065
0.58179
0.578133
0.572984
0.565974
0.558466
0.58381
0.585737
0.586556
0.586404
0.585164
0.582712
0.578693
0.572897
0.564641
0.555462
0.585294
0.587241
0.588075
0.587934
0.58667
0.584143
0.579913
0.573632
0.564412
0.553538
0.583301
0.585136
0.585932
0.585677
0.584258
0.581518
0.577018
0.5703
0.560449
0.548199
0.571059
0.571395
0.571485
0.571465
0.571354
0.571173
0.570939
0.570681
0.570408
0.570022
0.573587
0.573953
0.574104
0.574051
0.573805
0.573383
0.572809
0.572104
0.571263
0.570235
0.574793
0.575395
0.575635
0.575541
0.575118
0.574388
0.573388
0.572175
0.570798
0.569271
0.575785
0.576642
0.576987
0.576854
0.576239
0.575159
0.573654
0.571819
0.569773
0.567654
0.577396
0.578521
0.578974
0.578824
0.578041
0.576626
0.574591
0.572039
0.569127
0.566191
0.578501
0.579865
0.580429
0.580269
0.579336
0.57761
0.575047
0.571732
0.567784
0.563816
0.580186
0.581767
0.582423
0.582275
0.581239
0.579269
0.576247
0.572199
0.567143
0.561977
0.581045
0.582744
0.583456
0.583283
0.582145
0.579966
0.576556
0.571875
0.565784
0.55938
0.582457
0.584203
0.584937
0.584768
0.583584
0.581294
0.577635
0.572466
0.565533
0.557923
0.580515
0.582164
0.582885
0.582638
0.581339
0.578877
0.574977
0.56941
0.561901
0.553322
0.570782
0.571058
0.571121
0.571111
0.571047
0.570945
0.570812
0.570667
0.570502
0.570191
0.573056
0.573305
0.573402
0.573369
0.573214
0.572951
0.572593
0.572146
0.571568
0.570724
0.573858
0.574284
0.574447
0.574382
0.574093
0.573604
0.572947
0.572159
0.571243
0.570086
0.574566
0.575203
0.575455
0.575354
0.574904
0.574129
0.573079
0.571839
0.570492
0.569
0.575795
0.57667
0.577017
0.576894
0.576284
0.575211
0.573718
0.571918
0.569965
0.567964
0.576609
0.577709
0.578159
0.578016
0.577255
0.575883
0.573919
0.571485
0.568764
0.566072
0.578057
0.579374
0.579914
0.579771
0.57889
0.577265
0.574867
0.571795
0.568221
0.564689
0.578689
0.58013
0.580729
0.580558
0.579565
0.57772
0.574947
0.571307
0.566918
0.562507
0.580029
0.581538
0.582162
0.58199
0.580938
0.578961
0.57593
0.57184
0.566763
0.56154
0.578106
0.579529
0.580159
0.579931
0.578789
0.576668
0.573422
0.568986
0.563426
0.557576
0.570568
0.570807
0.570852
0.570849
0.570813
0.570755
0.57068
0.570597
0.570493
0.570221
0.572644
0.572816
0.572878
0.572856
0.572761
0.5726
0.57238
0.572094
0.571681
0.570947
0.573116
0.573414
0.573521
0.573476
0.573286
0.572968
0.572547
0.572042
0.571426
0.570503
0.573627
0.574089
0.574268
0.574195
0.573878
0.573341
0.57263
0.57181
0.570925
0.569837
0.574523
0.575182
0.575438
0.575343
0.574889
0.574105
0.573044
0.571807
0.570513
0.569127
0.575083
0.57594
0.576287
0.576168
0.575573
0.574525
0.573072
0.571336
0.569488
0.567654
0.576321
0.577381
0.57781
0.577683
0.576969
0.575684
0.573849
0.571589
0.569106
0.566699
0.576708
0.577887
0.578373
0.578217
0.577391
0.575895
0.573723
0.570987
0.567889
0.564882
0.577992
0.57925
0.579764
0.579605
0.578713
0.57708
0.574665
0.57154
0.567907
0.564375
0.576063
0.577242
0.57777
0.577571
0.576607
0.574851
0.572249
0.568837
0.564826
0.560929
0.570365
0.570581
0.570614
0.570615
0.570594
0.570562
0.570519
0.570472
0.570401
0.570151
0.572288
0.572412
0.572452
0.572437
0.572379
0.572282
0.572147
0.571962
0.571655
0.570998
0.572485
0.572694
0.572762
0.57273
0.572608
0.572408
0.572144
0.571826
0.571405
0.570643
0.572884
0.573217
0.57334
0.57329
0.573074
0.572713
0.572242
0.57171
0.571131
0.57031
0.573498
0.573983
0.574167
0.574095
0.573769
0.573216
0.572484
0.571654
0.570807
0.569827
0.573852
0.574501
0.574759
0.574665
0.574218
0.573447
0.572405
0.571198
0.569961
0.5687
0.574918
0.575744
0.576074
0.57597
0.575415
0.574437
0.57308
0.571463
0.569766
0.568122
0.575055
0.575985
0.576365
0.576232
0.575574
0.574407
0.572766
0.570773
0.568628
0.566589
0.576314
0.577327
0.577735
0.577599
0.576875
0.57558
0.573724
0.571412
0.568868
0.566503
0.574355
0.575292
0.57572
0.575553
0.57477
0.573371
0.571359
0.568821
0.565996
0.563456
0.570143
0.570343
0.570368
0.57037
0.570358
0.57034
0.570316
0.570287
0.570238
0.570001
0.571953
0.57205
0.572076
0.572066
0.572031
0.571972
0.57189
0.571768
0.571534
0.570939
0.571908
0.572057
0.572099
0.572077
0.572
0.571876
0.571714
0.571517
0.571228
0.570588
0.572276
0.572517
0.572602
0.572568
0.572425
0.572188
0.571883
0.571543
0.571164
0.570528
0.572653
0.573005
0.573132
0.57308
0.572853
0.572475
0.571983
0.571439
0.57089
0.570185
0.572852
0.573331
0.573517
0.573446
0.573123
0.572574
0.571848
0.571029
0.570211
0.569334
0.573789
0.574415
0.574659
0.574578
0.574164
0.573446
0.572474
0.571348
0.570206
0.569075
0.573673
0.574382
0.574668
0.574561
0.574057
0.573182
0.571981
0.570572
0.569115
0.567735
0.574953
0.575743
0.576055
0.575945
0.575382
0.574394
0.573017
0.571358
0.569612
0.568036
0.572941
0.573654
0.573988
0.573853
0.573242
0.57217
0.570666
0.568837
0.566893
0.565273
0.569884
0.570068
0.570087
0.570091
0.570084
0.570074
0.57006
0.570042
0.570005
0.569781
0.571627
0.571709
0.571728
0.571721
0.571699
0.571664
0.571612
0.571531
0.571349
0.570816
0.571346
0.571457
0.571482
0.571466
0.571418
0.571343
0.571246
0.571127
0.570929
0.570395
0.571759
0.571938
0.571996
0.571975
0.571882
0.57173
0.571536
0.571321
0.571073
0.570573
0.571937
0.57219
0.572275
0.572239
0.572086
0.571834
0.571512
0.571163
0.570811
0.570295
0.572028
0.572376
0.572506
0.572455
0.572229
0.57185
0.571358
0.570815
0.57028
0.56966
0.572876
0.573338
0.573514
0.573453
0.573155
0.572646
0.571971
0.571207
0.57045
0.569663
0.572506
0.573029
0.573237
0.573154
0.572782
0.572149
0.571299
0.57033
0.569358
0.568422
0.573866
0.574464
0.574694
0.574609
0.574189
0.573462
0.572475
0.571318
0.570145
0.569095
0.571769
0.572287
0.572538
0.572434
0.571975
0.571183
0.570096
0.568819
0.567511
0.566504
0.569571
0.569741
0.569755
0.569759
0.569755
0.569749
0.569741
0.56973
0.569702
0.569492
0.571312
0.571388
0.571404
0.5714
0.571386
0.571363
0.57133
0.571274
0.571133
0.570665
0.570776
0.570863
0.570877
0.570865
0.570835
0.57079
0.570735
0.570665
0.570533
0.570096
0.571306
0.571445
0.571485
0.571472
0.571413
0.571317
0.571195
0.571061
0.570897
0.570504
0.571313
0.571496
0.571553
0.571527
0.571426
0.571263
0.571057
0.570838
0.570615
0.570231
0.571342
0.571592
0.571681
0.571645
0.571492
0.571238
0.570913
0.570561
0.570213
0.569765
0.572129
0.572462
0.572584
0.572541
0.572334
0.571985
0.571531
0.571026
0.570534
0.569976
0.571502
0.571875
0.572021
0.571959
0.571695
0.571252
0.570669
0.570022
0.569384
0.568746
0.573014
0.573453
0.573618
0.573556
0.573254
0.572739
0.572054
0.57127
0.570499
0.569793
0.570778
0.571138
0.571321
0.571244
0.570912
0.570347
0.569587
0.568722
0.567861
0.567254
0.56918
0.569334
0.569343
0.569346
0.569344
0.569341
0.569336
0.569329
0.569308
0.569117
0.571029
0.571103
0.571119
0.571117
0.571107
0.571092
0.571069
0.571029
0.57092
0.570522
0.570188
0.570259
0.570268
0.570258
0.570239
0.570213
0.570181
0.570142
0.570057
0.569716
0.570903
0.571014
0.571043
0.571035
0.570998
0.570938
0.570862
0.570778
0.57067
0.570362
0.570766
0.5709
0.570938
0.570921
0.570856
0.570752
0.570624
0.570487
0.570345
0.570056
0.57077
0.57095
0.57101
0.570987
0.570886
0.570721
0.57051
0.570285
0.57006
0.569728
0.57151
0.571744
0.571826
0.571795
0.571656
0.571425
0.571128
0.570804
0.570491
0.570089
0.57062
0.570879
0.57098
0.570937
0.570756
0.570455
0.570065
0.569643
0.569229
0.568793
0.572368
0.572684
0.572797
0.572754
0.572545
0.572193
0.571733
0.571217
0.570722
0.570239
0.569893
0.570131
0.570261
0.570206
0.569975
0.569586
0.569071
0.568502
0.567945
0.567595
0.568633
0.568765
0.568771
0.568774
0.568773
0.568771
0.568769
0.568765
0.568751
0.568586
0.570821
0.570896
0.570913
0.570913
0.570906
0.570894
0.570876
0.570845
0.570761
0.570436
0.569593
0.569654
0.569661
0.569654
0.569642
0.569626
0.569608
0.569586
0.569532
0.569281
0.570544
0.570633
0.570654
0.57065
0.570627
0.570589
0.570542
0.57049
0.570418
0.570182
0.570297
0.570398
0.570424
0.570415
0.570374
0.570309
0.570229
0.570143
0.57005
0.569828
0.570308
0.570439
0.570482
0.570468
0.570404
0.570297
0.570163
0.570019
0.56987
0.569618
0.570994
0.571154
0.571207
0.571186
0.571096
0.570946
0.570758
0.570555
0.57036
0.57007
0.569861
0.57004
0.57011
0.570082
0.569963
0.569764
0.569507
0.569234
0.568963
0.568661
0.571927
0.572149
0.572226
0.572197
0.572058
0.571825
0.571525
0.571193
0.570882
0.570544
0.568989
0.56914
0.569232
0.569195
0.56904
0.56878
0.568439
0.568074
0.567715
0.567525
0.567738
0.567842
0.567846
0.567848
0.567848
0.567848
0.567847
0.567845
0.567839
0.567708
0.570779
0.570857
0.570873
0.570875
0.57087
0.57086
0.570845
0.570819
0.570754
0.570499
0.569053
0.56911
0.569122
0.569121
0.569115
0.569104
0.569089
0.569071
0.569032
0.568855
0.570229
0.570299
0.570313
0.570311
0.570296
0.570273
0.570244
0.570211
0.570164
0.569989
0.569917
0.569996
0.570019
0.570016
0.569992
0.569951
0.569898
0.56984
0.569773
0.569598
0.56996
0.570058
0.57009
0.570084
0.570045
0.569977
0.569889
0.569794
0.569691
0.569494
0.570574
0.570681
0.570715
0.570702
0.570644
0.570549
0.57043
0.570304
0.570184
0.569978
0.569302
0.569432
0.569485
0.569471
0.569394
0.569263
0.569094
0.568911
0.568721
0.568505
0.57175
0.571901
0.571953
0.571933
0.571842
0.571691
0.571499
0.57129
0.5711
0.570858
0.567847
0.567944
0.56801
0.567987
0.567885
0.567715
0.567491
0.567258
0.567018
0.566922
0.566202
0.566276
0.566282
0.566286
0.566287
0.566287
0.566284
0.566281
0.566276
0.566182
0.571083
0.57115
0.571158
0.571156
0.571151
0.571144
0.571136
0.571122
0.571083
0.570898
0.56871
0.568773
0.568798
0.568807
0.568807
0.568798
0.56878
0.568754
0.568709
0.568575
0.569951
0.570001
0.570011
0.57001
0.570001
0.569987
0.569968
0.569947
0.569917
0.569795
0.569628
0.569694
0.569717
0.56972
0.569706
0.569679
0.569641
0.569595
0.569539
0.569402
0.56971
0.569786
0.569814
0.569814
0.56979
0.569745
0.569685
0.569615
0.569536
0.569383
0.570236
0.570309
0.570334
0.570327
0.57029
0.570227
0.570149
0.570065
0.569986
0.569845
0.569106
0.569212
0.569258
0.569255
0.569205
0.569117
0.568999
0.568866
0.568715
0.568536
0.571965
0.57206
0.572093
0.572079
0.572018
0.571918
0.571793
0.571661
0.571549
0.571391
0.566187
0.566257
0.566308
0.566294
0.566227
0.566112
0.565962
0.565805
0.565631
0.565575
0.564121
0.56417
0.564185
0.564195
0.564197
0.564194
0.564184
0.564167
0.564145
0.564074
0.571812
0.571821
0.571803
0.571789
0.571781
0.57178
0.571786
0.5718
0.571813
0.571748
0.568658
0.568733
0.56877
0.568789
0.568794
0.568785
0.568764
0.568727
0.568669
0.56855
0.569682
0.569711
0.569719
0.56972
0.569714
0.569704
0.569691
0.569675
0.569656
0.56959
0.569388
0.569442
0.569466
0.569473
0.569465
0.569445
0.569413
0.569373
0.569322
0.56922
0.569483
0.569545
0.569571
0.569575
0.569559
0.569526
0.569479
0.569421
0.569352
0.569238
0.569914
0.569968
0.569991
0.569988
0.569962
0.569916
0.569856
0.569789
0.569724
0.569632
0.569257
0.569356
0.5694
0.569401
0.569366
0.5693
0.569209
0.5691
0.568965
0.568793
0.572543
0.572591
0.572612
0.5726
0.572554
0.57248
0.572389
0.572296
0.572231
0.572175
0.564086
0.564152
0.564193
0.564184
0.564134
0.564048
0.563936
0.563816
0.563679
0.563621
0.423319
0.402821
0.409145
0.44904
0.377126
0.353971
0.364153
0.420393
0.336312
0.309185
0.325393
0.40326
0.300576
0.271152
0.294133
0.394535
0.271127
0.240963
0.271274
0.392735
0.245828
0.216022
0.255147
0.38803
0.225158
0.197225
0.245068
0.387096
0.20569
0.181326
0.237967
0.38648
0.188672
0.17045
0.235326
0.38956
0.169946
0.159797
0.231621
0.385965
0.48126
0.471184
0.471281
0.480455
0.452065
0.439387
0.4401
0.452069
0.423376
0.406471
0.408084
0.424855
0.396734
0.375517
0.378406
0.400276
0.374196
0.348418
0.352636
0.379787
0.354045
0.323296
0.327558
0.359837
0.337572
0.301842
0.305941
0.343386
0.322295
0.28179
0.28546
0.327956
0.309944
0.265498
0.268785
0.315747
0.295605
0.248785
0.249737
0.299257
0.54622
0.544053
0.543427
0.544305
0.528785
0.525034
0.524143
0.52609
0.510581
0.504537
0.503458
0.507399
0.490721
0.482235
0.481108
0.487536
0.471955
0.460957
0.459946
0.469262
0.452845
0.439204
0.438315
0.450572
0.435537
0.419219
0.418475
0.433706
0.418279
0.399425
0.398813
0.41683
0.403554
0.383093
0.382574
0.402511
0.385988
0.366019
0.364793
0.384198
0.558407
0.5574
0.557014
0.557203
0.548657
0.547205
0.546591
0.546746
0.538171
0.535554
0.534667
0.535361
0.525436
0.521439
0.520332
0.521859
0.512973
0.507462
0.506222
0.508909
0.499187
0.492051
0.490729
0.494838
0.486133
0.477337
0.475994
0.481723
0.472189
0.461837
0.46054
0.467953
0.459633
0.448428
0.447219
0.455902
0.443249
0.433139
0.43167
0.439797
0.565383
0.564875
0.564658
0.564726
0.559173
0.558663
0.558345
0.558209
0.552779
0.551721
0.551178
0.55113
0.544407
0.542576
0.541781
0.54196
0.536165
0.533401
0.532377
0.532965
0.526453
0.522631
0.521411
0.522591
0.517124
0.512186
0.51082
0.512766
0.506636
0.500634
0.4992
0.502042
0.497166
0.490611
0.489208
0.492793
0.483868
0.478536
0.477008
0.479926
0.568292
0.567896
0.567746
0.567839
0.56425
0.564003
0.563825
0.563718
0.560055
0.559523
0.559215
0.559131
0.554312
0.553367
0.552886
0.552856
0.548731
0.54725
0.546573
0.546662
0.541793
0.539667
0.538786
0.53907
0.535204
0.532365
0.5313
0.531872
0.527501
0.52396
0.522768
0.52373
0.52075
0.516866
0.515663
0.516979
0.510243
0.507577
0.506299
0.506826
0.56982
0.569457
0.569335
0.569455
0.567171
0.567023
0.566914
0.566847
0.564347
0.564032
0.563851
0.563808
0.56026
0.559709
0.559428
0.559416
0.556324
0.555463
0.555054
0.555089
0.551168
0.549921
0.549359
0.549456
0.546411
0.544727
0.544004
0.544192
0.540694
0.538572
0.537719
0.538047
0.536129
0.533801
0.532908
0.53336
0.527793
0.526683
0.525743
0.525311
0.570561
0.570196
0.570086
0.57023
0.568779
0.568651
0.568572
0.568547
0.566882
0.566646
0.566528
0.566531
0.563981
0.563602
0.563431
0.563468
0.561176
0.56061
0.560365
0.560438
0.557248
0.556448
0.556105
0.556209
0.553755
0.55269
0.552234
0.552366
0.549443
0.548116
0.547557
0.547729
0.54651
0.545077
0.544464
0.544635
0.539736
0.539541
0.538913
0.538164
0.570891
0.570512
0.570406
0.570574
0.569651
0.569515
0.569452
0.569463
0.568375
0.568165
0.568079
0.568121
0.566353
0.566053
0.565941
0.566018
0.564377
0.563959
0.563809
0.563922
0.561376
0.560814
0.560605
0.560743
0.558829
0.558105
0.557823
0.557973
0.555533
0.554656
0.554304
0.554459
0.55372
0.552802
0.552401
0.552503
0.548108
0.548437
0.548051
0.54724
0.570983
0.570583
0.570478
0.570667
0.570067
0.569914
0.56986
0.569904
0.569202
0.568995
0.568928
0.569001
0.567844
0.567578
0.5675
0.567608
0.566477
0.566138
0.566041
0.566184
0.564199
0.563768
0.563638
0.563802
0.562396
0.561865
0.561689
0.561861
0.559849
0.559231
0.55901
0.559177
0.558819
0.558198
0.557941
0.558044
0.554098
0.554716
0.554494
0.553709
0.570926
0.570505
0.570399
0.570608
0.570209
0.570039
0.569989
0.570063
0.569599
0.56939
0.569334
0.569433
0.568749
0.568501
0.568443
0.568574
0.567828
0.567533
0.567469
0.567629
0.566113
0.56576
0.565676
0.565854
0.564901
0.564485
0.564373
0.564557
0.562901
0.562436
0.562296
0.562474
0.562454
0.562004
0.56184
0.561958
0.558421
0.559185
0.559066
0.558332
0.570771
0.570328
0.57022
0.570447
0.570191
0.570004
0.56996
0.570057
0.569719
0.569507
0.569461
0.56958
0.569266
0.569029
0.568985
0.56913
0.568655
0.56839
0.568346
0.568515
0.567376
0.567075
0.567019
0.567201
0.566637
0.566295
0.566221
0.566407
0.565019
0.56465
0.564559
0.56474
0.565029
0.56468
0.564574
0.564707
0.561528
0.562351
0.562294
0.561615
0.570541
0.570079
0.569971
0.570212
0.570085
0.56989
0.56985
0.569964
0.569661
0.56945
0.569412
0.569545
0.569528
0.569302
0.569269
0.56942
0.569116
0.568876
0.568845
0.569014
0.56817
0.567906
0.567868
0.568046
0.567805
0.567514
0.567463
0.567644
0.566431
0.566125
0.566065
0.566241
0.566823
0.566536
0.566466
0.566608
0.563724
0.56455
0.564529
0.563906
0.570251
0.569772
0.569664
0.569918
0.569947
0.56975
0.569715
0.569839
0.569489
0.569286
0.569256
0.569395
0.56963
0.569418
0.569392
0.569543
0.569322
0.569106
0.569084
0.569246
0.568627
0.568393
0.568366
0.568533
0.568554
0.568301
0.568265
0.568435
0.567303
0.567042
0.566999
0.567168
0.568041
0.567792
0.567744
0.567892
0.565227
0.56602
0.566017
0.565453
0.569903
0.569413
0.569305
0.56957
0.569818
0.569628
0.569598
0.569724
0.569246
0.569057
0.569036
0.569173
0.569637
0.569445
0.569425
0.569567
0.569358
0.569165
0.569149
0.569297
0.568846
0.56864
0.568618
0.56877
0.568994
0.568773
0.568746
0.568903
0.567762
0.567533
0.567502
0.56766
0.568842
0.568618
0.568584
0.568735
0.566194
0.566925
0.566932
0.56643
0.569479
0.568984
0.56888
0.569151
0.569737
0.569563
0.569538
0.569657
0.568956
0.568791
0.568776
0.568903
0.569594
0.569426
0.569411
0.569536
0.569285
0.569117
0.569104
0.569233
0.568909
0.568728
0.568709
0.568843
0.569215
0.569021
0.569
0.569142
0.567911
0.567707
0.567683
0.56783
0.569362
0.569156
0.569131
0.569283
0.566724
0.567372
0.56738
0.566946
0.568907
0.568416
0.568321
0.568595
0.569751
0.569602
0.569582
0.569683
0.568643
0.568508
0.568499
0.568606
0.569531
0.569391
0.569379
0.569482
0.569157
0.569014
0.569002
0.569109
0.568889
0.568729
0.568712
0.568827
0.569293
0.569122
0.569105
0.569233
0.567862
0.567677
0.567656
0.567792
0.569734
0.569541
0.569523
0.569673
0.566835
0.567377
0.567384
0.567025
0.56799
0.567521
0.56744
0.567709
0.569945
0.569827
0.569811
0.569886
0.568356
0.568254
0.568247
0.568324
0.569462
0.569353
0.569342
0.56942
0.569021
0.5689
0.568887
0.568972
0.568847
0.568706
0.568689
0.568788
0.569298
0.569148
0.569135
0.56925
0.567772
0.5676
0.56758
0.567705
0.570125
0.569947
0.569933
0.570077
0.566407
0.566823
0.566826
0.566549
0.56641
0.565998
0.565939
0.566184
0.570487
0.570403
0.570389
0.570436
0.568194
0.56812
0.568109
0.56815
0.569387
0.569305
0.569297
0.56935
0.56891
0.568807
0.568793
0.568858
0.568821
0.568697
0.568681
0.568765
0.56928
0.569152
0.569141
0.569241
0.567857
0.567694
0.567673
0.567786
0.570787
0.570632
0.570622
0.570752
0.565202
0.565462
0.565458
0.565282
0.56419
0.563925
0.563896
0.564055
0.571499
0.571454
0.57145
0.571481
0.568236
0.568175
0.568156
0.56817
0.569301
0.569242
0.569234
0.569271
0.568836
0.568751
0.568737
0.568785
0.568806
0.568705
0.56869
0.568754
0.569234
0.569135
0.569125
0.569199
0.568193
0.568043
0.56802
0.568115
0.571859
0.57176
0.571757
0.571844
0.563305
0.563359
0.563352
0.563318
0.57157
0.57885
0.582814
0.585838
0.588901
0.591611
0.593814
0.595548
0.596913
0.598047
0.571404
0.573915
0.581321
0.586246
0.590702
0.594079
0.596581
0.598427
0.599773
0.600811
0.576006
0.571852
0.582837
0.588378
0.593613
0.597178
0.599784
0.601684
0.603029
0.604
0.581009
0.570057
0.584458
0.589868
0.595561
0.598994
0.601529
0.603336
0.604623
0.605585
0.587397
0.570432
0.587462
0.592582
0.598616
0.601809
0.604231
0.605884
0.607035
0.607904
0.59261
0.570111
0.589568
0.594117
0.600505
0.603418
0.605769
0.607298
0.608394
0.609263
0.59859
0.570949
0.592492
0.596249
0.602929
0.605511
0.607794
0.609194
0.610191
0.610972
0.601844
0.569672
0.593298
0.596227
0.603327
0.60569
0.608065
0.609481
0.610594
0.611523
0.605223
0.569883
0.595442
0.597109
0.60443
0.606369
0.608916
0.61037
0.611526
0.61246
0.590828
0.555146
0.58328
0.585345
0.594526
0.597994
0.602141
0.604798
0.606917
0.608544
0.516774
0.53776
0.553485
0.564656
0.572301
0.577645
0.581526
0.584441
0.586705
0.588577
0.502596
0.531969
0.553345
0.566758
0.575364
0.581233
0.585433
0.588522
0.590814
0.592525
0.493493
0.529916
0.555469
0.569904
0.579085
0.585207
0.589543
0.592688
0.594963
0.596597
0.486941
0.528729
0.557348
0.572102
0.581607
0.587726
0.592006
0.595065
0.597267
0.59887
0.484424
0.529923
0.560599
0.575408
0.585125
0.591112
0.595261
0.598157
0.600213
0.601715
0.483173
0.530846
0.563049
0.577578
0.587463
0.593247
0.597267
0.600016
0.60198
0.603452
0.484371
0.533006
0.566352
0.580322
0.590298
0.595799
0.599679
0.602269
0.604115
0.605498
0.484927
0.533529
0.567851
0.581108
0.591227
0.596487
0.600342
0.602898
0.6048
0.606284
0.486855
0.535334
0.570562
0.582635
0.592624
0.597455
0.601372
0.603962
0.605904
0.607414
0.47863
0.526167
0.562174
0.573825
0.584846
0.590667
0.595704
0.599156
0.601793
0.603713
0.547566
0.55335
0.55912
0.564257
0.568647
0.572329
0.575389
0.577931
0.580068
0.581898
0.534094
0.544825
0.554638
0.562723
0.569235
0.574388
0.578436
0.581615
0.584101
0.586001
0.522367
0.53877
0.552659
0.563211
0.571298
0.577407
0.582038
0.585561
0.588224
0.590188
0.511248
0.533273
0.551008
0.563543
0.572786
0.579459
0.584367
0.588014
0.590739
0.59275
0.503353
0.530422
0.551501
0.56553
0.575595
0.582568
0.587572
0.591205
0.593883
0.595858
0.496363
0.527775
0.551757
0.56684
0.577503
0.584606
0.589627
0.59321
0.595847
0.597819
0.491951
0.526885
0.553298
0.569009
0.580064
0.587146
0.592118
0.595607
0.598168
0.600082
0.487648
0.525245
0.553716
0.56971
0.581045
0.58805
0.593011
0.596483
0.599084
0.601074
0.485461
0.525349
0.555544
0.571249
0.582521
0.589267
0.594258
0.597761
0.60039
0.6024
0.476239
0.51726
0.548673
0.564369
0.576349
0.583796
0.589554
0.593672
0.596786
0.599016
0.557545
0.559704
0.562443
0.565251
0.567906
0.570318
0.572461
0.574345
0.576015
0.577518
0.548341
0.552801
0.558079
0.563147
0.567636
0.571467
0.57468
0.577349
0.579535
0.581263
0.539068
0.546802
0.55499
0.562252
0.568355
0.573342
0.577369
0.580594
0.583143
0.585094
0.528681
0.540388
0.551783
0.561167
0.568679
0.574556
0.579144
0.58272
0.585498
0.587616
0.519941
0.53591
0.550482
0.561758
0.57044
0.576971
0.581923
0.585686
0.588563
0.590742
0.511125
0.531389
0.549003
0.561891
0.571532
0.578532
0.583724
0.587597
0.590536
0.592774
0.504163
0.528521
0.54892
0.563083
0.573457
0.580744
0.586065
0.589969
0.592913
0.595144
0.497171
0.525234
0.548123
0.563221
0.574148
0.5816
0.587021
0.590976
0.593981
0.596286
0.492234
0.523759
0.548789
0.5643
0.575451
0.582892
0.588399
0.592408
0.59544
0.597756
0.48224
0.516233
0.542698
0.558623
0.570416
0.578405
0.584452
0.588898
0.592268
0.594662
0.564321
0.56495
0.56604
0.56734
0.568714
0.570076
0.571376
0.572594
0.573744
0.574851
0.558384
0.560153
0.56271
0.565487
0.568199
0.570709
0.572964
0.574945
0.576642
0.57803
0.55193
0.55526
0.559555
0.563928
0.567997
0.571603
0.574707
0.577327
0.579492
0.581219
0.543871
0.549412
0.555865
0.561981
0.567389
0.571977
0.575787
0.578909
0.581438
0.583439
0.536552
0.544761
0.5536
0.56147
0.56813
0.57356
0.577928
0.581412
0.584181
0.586348
0.528439
0.539629
0.55097
0.560522
0.568315
0.574448
0.579258
0.583015
0.585968
0.588278
0.521472
0.5358
0.549626
0.560687
0.569445
0.57612
0.581248
0.58518
0.588239
0.59061
0.514122
0.531575
0.547768
0.560101
0.569644
0.576717
0.582088
0.586171
0.589342