/*--------------------------------*- C++ -*----------------------------------*\
| =========                 |                                                 |
| \\      /  F ield         | foam-extend: Open Source CFD                    |
|  \\    /   O peration     | Version:     4.0                                |
|   \\  /    A nd           | Web:         http://www.foam-extend.org         |
|    \\/     M anipulation  |                                                 |
\*---------------------------------------------------------------------------*/
FoamFile
{
    version     2.0;
    format      ascii;
    class       volScalarField;
    location    "550";
    object      p;
}
// * * * * * * * * * * * * * * * * * * * * * * * * * * * * * * * * * * * * * //

dimensions      [1 -1 -2 0 0 0 0];

internalField   nonuniform List<scalar> 
34480
(
109815
109708
109653
109647
109701
109843
110133
110741
111600
111788
109725
109611
109547
109526
109562
109682
109946
110519
111422
111172
109529
109411
109343
109306
109318
109396
109610
110101
110985
110140
109269
109157
109090
109047
109041
109080
109237
109626
110436
108984
108954
108845
108783
108735
108715
108717
108821
109106
109812
107804
108741
108646
108592
108546
108516
108488
108541
108722
109292
106756
108454
108360
108312
108263
108222
108168
108175
108261
108679
105686
108411
108331
108291
108257
108230
108185
108177
108194
108440
104993
108255
108171
108124
108081
108049
108008
107989
107954
108008
104209
108337
108264
108266
108317
108414
108541
108706
108846
108909
104652
110520
110391
110335
110342
110423
110594
110889
111369
112126
113129
110342
110201
110135
110134
110211
110389
110717
111298
112348
113826
110070
109924
109855
109844
109907
110066
110388
111002
112266
114076
109764
109619
109549
109530
109579
109714
110010
110606
111991
114015
109423
109277
109209
109181
109216
109321
109580
110128
111570
113711
109190
109054
108988
108959
108982
109059
109277
109756
111197
113352
108888
108752
108689
108652
108662
108711
108888
109293
110691
112809
108830
108704
108646
108618
108635
108683
108840
109182
110490
112488
108659
108531
108466
108428
108430
108468
108607
108904
110078
112005
108728
108610
108582
108614
108711
108866
109125
109526
110657
112392
111028
110913
110866
110881
110966
111129
111386
111758
112258
112842
110823
110685
110627
110641
110736
110931
111252
111747
112509
113459
110520
110371
110310
110318
110414
110615
110968
111550
112569
113905
110193
110040
109975
109979
110070
110268
110633
111263
112484
114169
109843
109684
109619
109615
109697
109880
110240
110880
112253
114236
109599
109446
109382
109374
109448
109613
109956
110581
112055
114267
109289
109134
109070
109055
109117
109261
109581
110175
111706
114099
109219
109072
109011
109003
109067
109207
109515
110077
111610
114104
109037
108888
108822
108803
108852
108976
109263
109804
111282
113891
109091
108949
108909
108940
109054
109255
109615
110221
111671
114279
111367
111278
111242
111256
111324
111448
111630
111866
112145
112418
111178
111058
111009
111025
111114
111283
111543
111904
112383
112881
110888
110747
110692
110708
110806
111001
111317
111786
112494
113291
110569
110416
110354
110368
110471
110680
111038
111596
112529
113648
110230
110065
110001
110009
110109
110320
110699
111313
112443
113880
109990
109826
109760
109764
109861
110065
110453
111097
112391
114118
109684
109514
109447
109444
109532
109725
110108
110764
112185
114180
109608
109443
109378
109379
109470
109661
110045
110703
112199
114408
109417
109251
109181
109176
109255
109435
109806
110465
111975
114407
109456
109297
109245
109275
109399
109631
110050
110756
112261
114830
111582
111520
111495
111506
111554
111639
111757
111900
112054
112190
111424
111329
111291
111306
111378
111510
111701
111948
112238
112507
111170
111049
111002
111020
111110
111277
111534
111882
112338
112793
110878
110738
110683
110701
110802
110998
111312
111761
112407
113095
110567
110409
110349
110363
110470
110680
111035
111563
112397
113340
110344
110180
110115
110128
110235
110453
110835
111423
112433
113633
110050
109876
109809
109816
109920
110136
110532
111162
112326
113784
109975
109804
109736
109747
109854
110074
110483
111144
112425
114115
109781
109606
109537
109542
109643
109857
110267
110952
112296
114237
109809
109640
109582
109612
109743
109994
110436
111162
112529
114661
111713
111673
111656
111664
111695
111749
111821
111904
111987
112054
111587
111518
111489
111501
111555
111649
111781
111940
112112
112259
111381
111283
111246
111262
111336
111469
111663
111910
112197
112457
111126
111006
110958
110977
111068
111236
111491
111833
112265
112682
110853
110711
110657
110674
110776
110969
111274
111701
112289
112890
110655
110501
110441
110458
110566
110776
111123
111623
112368
113169
110382
110213
110150
110163
110272
110490
110865
111425
112320
113335
110316
110146
110080
110096
110211
110439
110838
111446
112470
113692
110122
109948
109880
109893
110006
110234
110643
111292
112405
113864
110144
109974
109913
109943
110075
110329
110764
111450
112606
114247
111792
111767
111757
111761
111781
111813
111855
111902
111947
111981
111691
111644
111624
111633
111670
111733
111819
111919
112020
112101
111534
111460
111432
111445
111502
111601
111740
111908
112088
112241
111320
111222
111184
111200
111276
111411
111608
111856
112142
112399
111091
110969
110923
110941
111030
111195
111444
111773
112179
112564
110924
110787
110733
110752
110852
111041
111337
111740
112276
112807
110676
110521
110462
110479
110585
110790
111122
111593
112257
112952
110624
110465
110403
110422
110536
110756
111119
111646
112431
113293
110436
110270
110206
110223
110338
110563
110945
111519
112396
113456
110456
110292
110231
110260
110389
110633
111036
111646
112574
113780
111840
111825
111820
111822
111834
111852
111876
111902
111927
111945
111758
111727
111714
111720
111744
111785
111839
111900
111958
112004
111646
111593
111573
111583
111624
111694
111789
111899
112011
112100
111470
111395
111365
111379
111438
111541
111685
111860
112047
112205
111286
111187
111150
111165
111240
111373
111566
111810
112086
112333
111152
111035
110989
111007
111095
111255
111496
111808
112186
112537
110932
110796
110744
110761
110858
111039
111319
111696
112180
112653
110899
110756
110699
110720
110826
111025
111340
111775
112359
112960
110719
110566
110508
110527
110637
110846
111182
111665
112332
113080
110741
110589
110532
110559
110679
110902
111259
111775
112491
113348
111874
111865
111862
111863
111870
111881
111894
111909
111922
111931
111803
111784
111776
111780
111795
111821
111854
111890
111923
111949
111731
111695
111681
111688
111717
111764
111827
111897
111965
112017
111587
111532
111510
111521
111565
111640
111742
111860
111981
112078
111446
111369
111340
111353
111412
111515
111658
111832
112017
112175
111343
111249
111211
111227
111300
111430
111616
111849
112111
112342
111151
111037
110993
111009
111093
111245
111470
111762
112105
112425
111140
111017
110968
110988
111081
111253
111513
111857
112282
112694
110968
110834
110783
110802
110901
111085
111369
111757
112250
112766
110996
110862
110810
110835
110941
111137
111439
111857
112394
112986
111903
111898
111896
111897
111901
111907
111914
111922
111929
111934
111838
111827
111822
111825
111834
111850
111869
111890
111910
111924
111800
111776
111767
111772
111791
111822
111862
111906
111947
111977
111681
111642
111627
111635
111666
111719
111789
111867
111944
112004
111578
111521
111499
111509
111554
111630
111734
111854
111976
112075
111504
111431
111401
111415
111472
111573
111713
111881
112059
112209
111338
111245
111210
111224
111293
111415
111590
111807
112047
112260
111349
111248
111207
111225
111304
111445
111652
111914
112217
112494
111186
111072
111029
111046
111132
111286
111516
111816
112172
112521
111223
111108
111063
111085
111176
111341
111587
111913
112304
112705
111934
111931
111930
111930
111932
111936
111940
111944
111948
111951
111871
111865
111862
111864
111869
111879
111890
111903
111914
111922
111861
111846
111841
111844
111857
111877
111901
111928
111952
111969
111760
111734
111724
111729
111751
111787
111833
111884
111932
111969
111691
111649
111634
111642
111674
111729
111801
111882
111961
112023
111640
111586
111563
111574
111618
111693
111795
111912
112032
112128
111497
111425
111397
111409
111463
111558
111688
111845
112009
112150
111531
111451
111418
111433
111497
111609
111767
111961
112172
112354
111373
111280
111245
111260
111331
111455
111634
111859
112110
112342
111422
111328
111291
111309
111384
111517
111710
111956
112234
112501
111970
111968
111968
111968
111969
111971
111973
111976
111978
111979
111907
111903
111902
111903
111906
111912
111918
111926
111932
111937
111922
111913
111910
111912
111920
111932
111947
111963
111976
111986
111831
111814
111807
111811
111826
111849
111880
111912
111942
111964
111789
111761
111750
111756
111779
111817
111865
111919
111969
112008
111758
111719
111703
111711
111743
111797
111869
111949
112028
112089
111634
111579
111559
111568
111609
111679
111774
111884
111994
112085
111690
111629
111604
111616
111665
111750
111868
112006
112150
112268
111534
111461
111434
111446
111501
111598
111732
111896
112069
112221
111597
111523
111493
111507
111567
111671
111817
111996
112189
112364
112015
112013
112014
112013
112014
112015
112016
112017
112019
112019
111946
111945
111944
111944
111947
111950
111954
111958
111962
111965
111985
111979
111978
111980
111985
111992
112001
112010
112018
112022
111898
111887
111883
111885
111895
111910
111929
111950
111968
111982
111880
111861
111854
111858
111874
111899
111931
111965
111997
112020
111862
111835
111824
111830
111853
111890
111939
111993
112044
112082
111753
111713
111698
111705
111735
111785
111852
111927
112000
112058
111830
111785
111767
111776
111813
111876
111960
112055
112152
112227
111672
111616
111596
111605
111647
111719
111817
111933
112050
112148
111751
111695
111672
111683
111729
111807
111914
112040
112172
112284
112068
112067
112068
112068
112068
112069
112069
112070
112070
112070
111991
111991
111990
111990
111992
111994
111996
111999
112001
112004
112053
112050
112049
112051
112054
112058
112063
112068
112072
112074
111964
111957
111954
111956
111962
111972
111984
111997
112008
112017
111965
111953
111948
111951
111962
111978
111999
112020
112040
112053
111957
111938
111931
111935
111951
111976
112009
112044
112077
112100
111858
111831
111820
111825
111846
111881
111926
111977
112024
112061
111955
111924
111911
111918
111945
111989
112047
112112
112176
112221
111791
111750
111735
111742
111772
111824
111893
111972
112049
112112
111889
111849
111832
111840
111873
111930
112005
112092
112179
112250
112132
112131
112132
112132
112132
112132
112132
112133
112133
112133
112040
112040
112039
112040
112040
112042
112044
112046
112047
112050
112126
112125
112125
112126
112128
112131
112134
112136
112138
112138
112030
112026
112024
112025
112029
112035
112042
112050
112057
112063
112046
112039
112036
112038
112045
112056
112069
112082
112094
112101
112044
112032
112027
112029
112040
112057
112078
112100
112121
112135
111954
111936
111929
111932
111947
111970
112000
112032
112062
112085
112070
112050
112040
112045
112064
112094
112134
112176
112218
112244
111893
111863
111853
111858
111879
111915
111962
112015
112065
112105
112017
111988
111976
111982
112005
112045
112097
112155
112211
112255
112209
112208
112208
112208
112209
112209
112209
112209
112209
112208
112090
112090
112090
112090
112090
112091
112093
112095
112096
112099
112206
112206
112206
112207
112208
112209
112211
112212
112213
112212
112096
112094
112093
112093
112096
112099
112104
112109
112113
112117
112125
112120
112118
112120
112124
112131
112139
112147
112154
112159
112123
112115
112112
112114
112120
112131
112145
112159
112173
112181
112043
112031
112027
112029
112038
112054
112073
112093
112111
112126
112177
112163
112157
112160
112172
112193
112219
112246
112273
112288
111980
111959
111952
111955
111969
111993
112024
112059
112090
112117
112140
112121
112112
112116
112132
112159
112194
112231
112268
112294
112307
112306
112306
112306
112306
112306
112306
112306
112306
112305
112136
112135
112135
112135
112135
112136
112138
112140
112142
112145
112287
112287
112287
112287
112288
112289
112290
112291
112292
112291
112163
112161
112160
112161
112162
112164
112167
112171
112174
112176
112198
112195
112193
112194
112196
112201
112206
112211
112217
112219
112195
112189
112187
112188
112192
112199
112208
112217
112227
112232
112125
112118
112115
112116
112122
112132
112144
112157
112168
112177
112270
112261
112257
112258
112266
112280
112297
112315
112334
112342
112049
112035
112030
112032
112042
112057
112077
112099
112119
112137
112273
112260
112254
112257
112267
112285
112308
112332
112356
112371
112447
112447
112447
112447
112447
112447
112447
112446
112446
112445
112166
112165
112164
112164
112164
112165
112166
112168
112171
112175
112359
112358
112357
112357
112357
112358
112360
112361
112363
112363
112227
112226
112225
112226
112227
112228
112230
112232
112234
112236
112263
112260
112259
112259
112260
112263
112267
112271
112276
112278
112257
112253
112251
112251
112253
112258
112264
112271
112278
112283
112200
112195
112193
112194
112198
112204
112212
112221
112228
112233
112340
112332
112328
112329
112334
112343
112355
112368
112382
112388
112093
112084
112080
112082
112088
112098
112111
112125
112137
112150
112438
112430
112425
112427
112433
112445
112460
112476
112493
112501
112654
112653
112653
112652
112652
112652
112652
112653
112653
112653
112160
112159
112159
112160
112160
112160
112161
112162
112163
112166
112405
112402
112399
112398
112397
112398
112400
112403
112407
112410
112289
112288
112288
112288
112288
112289
112291
112293
112294
112296
112321
112317
112315
112315
112316
112318
112321
112325
112329
112333
112313
112308
112306
112306
112307
112311
112315
112321
112327
112332
112268
112264
112263
112263
112266
112270
112276
112282
112287
112292
112367
112360
112356
112356
112360
112366
112375
112385
112397
112406
112098
112092
112090
112091
112095
112103
112111
112121
112128
112135
112659
112652
112648
112649
112654
112662
112673
112684
112697
112703
112878
112875
112874
112873
112872
112873
112874
112876
112878
112883
112123
112127
112130
112132
112132
112132
112131
112129
112126
112121
112421
112416
112412
112410
112410
112411
112413
112416
112421
112428
112349
112348
112347
112347
112347
112348
112349
112350
112352
112353
112374
112370
112368
112367
112368
112370
112372
112375
112380
112385
112367
112363
112361
112361
112362
112364
112368
112373
112378
112385
112336
112332
112330
112330
112332
112336
112341
112346
112351
112356
112373
112365
112362
112361
112364
112369
112376
112385
112396
112409
112083
112080
112079
112080
112083
112089
112096
112103
112108
112108
112892
112886
112883
112884
112888
112895
112903
112913
112923
112929
123609
124810
124652
123451
126576
127976
127601
126075
129236
130817
130259
128382
131147
132844
132101
129958
132585
134357
133476
131138
133739
135566
134767
132322
134534
136391
135705
133184
135284
137145
136607
134039
135249
137086
136674
134102
134945
136775
136607
134172
114473
114665
114711
114608
116564
116936
117007
116747
118558
119110
119185
118719
120411
121126
121190
120490
122088
122937
122972
122028
123700
124659
124663
123529
125048
126090
126066
124773
126423
127525
127484
126079
127174
128311
128268
126805
127847
129024
129030
127604
113355
113445
113476
113455
114551
114721
114766
114709
115785
116054
116113
115999
117003
117375
117444
117252
118171
118644
118712
118420
119418
119992
120056
119653
120520
121184
121238
120719
121763
122502
122547
121916
122527
123315
123355
122630
123339
124168
124226
123443
112536
112560
112573
112576
113195
113252
113276
113274
113930
114038
114076
114059
114732
114902
114956
114911
115526
115767
115834
115747
116443
116761
116838
116696
117269
117662
117746
117537
118294
118756
118844
118563
118940
119454
119548
119204
119694
120252
120364
119980
112238
112248
112255
112257
112634
112661
112675
112678
113059
113111
113134
113134
113564
113650
113684
113678
114083
114210
114256
114237
114731
114907
114966
114926
115308
115535
115605
115537
116105
116384
116464
116361
116616
116936
117031
116896
117264
117622
117737
117580
112073
112078
112081
112082
112311
112322
112329
112332
112565
112587
112600
112604
112884
112924
112944
112948
113225
113289
113319
113321
113689
113783
113824
113820
114085
114213
114265
114252
114705
114870
114932
114905
115101
115296
115374
115333
115625
115847
115941
115890
111991
111993
111995
111995
112127
112133
112137
112139
112291
112302
112309
112311
112494
112513
112524
112528
112723
112756
112773
112777
113061
113112
113137
113142
113329
113400
113435
113438
113815
113910
113955
113954
114107
114224
114281
114277
114515
114650
114718
114709
111950
111951
111951
111952
112017
112020
112022
112023
112125
112130
112133
112135
112253
112263
112268
112271
112414
112430
112440
112443
112669
112696
112711
112716
112849
112888
112910
112916
113236
113291
113320
113326
113432
113502
113540
113546
113747
113829
113875
113878
111934
111934
111935
111935
111956
111957
111958
111959
112029
112032
112033
112034
112104
112109
112111
112113
112219
112227
112232
112234
112415
112430
112438
112442
112533
112556
112569
112574
112847
112879
112897
112903
112962
113004
113029
113035
113210
113260
113289
113295
111935
111936
111936
111936
111928
111928
111929
111929
111982
111983
111983
111984
112017
112020
112021
112021
112100
112104
112106
112107
112251
112260
112264
112266
112322
112335
112343
112346
112582
112601
112612
112616
112634
112660
112675
112680
112835
112865
112883
112888
111951
111951
111951
111951
111923
111924
111924
111924
111971
111971
111971
111970
111976
111977
111977
111977
112037
112039
112040
112040
112153
112158
112160
112161
112186
112194
112198
112200
112407
112418
112425
112427
112410
112425
112435
112438
112578
112596
112607
112611
111979
111979
111979
111979
111937
111937
111937
111937
111986
111986
111985
111984
111968
111968
111968
111968
112015
112016
112016
112016
112104
112107
112108
112109
112107
112112
112114
112116
112300
112307
112311
112312
112263
112273
112278
112281
112410
112422
112429
112431
112019
112019
112019
112019
111965
111965
111965
111965
112022
112021
112020
112019
111984
111984
111983
111983
112024
112024
112024
112024
112092
112093
112094
112094
112072
112074
112075
112076
112247
112251
112253
112254
112174
112180
112184
112185
112312
112319
112323
112325
112070
112070
112070
112070
112004
112004
112003
112003
112074
112073
112072
112071
112018
112017
112017
112017
112056
112055
112055
112055
112106
112107
112107
112107
112068
112069
112070
112071
112234
112236
112238
112238
112129
112133
112135
112136
112267
112271
112274
112275
112133
112133
112132
112132
112050
112050
112049
112049
112138
112138
112137
112136
112063
112063
112063
112063
112103
112102
112102
112102
112140
112140
112141
112141
112089
112090
112090
112091
112253
112254
112255
112255
112116
112118
112120
112120
112265
112267
112269
112270
112208
112208
112208
112208
112099
112099
112099
112099
112213
112213
112212
112211
112118
112118
112117
112117
112160
112160
112159
112159
112185
112186
112186
112186
112127
112127
112127
112128
112294
112295
112296
112296
112124
112125
112126
112126
112299
112300
112301
112302
112305
112305
112305
112305
112145
112146
112146
112146
112292
112292
112292
112292
112176
112176
112176
112177
112221
112221
112221
112221
112236
112236
112237
112237
112176
112176
112176
112177
112348
112349
112349
112349
112141
112142
112143
112143
112373
112373
112374
112374
112444
112444
112444
112444
112176
112176
112177
112177
112367
112368
112368
112368
112236
112236
112237
112237
112281
112281
112282
112282
112287
112288
112288
112289
112231
112230
112231
112231
112397
112398
112399
112399
112152
112153
112154
112154
112502
112501
112502
112503
112653
112653
112653
112653
112165
112166
112167
112168
112419
112421
112422
112423
112295
112296
112296
112297
112337
112338
112339
112340
112337
112339
112340
112340
112290
112289
112290
112291
112422
112425
112426
112426
112133
112133
112133
112133
112709
112709
112710
112711
112884
112885
112886
112887
112107
112105
112105
112106
112441
112445
112447
112448
112353
112353
112354
112355
112391
112393
112394
112394
112392
112394
112395
112395
112358
112359
112359
112360
112433
112439
112441
112439
112090
112085
112085
112088
112952
112955
112955
112953
117520
115126
113296
112082
111325
110834
110499
110262
110091
109959
118539
115491
113240
111941
111171
110685
110363
110139
109981
109858
118803
115440
112885
111668
110904
110432
110117
109899
109750
109645
118646
115172
112409
111332
110579
110137
109834
109628
109484
109380
118183
114753
111901
110929
110176
109761
109468
109273
109139
109050
117602
114426
111512
110661
109897
109514
109229
109047
108919
108830
116823
113998
111025
110299
109520
109171
108891
108721
108602
108529
116306
113896
110869
110275
109480
109161
108877
108708
108582
108493
115553
113509
110487
110067
109295
109024
108734
108564
108435
108343
115984
114176
111120
110724
109833
109462
109066
108812
108617
108460
114107
113424
112807
112291
111865
111518
111237
111009
110826
110682
115606
114345
113289
112499
111904
111459
111122
110865
110665
110511
116721
114908
113466
112471
111746
111228
110853
110577
110372
110228
117487
115198
113430
112307
111500
110949
110559
110277
110069
109921
117897
115253
113216
112009
111147
110584
110188
109910
109705
109568
118178
115301
113041
111796
110897
110336
109942
109670
109470
109331
118168
115163
112715
111467
110541
109992
109601
109338
109144
109017
118271
115243
112650
111435
110494
109961
109569
109306
109108
108967
118019
114996
112346
111231
110316
109814
109417
109150
108948
108802
118422
115490
112796
111697
110707
110135
109664
109337
109090
108897
113316
113029
112703
112388
112102
111851
111635
111452
111298
111173
114387
113801
113182
112647
112208
111854
111567
111333
111144
110993
115398
114429
113475
112713
112123
111671
111324
111054
110845
110691
116282
114898
113624
112677
111969
111448
111058
110763
110538
110372
116980
115177
113604
112503
111701
111133
110716
110410
110178
110015
117648
115450
113604
112388
111514
110916
110485
110173
109940
109772
118078
115523
113435
112136
111207
110595
110156
109846
109612
109453
118609
115767
113483
112143
111179
110563
110117
109801
109563
109391
118735
115669
113292
111983
111025
110417
109960
109637
109393
109215
119229
116071
113642
112324
111310
110650
110142
109776
109501
109291
112559
112474
112352
112211
112066
111924
111792
111672
111565
111475
113213
113010
112747
112477
112221
111988
111782
111603
111451
111325
113910
113514
113045
112603
112214
111883
111608
111380
111194
111051
114626
113991
113290
112674
112157
111738
111401
111132
110917
110752
115267
114353
113406
112625
111994
111502
111119
110822
110587
110416
115959
114745
113552
112622
111894
111347
110930
110613
110367
110184
116485
114963
113531
112474
111664
111077
110637
110308
110054
109873
117156
115346
113702
112551
111681
111065
110605
110263
110001
109807
117476
115418
113640
112451
111552
110921
110443
110091
109821
109622
118063
115827
113951
112711
111760
111088
110574
110191
109900
109678
112251
112216
112161
112091
112014
111935
111856
111783
111714
111655
112657
112573
112449
112305
112155
112008
111870
111744
111633
111538
113085
112913
112678
112426
112182
111956
111755
111579
111430
111310
113584
113288
112909
112529
112179
111870
111605
111382
111195
111047
114073
113616
113068
112552
112095
111709
111389
111126
110911
110748
114659
114012
113280
112627
112070
111617
111251
110957
110721
110541
115132
114271
113345
112562
111916
111406
111002
110686
110434
110249
115787
114707
113597
112703
111980
111425
110990
110653
110388
110187
116166
114883
113632
112660
111882
111292
110832
110481
110205
109998
116741
115280
113917
112876
112047
111420
110931
110555
110264
110040
112080
112066
112040
112006
111966
111923
111879
111836
111795
111759
112327
112291
112230
112154
112068
111980
111893
111810
111735
111668
112591
112515
112397
112256
112107
111961
111822
111695
111583
111491
112920
112782
112581
112355
112128
111913
111717
111543
111393
111270
113268
113043
112736
112410
112097
111811
111559
111343
111160
111017
113727
113393
112961
112527
112126
111773
111471
111218
111007
110841
114101
113633
113062
112517
112030
111615
111269
110986
110752
110576
114679
114064
113350
112700
112134
111666
111282
110971
110721
110526
115035
114271
113432
112692
112061
111550
111135
110806
110542
110340
115532
114632
113692
112884
112203
111656
111215
110866
110590
110374
111995
111987
111975
111957
111936
111913
111888
111864
111840
111819
112137
112118
112087
112045
111996
111944
111891
111839
111791
111746
112306
112268
112205
112124
112034
111940
111847
111760
111681
111615
112518
112449
112338
112203
112058
111912
111773
111645
111531
111435
112759
112644
112469
112266
112055
111851
111663
111494
111347
111229
113109
112933
112679
112397
112116
111853
111616
111410
111233
111089
113384
113130
112782
112414
112059
111738
111456
111216
111012
110855
113867
113521
113071
112616
112191
111816
111494
111224
111000
110822
114155
113707
113158
112621
112133
111714
111360
111070
110830
110643
114557
114019
113392
112796
112263
111811
111433
111124
110873
110674
111952
111948
111941
111932
111921
111908
111895
111881
111868
111856
112022
112013
111996
111973
111946
111915
111884
111852
111822
111794
112133
112113
112077
112030
111976
111917
111858
111800
111747
111703
112266
112230
112166
112085
111992
111896
111801
111711
111628
111557
112436
112374
112271
112143
112004
111862
111726
111601
111488
111396
112703
112607
112454
112272
112079
111889
111711
111550
111408
111290
112896
112754
112541
112295
112044
111804
111584
111390
111221
111087
113291
113094
112812
112500
112190
111902
111644
111421
111231
111075
113494
113232
112878
112503
112140
111812
111523
111278
111070
110905
113813
113495
113087
112663
112262
111905
111594
111333
111115
110938
111935
111933
111929
111925
111918
111912
111904
111897
111889
111882
111959
111954
111945
111932
111917
111899
111880
111862
111844
111826
112033
112022
112001
111974
111941
111905
111868
111831
111797
111768
112111
112090
112053
112003
111945
111883
111819
111758
111701
111650
112230
112195
112133
112052
111961
111866
111771
111681
111598
111530
112435
112380
112287
112169
112038
111905
111776
111655
111547
111454
112565
112482
112349
112187
112012
111838
111673
111523
111389
111280
112887
112773
112594
112384
112164
111950
111752
111574
111420
111290
113011
112858
112632
112375
112114
111866
111640
111442
111269
111129
113265
113078
112815
112523
112231
111959
111713
111500
111318
111168
111936
111935
111933
111930
111927
111923
111919
111915
111911
111907
111929
111927
111922
111915
111906
111896
111885
111874
111864
111853
111983
111977
111965
111949
111929
111908
111885
111862
111840
111823
112020
112008
111986
111956
111920
111880
111839
111799
111760
111725
112105
112084
112046
111996
111937
111873
111809
111746
111688
111639
112262
112230
112172
112096
112009
111918
111827
111740
111660
111589
112342
112292
112208
112102
111983
111860
111740
111627
111525
111440
112608
112540
112426
112287
112134
111980
111833
111697
111576
111472
112668
112577
112433
112261
112077
111896
111725
111570
111432
111319
112874
112762
112595
112397
112191
111990
111803
111636
111490
111367
111951
111951
111950
111948
111947
111945
111942
111940
111938
111936
111924
111923
111920
111916
111911
111906
111900
111894
111887
111880
111970
111966
111959
111950
111938
111925
111911
111897
111885
111875
111977
111970
111957
111938
111916
111891
111865
111839
111814
111790
112039
112026
112003
111971
111933
111892
111849
111806
111766
111733
112159
112139
112103
112054
111997
111936
111873
111812
111755
111704
112198
112168
112115
112045
111965
111880
111795
111714
111638
111575
112422
112381
112309
112218
112114
112006
111899
111799
111708
111627
112432
112377
112286
112171
112045
111916
111790
111674
111567
111479
112604
112537
112430
112299
112156
112013
111874
111748
111635
111538
111979
111979
111978
111978
111977
111976
111974
111973
111972
111971
111938
111937
111935
111933
111931
111928
111924
111921
111917
111912
111984
111982
111978
111972
111965
111957
111949
111941
111934
111929
111967
111963
111955
111944
111931
111915
111899
111882
111866
111851
112015
112007
111993
111973
111949
111922
111894
111866
111840
111818
112107
112094
112072
112041
112004
111963
111921
111879
111840
111803
112114
112095
112062
112017
111964
111906
111847
111790
111736
111690
112309
112284
112239
112179
112110
112036
111961
111889
111823
111762
112277
112243
112185
112110
112025
111935
111845
111761
111681
111615
112427
112387
112319
112234
112137
112037
111938
111845
111760
111686
112019
112019
112019
112018
112018
112017
112016
112016
112015
112015
111965
111965
111964
111963
111961
111960
111958
111956
111954
111950
112019
112017
112015
112012
112007
112003
111998
111993
111989
111988
111983
111981
111976
111969
111961
111951
111941
111931
111921
111911
112023
112018
112009
111997
111982
111965
111947
111929
111912
111898
112093
112085
112071
112051
112028
112001
111973
111945
111919
111894
112076
112064
112042
112013
111979
111941
111901
111861
111824
111793
112251
112236
112208
112169
112124
112074
112023
111973
111926
111883
112183
112162
112125
112077
112020
111959
111896
111837
111779
111731
112323
112298
112256
112201
112136
112068
111999
111933
111872
111818
112070
112070
112070
112070
112069
112069
112069
112068
112068
112068
112004
112003
112003
112003
112002
112001
112000
111999
111997
111994
112070
112069
112068
112066
112063
112060
112058
112055
112053
112053
112017
112015
112012
112008
112003
111997
111991
111985
111979
111972
112054
112051
112045
112038
112028
112018
112006
111995
111984
111976
112106
112102
112093
112080
112065
112048
112030
112012
111995
111978
112071
112063
112050