/*--------------------------------*- C++ -*----------------------------------*\
| =========                 |                                                 |
| \\      /  F ield         | foam-extend: Open Source CFD                    |
|  \\    /   O peration     | Version:     4.0                                |
|   \\  /    A nd           | Web:         http://www.foam-extend.org         |
|    \\/     M anipulation  |                                                 |
\*---------------------------------------------------------------------------*/
FoamFile
{
    version     2.0;
    format      ascii;
    class       surfaceScalarField;
    location    "550";
    object      phi;
}
// * * * * * * * * * * * * * * * * * * * * * * * * * * * * * * * * * * * * * //

dimensions      [1 0 -1 0 0 0 0];

internalField   nonuniform List<scalar> 
97302
(
-0.00010985
1.26154e-06
-0.000846151
0.000854549
-0.000119203
1.48531e-06
-0.000847378
0.000855246
-0.000128754
1.57644e-06
-0.000848193
0.000856167
-0.000139075
1.55282e-06
-0.000848566
0.000857334
-0.000151001
1.40514e-06
-0.000848468
0.000858988
-0.000166019
1.12519e-06
-0.000847685
0.000861578
-0.000187223
6.87075e-07
-0.000845618
0.000866136
-0.000221553
4.66972e-08
-0.000840447
0.000874731
-0.00026988
-9.28078e-07
-0.000831276
0.000880552
-3.64474e-06
-0.00080476
-0.000351063
0.000889587
-0.000151159
2.40152e-06
-0.00113501
0.00114396
-0.000160905
2.8322e-06
-0.00113655
0.00114495
-0.000170814
2.99563e-06
-0.00113777
0.00114626
-0.000181414
2.96099e-06
-0.00113839
0.00114759
-0.000193507
2.71577e-06
-0.00113817
0.00114895
-0.000208822
2.25136e-06
-0.00113672
0.0011509
-0.000231172
1.51197e-06
-0.0011336
0.00115513
-0.000269865
4.06469e-07
-0.00112707
0.0011654
-0.00032607
-1.39007e-06
-0.00111495
0.00117163
-5.90132e-06
-0.00107806
-0.00042974
0.00118398
-0.000191948
3.15973e-06
-0.00142433
0.00143401
-0.000201924
3.74576e-06
-0.00142612
0.00143518
-0.000211924
3.97463e-06
-0.00142755
0.00143657
-0.000222449
3.96391e-06
-0.00142814
0.00143767
-0.000234431
3.69921e-06
-0.00142757
0.00143857
-0.000250007
3.17354e-06
-0.0014257
0.00144035
-0.000273582
2.31323e-06
-0.00142251
0.00144528
-0.000316213
1.03413e-06
-0.00141635
0.00145835
-0.000378677
-1.14964e-06
-0.00140342
0.00146565
-6.85312e-06
-0.00135634
-0.000496794
0.00147541
-0.000232503
3.71688e-06
-0.00171038
0.00172051
-0.000242685
4.43537e-06
-0.0017126
0.0017221
-0.000252903
4.7426e-06
-0.00171441
0.00172386
-0.000263677
4.7816e-06
-0.00171538
0.00172533
-0.000275993
4.52103e-06
-0.00171521
0.00172671
-0.000292153
3.95544e-06
-0.0017139
0.00172928
-0.000316886
2.99021e-06
-0.00171143
0.00173548
-0.000362537
1.55606e-06
-0.00170616
0.00175129
-0.000429525
-9.87839e-07
-0.00169329
0.00176012
-7.83634e-06
-0.00163607
-0.000556333
0.00176386
-0.000272834
4.142e-06
-0.00199832
0.00200874
-0.000283113
4.91467e-06
-0.00200108
0.00201088
-0.00029344
5.26138e-06
-0.00200346
0.00201327
-0.000304359
5.32367e-06
-0.00200508
0.00201545
-0.000316911
5.06204e-06
-0.00200568
0.00201769
-0.000333501
4.4694e-06
-0.0020053
0.00202138
-0.000359147
3.43845e-06
-0.00200389
0.00202909
-0.000407238
1.91502e-06
-0.00199993
0.00204766
-0.000478046
-8.91331e-07
-0.00198807
0.00205878
-8.81998e-06
-0.0019201
-0.000610309
0.00205334
-0.000313567
4.23059e-06
-0.00228521
0.00229605
-0.000323894
5.0148e-06
-0.00228856
0.00229879
-0.000334254
5.35597e-06
-0.00229147
0.00230173
-0.000345209
5.39651e-06
-0.00229373
0.00230461
-0.000357841
5.10141e-06
-0.00229512
0.00230771
-0.000374622
4.46932e-06
-0.00229579
0.00231257
-0.000400844
3.39252e-06
-0.00229567
0.00232194
-0.000450759
1.83609e-06
-0.00229337
0.00234337
-0.000524786
-1.04566e-06
-0.00228369
0.00235787
-9.83676e-06
-0.00220467
-0.00066057
0.00234147
-0.000354085
4.05102e-06
-0.00257224
0.00258333
-0.000364326
4.72457e-06
-0.0025763
0.00258683
-0.00037459
4.99665e-06
-0.00257993
0.00259056
-0.000385445
4.94778e-06
-0.00258291
0.00259422
-0.000398014
4.56735e-06
-0.00258513
0.00259823
-0.000414786
3.8434e-06
-0.00258686
0.00260426
-0.000441304
2.72126e-06
-0.00258815
0.00261534
-0.000492487
1.2098e-06
-0.00258791
0.00263972
-0.000569177
-1.36329e-06
-0.00258155
0.00265856
-1.04225e-05
-0.00249131
-0.000706672
0.0026294
-0.000395913
3.35254e-06
-0.00286037
0.00287204
-0.000406185
3.81533e-06
-0.00286504
0.00287622
-0.000416435
3.89749e-06
-0.00286898
0.00288033
-0.000427236
3.63296e-06
-0.00287216
0.00288428
-0.000439667
3.04103e-06
-0.0028745
0.00288846
-0.000456158
2.10823e-06
-0.00287657
0.00289479
-0.000482394
8.68024e-07
-0.00287872
0.00290681
-0.000533734
-5.93158e-07
-0.0028802
0.00293334
-0.000611834
-2.30786e-06
-0.00287779
0.00295683
-1.03556e-05
-0.0027782
-0.000749494
0.0029158
-0.000437585
1.76943e-06
-0.00314729
0.00315938
-0.000447385
1.85493e-06
-0.00315231
0.00316408
-0.00045717
1.61683e-06
-0.00315676
0.00316882
-0.000467591
9.48532e-07
-0.00316059
0.0031737
-0.000479784
-4.47143e-08
-0.0031638
0.00317908
-0.000496079
-1.35157e-06
-0.00316696
0.00318671
-0.000522165
-2.79039e-06
-0.00317062
0.00320037
-0.000573253
-4.07975e-06
-0.00317458
0.00322916
-0.000651419
-4.47304e-06
-0.00317526
0.00325559
-9.2522e-06
-0.00306673
-0.000786741
0.00320095
-0.000479325
-0.00341357
0.00342631
-0.00048976
-0.00341806
0.00343035
-0.00050013
-0.00342034
0.00343233
-0.000511132
-0.00342
0.00343195
-0.000523774
-0.00341718
0.00342978
-0.000540138
-0.00341287
0.00342788
-0.000565396
-0.00340829
0.00343076
-0.000613717
-0.00340544
0.00344968
-0.000685745
-0.00340624
0.00347379
-0.0033077
-0.000813966
0.00342667
1.53637e-05
1.23304e-06
-0.000838529
6.66438e-06
1.49353e-06
-0.000840172
-2.15536e-06
1.60531e-06
-0.000840978
-1.1291e-05
1.58462e-06
-0.000841015
-2.09509e-05
1.42046e-06
-0.000840228
-3.13794e-05
1.09519e-06
-0.000838352
-4.27663e-05
5.73853e-07
-0.000834805
-5.4588e-05
-2.22814e-07
-0.000828403
-6.62219e-05
-1.49607e-06
-0.000818146
-3.24257e-06
-0.000802195
-6.55419e-05
1.67288e-05
2.3764e-06
-0.00112627
7.16344e-06
2.86844e-06
-0.00112836
-2.50721e-06
3.06596e-06
-0.00112956
-1.25986e-05
3.03994e-06
-0.00112976
-2.3379e-05
2.77029e-06
-0.00112874
-3.52463e-05
2.2371e-06
-0.00112599
-4.90775e-05
1.37988e-06
-0.00112057
-6.59568e-05
8.68929e-08
-0.0011105
-8.74991e-05
-2.03696e-06
-0.00109286
-5.06419e-06
-0.00106384
-9.98886e-05
1.80228e-05
3.16804e-06
-0.00141443
7.83217e-06
3.83238e-06
-0.00141689
-2.37845e-06
4.10132e-06
-0.00141838
-1.2936e-05
4.097e-06
-0.00141864
-2.41824e-05
3.78952e-06
-0.00141734
-3.68924e-05
3.16128e-06
-0.00141391
-5.28343e-05
2.12695e-06
-0.00140731
-7.47751e-05
5.81639e-07
-0.0013949
-0.00010705
-2.06995e-06
-0.00137111
-6.08483e-06
-0.0013277
-0.000134671
1.91013e-05
3.75465e-06
-0.00169978
8.53622e-06
4.56598e-06
-0.00170277
-2.05916e-06
4.91938e-06
-0.00170463
-1.30793e-05
4.96785e-06
-0.00170523
-2.49842e-05
4.65995e-06
-0.00170418
-3.87915e-05
3.98162e-06
-0.00170092
-5.68165e-05
2.80971e-06
-0.00169408
-8.32344e-05
1.05822e-06
-0.00168022
-0.00012584
-2.07264e-06
-0.00165068
-7.02158e-06
-0.00159154
-0.00016943
2.0012e-05
4.1994e-06
-0.00198726
9.26322e-06
5.06908e-06
-0.00199083
-1.51911e-06
5.4654e-06
-0.00199323
-1.2792e-05
5.54215e-06
-0.00199438
-2.51519e-05
5.23682e-06
-0.0019939
-3.97858e-05
4.5342e-06
-0.00199122
-5.9464e-05
3.27378e-06
-0.00198467
-8.96695e-05
1.3909e-06
-0.00197005
-0.000142109
-2.10329e-06
-0.0019356
-7.87919e-06
-0.00186
-0.000201348
2.05376e-05
4.3215e-06
-0.00227365
9.70665e-06
5.20501e-06
-0.00227786
-1.13033e-06
5.60079e-06
-0.00228077
-1.24887e-05
5.66585e-06
-0.00228249
-2.50802e-05
5.33979e-06
-0.00228263
-4.02352e-05
4.61404e-06
-0.00228072
-6.11424e-05
3.30849e-06
-0.0022748
-9.44481e-05
1.37281e-06
-0.00226005
-0.000156151
-2.27302e-06
-0.00222182
-8.70928e-06
-0.00212965
-0.00023034
2.07747e-05
4.12277e-06
-0.00256033
1.00423e-05
4.88896e-06
-0.00256525
-6.88356e-07
5.21991e-06
-0.00256882
-1.19502e-05
5.21033e-06
-0.00257119
-2.45749e-05
4.8372e-06
-0.002572
-3.9982e-05
4.06901e-06
-0.00257091
-6.17287e-05
2.74027e-06
-0.00256584
-9.7484e-05
7.97095e-07
-0.00255158
-0.000167717
-2.65368e-06
-0.00251094
-9.44556e-06
-0.00240242
-0.000255878
2.03797e-05
3.42562e-06
-0.0028479
9.6953e-06
3.98148e-06
-0.00285345
-9.03117e-07
4.15263e-06
-0.00285731
-1.19943e-05
3.98188e-06
-0.00285984
-2.44534e-05
3.48403e-06
-0.00286069
-3.97544e-05
2.61459e-06
-0.00285981
-6.1744e-05
1.2857e-06
-0.00285528
-9.8897e-05
-5.82853e-07
-0.00284167
-0.000176415
-3.26252e-06
-0.00279966
-9.79379e-06
-0.0026761
-0.000278167
1.95113e-05
1.80276e-06
-0.00313426
9.33034e-06
1.95478e-06
-0.00314011
-7.1984e-07
1.83868e-06
-0.00314439
-1.12653e-05
1.31236e-06
-0.00314738
-2.33332e-05
4.96684e-07
-0.00314874
-3.85067e-05
-6.28015e-07
-0.00314854
-6.08395e-05
-2.01004e-06
-0.00314499
-9.9262e-05
-3.63095e-06
-0.00313311
-0.000182721
-5.04697e-06
-0.00309001
-8.84611e-06
-0.00294987
-0.000300528
1.8279e-05
-0.00340019
7.8308e-06
-0.00340566
-2.28183e-06
-0.00340839
-1.27735e-05
-0.00340819
-2.45474e-05
-0.00340491
-3.9146e-05
-0.0033989
-6.04554e-05
-0.00338899
-9.76073e-05
-0.00337192
-0.000182463
-0.00332643
-0.00318041
-0.000318595
1.2785e-05
1.15802e-06
-0.000832611
5.46425e-06
1.43297e-06
-0.000834284
-2.06313e-06
1.5502e-06
-0.000835001
-9.72228e-06
1.52021e-06
-0.000834876
-1.74008e-05
1.33494e-06
-0.000833885
-2.48702e-05
9.78091e-07
-0.00083186
-3.1599e-05
4.25606e-07
-0.000828502
-3.63021e-05
-3.62928e-07
-0.000823336
-3.71506e-05
-1.48179e-06
-0.000815815
-2.78006e-06
-0.000806247
-3.0317e-05
1.49939e-05
2.28072e-06
-0.00111879
6.32784e-06
2.79666e-06
-0.00112106
-2.51391e-06
3.00177e-06
-0.00112217
-1.16284e-05
2.96169e-06
-0.00112209
-2.10294e-05
2.65642e-06
-0.00112066
-3.05915e-05
2.06151e-06
-0.00111751
-3.99446e-05
1.12109e-06
-0.00111192
-4.79722e-05
-2.37792e-07
-0.0011026
-5.23287e-05
-2.24587e-06
-0.00108774
-4.70327e-06
-0.0010679
-4.63489e-05
1.70638e-05
3.10913e-06
-0.00140534
7.33816e-06
3.8048e-06
-0.00140817
-2.50013e-06
4.08336e-06
-0.00140962
-1.26507e-05
4.06022e-06
-0.00140959
-2.32155e-05
3.70021e-06
-0.00140782
-3.42976e-05
2.97127e-06
-0.00140374
-4.60495e-05
1.779e-06
-0.00139622
-5.8061e-05
3.45002e-08
-0.00138316
-6.80881e-05
-2.68784e-06
-0.00136064
-6.19375e-06
-0.00132781
-6.64837e-05
1.86049e-05
3.74334e-06
-0.00168967
8.21114e-06
4.59601e-06
-0.00169317
-2.29715e-06
4.96153e-06
-0.001695
-1.32391e-05
4.98781e-06
-0.00169521
-2.48708e-05
4.61686e-06
-0.00169346
-3.75644e-05
3.81551e-06
-0.00168907
-5.19165e-05
2.43747e-06
-0.00168039
-6.81974e-05
3.78766e-07
-0.00166428
-8.49021e-05
-3.02753e-06
-0.00163364
-7.56891e-06
-0.00158536
-8.97065e-05
1.9846e-05
4.2302e-06
-0.0019764
9.04966e-06
5.14667e-06
-0.00198059
-1.84357e-06
5.5586e-06
-0.00198293
-1.32625e-05
5.61497e-06
-0.00198359
-2.56441e-05
5.24636e-06
-0.00198214
-3.96097e-05
4.41502e-06
-0.00197786
-5.6207e-05
2.92051e-06
-0.00196856
-7.65303e-05
6.42897e-07
-0.00194999
-0.000100549
-3.347e-06
-0.00191126
-8.86229e-06
-0.00184588
-0.000113374
2.06323e-05
4.3995e-06
-0.0022621
9.59604e-06
5.33183e-06
-0.00226701
-1.49556e-06
5.74567e-06
-0.00226986
-1.31659e-05
5.79696e-06
-0.002271
-2.60069e-05
5.41449e-06
-0.00226996
-4.08772e-05
4.56613e-06
-0.002266
-5.9306e-05
3.02156e-06
-0.00225647
-8.33008e-05
6.44249e-07
-0.00223605
-0.00011506
-3.68712e-06
-0.00218972
-1.00268e-05
-0.00210631
-0.000137235
2.10269e-05
4.21793e-06
-0.00254827
9.98753e-06
5.03135e-06
-0.00255391
-1.08335e-06
5.38408e-06
-0.00255739
-1.27559e-05
5.37302e-06
-0.0025591
-2.57793e-05
4.96882e-06
-0.00255853
-4.12034e-05
4.12172e-06
-0.00255504
-6.10325e-05
2.59827e-06
-0.00254559
-8.82107e-05
2.11551e-07
-0.00252397
-0.000127753
-4.12026e-06
-0.00247096
-1.10966e-05
-0.00236922
-0.000159882
2.07223e-05
3.52062e-06
-0.00283521
9.7037e-06
4.11972e-06
-0.00284152
-1.25314e-06
4.32719e-06
-0.0028453
-1.27791e-05
4.19289e-06
-0.00284714
-2.57059e-05
3.71978e-06
-0.00284652
-4.125e-05
2.8514e-06
-0.002843
-6.18712e-05
1.43607e-06
-0.00283349
-9.13964e-05
-7.63902e-07
-0.00281117
-0.000138202
-4.36061e-06
-0.00275262
-1.15113e-05
-0.00263301
-0.000180879
1.98069e-05
1.89497e-06
-0.00312096
9.2698e-06
2.07438e-06
-0.00312752
-1.14996e-06
2.03119e-06
-0.00313168
-1.21028e-05
1.60831e-06
-0.00313384
-2.45711e-05
9.21238e-07
-0.00313348
-4.00012e-05
-6.0024e-08
-0.0031302
-6.13508e-05
-1.32846e-06
-0.00312088
-9.32124e-05
-3.01797e-06
-0.003099
-0.000146276
-5.2132e-06
-0.0030361
-1.01781e-05
-0.0028968
-0.000200671
1.85769e-05
-0.00338665
7.93761e-06
-0.00339295
-2.39083e-06
-0.00339603
-1.31503e-05
-0.00339583
-2.52046e-05
-0.00339193
-3.99969e-05
-0.00338417
-6.05174e-05
-0.0033698
-9.22124e-05
-0.00334324
-0.000147985
-0.00327587
-0.00312334
-0.000215237
9.92372e-06
1.01924e-06
-0.000828455
4.24391e-06
1.29634e-06
-0.000829901
-1.69434e-06
1.41489e-06
-0.000830478
-7.63098e-06
1.37927e-06
-0.000830319
-1.32676e-05
1.18636e-06
-0.000829434
-1.81885e-05
8.25995e-07
-0.000827766
-2.17552e-05
2.8905e-07
-0.000825224
-2.29246e-05
-4.29778e-07
-0.000821737
-2.00988e-05
-1.33898e-06
-0.000817302
-2.27248e-06
-0.000812447
-1.16249e-05
1.2663e-05
2.07485e-06
-0.00111289
5.30742e-06
2.5995e-06
-0.00111501
-2.28307e-06
2.80693e-06
-0.00111597
-9.97964e-06
2.75529e-06
-0.00111576
-1.75747e-05
2.42871e-06
-0.00111431
-2.46922e-05
1.80754e-06
-0.00111138
-3.05814e-05
8.56086e-07
-0.00110659
-3.37305e-05
-4.51581e-07
-0.00109943
-3.13251e-05
-2.19969e-06
-0.00108928
-4.12102e-06
-0.00107781
-1.95645e-05
1.53391e-05
2.92362e-06
-0.00139756
6.55577e-06
3.63305e-06
-0.00140042
-2.41063e-06
3.91313e-06
-0.00140176
-1.15712e-05
3.86815e-06
-0.00140154
-2.08294e-05
3.46422e-06
-0.0013996
-2.99174e-05
2.66698e-06
-0.00139551
-3.81795e-05
1.39459e-06
-0.00138849
-4.40376e-05
-4.04789e-07
-0.00137735
-4.36202e-05
-2.95465e-06
-0.0013603
-5.89684e-06
-0.00133945
-3.01983e-05
1.73401e-05
3.60285e-06
-0.00168057
7.56735e-06
4.48152e-06
-0.00168424
-2.3899e-06
4.85071e-06
-0.00168598
-1.26855e-05
4.84732e-06
-0.0016859
-2.33799e-05
4.41399e-06
-0.00168372
-3.44233e-05
3.51026e-06
-0.00167887
-4.53812e-05
1.99474e-06
-0.00167003
-5.472e-05
-2.19174e-07
-0.00165513
-5.76754e-05
-3.57498e-06
-0.00163006
-7.58502e-06
-0.00159689
-4.44618e-05
1.89632e-05
4.13528e-06
-0.00196626
8.51526e-06
5.08722e-06
-0.00197074
-2.08636e-06
5.50686e-06
-0.00197299
-1.3138e-05
5.53175e-06
-0.00197322
-2.48944e-05
5.09176e-06
-0.00197107
-3.75619e-05
4.13757e-06
-0.00196582
-5.10234e-05
2.46365e-06
-0.00195557
-6.39973e-05
-6.1884e-08
-0.00193718
-7.13511e-05
-4.15701e-06
-0.00190333
-9.23327e-06
-0.00185543
-6.01572e-05
2.00702e-05
4.36309e-06
-0.00225104
9.17196e-06
5.33621e-06
-0.00225636
-1.83018e-06
5.76091e-06
-0.00225912
-1.33605e-05
5.78601e-06
-0.00225973
-2.58484e-05
5.33542e-06
-0.00225771
-3.97706e-05
4.36176e-06
-0.0022523
-5.54164e-05
2.61629e-06
-0.00224098
-7.19555e-05
-7.81232e-08
-0.0022195
-8.45832e-05
-4.68291e-06
-0.00217657
-1.07132e-05
-0.00211222
-7.72019e-05
2.06881e-05
4.22181e-06
-0.00253648
9.63474e-06
5.0776e-06
-0.0025426
-1.48677e-06
5.44473e-06
-0.00254595
-1.31801e-05
5.41718e-06
-0.00254704
-2.60537e-05
4.95844e-06
-0.00254528
-4.08307e-05
4.0082e-06
-0.00253991
-5.82587e-05
2.30372e-06
-0.00252785
-7.80976e-05
-4.15707e-07
-0.0025038
-9.65444e-05
-5.19455e-06
-0.00245201
-1.20721e-05
-0.00237012
-9.42792e-05
2.05487e-05
3.5476e-06
-0.00282269
9.44661e-06
4.18682e-06
-0.00282952
-1.62872e-06
4.41952e-06
-0.0028332
-1.32635e-05
4.30153e-06
-0.00283439
-2.61681e-05
3.82002e-06
-0.00283247
-4.12935e-05
2.91415e-06
-0.00282678
-5.99026e-05
1.38939e-06
-0.00281397
-8.24743e-05
-1.09239e-06
-0.00278792
-0.000106894
-5.23479e-06
-0.00272816
-1.2555e-05
-0.00262841
-0.000111012
1.973e-05
1.9502e-06
-0.00310771
9.05147e-06
2.1548e-06
-0.00311481
-1.54829e-06
2.17129e-06
-0.00311883
-1.26677e-05
1.8289e-06
-0.00312025
-2.51488e-05
1.23292e-06
-0.00311841
-4.01644e-05
3.39055e-07
-0.00311261
-5.95817e-05
-8.85642e-07
-0.00309919
-8.49829e-05
-2.66136e-06
-0.00307203
-0.000115211
-5.30038e-06
-0.0030058
-1.08367e-05
-0.00288639
-0.000127341
1.8581e-05
-0.00337322
7.92063e-06
-0.00338013
-2.47659e-06
-0.00338346
-1.33178e-05
-0.00338316
-2.53545e-05
-0.00337866
-3.97847e-05
-0.0033694
-5.85706e-05
-0.0033519
-8.43613e-05
-0.00332011
-0.000117704
-0.00324783
-0.00311199
-0.000139894
7.30617e-06
8.55317e-07
-0.000825718
3.14909e-06
1.11797e-06
-0.000826862
-1.26832e-06
1.23179e-06
-0.000827292
-5.6253e-06
1.19512e-06
-0.000827157
-9.5815e-06
1.00989e-06
-0.000826488
-1.2732e-05
6.73582e-07
-0.000825289
-1.45774e-05
1.92582e-07
-0.000823571
-1.44999e-05
-4.15051e-07
-0.0008214
-1.17959e-05
-1.11397e-06
-0.000818891
-1.78727e-06
-0.000816356
-6.09926e-06
1.01727e-05
1.80132e-06
-0.00110851
4.2577e-06
2.31315e-06
-0.00111029
-1.92634e-06
2.51528e-06
-0.00111107
-8.10661e-06
2.45704e-06
-0.00111085
-1.3946e-05
2.12839e-06
-0.00110958
-1.89773e-05
1.5201e-06
-0.00110719
-2.24797e-05
6.22304e-07
-0.00110352
-2.33315e-05
-5.47822e-07
-0.00109844
-1.98453e-05
-1.97409e-06
-0.00109191
-3.44714e-06
-0.00108514
-1.08563e-05
1.32094e-05
2.63527e-06
-0.00139126
5.64993e-06
3.33727e-06
-0.00139389
-2.15045e-06
3.61134e-06
-0.00139506
-1.00215e-05
3.54748e-06
-0.00139476
-1.76976e-05
3.11689e-06
-0.00139291
-2.47215e-05
2.29337e-06
-0.00138926
-3.02205e-05
1.02356e-06
-0.0013834
-3.26125e-05
-6.98789e-07
-0.00137481
-2.90007e-05
-2.93143e-06
-0.00136295
-5.31695e-06
-0.00134997
-1.66181e-05
1.55727e-05
3.3388e-06
-0.00167277
6.75784e-06
4.22638e-06
-0.00167632
-2.31015e-06
4.59285e-06
-0.00167789
-1.15869e-05
4.56001e-06
-0.00167763
-2.09256e-05
4.07574e-06
-0.00167534
-2.99915e-05
3.10355e-06
-0.00167061
-3.7911e-05
1.53112e-06
-0.00166262
-4.27629e-05
-6.84829e-07
-0.00165029
-4.02237e-05
-3.76059e-06
-0.00163177
-7.14203e-06
-0.00161005
-2.52351e-05
1.75567e-05
3.90818e-06
-0.00195717
7.80073e-06
4.88337e-06
-0.00196165
-2.17455e-06
5.30552e-06
-0.00196372
-1.24742e-05
5.29609e-06
-0.00196366
-2.31261e-05
4.78858e-06
-0.00196113
-3.39955e-05
3.73222e-06
-0.00195558
-4.43434e-05
1.94669e-06
-0.00194564
-5.20832e-05
-6.67281e-07
-0.00192945
-5.15859e-05
-4.56017e-06
-0.00190303
-8.99206e-06
-0.00187008
-3.50847e-05
1.89975e-05
4.19567e-06
-0.00224082
8.56444e-06
5.20245e-06
-0.00224625
-2.03557e-06
5.63428e-06
-0.00224884
-1.30554e-05
5.6284e-06
-0.00224904
-2.46941e-05
5.10788e-06
-0.00224639
-3.70612e-05
4.01808e-06
-0.00224022
-4.96791e-05
2.12431e-06
-0.00222854
-6.05026e-05
-7.35562e-07
-0.00220861
-6.29947e-05
-5.25395e-06
-0.00217338
-1.06785e-05
-0.00212711
-4.64141e-05
1.98713e-05
4.11038e-06
-0.00252532
9.10458e-06
5.00654e-06
-0.00253164
-1.7854e-06
5.38632e-06
-0.00253482
-1.31582e-05
5.33762e-06
-0.00253537
-2.53994e-05
4.81794e-06
-0.00253275
-3.88685e-05
3.75893e-06
-0.00252618
-5.34451e-05
1.90027e-06
-0.00251305
-6.73039e-05
-1.01916e-06
-0.00248965
-7.35063e-05
-5.84306e-06
-0.00244521
-1.22051e-05
-0.00238399
-5.81142e-05
1.99447e-05
3.47553e-06
-0.00281067
9.02756e-06
4.15795e-06
-0.00281776
-1.91859e-06
4.41331e-06
-0.00282128
-1.33628e-05
4.30409e-06
-0.00282191
-2.58066e-05
3.80244e-06
-0.00281901
-3.98474e-05
2.84129e-06
-0.00281182
-5.58307e-05
1.20724e-06
-0.00279729
-7.24005e-05
-1.46327e-06
-0.0027709
-8.28731e-05
-5.79499e-06
-0.00271773
-1.27383e-05
-0.00264062
-7.01366e-05
1.92826e-05
1.94764e-06
-0.00309486
8.70393e-06
2.17979e-06
-0.00310226
-1.85728e-06
2.24926e-06
-0.0031061
-1.28868e-05
1.97256e-06
-0.00310689
-2.50264e-05
1.44515e-06
-0.00310391
-3.90707e-05
6.08743e-07
-0.00309633
-5.58464e-05
-6.03414e-07
-0.0030806
-7.51089e-05
-2.44531e-06
-0.00305178
-9.02908e-05
-5.26894e-06
-0.00299115
-1.07048e-05
-0.00289638
-8.23397e-05
1.82505e-05
-0.00336019
7.76371e-06
-0.00336746
-2.52686e-06
-0.00337092
-1.32396e-05
-0.00337047
-2.49602e-05
-0.0033655
-3.85556e-05
-0.0033552
-5.49947e-05
-0.00333606
-7.48584e-05
-0.00330269
-9.27277e-05
-0.00323523
-0.00312388
-9.15364e-05
5.1716e-06
6.92945e-07
-0.000824011
2.26139e-06
9.28028e-07
-0.00082488
-8.78305e-07
1.03202e-06
-0.000825184
-3.94444e-06
9.98185e-07
-0.000825089
-6.6315e-06
8.327e-07
-0.000824634
-8.61358e-06
5.39008e-07
-0.000823845
-9.55198e-06
1.33644e-07
-0.000822767
-9.11729e-06
-3.54434e-07
-0.00082148
-7.04886e-06
-8.77127e-07
-0.000820083
-1.36542e-06
-0.000818668
-3.37079e-06
7.82561e-06
1.49971e-06
-0.00110541
3.27828e-06
1.97772e-06
-0.00110679
-1.5386e-06
2.16692e-06
-0.00110738
-6.29719e-06
2.108e-06
-0.0011072
-1.06261e-05
1.79687e-06
-0.00110622
-1.40795e-05
1.23518e-06
-0.00110443
-1.60845e-05
4.34909e-07
-0.00110182
-1.59321e-05
-5.60105e-07
-0.00109839
-1.27977e-05
-1.68671e-06
-0.00109424
-2.81497e-06
-0.00109002
-6.46628e-06
1.09569e-05
2.28128e-06
-0.00138638
4.71439e-06
2.95177e-06
-0.00138862
-1.8014e-06
3.21146e-06
-0.00138959
-8.2969e-06
3.13506e-06
-0.00138929
-1.44048e-05
2.70069e-06
-0.00138771
-1.961e-05
1.89543e-06
-0.00138472
-2.31049e-05
6.99542e-07
-0.00138017
-2.36877e-05
-8.53718e-07
-0.00137393
-1.96122e-05
-2.72376e-06
-0.00136599
-4.63827e-06
-0.0013577
-1.00556e-05
1.35127e-05
2.97848e-06
-0.00166637
5.85798e-06
3.85253e-06
-0.00166957
-2.104e-06
4.20859e-06
-0.00167093
-1.01572e-05
4.15138e-06
-0.0016706
-1.79908e-05
3.63738e-06
-0.00166844
-2.51107e-05
2.64219e-06
-0.00166424
-3.05612e-05
1.0958e-06
-0.00165757
-3.26733e-05
-9.95294e-07
-0.00164804
-2.84142e-05
-3.67981e-06
-0.00163508
-6.47064e-06
-0.00162092
-1.57173e-05
1.57676e-05
3.56634e-06
-0.00194934
6.96347e-06
4.54581e-06
-0.00195353
-2.12228e-06
4.96368e-06
-0.00195539
-1.14019e-05
4.92262e-06
-0.00195515
-2.06939e-05
4.36377e-06
-0.00195256
-2.96154e-05
3.24425e-06
-0.00194726
-3.71797e-05
1.42938e-06
-0.0019384
-4.13482e-05
-1.12673e-06
-0.00192515
-3.76315e-05
-4.63745e-06
-0.00190578
-8.3895e-06
-0.00188363
-2.21658e-05
1.7503e-05
3.90498e-06
-0.00223171
7.81712e-06
4.93164e-06
-0.00223695
-2.10339e-06
5.36533e-06
-0.00223933
-1.23167e-05
5.32864e-06
-0.00223923
-2.27857e-05
4.74833e-06
-0.00223631
-3.33052e-05
3.57181e-06
-0.00223003
-4.29838e-05
1.60421e-06
-0.00221904
-4.95777e-05
-1.26756e-06
-0.00220187
-4.72278e-05
-5.45704e-06
-0.00217491
-1.0158e-05
-0.00214274
-2.98349e-05
1.86267e-05
3.88414e-06
-0.00251511
8.42972e-06
4.81295e-06
-0.00252132
-1.95669e-06
5.20241e-06
-0.00252427
-1.27094e-05
5.13209e-06
-0.00252442
-2.39674e-05
4.55723e-06
-0.0025213
-3.57365e-05
3.40829e-06
-0.00251425
-4.73343e-05
1.45326e-06
-0.0025013
-5.6475e-05
-1.52217e-06
-0.00248026
-5.61771e-05
-6.09808e-06
-0.00244487
-1.17105e-05
-0.00240089
-3.77241e-05
1.89339e-05
3.30015e-06
-0.00279945
8.46811e-06
4.02442e-06
-0.0028065
-2.09606e-06
4.29925e-06
-0.00280981
-1.30663e-05
4.19398e-06
-0.00281
-2.47035e-05
3.6691e-06
-0.00280649
-3.72286e-05
2.65684e-06
-0.00279854
-5.02966e-05
9.50778e-07
-0.00278372
-6.18521e-05
-1.78218e-06
-0.00275909
-6.43197e-05
-6.00405e-06
-0.00271536
-1.22153e-05
-0.00265835
-4.60802e-05
1.84614e-05
1.88123e-06
-0.00308271
8.23073e-06
2.14067e-06
-0.00309014
-2.05827e-06
2.25575e-06
-0.00309377
-1.27348e-05
2.0309e-06
-0.00309405
-2.4214e-05
1.55338e-06
-0.00309032
-3.69007e-05
7.55135e-07
-0.00308174
-5.07796e-05
-4.50015e-07
-0.00306532
-6.45721e-05
-2.29992e-06
-0.00303747
-7.04056e-05
-5.10003e-06
-0.00298622
-9.95958e-06
-0.00291459
-5.44491e-05
1.75756e-05
-0.00334786
7.46715e-06
-0.00335521
-2.5243e-06
-0.00335868
-1.28865e-05
-0.00335808
-2.40089e-05
-0.00335282
-3.64032e-05
-0.00334205
-5.02373e-05
-0.00332268
-6.47627e-05
-0.00329047
-7.26872e-05
-0.0032324
-0.00314627
-6.02661e-05
3.57022e-06
5.48696e-07
-0.000822993
1.59371e-06
7.49088e-07
-0.000823652
-5.67922e-07
8.40176e-07
-0.000823863
-2.66519e-06
8.11527e-07
-0.000823803
-4.45682e-06
6.72441e-07
-0.000823515
-5.70528e-06
4.29677e-07
-0.000823027
-6.19697e-06
1.04248e-07
-0.000822379
-5.7675e-06
-2.73007e-07
-0.000821636
-4.34431e-06
-6.56989e-07
-0.000820849
-1.01463e-06
-0.000819971
-2.02695e-06
5.79834e-06
1.20223e-06
-0.00110329
2.42687e-06
1.63048e-06
-0.0011043
-1.18781e-06
1.80074e-06
-0.00110473
-4.72891e-06
1.74624e-06
-0.00110459
-7.85374e-06
1.46799e-06
-0.00110389
-1.01913e-05
9.76015e-07
-0.00110264
-1.13312e-05
2.96611e-07
-0.00110087
-1.08601e-05
-5.14685e-07
-0.00109862
-8.434e-06
-1.38361e-06
-0.00109593
-2.24813e-06
-0.00109307
-4.14884e-06
8.79526e-06
1.8999e-06
-0.00138274
3.81794e-06
2.51605e-06
-0.00138453
-1.4347e-06
2.75324e-06
-0.00138528
-6.61643e-06
2.67169e-06
-0.00138504
-1.13296e-05
2.25647e-06
-0.00138378
-1.50855e-05
1.50805e-06
-0.00138149
-1.72383e-05
4.35634e-07
-0.00137815
-1.69913e-05
-8.99888e-07
-0.00137379
-1.34368e-05
-2.41058e-06
-0.00136852
-3.92599e-06
-0.00136296
-6.50045e-06
1.13501e-05
2.55781e-06
-0.00166132
4.92909e-06
3.39305e-06
-0.00166402
-1.82825e-06
3.72996e-06
-0.00166515
-8.59212e-06
3.65619e-06
-0.00166482
-1.49561e-05
3.13836e-06
-0.00166296
-2.03735e-05
2.16768e-06
-0.00165948
-2.39867e-05
7.17312e-07
-0.00165424
-2.45613e-05
-1.16207e-06
-0.0016472
-2.02695e-05
-3.4137e-06
-0.00163837
-5.6726e-06
-0.00162896
-1.04755e-05
1.37419e-05
3.13935e-06
-0.00194283
6.05162e-06
4.09831e-06
-0.00194655
-1.96651e-06
4.50319e-06
-0.00194815
-1.00693e-05
4.43698e-06
-0.00194782
-1.79217e-05
3.85131e-06
-0.00194542
-2.50012e-05
2.71774e-06
-0.00194073
-3.03087e-05
9.54684e-07
-0.00193333
-3.21851e-05
-1.42657e-06
-0.00192301
-2.75998e-05
-4.4619e-06
-0.00190932
-7.56285e-06
-0.00189442
-1.49138e-05
1.56897e-05
3.51243e-06
-0.00222386
6.9656e-06
4.53787e-06
-0.00222866
-2.05278e-06
4.96582e-06
-0.00223077
-1.12444e-05
4.90235e-06
-0.00223051
-2.03761e-05
4.28202e-06
-0.00222761
-2.90221e-05
3.06275e-06
-0.00222173
-3.61411e-05
1.1042e-06
-0.00221207
-3.97478e-05
-1.64288e-06
-0.00219805
-3.54976e-05
-5.3543e-06
-0.00217827
-9.30956e-06
-0.00215616
-2.03272e-05
1.702e-05
3.55653e-06
-0.00250606
7.63435e-06
4.50265e-06
-0.0025119
-2.0066e-06
4.89621e-06
-0.00251456
-1.18935e-05
4.80666e-06
-0.00251444
-2.19416e-05
4.1912e-06
-0.00251116
-3.1874e-05
2.98742e-06
-0.00250424
-4.07118e-05
1.00998e-06
-0.00249237
-4.62629e-05
-1.88193e-06
-0.00247447
-4.28971e-05
-6.01066e-06
-0.00244758
-1.07673e-05
-0.00241662
-2.57163e-05
1.75556e-05
3.02846e-06
-0.00278928
7.78337e-06
3.78645e-06
-0.00279601
-2.16007e-06
4.07541e-06
-0.00279905
-1.24051e-05
3.97133e-06
-0.00279892
-2.29816e-05
3.42709e-06
-0.00279515
-3.37858e-05
2.3811e-06
-0.00278713
-4.40302e-05
6.54849e-07
-0.00277312
-5.15389e-05
-2.01197e-06
-0.00275145
-4.9767e-05
-5.88696e-06
-0.00271725
-1.11525e-05
-0.0026762
-3.15329e-05
1.72841e-05
1.75198e-06
-0.00307156
7.63741e-06
2.03445e-06
-0.00307874
-2.14917e-06
2.18679e-06
-0.00308209
-1.22263e-05
2.00173e-06
-0.003082
-2.27852e-05
1.56079e-06
-0.00307789
-3.38865e-05
7.92054e-07
-0.00306905
-4.49502e-05
-3.95393e-07
-0.00305321
-5.41992e-05
-2.18985e-06
-0.00302804
-5.4543e-05
-4.80766e-06
-0.00298695
-8.85193e-06
-0.00293457
-3.68642e-05
1.65664e-05
-0.00333651
7.0358e-06
-0.00334365
-2.46139e-06
-0.00334699
-1.22582e-05
-0.00334628
-2.25418e-05
-0.00334098
-3.34945e-05
-0.0033303
-4.47238e-05
-0.00331185
-5.47537e-05
-0.00328263
-5.66724e-05
-0.00323529
-0.0031715
-4.02995e-05
2.43588e-06
4.29299e-07
-0.000822412
1.11924e-06
5.93939e-07
-0.000822929
-3.39493e-07
6.71327e-07
-0.000823075
-1.74956e-06
6.48656e-07
-0.000823042
-2.93395e-06
5.37367e-07
-0.000822868
-3.72802e-06
3.45197e-07
-0.000822578
-4.00019e-06
9.33835e-08
-0.0008222
-3.66916e-06
-1.90369e-07
-0.000821777
-2.72621e-06
-4.69781e-07
-0.000821322
-7.36309e-07
-0.000820706
-1.25438e-06
4.15647e-06
9.30064e-07
-0.00110186
1.72718e-06
1.30007e-06
-0.00110258
-9.04762e-07
1.44798e-06
-0.00110287
-3.4691e-06
1.40125e-06
-0.00110278
-5.68113e-06
1.16467e-06
-0.00110231
-7.25592e-06
7.5306e-07
-0.00110148
-7.9148e-06
1.99196e-07
-0.00110032
-7.42457e-06
-4.40446e-07
-0.00109886
-5.65737e-06
-1.09846e-06
-0.00109707
-1.76196e-06
-0.00109493
-2.76922e-06
6.86551e-06
1.52335e-06
-0.00138008
3.01122e-06
2.06749e-06
-0.00138144
-1.09453e-06
2.27573e-06
-0.00138201
-5.11052e-06
2.19564e-06
-0.00138182
-8.66235e-06
1.81802e-06
-0.00138088
-1.13319e-05
1.15362e-06
-0.00137922
-1.26389e-05
2.31089e-07
-0.00137688
-1.20862e-05
-8.75184e-07
-0.00137391
-9.2493e-06
-2.06364e-06
-0.00137039
-3.24705e-06
-0.00136643
-4.29225e-06
9.24703e-06
2.11351e-06
-0.00165744
4.02784e-06
2.88591e-06
-0.00165962
-1.52855e-06
3.19519e-06
-0.00166051
-7.04139e-06
3.11331e-06
-0.00166022
-1.20754e-05
2.61692e-06
-0.00165872
-1.61074e-05
1.71212e-06
-0.00165601
-1.84412e-05
4.07237e-07
-0.00165208
-1.82361e-05
-1.21661e-06
-0.00164706
-1.44988e-05
-3.04784e-06
-0.00164112
-4.837e-06
-0.0016347
-7.17295e-06
1.16302e-05
2.6622e-06
-0.00193758
5.1175e-06
3.57349e-06
-0.00194072
-1.74476e-06
3.95574e-06
-0.00194205
-8.61325e-06
3.87287e-06
-0.00194172
-1.50678e-05
3.2882e-06
-0.00193964
-2.05423e-05
2.19027e-06
-0.00193573
-2.41504e-05
5.46951e-07
-0.00192987
-2.46635e-05
-1.58256e-06
-0.00192213
-2.02499e-05
-4.11889e-06
-0.00191266
-6.61737e-06
-0.00190256
-1.03313e-05
1.36824e-05
3.04801e-06
-0.0022173
6.05375e-06
4.04601e-06
-0.00222151
-1.90998e-06
4.45877e-06
-0.00222331
-9.9492e-06
4.37526e-06
-0.00222297
-1.76968e-05
3.74062e-06
-0.00222031
-2.46097e-05
2.52872e-06
-0.00221515
-2.96742e-05
6.56496e-07
-0.00220711
-3.13096e-05
-1.8631e-06
-0.00219613
-2.66595e-05
-5.02932e-06
-0.00218201
-8.2607e-06
-0.00216686
-1.4315e-05
1.51462e-05
3.15e-06
-0.00249828
6.75217e-06
4.09158e-06
-0.00250355
-1.9512e-06
4.48119e-06
-0.00250587
-1.07925e-05
4.37709e-06
-0.0025056
-1.95137e-05
3.74203e-06
-0.00250244
-2.76538e-05
2.52761e-06
-0.0024961
-3.41499e-05
6.03172e-07
-0.00248582
-3.71354e-05
-2.09209e-06
-0.00247125
-3.26266e-05
-5.66748e-06
-0.00245145
-9.55021e-06
-0.00242988
-1.80714e-05
1.58802e-05
2.67578e-06
-0.00278031
6.99874e-06
3.4527e-06
-0.00278649
-2.11929e-06
3.74843e-06
-0.0027892
-1.14368e-05
3.64493e-06
-0.00278887
-2.07904e-05
3.0916e-06
-0.00278514
-2.98409e-05
2.03938e-06
-0.00277759
-3.75958e-05
3.50225e-07
-0.00276511
-4.20484e-05
-2.14823e-06
-0.00274694
-3.83091e-05
-5.53828e-06
-0.00272112
-9.7895e-06
-0.00269205
-2.22222e-05
1.57993e-05
1.5669e-06
-0.0030616
6.94015e-06
1.86391e-06
-0.0030683
-2.13599e-06
2.04428e-06
-0.00307131
-1.14028e-05