/*--------------------------------*- C++ -*----------------------------------*\
| =========                 |                                                 |
| \\      /  F ield         | foam-extend: Open Source CFD                    |
|  \\    /   O peration     | Version:     4.0                                |
|   \\  /    A nd           | Web:         http://www.foam-extend.org         |
|    \\/     M anipulation  |                                                 |
\*---------------------------------------------------------------------------*/
FoamFile
{
    version     2.0;
    format      ascii;
    class       volScalarField;
    location    "550";
    object      T;
}
// * * * * * * * * * * * * * * * * * * * * * * * * * * * * * * * * * * * * * //

dimensions      [0 0 0 1 0 0 0];

internalField   nonuniform List<scalar> 
34480
(
280.398
280.282
280.189
280.115
280.057
280.016
279.989
280.018
280.208
280.058
279.879
279.745
279.629
279.536
279.471
279.435
279.415
279.409
279.558
278.988
279.715
279.567
279.438
279.334
279.261
279.205
279.138
279.032
279.094
278.174
279.654
279.488
279.34
279.212
279.106
278.998
278.864
278.645
278.577
277.293
279.551
279.366
279.197
279.041
278.898
278.737
278.533
278.198
277.967
276.317
279.503
279.302
279.116
278.939
278.763
278.555
278.285
277.834
277.413
275.375
279.432
279.214
279.01
278.811
278.606
278.355
278.025
277.46
276.829
274.4
279.423
279.188
278.974
278.766
278.553
278.287
277.923
277.276
276.439
273.59
279.399
279.155
278.928
278.703
278.466
278.172
277.766
277.039
275.994
272.78
280.157
279.902
279.703
279.544
279.408
279.245
278.986
278.398
277.318
273.672
280.845
280.75
280.702
280.701
280.75
280.867
281.09
281.498
282.102
282.886
280.221
280.123
280.069
280.061
280.111
280.241
280.489
280.939
281.672
282.597
279.965
279.871
279.818
279.809
279.861
279.99
280.23
280.665
281.446
282.446
279.822
279.727
279.672
279.656
279.693
279.798
280.009
280.408
281.206
282.233
279.645
279.548
279.489
279.463
279.483
279.56
279.736
280.09
280.877
281.904
279.534
279.437
279.377
279.343
279.349
279.4
279.542
279.845
280.597
281.593
279.406
279.306
279.243
279.201
279.194
279.223
279.331
279.58
280.277
281.225
279.351
279.253
279.192
279.155
279.15
279.175
279.265
279.471
280.095
280.947
279.297
279.199
279.135
279.091
279.074
279.083
279.15
279.311
279.856
280.617
280.006
279.922
279.891
279.907
279.974
280.082
280.249
280.485
280.988
281.473
281.248
281.149
281.106
281.113
281.173
281.297
281.501
281.817
282.281
282.864
280.609
280.502
280.451
280.454
280.52
280.666
280.923
281.347
282.022
282.91
280.341
280.231
280.177
280.178
280.245
280.396
280.674
281.146
281.972
283.126
280.176
280.062
280.005
279.999
280.056
280.195
280.466
280.954
281.897
283.281
279.982
279.864
279.803
279.787
279.83
279.949
280.201
280.684
281.709
283.28
279.856
279.737
279.673
279.649
279.68
279.778
280.008
280.47
281.544
283.255
279.715
279.593
279.525
279.493
279.512
279.59
279.795
280.226
281.318
283.132
279.648
279.528
279.462
279.432
279.451
279.524
279.712
280.111
281.189
283.054
279.582
279.464
279.396
279.361
279.373
279.433
279.6
279.959
281
282.927
280.261
280.155
280.112
280.124
280.196
280.329
280.563
280.963
281.953
283.792
281.525
281.441
281.406
281.416
281.472
281.577
281.739
281.962
282.25
282.571
280.908
280.808
280.764
280.774
280.843
280.981
281.206
281.541
282.017
282.561
280.651
280.542
280.493
280.502
280.577
280.732
280.996
281.409
282.044
282.821
280.483
280.365
280.311
280.315
280.387
280.544
280.825
281.288
282.068
283.085
280.284
280.159
280.101
280.097
280.161
280.309
280.592
281.083
281.987
283.227
280.151
280.023
279.961
279.95
280.005
280.142
280.419
280.921
281.925
283.359
280.002
279.87
279.804
279.786
279.832
279.954
280.219
280.719
281.797
283.397
279.927
279.795
279.73
279.714
279.76
279.879
280.135
280.624
281.74
283.464
279.851
279.724
279.657
279.637
279.677
279.788
280.034
280.502
281.619
283.472
280.5
280.384
280.335
280.347
280.429
280.589
280.879
281.377
282.467
284.341
281.702
281.636
281.611
281.619
281.662
281.738
281.848
281.987
282.149
282.308
281.124
281.041
281.005
281.016
281.076
281.19
281.363
281.601
281.906
282.218
280.899
280.8
280.757
280.768
280.84
280.979
281.201
281.523
281.967
282.447
280.743
280.63
280.581
280.591
280.666
280.819
281.075
281.463
282.046
282.719
280.552
280.428
280.374
280.378
280.451
280.607
280.883
281.321
282.036
282.91
280.422
280.291
280.232
280.231
280.3
280.454
280.74
281.214
282.049
283.115
280.273
280.136
280.073
280.065
280.128
280.276
280.565
281.06
281.995
283.243
280.193
280.056
279.992
279.985
280.05
280.197
280.488
280.992
281.999
283.4
280.112
279.978
279.914
279.905
279.965
280.107
280.395
280.901
281.943
283.503
280.731
280.607
280.555
280.568
280.657
280.833
281.15
281.682
282.724
284.369
281.808
281.759
281.741
281.747
281.777
281.827
281.897
281.98
282.07
282.155
281.275
281.21
281.183
281.192
281.239
281.324
281.448
281.609
281.801
281.987
281.089
281.004
280.969
280.981
281.042
281.157
281.33
281.564
281.86
282.159
280.954
280.853
280.811
280.823
280.893
281.029
281.243
281.546
281.956
282.391
280.781
280.666
280.617
280.626
280.7
280.848
281.094
281.456
281.983
282.572
280.661
280.535
280.48
280.486
280.561
280.717
280.986
281.397
282.04
282.789
280.518
280.384
280.325
280.325
280.398
280.555
280.838
281.288
282.037
282.947
280.439
280.303
280.242
280.243
280.318
280.479
280.774
281.249
282.083
283.14
280.356
280.222
280.161
280.16
280.233
280.393
280.691
281.184
282.073
283.285
280.945
280.821
280.767
280.782
280.874
281.057
281.377
281.894
282.803
284.118
281.865
281.83
281.818
281.822
281.841
281.872
281.914
281.962
282.012
282.061
281.376
281.329
281.309
281.316
281.35
281.409
281.493
281.598
281.719
281.837
281.229
281.162
281.135
281.145
281.193
281.281
281.408
281.572
281.766
281.957
281.121
281.036
281.001
281.012
281.073
281.185
281.354
281.579
281.857
282.14
280.971
280.869
280.827
280.838
280.906
281.037
281.242
281.526
281.9
282.293
280.866
280.752
280.703
280.712
280.785
280.93
281.166
281.504
281.978
282.493
280.734
280.609
280.555
280.561
280.635
280.789
281.048
281.432
282.004
282.648
280.661
280.531
280.475
280.481
280.56
280.721
280.998
281.418
282.074
282.843
280.579
280.45
280.393
280.398
280.477
280.64
280.927
281.373
282.091
282.991
281.141
281.02
280.968
280.983
281.075
281.255
281.559
282.029
282.777
283.772
281.893
281.867
281.859
281.862
281.873
281.892
281.916
281.943
281.971
282.003
281.442
281.41
281.396
281.401
281.423
281.463
281.518
281.585
281.662
281.745
281.332
281.281
281.261
281.268
281.305
281.368
281.458
281.569
281.696
281.825
281.249
281.181
281.153
281.163
281.212
281.3
281.427
281.587
281.773
281.961
281.125
281.04
281.005
281.015
281.074
281.183
281.346
281.559
281.817
282.08
281.039
280.939
280.897
280.907
280.974
281.101
281.297
281.562
281.902
282.253
280.921
280.809
280.761
280.769
280.84
280.98
281.204
281.517
281.94
282.389
280.857
280.738
280.688
280.697
280.774
280.924
281.17
281.523
282.02
282.567
280.778
280.658
280.607
280.615
280.693
280.849
281.109
281.492
282.049
282.696
281.313
281.201
281.152
281.167
281.255
281.423
281.697
282.104
282.694
283.416
281.904
281.883
281.878
281.879
281.886
281.897
281.911
281.926
281.942
281.965
281.487
281.465
281.455
281.459
281.473
281.499
281.534
281.576
281.627
281.69
281.407
281.37
281.355
281.361
281.387
281.431
281.492
281.565
281.648
281.741
281.346
281.294
281.273
281.281
281.318
281.384
281.475
281.586
281.71
281.838
281.248
281.179
281.152
281.161
281.209
281.295
281.418
281.573
281.749
281.926
281.181
281.097
281.063
281.073
281.13
281.235
281.391
281.592
281.83
282.068
281.078
280.981
280.941
280.95
281.013
281.134
281.318
281.564
281.869
282.178
281.026
280.922
280.878
280.889
280.959
281.092
281.3
281.584
281.951
282.334
280.951
280.844
280.799
280.809
280.882
281.023
281.246
281.561
281.98
282.434
281.461
281.36
281.316
281.331
281.411
281.561
281.799
282.135
282.585
283.093
281.905
281.888
281.884
281.884
281.888
281.894
281.902
281.911
281.921
281.939
281.518
281.503
281.497
281.499
281.508
281.524
281.546
281.573
281.608
281.659
281.463
281.437
281.427
281.431
281.449
281.478
281.518
281.566
281.621
281.691
281.42
281.381
281.366
281.372
281.399
281.446
281.51
281.585
281.666
281.757
281.345
281.292
281.271
281.278
281.315
281.38
281.471
281.58
281.698
281.819
281.296
281.229
281.201
281.21
281.256
281.34
281.459
281.606
281.77
281.932
281.207
281.127
281.094
281.103
281.157
281.256
281.401
281.588
281.803
282.015
281.17
281.081
281.045
281.055
281.116
281.229
281.397
281.618
281.882
282.146
281.099
281.006
280.968
280.979
281.043
281.164
281.349
281.597
281.904
282.217
281.584
281.497
281.459
281.473
281.542
281.672
281.869
282.136
282.47
282.817
281.9
281.886
281.883
281.883
281.885
281.889
281.893
281.898
281.904
281.92
281.542
281.532
281.528
281.529
281.535
281.545
281.558
281.576
281.601
281.645
281.508
281.49
281.483
281.486
281.498
281.517
281.542
281.573
281.61
281.666
281.477
281.448
281.438
281.442
281.461
281.494
281.537
281.587
281.64
281.706
281.422
281.382
281.367
281.372
281.4
281.447
281.512
281.587
281.665
281.749
281.388
281.336
281.315
281.322
281.358
281.422
281.51
281.615
281.727
281.837
281.313
281.249
281.222
281.23
281.274
281.352
281.463
281.6
281.75
281.895
281.29
281.218
281.189
281.198
281.248
281.339
281.471
281.637
281.823
282.004
281.222
281.145
281.114
281.123
281.178
281.278
281.425
281.614
281.834
282.046
281.683
281.611
281.579
281.591
281.65
281.756
281.914
282.12
282.36
282.593
281.894
281.881
281.879
281.879
281.88
281.882
281.885
281.888
281.892
281.906
281.563
281.556
281.553
281.554
281.557
281.563
281.572
281.583
281.601
281.641
281.546
281.533
281.529
281.531
281.538
281.551
281.567
281.586
281.611
281.658
281.521
281.501
281.494
281.497
281.51
281.532
281.56
281.592
281.628
281.677
281.484
281.455
281.444
281.448
281.468
281.501
281.546
281.596
281.647
281.706
281.463
281.423
281.408
281.413
281.441
281.487
281.55
281.623
281.698
281.774
281.398
281.348
281.328
281.334
281.368
281.427
281.51
281.607
281.71
281.809
281.39
281.334
281.311
281.319
281.359
281.43
281.529
281.649
281.779
281.901
281.323
281.261
281.236
281.245
281.289
281.368
281.48
281.621
281.774
281.917
281.759
281.702
281.676
281.686
281.734
281.819
281.94
282.093
282.263
282.415
281.888
281.876
281.875
281.874
281.875
281.876
281.878
281.879
281.882
281.896
281.583
281.577
281.575
281.576
281.578
281.581
281.586
281.594
281.608
281.644
281.581
281.572
281.569
281.57
281.575
281.583
281.592
281.604
281.622
281.661
281.558
281.544
281.538
281.541
281.549
281.564
281.582
281.603
281.626
281.664
281.535
281.514
281.506
281.51
281.523
281.546
281.576
281.609
281.642
281.685
281.523
281.494
281.483
281.487
281.507
281.54
281.584
281.634
281.683
281.736
281.467
281.429
281.414
281.419
281.444
281.487
281.546
281.614
281.683
281.752
281.474
281.431
281.414
281.42
281.451
281.504
281.576
281.661
281.749
281.832
281.404
281.357
281.338
281.344
281.378
281.439
281.522
281.623
281.728
281.823
281.816
281.773
281.752
281.76
281.798
281.862
281.953
282.063
282.18
282.277
281.883
281.872
281.871
281.871
281.871
281.872
281.873
281.874
281.876
281.889
281.602
281.597
281.595
281.596
281.597
281.599
281.602
281.607
281.618
281.651
281.615
281.608
281.606
281.607
281.61
281.615
281.621
281.628
281.64
281.672
281.589
281.579
281.575
281.576
281.582
281.591
281.603
281.616
281.631
281.661
281.579
281.563
281.558
281.561
281.57
281.585
281.604
281.626
281.647
281.678
281.573
281.552
281.544
281.547
281.561
281.584
281.614
281.647
281.679
281.716
281.522
281.494
281.483
281.487
281.505
281.536
281.577
281.623
281.669
281.716
281.545
281.513
281.5
281.505
281.528
281.566
281.618
281.676
281.735
281.791
281.469
281.433
281.419
281.424
281.45
281.494
281.554
281.624
281.695
281.758
281.856
281.825
281.809
281.816
281.843
281.891
281.957
282.034
282.112
282.173
281.88
281.87
281.869
281.869
281.869
281.87
281.87
281.871
281.872
281.885
281.62
281.615
281.614
281.615
281.615
281.617
281.619
281.622
281.631
281.659
281.649
281.644
281.643
281.644
281.645
281.648
281.651
281.656
281.664
281.69
281.617
281.609
281.606
281.607
281.61
281.616
281.624
281.632
281.642
281.666
281.616
281.605
281.602
281.604
281.61
281.62
281.632
281.645
281.659
281.682
281.615
281.6
281.594
281.597
281.606
281.621
281.641
281.662
281.683
281.71
281.567
281.547
281.54
281.542
281.555
281.576
281.604
281.634
281.664
281.697
281.605
281.583
281.574
281.578
281.594
281.62
281.656
281.695
281.733
281.771
281.52
281.493
281.483
281.487
281.505
281.537
281.578
281.625
281.672
281.715
281.883
281.861
281.85
281.855
281.875
281.909
281.955
282.007
282.059
282.095
281.881
281.872
281.871
281.871
281.871
281.871
281.871
281.872
281.873
281.884
281.636
281.632
281.631
281.631
281.632
281.633
281.634
281.636
281.643
281.667
281.684
281.68
281.68
281.68
281.681
281.683
281.685
281.687
281.692
281.713
281.641
281.635
281.633
281.633
281.636
281.639
281.644
281.649
281.655
281.674
281.65
281.642
281.639
281.64
281.644
281.65
281.658
281.666
281.675
281.693
281.649
281.639
281.635
281.636
281.642
281.652
281.665
281.679
281.692
281.712
281.605
281.591
281.586
281.588
281.596
281.61
281.628
281.648
281.666
281.691
281.659
281.643
281.637
281.639
281.65
281.669
281.692
281.717
281.742
281.769
281.558
281.539
281.532
281.535
281.547
281.569
281.596
281.628
281.657
281.686
281.902
281.888
281.88
281.883
281.897
281.921
281.952
281.986
282.019
282.04
281.889
281.881
281.881
281.881
281.881
281.881
281.881
281.881
281.882
281.892
281.648
281.644
281.643
281.643
281.643
281.644
281.645
281.647
281.652
281.672
281.72
281.717
281.716
281.717
281.717
281.718
281.719
281.721
281.724
281.739
281.663
281.658
281.656
281.657
281.658
281.66
281.663
281.666
281.671
281.685
281.678
281.672
281.67
281.671
281.673
281.677
281.682
281.687
281.693
281.706
281.677
281.67
281.667
281.668
281.672
281.678
281.686
281.695
281.704
281.719
281.636
281.627
281.623
281.625
281.63
281.639
281.65
281.663
281.674
281.692
281.704
281.694
281.689
281.691
281.698
281.71
281.726
281.742
281.758
281.777
281.583
281.57
281.565
281.567
281.576
281.59
281.608
281.628
281.647
281.667
281.92
281.911
281.906
281.908
281.917
281.933
281.953
281.975
281.997
282.008
281.917
281.911
281.911
281.911
281.911
281.911
281.911
281.911
281.911
281.919
281.65
281.646
281.645
281.644
281.645
281.645
281.646
281.648
281.652
281.667
281.753
281.749
281.749
281.749
281.749
281.75
281.751
281.752
281.754
281.765
281.682
281.678
281.677
281.677
281.678
281.68
281.681
281.683
281.686
281.697
281.701
281.696
281.695
281.695
281.697
281.699
281.702
281.706
281.71
281.72
281.699
281.693
281.691
281.691
281.694
281.698
281.703
281.709
281.715
281.727
281.662
281.655
281.653
281.654
281.658
281.663
281.67
281.678
281.685
281.698
281.738
281.73
281.727
281.728
281.733
281.741
281.751
281.762
281.773
281.786
281.593
281.584
281.581
281.582
281.588
281.597
281.608
281.621
281.633
281.647
281.95
281.945
281.941
281.942
281.948
281.958
281.972
281.986
282
282.006
281.981
281.977
281.977
281.977
281.977
281.977
281.977
281.977
281.978
281.983
281.631
281.627
281.627
281.627
281.627
281.628
281.628
281.629
281.631
281.643
281.774
281.77
281.768
281.768
281.768
281.768
281.77
281.771
281.774
281.782
281.699
281.696
281.696
281.696
281.696
281.697
281.698
281.699
281.701
281.708
281.719
281.715
281.713
281.713
281.714
281.716
281.718
281.721
281.724
281.732
281.714
281.709
281.708
281.708
281.709
281.712
281.715
281.72
281.724
281.733
281.682
281.678
281.676
281.677
281.679
281.683
281.688
281.693
281.697
281.706
281.75
281.744
281.741
281.741
281.744
281.75
281.757
281.765
281.774
281.785
281.579
281.574
281.572
281.573
281.576
281.582
281.59
281.598
281.605
281.614
282.01
282.005
282.002
282.003
282.007
282.014
282.023
282.032
282.043
282.046
282.078
282.075
282.074
282.073
282.073
282.073
282.074
282.075
282.076
282.08
281.587
281.587
281.588
281.589
281.589
281.589
281.589
281.588
281.587
281.591
281.777
281.773
281.77
281.769
281.769
281.769
281.771
281.773
281.776
281.783
281.715
281.714
281.713
281.713
281.714
281.714
281.715
281.716
281.717
281.721
281.733
281.73
281.729
281.728
281.729
281.73
281.732
281.734
281.737
281.743
281.728
281.724
281.722
281.722
281.723
281.725
281.728
281.731
281.736
281.742
281.702
281.699
281.697
281.697
281.699
281.702
281.705
281.709
281.713
281.719
281.742
281.736
281.733
281.733
281.735
281.739
281.744
281.751
281.759
281.769
281.544
281.541
281.54
281.54
281.543
281.548
281.553
281.559
281.563
281.566
282.093
282.089
282.086
282.087
282.09
282.095
282.102
282.109
282.117
282.12
290.072
291.767
292.029
290.518
291.148
293.208
293.616
292.041
292.693
295.24
295.78
293.912
293.875
296.862
297.541
295.473
294.748
298.147
298.973
296.823
295.437
299.22
300.225
298.329
295.963
300.113
301.32
299.72
296.419
300.901
302.321
301.073
296.627
301.419
303.06
302.209
297.179
302.175
304.089
303.796
287.102
287.632
287.626
287.143
288.3
288.933
288.895
288.294
289.756
290.549
290.468
289.669
291.05
291.985
291.848
290.862
292.107
293.179
292.989
291.825
293.03
294.238
294.048
292.737
293.768
295.101
294.918
293.47
294.411
295.846
295.679
294.119
294.803
296.301
296.156
294.524
295.544
297.02
296.979
295.393
283.445
283.574
283.61
283.558
284.139
284.356
284.406
284.292
285.175
285.513
285.57
285.348
286.281
286.739
286.795
286.446
287.3
287.872
287.918
287.43
288.311
288.995
289.03
288.411
289.203
289.993
290.017
289.273
290.06
290.939
290.953
290.105
290.736
291.653
291.663
290.763
291.899
292.747
292.796
291.972
282.72
282.779
282.802
282.791
282.981
283.066
283.102
283.093
283.591
283.742
283.793
283.752
284.328
284.554
284.616
284.529
285.038
285.344
285.412
285.261
285.811
286.198
286.268
286.043
286.529
286.996
287.064
286.758
287.278
287.814
287.876
287.49
287.934
288.499
288.556
288.116
289.18
289.67
289.74
289.346
282.293
282.324
282.337
282.333
282.356
282.387
282.406
282.413
282.73
282.793
282.825
282.827
283.224
283.331
283.377
283.367
283.706
283.866
283.924
283.89
284.268
284.485
284.554
284.486
284.801
285.077
285.152
285.043
285.391
285.721
285.798
285.641
285.923
286.277
286.351
286.157
287.073
287.353
287.432
287.279
282.108
282.132
282.141
282.135
282.051
282.066
282.077
282.083
282.295
282.327
282.345
282.35
282.637
282.693
282.721
282.723
282.968
283.055
283.094
283.089
283.375
283.499
283.55
283.533
283.759
283.923
283.983
283.95
284.204
284.405
284.472
284.417
284.602
284.82
284.886
284.812
285.621
285.767
285.837
285.809
282.004
282.026
282.033
282.026
281.875
281.884
281.891
281.895
282.037
282.056
282.067
282.07
282.282
282.315
282.331
282.332
282.516
282.567
282.592
282.59
282.822
282.895
282.928
282.923
283.102
283.201
283.243
283.232
283.437
283.56
283.61
283.59
283.717
283.851
283.902
283.876
284.615
284.678
284.731
284.756
281.946
281.968
281.974
281.966
281.778
281.786
281.79
281.792
281.885
281.899
281.906
281.906
282.059
282.081
282.092
282.089
282.226
282.26
282.275
282.27
282.46
282.508
282.528
282.522
282.668
282.731
282.758
282.75
282.923
283.001
283.034
283.023
283.11
283.194
283.229
283.22
283.909
283.92
283.956
284
281.911
281.934
281.941
281.931
281.725
281.733
281.737
281.736
281.795
281.808
281.813
281.81
281.916
281.934
281.941
281.936
282.035
282.06
282.069
282.062
282.214
282.248
282.26
282.252
282.366
282.409
282.426
282.417
282.562
282.614
282.635
282.626
282.684
282.738
282.761
282.756
283.399
283.38
283.402
283.45
281.89
281.914
281.921
281.909
281.699
281.708
281.712
281.709
281.745
281.757
281.761
281.757
281.826
281.842
281.847
281.841
281.908
281.929
281.935
281.926
282.045
282.071
282.079
282.069
282.153
282.185
282.195
282.185
282.305
282.342
282.355
282.345
282.38
282.416
282.431
282.426
283.023
282.986
282.999
283.046
281.877
281.902
281.909
281.896
281.69
281.7
281.703
281.699
281.721
281.734
281.737
281.731
281.772
281.787
281.79
281.782
281.827
281.845
281.849
281.839
281.93
281.951
281.956
281.946
282.003
282.028
282.034
282.023
282.123
282.151
282.159
282.148
282.161
282.188
282.198
282.191
282.742
282.696
282.703
282.747
281.868
281.895
281.902
281.888
281.69
281.701
281.704
281.698
281.714
281.726
281.729
281.722
281.74
281.755
281.757
281.749
281.777
281.793
281.796
281.786
281.854
281.872
281.876
281.865
281.899
281.919
281.924
281.912
281.996
282.018
282.024
282.013
282.006
282.026
282.032
282.025
282.53
282.48
282.484
282.524
281.863
281.891
281.898
281.883
281.696
281.708
281.71
281.703
281.717
281.73
281.732
281.724
281.725
281.738
281.74
281.731
281.749
281.764
281.766
281.756
281.806
281.822
281.825
281.814
281.828
281.846
281.849
281.838
281.911
281.929
281.933
281.922
281.896
281.913
281.917
281.909
282.37
282.32
282.321
282.359
281.86
281.889
281.896
281.88
281.703
281.715
281.718
281.71
281.727
281.74
281.741
281.733
281.718
281.731
281.733
281.724
281.737
281.75
281.751
281.742
281.779
281.793
281.795
281.784
281.783
281.798
281.8
281.79
281.858
281.874
281.877
281.867
281.822
281.836
281.839
281.83
282.249
282.201
282.201
282.236
281.86
281.889
281.896
281.88
281.71
281.722
281.724
281.716
281.742
281.753
281.754
281.746
281.718
281.73
281.731
281.722
281.735
281.746
281.747
281.738
281.765
281.778
281.779
281.77
281.756
281.77
281.771
281.762
281.831
281.845
281.846
281.837
281.772
281.785
281.787
281.778
282.159
282.115
282.114
282.144
281.862
281.892
281.898
281.882
281.715
281.725
281.727
281.72
281.759
281.769
281.77
281.762
281.721
281.731
281.732
281.724
281.739
281.749
281.75
281.742
281.762
281.773
281.774
281.766
281.743
281.755
281.756
281.748
281.822
281.834
281.835
281.827
281.739
281.751
281.753
281.744
282.093
282.053
282.053
282.079
281.872
281.902
281.908
281.891
281.713
281.722
281.723
281.717
281.778
281.786
281.787
281.78
281.724
281.733
281.733
281.727
281.747
281.755
281.756
281.75
281.763
281.772
281.773
281.766
281.738
281.749
281.75
281.742
281.825
281.836
281.837
281.829
281.716
281.727
281.728
281.719
282.05
282.017
282.016
282.038
281.902
281.93
281.935
281.919
281.701
281.708
281.709
281.704
281.795
281.801
281.802
281.797
281.728
281.735
281.736
281.731
281.755
281.762
281.763
281.758
281.765
281.774
281.775
281.769
281.738
281.747
281.748
281.741
281.83
281.84
281.842
281.834
281.691
281.702
281.702
281.694
282.037
282.012
282.012
282.028
281.969
281.994
281.997
281.983
281.667
281.672
281.673
281.67
281.805
281.809
281.81
281.807
281.733
281.738
281.738
281.735
281.762
281.768
281.769
281.765
281.767
281.774
281.775
281.77
281.739
281.747
281.748
281.742
281.825
281.835
281.836
281.829
281.65
281.659
281.66
281.652
282.069
282.053
282.053
282.064
282.073
282.089
282.091
282.081
281.606
281.608
281.609
281.607
281.802
281.806
281.807
281.806
281.738
281.742
281.742
281.74
281.766
281.771
281.772
281.769
281.768
281.774
281.775
281.771
281.742
281.748
281.749
281.744
281.805
281.814
281.815
281.81
281.585
281.591
281.591
281.586
282.139
282.136
282.136
282.139
283.505
282.345
281.845
281.524
281.245
281.016
280.833
280.689
280.572
280.473
283.718
282.593
281.814
281.315
280.916
280.62
280.4
280.232
280.103
279.997
284.233
283.02
281.949
281.341
280.863
280.532
280.286
280.099
279.957
279.843
284.706
283.425
282.091
281.42
280.886
280.536
280.275
280.078
279.925
279.8
285.057
283.732
282.152
281.433
280.845
280.482
280.208
280.003
279.844
279.712
285.481
284.071
282.267
281.516
280.875
280.499
280.21
279.996
279.827
279.681
285.841
284.337
282.332
281.56
280.867
280.482
280.178
279.955
279.777
279.626
286.302
284.713
282.518
281.729
280.982
280.582
280.252
280.01
279.811
279.636
286.652
285.004
282.626
281.853
281.065
280.653
280.29
280.024
279.806
279.62
288.298
286.642
284.109
283.278
282.363
281.829
281.347
280.985
280.69
280.436
285.159
283.953
283.033
282.369
281.91
281.587
281.351
281.174
281.035
280.921
285.621
283.958
282.711
281.909
281.387
281.028
280.769
280.579
280.437
280.331
286.135
284.079
282.584
281.716
281.154
280.777
280.508
280.312
280.171
280.069
286.508
284.155
282.476
281.584
281
280.621
280.355
280.164
280.026
279.926
286.664
284.094
282.286
281.385
280.784
280.412
280.152
279.971
279.842
279.748
286.754
284.048
282.142
281.254
280.64
280.279
280.027
279.854
279.731
279.638
286.713
283.93
281.946
281.087
280.465
280.12
279.876
279.713
279.596
279.509
286.696
283.902
281.856
281.038
280.407
280.078
279.835
279.674
279.554
279.46
286.578
283.806
281.706
280.962
280.34
280.036
279.789
279.624
279.501
279.405
287.423
284.795
282.695
281.996
281.325
280.967
280.655
280.44
280.275
280.155
283.367
283.029
282.689
282.384
282.121
281.9
281.716
281.563
281.433
281.322
283.831
283.209
282.632
282.15
281.758
281.446
281.199
281.004
280.851
280.734
284.504
283.562
282.749
282.119
281.63
281.258
280.973
280.755
280.59
280.468
285.139
283.886
282.851
282.102
281.542
281.133
280.83
280.604
280.434
280.309
285.587
284.056
282.826
281.986
281.373
280.944
280.633
280.407
280.239
280.115
285.983
284.213
282.814
281.909
281.258
280.819
280.506
280.282
280.117
279.993
286.236
284.268
282.726
281.779
281.102
280.663
280.352
280.133
279.972
279.851
286.477
284.363
282.701
281.737
281.042
280.607
280.297
280.079
279.915
279.789
286.595
284.365
282.603
281.656
280.965
280.546
280.234
280.013
279.848
279.721
287.517
285.283
283.481
282.552
281.83
281.376
281.022
280.767
280.573
280.434
282.771
282.644
282.481
282.314
282.156
282.012
281.883
281.77
281.669
281.578
282.999
282.736
282.424
282.121
281.851
281.62
281.425
281.262
281.129
281.023
283.537
283.086
282.604
282.171
281.803
281.501
281.255
281.058
280.901
280.781
284.14
283.465
282.796
282.238
281.785
281.428
281.148
280.928
280.756
280.625
284.642
283.728
282.876
282.205
281.681
281.282
280.978
280.746
280.568
280.432
285.142
283.992
282.966
282.198
281.616
281.188
280.868
280.628
280.445
280.306
285.534
284.16
282.973
282.129
281.5
281.053
280.724
280.482
280.298
280.159
285.922
284.349
283.021
282.12
281.458
281.001
280.666
280.42
280.232
280.088
286.198
284.443
282.994
282.069
281.393
280.936
280.595
280.345
280.156
280.011
287.174
285.322
283.813
282.878
282.173
281.689
281.32
281.046
280.838
280.689
282.357
282.32
282.256
282.178
282.096
282.015
281.937
281.864
281.796
281.729
282.403
282.297
282.145
281.978
281.815
281.664
281.528
281.407
281.304
281.22
282.78
282.583
282.328
282.066
281.821
281.603
281.415
281.255
281.123
281.017
283.255
282.93
282.549
282.184
281.859
281.581
281.35
281.159
281.004
280.881
283.683
283.205
282.685
282.216
281.815
281.486
281.22
281.006
280.836
280.702
284.152
283.506
282.842
282.274
281.805
281.433
281.139
280.908
280.726
280.583
284.552
283.731
282.923
282.265
281.738
281.332
281.018
280.775
280.586
280.439
284.968
283.975
283.033
282.301
281.726
281.296
280.967
280.715
280.519
280.366
285.289
284.129
283.067
282.284
281.68
281.236
280.896
280.637
280.438
280.283
286.255
284.982
283.849
283.034
282.399
281.931
281.569
281.294
281.081
280.928
282.163
282.151
282.121
282.083
282.04
281.994
281.949
281.904
281.859
281.812
282.083
282.03
281.947
281.852
281.754
281.657
281.567
281.483
281.409
281.347
282.334
282.235
282.093
281.936
281.779
281.63
281.495
281.376
281.273
281.187
282.681
282.513
282.294
282.064
281.843
281.642
281.465
281.313
281.184
281.077
283.007
282.752
282.44
282.129
281.842
281.59
281.374
281.193
281.044
280.922
283.397
283.038
282.622
282.227
281.875
281.575
281.325
281.121
280.953
280.818
283.743
283.267
282.741
282.263
281.85
281.509
281.231
281.008
280.827
280.683
284.124
283.524
282.887
282.334
281.868
281.494
281.194
280.956
280.765
280.613
284.423
283.697
282.959
282.346
281.842
281.445
281.129
280.88
280.684
280.53
285.335
284.515
283.709
283.053
282.516
282.096
281.761
281.499
281.293
281.143
282.052
282.049
282.036
282.017
281.994
281.969
281.943
281.917
281.888
281.854
281.895
281.862
281.813
281.756
281.695
281.635
281.577
281.521
281.471
281.427
282.059
282.001
281.917
281.822
281.723
281.625
281.533
281.448
281.372
281.307
282.307
282.21
282.082
281.939
281.794
281.655
281.526
281.411
281.31
281.224
282.544
282.399
282.212
282.012
281.815
281.632
281.467
281.323
281.199
281.095
282.851
282.646
282.391
282.127
281.874
281.646
281.446
281.275
281.131
281.01
283.129
282.852
282.519
282.187
281.879
281.609
281.378
281.184
281.023
280.89
283.448
283.092
282.677
282.279
281.921
281.615
281.357
281.145
280.97
280.827
283.692
283.256
282.764
282.31
281.911
281.577
281.301
281.076
280.893
280.747
284.53
284.028
283.478
282.981
282.55
282.193
281.899
281.662
281.471
281.331
281.989
281.989
281.983
281.973
281.961
281.947
281.932
281.917
281.898
281.873
281.788
281.762
281.728
281.691
281.653
281.615
281.577
281.541
281.508
281.478
281.894
281.852
281.798
281.738
281.675
281.611
281.55
281.491
281.438
281.39
282.066
282.003
281.923
281.834
281.74
281.646
281.556
281.473
281.398
281.331
282.234
282.143
282.029
281.901
281.77
281.641
281.52
281.41
281.313
281.229
282.471
282.346
282.188
282.015
281.84
281.673
281.521
281.385
281.266
281.164
282.683
282.516
282.307
282.083
281.862
281.657
281.473
281.313
281.176
281.061
282.939
282.725
282.459
282.183
281.918
281.679
281.468
281.288
281.136
281.009
283.123
282.864
282.544
282.221
281.919
281.651
281.421
281.227
281.065
280.933
283.88
283.581
283.217
282.856
282.525
282.236
281.99
281.784
281.615
281.489
281.951
281.952
281.949
281.943
281.937
281.929
281.921
281.911
281.899
281.878
281.728
281.703
281.677
281.651
281.626
281.601
281.577
281.554
281.532
281.512
281.795
281.76
281.722
281.682
281.641
281.6
281.559
281.52
281.484
281.45
281.912
281.864
281.812
281.755
281.694
281.632
281.571
281.513
281.459
281.41
282.027
281.965
281.892
281.811
281.724
281.636
281.55
281.47
281.397
281.332
282.207
282.126
282.027
281.915
281.796
281.678
281.565
281.461
281.368
281.285
282.363
282.258
282.127
281.978
281.823
281.673
281.532
281.406
281.295
281.198
282.565
282.432
282.264
282.077
281.887
281.706
281.541
281.395
281.268
281.16
282.695
282.541
282.336
282.112
281.891
281.685
281.5
281.34
281.203
281.089
283.376
283.2