/*--------------------------------*- C++ -*----------------------------------*\
| =========                 |                                                 |
| \\      /  F ield         | foam-extend: Open Source CFD                    |
|  \\    /   O peration     | Version:     4.0                                |
|   \\  /    A nd           | Web:         http://www.foam-extend.org         |
|    \\/     M anipulation  |                                                 |
\*---------------------------------------------------------------------------*/
FoamFile
{
    version     2.0;
    format      ascii;
    class       volVectorField;
    location    "550";
    object      U;
}
// * * * * * * * * * * * * * * * * * * * * * * * * * * * * * * * * * * * * * //

dimensions      [0 1 -1 0 0 0 0];

internalField   nonuniform List<vector> 
34480
(
(201.147 2.36024 3.34334)
(201.524 1.45626 1.72141)
(201.767 0.715337 0.0287012)
(201.885 0.121086 -1.78553)
(201.871 -0.354786 -3.85901)
(201.693 -0.705266 -6.37436)
(201.279 -0.900844 -9.73419)
(200.36 -0.815055 -14.2727)
(197.993 -0.215245 -22.1341)
(191.446 2.32738 -49.1537)
(202.033 3.58633 2.85482)
(202.406 2.85291 1.17091)
(202.671 2.18819 -0.518387)
(202.798 1.60123 -2.2988)
(202.733 1.06917 -4.28601)
(202.426 0.584513 -6.69687)
(201.837 0.142369 -9.98901)
(200.779 -0.189774 -14.8881)
(197.915 -0.261516 -23.5622)
(190.251 1.49562 -54.0594)
(203.01 3.3914 3.16125)
(203.363 2.62461 1.4286)
(203.607 1.91773 -0.31686)
(203.706 1.3184 -2.11635)
(203.602 0.789569 -4.09994)
(203.301 0.312458 -6.52989)
(202.796 -0.124312 -9.92572)
(201.922 -0.434179 -15.3053)
(198.937 -0.462405 -24.7885)
(190.375 1.51406 -58.2671)
(203.518 4.01099 3.02719)
(203.869 3.29636 1.26571)
(204.113 2.62527 -0.490804)
(204.238 2.06024 -2.29936)
(204.197 1.5621 -4.29821)
(204.019 1.11272 -6.77465)
(203.673 0.700421 -10.2493)
(203.015 0.428376 -15.9697)
(200.073 0.454625 -26.0549)
(190.833 2.58797 -61.4972)
(204.258 3.48105 3.47368)
(204.618 2.69314 1.69725)
(204.875 1.9756 -0.123098)
(205.044 1.38898 -1.99396)
(205.085 0.874695 -4.07879)
(205.039 0.416717 -6.67499)
(204.853 0.00954716 -10.2982)
(204.417 -0.23217 -16.3918)
(201.627 -0.130135 -27.14)
(191.832 2.17119 -64.1556)
(204.702 4.08243 3.24927)
(205.051 3.30989 1.49136)
(205.306 2.61063 -0.284612)
(205.498 2.0429 -2.12145)
(205.597 1.55771 -4.177)
(205.663 1.13639 -6.77153)
(205.633 0.777147 -10.4039)
(205.429 0.597995 -16.6927)
(202.916 0.796694 -27.9326)
(192.776 3.19985 -66.1499)
(205.259 3.1447 3.77689)
(205.623 2.27787 2.02673)
(205.89 1.50891 0.210312)
(206.113 0.879701 -1.66047)
(206.266 0.336021 -3.7718)
(206.424 -0.133524 -6.44516)
(206.532 -0.506536 -10.1808)
(206.55 -0.651043 -16.7212)
(204.385 -0.281274 -28.5425)
(193.98 2.40458 -67.808)
(205.471 3.77837 3.34975)
(205.821 2.89126 1.63659)
(206.064 2.13476 -0.103717)
(206.25 1.52049 -1.91708)
(206.368 1.01935 -3.95296)
(206.508 0.601977 -6.53803)
(206.655 0.30352 -10.1542)
(206.821 0.259189 -16.631)
(205.061 0.89967 -28.652)
(194.698 3.90896 -68.4896)
(205.784 2.29065 3.9071)
(206.138 1.28463 2.24142)
(206.398 0.409521 0.523964)
(206.621 -0.354845 -1.26902)
(206.793 -1.0362 -3.32678)
(206.979 -1.63854 -5.95835)
(207.191 -2.0743 -9.67916)
(207.482 -2.16309 -16.2889)
(206.049 -1.16436 -28.6998)
(195.598 2.76463 -68.5782)
(204.981 2.80882 3.42923)
(205.244 1.69916 1.70263)
(205.261 0.817765 -0.0236382)
(205.056 0.0684816 -1.84255)
(204.642 -0.529074 -3.88667)
(204.101 -0.983645 -6.43782)
(203.509 -1.19503 -9.95048)
(203.068 -0.944748 -16.0365)
(201.59 0.526486 -27.6206)
(192.379 5.33273 -65.6857)
(198.333 2.09015 3.0247)
(198.845 1.34192 1.66)
(199.097 0.699184 0.191716)
(199.102 0.181519 -1.34241)
(198.832 -0.230435 -3.00053)
(198.199 -0.534903 -4.80343)
(197 -0.733082 -6.8105)
(194.804 -0.831846 -9.00423)
(191.551 -0.902943 -11.0229)
(187.252 -0.773759 -14.3913)
(199.614 3.34916 2.72336)
(200.131 2.72783 1.2025)
(200.415 2.13913 -0.334352)
(200.456 1.60635 -1.93532)
(200.189 1.11449 -3.66018)
(199.497 0.660132 -5.57483)
(198.177 0.232259 -7.77861)
(195.76 -0.198031 -10.5275)
(191.772 -0.751687 -13.6046)
(186.398 -0.975807 -20.4443)
(200.845 3.21924 3.12557)
(201.348 2.52611 1.49737)
(201.629 1.86532 -0.15815)
(201.675 1.29179 -1.86415)
(201.405 0.776478 -3.68993)
(200.726 0.311221 -5.72733)
(199.452 -0.12758 -8.16904)
(197.092 -0.545853 -11.5519)
(192.786 -1.05527 -15.7728)
(186.593 -0.944301 -26.4109)
(201.548 3.88621 3.04737)
(202.054 3.22826 1.36177)
(202.346 2.58921 -0.32854)
(202.429 2.03612 -2.0725)
(202.228 1.53595 -3.95231)
(201.669 1.08343 -6.1013)
(200.542 0.654816 -8.74413)
(198.337 0.273457 -12.6467)
(193.886 -0.163533 -17.8138)
(187 0.30201 -32.0234)
(202.429 3.38235 3.52978)
(202.947 2.63801 1.81199)
(203.256 1.94478 0.0414599)
(203.392 1.36829 -1.78205)
(203.277 0.855518 -3.77261)
(202.858 0.401182 -6.09038)
(201.9 -0.0211183 -8.97115)
(199.904 -0.367091 -13.3892)
(195.444 -0.716052 -19.492)
(187.944 0.152033 -37.1585)
(202.971 4.02022 3.32941)
(203.486 3.28053 1.61581)
(203.803 2.59839 -0.119133)
(203.972 2.03503 -1.91818)
(203.927 1.54433 -3.89159)
(203.635 1.11856 -6.24399)
(202.849 0.737797 -9.20655)
(201.097 0.459189 -13.95)
(196.768 0.232145 -20.7651)
(188.808 1.46401 -41.6146)
(203.61 3.0976 3.86721)
(204.14 2.25762 2.15458)
(204.474 1.50726 0.370665)
(204.683 0.892043 -1.46884)
(204.702 0.362573 -3.50874)
(204.521 -0.0879405 -5.9688)
(203.896 -0.466801 -9.0882)
(202.4 -0.707182 -14.1831)
(198.305 -0.766098 -21.7558)
(189.974 0.919856 -45.6055)
(203.88 3.76327 3.44767)
(204.401 2.90184 1.77012)
(204.72 2.16392 0.0696012)
(204.907 1.56381 -1.70492)
(204.913 1.07781 -3.66614)
(204.753 0.678583 -6.06214)
(204.215 0.374632 -9.12265)
(202.934 0.221476 -14.2767)
(199.173 0.430247 -22.2441)
(190.753 2.47579 -48.5829)
(204.245 2.28053 4.01334)
(204.759 1.30236 2.37837)
(205.092 0.468016 0.690367)
(205.31 -0.23934 -1.05671)
(205.372 -0.845232 -3.02922)
(205.284 -1.3615 -5.47791)
(204.862 -1.7329 -8.68861)
(203.796 -1.8914 -14.0835)
(200.375 -1.3434 -22.6938)
(191.767 1.39733 -50.9046)
(203.482 2.86843 3.50938)
(203.936 1.79684 1.85004)
(204.105 0.969094 0.198862)
(204.022 0.276391 -1.53155)
(203.672 -0.255497 -3.44463)
(203.085 -0.647241 -5.78644)
(202.142 -0.827707 -8.82688)
(200.67 -0.680087 -13.8745)
(197.375 0.334213 -22.2619)
(189.62 4.14771 -50.8121)
(196.234 1.60361 2.32723)
(196.758 1.05142 1.27611)
(196.986 0.552082 0.107333)
(196.948 0.13952 -1.09783)
(196.626 -0.196889 -2.35914)
(195.97 -0.452357 -3.62789)
(194.882 -0.634333 -4.85936)
(193.203 -0.764465 -5.90937)
(190.736 -0.92628 -6.43304)
(187.608 -1.10315 -6.59062)
(197.653 2.87802 2.20944)
(198.214 2.40654 0.93314)
(198.483 1.92758 -0.369328)
(198.463 1.47377 -1.71331)
(198.113 1.03953 -3.12189)
(197.346 0.621684 -4.60353)
(195.991 0.209868 -6.1264)
(193.755 -0.225623 -7.63339)
(190.176 -0.801656 -8.63355)
(185.378 -1.40097 -9.83428)
(198.965 2.82408 2.74157)
(199.539 2.24292 1.30236)
(199.821 1.66378 -0.177571)
(199.815 1.14409 -1.70117)
(199.465 0.659963 -3.31243)
(198.667 0.204822 -5.03473)
(197.21 -0.24298 -6.88418)
(194.708 -0.705981 -8.96227)
(190.31 -1.33174 -10.7122)
(183.98 -1.91383 -13.5089)
(199.782 3.56391 2.72557)
(200.377 2.99278 1.19059)
(200.675 2.41578 -0.36038)
(200.705 1.89964 -1.96308)
(200.403 1.41556 -3.68024)
(199.668 0.958882 -5.57741)
(198.239 0.503785 -7.70626)
(195.639 0.0446996 -10.3288)
(190.595 -0.584931 -12.8188)
(182.872 -1.05022 -17.4043)
(200.759 3.09886 3.2582)
(201.374 2.42611 1.65804)
(201.692 1.78421 -0.00221107)
(201.772 1.23718 -1.71512)
(201.541 0.736374 -3.58046)
(200.906 0.277592 -5.69663)
(199.563 -0.170067 -8.14172)
(196.974 -0.598951 -11.3477)
(191.464 -1.19115 -14.6719)
(182.516 -1.44813 -21.3432)
(201.378 3.78926 3.08851)
(201.998 3.10672 1.47089)
(202.332 2.46594 -0.173803)
(202.449 1.92585 -1.88432)
(202.279 1.44232 -3.76095)
(201.747 1.00799 -5.95239)
(200.518 0.595155 -8.55177)
(198.019 0.2216 -12.1768)
(192.221 -0.287826 -16.2017)
(182.26 -0.309922 -25.0521)
(202.086 2.89118 3.65101)
(202.722 2.10177 2.01614)
(203.074 1.39072 0.30635)
(203.233 0.802054 -1.46174)
(203.125 0.288096 -3.4259)
(202.692 -0.156465 -5.75758)
(201.586 -0.548532 -8.57682)
(199.226 -0.864169 -12.6547)
(193.295 -1.22945 -17.4686)
(182.476 -0.919643 -28.6235)
(202.417 3.60028 3.23635)
(203.045 2.78805 1.63265)
(203.389 2.08752 0.00418917)
(203.534 1.5143 -1.70165)
(203.421 1.0444 -3.59383)
(203.016 0.655183 -5.88256)
(201.992 0.342329 -8.70057)
(199.787 0.116549 -12.9636)
(193.893 -0.00531432 -18.2938)
(182.473 0.570204 -31.5216)
(202.838 2.1163 3.8122)
(203.452 1.1881 2.23982)
(203.803 0.403417 0.606163)
(203.971 -0.249514 -1.08672)
(203.897 -0.797953 -2.9956)
(203.552 -1.25113 -5.33382)
(202.635 -1.56759 -8.31952)
(200.62 -1.71877 -12.9249)
(194.872 -1.46686 -19.0501)
(182.761 -0.379777 -33.9117)
(202.137 2.77452 3.27224)
(202.694 1.76858 1.7094)
(202.923 1.00322 0.146271)
(202.864 0.371835 -1.49975)
(202.486 -0.100097 -3.3237)
(201.775 -0.4304 -5.54083)
(200.498 -0.560415 -8.36437)
(198.24 -0.407447 -12.7246)
(192.621 0.33054 -18.9523)
(180.508 2.42936 -34.3625)
(194.752 1.12318 1.67462)
(195.201 0.753096 0.930405)
(195.384 0.394804 0.0680266)
(195.331 0.0884083 -0.806834)
(195.036 -0.171022 -1.6939)
(194.479 -0.3764 -2.51484)
(193.626 -0.538368 -3.20567)
(192.443 -0.677391 -3.63382)
(190.918 -0.84898 -3.58233)
(189.213 -1.08391 -2.83395)
(196.133 2.35073 1.6715)
(196.652 2.03405 0.666261)
(196.884 1.67506 -0.369672)
(196.831 1.31236 -1.42536)
(196.467 0.950226 -2.4919)
(195.742 0.587607 -3.54218)
(194.564 0.216309 -4.50248)
(192.805 -0.186749 -5.24632)
(190.307 -0.69761 -5.35282)
(187.426 -1.3117 -4.68385)
(197.392 2.33877 2.28742)
(197.963 1.88749 1.08166)
(198.219 1.40839 -0.173847)
(198.172 0.961162 -1.45674)
(197.78 0.528943 -2.78376)
(196.968 0.105831 -4.13968)
(195.587 -0.326278 -5.46232)
(193.417 -0.789033 -6.66487)
(190.073 -1.39702 -7.16425)
(185.933 -2.13631 -6.92817)
(198.235 3.14914 2.31936)
(198.849 2.68667 0.982746)
(199.129 2.19141 -0.379015)
(199.106 1.73106 -1.77915)
(198.728 1.28416 -3.25424)
(197.907 0.845454 -4.8243)
(196.436 0.389558 -6.44963)
(193.997 -0.100462 -8.1227)
(189.875 -0.770925 -9.08494)
(184.424 -1.55202 -9.49707)
(199.244 2.72821 2.90136)
(199.894 2.14982 1.46381)
(200.197 1.57806 -0.0399051)
(200.214 1.07654 -1.58453)
(199.878 0.60419 -3.245)
(199.098 0.156389 -5.07175)
(197.611 -0.298214 -7.05141)
(195.012 -0.769177 -9.28244)
(190.217 -1.44414 -10.8638)
(183.511 -2.17359 -12.2771)
(199.903 3.47705 2.7646)
(200.571 2.87441 1.28455)
(200.893 2.29271 -0.228397)
(200.944 1.79074 -1.798)
(200.65 1.33008 -3.50289)
(199.929 0.90264 -5.44165)
(198.469 0.475837 -7.62156)
(195.801 0.0419727 -10.2795)
(190.462 -0.598925 -12.4096)
(182.624 -1.23313 -15.0065)
(200.654 2.61374 3.35664)
(201.341 1.89625 1.83665)
(201.684 1.23993 0.237922)
(201.773 0.689205 -1.41202)
(201.528 0.200728 -3.23122)
(200.876 -0.230579 -5.34222)
(199.472 -0.628449 -7.78799)
(196.801 -0.99402 -10.9294)
(191.052 -1.52003 -13.7424)
(182.198 -1.95982 -17.7799)
(201.031 3.38005 2.95221)
(201.714 2.63674 1.45576)
(202.053 1.98679 -0.0691705)
(202.133 1.44988 -1.66706)
(201.886 1.00336 -3.42993)
(201.253 0.628933 -5.52157)
(199.891 0.311826 -8.00789)
(197.267 0.0323034 -11.3919)
(191.29 -0.296539 -14.6991)
(181.621 -0.581055 -20.1262)
(201.495 1.90792 3.55923)
(202.159 1.04703 2.08046)
(202.502 0.319025 0.529471)
(202.6 -0.279507 -1.07716)
(202.383 -0.77604 -2.87657)
(201.792 -1.17617 -5.02883)
(200.485 -1.45415 -7.67698)
(197.955 -1.61169 -11.4124)
(191.931 -1.56503 -15.5491)
(181.394 -1.48077 -22.1714)
(200.857 2.65379 2.99237)
(201.468 1.72628 1.54816)
(201.724 1.0269 0.0913645)
(201.66 0.455681 -1.44832)
(201.231 0.0385872 -3.15005)
(200.388 -0.239825 -5.18425)
(198.839 -0.333853 -7.69284)
(196.118 -0.189266 -11.2479)
(190.115 0.338557 -15.6103)
(179.152 1.33371 -22.6618)
(193.776 0.721154 1.15446)
(194.125 0.487738 0.657353)
(194.26 0.244255 0.0541625)
(194.215 0.0279875 -0.545567)
(193.99 -0.164646 -1.1404)
(193.587 -0.324776 -1.65202)
(193.007 -0.461032 -2.03338)
(192.269 -0.586576 -2.19562)
(191.413 -0.728687 -2.04366)
(190.566 -0.901886 -1.49037)
(195.019 1.85142 1.18524)
(195.454 1.66525 0.43299)
(195.642 1.41592 -0.347007)
(195.585 1.14145 -1.13236)
(195.27 0.853171 -1.89689)
(194.675 0.553696 -2.59883)
(193.768 0.240217 -3.16457)
(192.52 -0.0987981 -3.48468)
(190.923 -0.499434 -3.33059)
(189.284 -0.978367 -2.57612)
(196.127 1.83326 1.83599)
(196.647 1.50621 0.872476)
(196.871 1.12856 -0.146119)
(196.809 0.759156 -1.17748)
(196.436 0.388552 -2.21487)
(195.709 0.013765 -3.21967)
(194.548 -0.378161 -4.10935)
(192.862 -0.801779 -4.75428)
(190.533 -1.32492 -4.7635)
(187.999 -1.96801 -3.9518)
(196.914 2.6921 1.89071)
(197.503 2.34375 0.774446)
(197.758 1.93816 -0.374497)
(197.707 1.54287 -1.54742)
(197.313 1.14555 -2.75297)
(196.515 0.742817 -3.97581)
(195.179 0.312742 -5.13805)
(193.141 -0.162773 -6.12709)
(190.079 -0.780984 -6.36577)
(186.513 -1.5332 -5.6066)
(197.889 2.30751 2.50909)
(198.533 1.83508 1.26243)
(198.816 1.34414 -0.0563118)
(198.794 0.898005 -1.4021)
(198.41 0.465464 -2.81914)
(197.593 0.043079 -4.31406)
(196.149 -0.397748 -5.82429)
(193.842 -0.872003 -7.28481)
(190.076 -1.52471 -7.93136)
(185.428 -2.31111 -7.50573)
(198.541 3.11087 2.39994)
(199.22 2.60304 1.08769)
(199.528 2.09233 -0.264113)
(199.531 1.63832 -1.66037)
(199.168 1.21117 -3.14995)
(198.358 0.803656 -4.78007)
(196.858 0.382288 -6.50285)
(194.361 -0.0740381 -8.33949)
(189.956 -0.733378 -9.35476)
(184.25 -1.52398 -9.40692)
(199.297 2.28561 3.0194)
(200.006 1.65642 1.64453)
(200.337 1.0666 0.185591)
(200.373 0.562389 -1.31421)
(200.04 0.107409 -2.94373)
(199.262 -0.302791 -4.77099)
(197.746 -0.695718 -6.78109)
(195.127 -1.08597 -9.07851)
(190.172 -1.66099 -10.6245)
(183.45 -2.3615 -11.4199)
(199.698 3.11618 2.62624)
(200.41 2.45809 1.26458)
(200.741 1.8701 -0.130967)
(200.772 1.37779 -1.59206)
(200.435 0.962195 -3.18466)
(199.658 0.608768 -5.01689)
(198.132 0.295695 -7.09381)
(195.456 -0.0149602 -9.63794)
(190.11 -0.443974 -11.5784)
(182.5 -1.08465 -13.1422)
(200.188 1.66011 3.26949)
(200.882 0.882031 1.91047)
(201.215 0.218584 0.467202)
(201.26 -0.323233 -1.02541)
(200.943 -0.769188 -2.67955)
(200.193 -1.12203 -4.59687)
(198.683 -1.3697 -6.84397)
(195.993 -1.5342 -9.69909)
(190.433 -1.6182 -12.364)
(181.885 -1.99432 -14.692)
(199.606 2.50838 2.67574)
(200.251 1.67055 1.36842)
(200.525 1.04167 0.0350482)
(200.455 0.531049 -1.37804)
(199.992 0.166144 -2.92935)
(199.068 -0.0661213 -4.73956)
(197.391 -0.13318 -6.8782)
(194.535 -0.00411553 -9.61642)
(188.879 0.364197 -12.4788)
(179.685 0.764996 -15.0089)
(193.161 0.414328 0.778756)
(193.418 0.272256 0.462386)
(193.513 0.112088 0.0554682)
(193.48 -0.0351091 -0.338173)
(193.325 -0.174121 -0.724751)
(193.058 -0.295214 -1.03669)
(192.69 -0.404071 -1.24809)
(192.249 -0.507082 -1.30484)
(191.772 -0.615991 -1.17119)
(191.316 -0.737922 -0.820656)
(194.242 1.425 0.785754)
(194.577 1.33543 0.245549)
(194.721 1.1756 -0.314006)
(194.672 0.97843 -0.870622)
(194.426 0.758913 -1.39372)
(193.981 0.522336 -1.84256)
(193.332 0.270792 -2.15919)
(192.49 0.00176518 -2.26853)
(191.491 -0.296507 -2.06144)
(190.516 -0.648633 -1.47283)
(195.156 1.35808 1.43105)
(195.595 1.13436 0.690921)
(195.779 0.848326 -0.104151)
(195.718 0.553949 -0.901879)
(195.398 0.247394 -1.68161)
(194.8 -0.0707708 -2.3961)
(193.896 -0.407237 -2.96927)
(192.669 -0.768786 -3.29042)
(191.12 -1.19068 -3.13713)
(189.549 -1.70552 -2.36824)
(195.836 2.23539 1.47903)
(196.362 1.99208 0.58131)
(196.583 1.67444 -0.35239)
(196.521 1.34699 -1.29828)
(196.153 1.00568 -2.24396)
(195.444 0.650567 -3.15265)
(194.326 0.266193 -3.9396)
(192.741 -0.161149 -4.47695)
(190.595 -0.687342 -4.40014)
(188.304 -1.32488 -3.45176)
(196.725 1.87051 2.11317)
(197.324 1.50325 1.06727)
(197.579 1.09638 -0.0538107)
(197.533 0.711142 -1.18957)
(197.147 0.326242 -2.35711)
(196.37 -0.0591493 -3.53087)
(195.086 -0.467571 -4.62817)
(193.186 -0.91261 -5.52658)
(190.415 -1.49148 -5.69899)
(187.307 -2.19419 -4.76603)
(197.331 2.71609 2.01998)
(197.982 2.30802 0.891997)
(198.267 1.87457 -0.280666)
(198.238 1.47518 -1.48564)
(197.847 1.08938 -2.74323)
(197.033 0.712337 -4.05788)
(195.627 0.314456 -5.35068)
(193.466 -0.129359 -6.53943)
(190.082 -0.740157 -6.93027)
(186.117 -1.49749 -6.08365)
(198.06 1.92573 2.65916)
(198.755 1.39354 1.4495)
(199.064 0.877897 0.151102)
(199.061 0.426744 -1.17716)
(198.681 0.0118948 -2.59386)
(197.857 -0.369555 -4.11814)
(196.373 -0.744823 -5.69462)
(194.008 -1.13392 -7.28233)
(190.052 -1.68883 -8.06485)
(185.214 -2.41396 -7.52693)
(198.459 2.82204 2.27409)
(199.166 2.25951 1.06721)
(199.482 1.74182 -0.178837)
(199.474 1.30075 -1.4815)
(199.083 0.922449 -2.87877)
(198.24 0.596235 -4.42658)
(196.699 0.297949 -6.08045)
(194.195 -0.0180246 -7.88075)
(189.785 -0.468947 -8.93952)
(184.131 -1.19302 -8.74357)
(198.958 1.38142 2.95397)
(199.653 0.696993 1.73469)
(199.971 0.104245 0.419856)
(199.973 -0.378884 -0.936061)
(199.593 -0.775029 -2.41865)
(198.758 -1.08441 -4.07607)
(197.196 -1.30514 -5.91458)
(194.599 -1.46903 -7.98927)
(189.883 -1.62064 -9.60133)
(183.36 -2.14315 -9.83697)
(198.421 2.34436 2.33148)
(199.072 1.60449 1.17486)
(199.351 1.04973 -0.0206281)
(199.274 0.600144 -1.29003)
(198.794 0.285132 -2.66921)
(197.838 0.0937729 -4.23157)
(196.152 0.0467705 -5.98557)
(193.399 0.158094 -7.9946)
(188.513 0.409288 -9.74055)
(181.323 0.524423 -10.0083)
(192.788 0.194118 0.527919)
(192.973 0.107399 0.334462)
(193.037 0.00248467 0.0643194)
(193.016 -0.0957924 -0.186994)
(192.917 -0.194462 -0.435508)
(192.751 -0.283718 -0.625911)
(192.529 -0.367002 -0.748679)
(192.275 -0.446134 -0.771212)
(192.01 -0.525139 -0.683504)
(191.748 -0.608409 -0.481201)
(193.717 1.08818 0.480372)
(193.961 1.06282 0.104378)
(194.064 0.96995 -0.2803)
(194.028 0.835384 -0.658077)
(193.851 0.675274 -1.00154)
(193.539 0.496175 -1.27814)
(193.099 0.303389 -1.44788)
(192.551 0.0996807 -1.46517)
(191.924 -0.115916 -1.28278)
(191.306 -0.369884 -0.879225)
(194.432 0.943514 1.09399)
(194.78 0.796669 0.54345)
(194.924 0.586508 -0.0572338)
(194.872 0.359099 -0.654879)
(194.618 0.113802 -1.22405)
(194.159 -0.146087 -1.71951)
(193.494 -0.421721 -2.0811)
(192.638 -0.713402 -2.23115)
(191.625 -1.03677 -2.05543)
(190.62 -1.42801 -1.48461)
(194.983 1.81134 1.10953)
(195.426 1.65519 0.411902)
(195.608 1.41685 -0.320314)
(195.548 1.1549 -1.0565)
(195.231 0.871357 -1.77245)
(194.644 0.569678 -2.42344)
(193.763 0.241592 -2.9341)
(192.59 -0.119728 -3.19831)
(191.133 -0.541181 -3.00984)
(189.647 -1.04474 -2.20397)
(195.754 1.44672 1.73749)
(196.282 1.17439 0.886697)
(196.501 0.84837 -0.0382076)
(196.447 0.525398 -0.968332)
(196.091 0.192661 -1.9014)
(195.405 -0.14765 -2.79426)
(194.334 -0.51051 -3.56372)
(192.849 -0.904392 -4.08634)
(190.889 -1.38727 -4.03717)
(188.822 -1.96248 -3.12766)
(196.285 2.31714 1.6458)
(196.879 2.00487 0.70541)
(197.132 1.64934 -0.281794)
(197.086 1.308 -1.29074)
(196.705 0.968918 -2.31919)
(195.947 0.630404 -3.34306)
(194.715 0.269689 -4.2732)
(192.945 -0.135295 -4.99382)
(190.456 -0.661356 -5.04629)
(187.744 -1.30956 -4.03808)
(196.961 1.55386 2.29347)
(197.612 1.11956 1.25826)
(197.893 0.681248 0.132005)
(197.864 0.287207 -1.01393)
(197.473 -0.0825107 -2.21166)
(196.673 -0.428646 -3.44443)
(195.319 -0.774789 -4.63606)
(193.304 -1.14015 -5.67711)
(190.29 -1.63499 -6.00401)
(186.884 -2.27908 -5.06908)
(197.334 2.51262 1.91043)
(198.007 2.04932 0.869619)
(198.299 1.60646 -0.213963)
(198.266 1.22105 -1.34485)
(197.857 0.884749 -2.53545)
(197.016 0.590615 -3.80059)
(195.569 0.315815 -5.06539)
(193.365 0.0169098 -6.26662)
(189.906 -0.401954 -6.75555)
(185.824 -1.06758 -5.90454)
(197.827 1.08278 2.62498)
(198.497 0.497219 1.55791)
(198.792 -0.0212765 0.386248)
(198.765 -0.444781 -0.817305)
(198.357 -0.792027 -2.11327)
(197.507 -1.06103 -3.50668)
(196.01 -1.25647 -4.96359)
(193.666 -1.41193 -6.4096)
(189.875 -1.58312 -7.29822)
(185.077 -2.08469 -6.64934)
(197.322 2.16977 1.97034)
(197.954 1.53227 0.972501)
(198.225 1.05372 -0.074722)
(198.144 0.66509 -1.18824)
(197.667 0.397708 -2.38211)
(196.729 0.242445 -3.68989)
(195.132 0.210171 -5.07537)
(192.639 0.3035 -6.48118)
(188.643 0.470574 -7.44003)
(183.27 0.469605 -6.73581)
(192.563 0.0402245 0.370331)
(192.7 -0.0152171 0.256801)
(192.743 -0.0858654 0.0765101)
(192.73 -0.151436 -0.0820359)
(192.67 -0.221252 -0.24335)
(192.571 -0.285932 -0.362138)
(192.441 -0.347762 -0.439182)
(192.297 -0.406211 -0.453591)
(192.147 -0.462043 -0.405002)
(191.978 -0.519079 -0.293826)
(193.368 0.838192 0.258942)
(193.538 0.851854 0.00312108)
(193.609 0.805798 -0.251219)
(193.584 0.718894 -0.497299)
(193.464 0.606998 -0.713863)
(193.256 0.47674 -0.877819)
(192.97 0.334819 -0.963726)
(192.619 0.186345 -0.945437)
(192.217 0.0336799 -0.804338)
(191.789 -0.15067 -0.533828)
(193.901 0.601973 0.829981)
(194.164 0.507012 0.430647)
(194.271 0.355485 -0.0114366)
(194.23 0.184245 -0.448072)
(194.041 -0.00620213 -0.855025)
(193.708 -0.211227 -1.19459)
(193.24 -0.4283 -1.42315)
(192.66 -0.653789 -1.49122)
(191.998 -0.89331 -1.34301)
(191.322 -1.18362 -0.950598)
(194.324 1.4406 0.795999)
(194.678 1.35062 0.270585)
(194.822 1.179 -0.284381)
(194.77 0.976435 -0.8383)
(194.514 0.748579 -1.3631)
(194.055 0.501245 -1.81561)
(193.394 0.232054 -2.13599)
(192.557 -0.0595896 -2.24748)
(191.582 -0.382917 -2.04159)
(190.6 -0.763783 -1.42897)
(194.963 1.05928 1.39944)
(195.407 0.865985 0.726682)
(195.588 0.612815 -0.014966)
(195.534 0.349751 -0.755471)
(195.227 0.0703727 -1.48128)
(194.658 -0.22059 -2.14402)
(193.808 -0.531005 -2.67098)
(192.694 -0.863598 -2.961)
(191.339 -1.24862 -2.82699)
(189.961 -1.69453 -2.09225)
(195.402 1.93567 1.29556)
(195.921 1.70849 0.534686)
(196.138 1.42667 -0.271551)
(196.085 1.14346 -1.09116)
(195.739 0.853857 -1.90697)
(195.077 0.559135 -2.68034)
(194.053 0.24404 -3.3265)
(192.665 -0.107082 -3.73474)
(190.885 -0.535887 -3.62086)
(189.042 -1.05337 -2.72331)
(196.01 1.18947 1.93915)
(196.594 0.847139 1.0771)
(196.84 0.484821 0.125118)
(196.797 0.149174 -0.837986)
(196.427 -0.172436 -1.82408)
(195.698 -0.478451 -2.79486)
(194.53 -0.787077 -3.66998)
(192.889 -1.11308 -4.32286)
(190.666 -1.5294 -4.39277)
(188.3 -2.05503 -3.46283)
(196.337 2.20371 1.5506)
(196.952 1.83686 0.678021)
(197.214 1.46935 -0.238158)
(197.165 1.14149 -1.19276)
(196.768 0.850025 -2.17765)
(195.983 0.591389 -3.17989)
(194.699 0.346169 -4.11238)
(192.852 0.0784363 -4.87038)
(190.235 -0.279737 -5.0073)
(187.344 -0.825609 -4.02472)
(196.812 0.776407 2.29626)
(197.434 0.289175 1.38566)
(197.701 -0.154516 0.364939)
(197.656 -0.518891 -0.678531)
(197.25 -0.818609 -1.78391)
(196.44 -1.04986 -2.92571)
(195.087 -1.22069 -4.04824)
(193.08 -1.36206 -5.02078)
(190.149 -1.52497 -5.44679)
(186.718 -1.93818 -4.53541)
(196.327 1.99405 1.60454)
(196.915 1.45909 0.767099)
(197.17 1.05678 -0.126651)
(197.088 0.728089 -1.07813)
(196.634 0.50578 -2.08252)
(195.756 0.382147 -3.14364)
(194.316 0.360602 -4.19756)
(192.168 0.437092 -5.13383)
(189.031 0.54447 -5.56999)
(185.16 0.507202 -4.56326)
(192.424 -0.0680773 0.277273)
(192.531 -0.106841 0.214024)
(192.559 -0.157423 0.0900629)
(192.553 -0.202111 -0.0107253)
(192.517 -0.252176 -0.119017)
(192.46 -0.298862 -0.196789)
(192.386 -0.344082 -0.250559)
(192.304 -0.386406 -0.265657)
(192.218 -0.425489 -0.244817)
(192.095 -0.465191 -0.188433)
(193.132 0.66283 0.103982)
(193.248 0.69831 -0.0675003)
(193.295 0.683279 -0.22924)
(193.279 0.630924 -0.382688)
(193.201 0.556182 -0.513008)
(193.067 0.465034 -0.605161)
(192.886 0.364206 -0.643894)
(192.664 0.259232 -0.61446)
(192.398 0.152568 -0.510778)
(192.073 0.0172471 -0.328992)
(193.511 0.332964 0.633536)
(193.701 0.269825 0.349044)
(193.777 0.161113 0.0297361)
(193.748 0.0345842 -0.283819)
(193.613 -0.109418 -0.571398)
(193.382 -0.266165 -0.80431)
(193.065 -0.431344 -0.95273)
(192.681 -0.599741 -0.987062)
(192.246 -0.772851 -0.880334)
(191.763 -0.986202 -0.624289)
(193.821 1.13256 0.542197)
(194.092 1.08886 0.157877)
(194.202 0.970193 -0.249095)
(194.16 0.818678 -0.652423)
(193.965 0.641543 -1.02546)
(193.622 0.445711 -1.33154)
(193.146 0.232685 -1.52672)
(192.566 0.00604101 -1.55993)
(191.92 -0.234615 -1.37729)
(191.252 -0.515877 -0.933968)
(194.329 0.723227 1.10888)
(194.686 0.591277 0.590327)
(194.831 0.400192 0.0112101)
(194.783 0.19179 -0.563123)
(194.534 -0.0360686 -1.11436)
(194.084 -0.277043 -1.59707)
(193.437 -0.53347 -1.95321)
(192.628 -0.803619 -2.10917)
(191.708 -1.10079 -1.96173)
(190.781 -1.43437 -1.41573)
(194.673 1.58816 0.982605)
(195.107 1.43146 0.384788)
(195.286 1.2155 -0.253795)
(195.235 0.987543 -0.899655)
(194.938 0.747474 -1.52782)
(194.389 0.498909 -2.09573)
(193.575 0.233222 -2.53086)
(192.525 -0.0585431 -2.74435)
(191.278 -0.394185 -2.56608)
(190.029 -0.787784 -1.85033)
(195.205 0.849399 1.61026)
(195.708 0.588235 0.91118)
(195.918 0.296829 0.126968)
(195.87 0.0181219 -0.661854)
(195.539 -0.254636 -1.45348)
(194.911 -0.517881 -2.20034)
(193.948 -0.784154 -2.82865)
(192.662 -1.06282 -3.22345)
(191.062 -1.39851 -3.1657)
(189.433 -1.80324 -2.38276)
(195.471 1.90998 1.20875)
(196.012 1.63148 0.498191)
(196.239 1.33614 -0.253581)
(196.184 1.06514 -1.0359)
(195.821 0.819367 -1.8262)
(195.126 0.598061 -2.59605)
(194.041 0.38608 -3.25937)
(192.554 0.156407 -3.70991)
(190.628 -0.134 -3.64959)
(188.612 -0.550697 -2.75579)
(195.923 0.47437 1.9813)
(196.479 0.0797527 1.22353)
(196.713 -0.29163 0.354246)
(196.659 -0.599027 -0.529461)
(196.281 -0.853319 -1.45027)
(195.55 -1.0493 -2.36443)
(194.383 -1.19593 -3.20887)
(192.738 -1.31959 -3.84336)
(190.541 -1.46118 -3.99764)
(188.141 -1.77597 -3.11752)
(195.445 1.82711 1.24628)
(195.971 1.39078 0.564457)
(196.202 1.06242 -0.176311)
(196.123 0.791434 -0.966049)
(195.708 0.611162 -1.78538)
(194.922 0.514991 -2.61881)
(193.678 0.501209 -3.38953)
(191.905 0.56281 -3.97856)
(189.522 0.62846 -4.09126)
(186.814 0.588938 -3.09797)
(192.331 -0.148103 0.226972)
(192.419 -0.178367 0.194555)
(192.438 -0.21785 0.104489)
(192.435 -0.249734 0.0382267)
(192.415 -0.286793 -0.0388542)
(192.382 -0.320923 -0.093885)
(192.34 -0.354054 -0.136132)
(192.294 -0.3846 -0.154351)
(192.242 -0.412019 -0.151965)
(192.143 -0.440162 -0.128503)
(192.965 0.54711 -0.00292784)
(193.043 0.59386 -0.11685)
(193.074 0.5986 -0.21502)
(193.063 0.57039 -0.305369)
(193.014 0.5231 -0.37856)
(192.931 0.461797 -0.42544)
(192.818 0.392438 -0.437343)
(192.677 0.319976 -0.405728)
(192.495 0.24583 -0.329711)
(192.228 0.144907 -0.203549)
(193.216 0.128395 0.493965)
(193.351 0.0827784 0.293221)
(193.403 0.00390964 0.0648191)
(193.382 -0.0885808 -0.158687)
(193.29 -0.195127 -0.361691)
(193.135 -0.311702 -0.523752)
(192.927 -0.433626 -0.625171)
(192.678 -0.555663 -0.649116)
(192.388 -0.678211 -0.581653)
(192.022 -0.834339 -0.422213)
(193.438 0.887715 0.344791)
(193.639 0.873895 0.0714975)
(193.719 0.795184 -0.217341)
(193.687 0.685553 -0.501551)
(193.544 0.552361 -0.758665)
(193.299 0.402578 -0.960028)
(192.967 0.23974 -1.0752)
(192.575 0.0694755 -1.07206)
(192.15 -0.105339 -0.925463)
(191.679 -0.310514 -0.612408)
(193.826 0.445874 0.86883)
(194.103 0.358633 0.478027)
(194.213 0.217973 0.036638)
(194.174 0.0571413 -0.398432)
(193.981 -0.123469 -0.808478)
(193.64 -0.316923 -1.15516)
(193.166 -0.521902 -1.39503)
(192.596 -0.734069 -1.47893)
(191.979 -0.957809 -1.35143)
(191.347 -1.20194 -0.96674)
(194.079 1.28487 0.714884)
(194.428 1.18284 0.258573)
(194.571 1.0228 -0.2318)
(194.526 0.844843 -0.725401)
(194.284 0.651901 -1.19502)
(193.849 0.449039 -1.60086)
(193.226 0.232679 -1.88533)
(192.456 -0.000654536 -1.9848)
(191.597 -0.255077 -1.79897)
(190.749 -0.545152 -1.26098)
(194.537 0.546493 1.31679)
(194.955 0.353069 0.76406)
(195.127 0.124793 0.134146)
(195.082 -0.100798 -0.495931)
(194.801 -0.326152 -1.11652)
(194.284 -0.546295 -1.67952)
(193.522 -0.768772 -2.1231)
(192.547 -0.998231 -2.35554)
(191.417 -1.26064 -2.25024)
(190.302 -1.56033 -1.64356)
(194.732 1.64347 0.896387)
(195.19 1.4416 0.334901)
(195.381 1.21223 -0.262457)
(195.326 0.995023 -0.883756)
(195.01 0.793854 -1.49805)
(194.424 0.610036 -2.07102)
(193.543 0.432712 -2.52551)
(192.39 0.243169 -2.77371)
(191.004 0.0162023 -2.61946)
(189.615 -0.289269 -1.8882)
(195.16 0.187173 1.69192)
(195.64 -0.124534 1.07656)
(195.839 -0.428821 0.352444)
(195.784 -0.683047 -0.379115)
(195.449 -0.894887 -1.12935)
(194.819 -1.05822 -1.84662)
(193.855 -1.18142 -2.47014)
(192.557 -1.28556 -2.87489)
(190.95 -1.40118 -2.88788)
(189.303 -1.63041 -2.15277)
(194.679 1.67842 0.90644)
(195.133 1.33335 0.369831)
(195.333 1.07442 -0.224017)
(195.261 0.857593 -0.858461)
(194.897 0.71578 -1.5044)
(194.222 0.643188 -2.1363)
(193.189 0.635007 -2.67567)
(191.78 0.683947 -3.01955)
(190.019 0.720769 -2.94975)
(188.173 0.691323 -2.09576)
(192.258 -0.212941 0.204883)
(192.333 -0.239039 0.190818)
(192.347 -0.272859 0.120192)
(192.347 -0.297255 0.0735323)
(192.335 -0.326076 0.0141048)
(192.317 -0.351833 -0.0290998)
(192.293 -0.376569 -0.0662446)
(192.266 -0.398866 -0.0881486)
(192.233 -0.418305 -0.0981653)
(192.147 -0.438503 -0.0951078)
(192.834 0.477221 -0.0776783)
(192.888 0.529386 -0.152844)
(192.908 0.546421 -0.208264)
(192.901 0.534693 -0.256359)
(192.871 0.507045 -0.292124)
(192.82 0.467663 -0.310302)
(192.751 0.42141 -0.306329)
(192.66 0.372291 -0.274942)
(192.53 0.320552 -0.217386)
(192.298 0.243958 -0.125074)
(192.982 -0.0231408 0.399237)
(193.076 -0.0604525 0.25741)
(193.11 -0.119276 0.0937717)
(193.095 -0.186831 -0.0663483)
(193.035 -0.264446 -0.211394)
(192.935 -0.349162 -0.327538)
(192.801 -0.436756 -0.401993)
(192.641 -0.522752 -0.425662)
(192.446 -0.607682 -0.38985)
(192.155 -0.721196 -0.296987)
(193.142 0.700639 0.196337)
(193.288 0.704495 0.00755438)
(193.344 0.654648 -0.190601)
(193.321 0.578004 -0.38407)
(193.221 0.48121 -0.555478)
(193.051 0.370567 -0.683716)
(192.827 0.250294 -0.748592)
(192.568 0.126443 -0.730663)
(192.288 0.00237955 -0.619185)
(191.945 -0.145926 -0.400374)
(193.425 0.228197 0.677038)
(193.634 0.171774 0.388001)
(193.715 0.0704136 0.0586943)
(193.685 -0.0507388 -0.264204)
(193.541 -0.190003 -0.564004)