/*--------------------------------*- C++ -*----------------------------------*\
| =========                 |                                                 |
| \\      /  F ield         | foam-extend: Open Source CFD                    |
|  \\    /   O peration     | Version:     4.0                                |
|   \\  /    A nd           | Web:         http://www.foam-extend.org         |
|    \\/     M anipulation  |                                                 |
\*---------------------------------------------------------------------------*/
FoamFile
{
    version     2.0;
    format      ascii;
    class       volScalarField;
    location    "1800";
    object      alphat;
}
// * * * * * * * * * * * * * * * * * * * * * * * * * * * * * * * * * * * * * //

dimensions      [1 -1 -1 0 0 0 0];

internalField   nonuniform List<scalar> 
34480
(
0.00188849
0.00188723
0.00188707
0.0018879
0.00189001
0.00189392
0.00190145
0.00191971
0.00195896
0.0020302
0.0159231
0.0151149
0.0148154
0.0145455
0.0129236
0.00824174
0.00340608
0.00134814
0.000984812
0.00145485
0.0442626
0.0426042
0.0409169
0.0374723
0.0286632
0.0146763
0.00511667
0.00182822
0.00124088
0.00181184
0.0484122
0.0462542
0.0443131
0.0402741
0.0297012
0.0141559
0.00479167
0.00177522
0.00128741
0.00197777
0.0477361
0.045316
0.043551
0.03971
0.0288435
0.0131852
0.00440718
0.00168427
0.00129895
0.00209678
0.0459882
0.0435035
0.0418429
0.0380564
0.0268312
0.0116127
0.00385698
0.0015531
0.00130538
0.00222435
0.0438595
0.0415361
0.0400761
0.0364624
0.0252669
0.0105501
0.00349338
0.00146097
0.00131287
0.00233388
0.0364073
0.034715
0.0336855
0.0309381
0.0214233
0.00863748
0.00281166
0.00123962
0.00123605
0.00234076
0.0124288
0.0121091
0.0120059
0.0117293
0.00993105
0.00512544
0.00167718
0.000736698
0.000834279
0.00178634
0.00180102
0.00180093
0.00180259
0.00180587
0.00181065
0.00181676
0.00182479
0.00183603
0.00185259
0.00181387
0.00188853
0.00188666
0.00188607
0.00188658
0.00188844
0.00189189
0.00189739
0.00190685
0.00192455
0.00196537
0.0149556
0.0143203
0.0141282
0.0143115
0.0147226
0.0147722
0.0129462
0.00764375
0.00249475
0.00204501
0.0407385
0.0395098
0.0388432
0.0383057
0.0366928
0.0319824
0.023002
0.0112933
0.0032811
0.0028023
0.0448154
0.0431456
0.0423418
0.0417689
0.0399264
0.0344284
0.0242033
0.0114371
0.00330045
0.0031697
0.0446506
0.0426929
0.0419467
0.0415883
0.0401051
0.0348346
0.0244508
0.0112822
0.00323788
0.00345098
0.0434371
0.041369
0.040641
0.0404166
0.039202
0.0342072
0.0239554
0.0108478
0.00316548
0.003782
0.0418333
0.0398481
0.0392105
0.0390702
0.0380935
0.0334631
0.0235359
0.0105523
0.00312902
0.00409832
0.0351424
0.0336695
0.0332004
0.0331827
0.0326737
0.0293584
0.0210932
0.00938382
0.00285435
0.00417071
0.0123671
0.01206
0.0119988
0.0120567
0.0121869
0.0120301
0.0106116
0.00545481
0.00170676
0.00280086
0.00179643
0.00179397
0.00179348
0.00179467
0.00179747
0.00180157
0.00180774
0.00181757
0.00184184
0.00188914
0.00188403
0.00188242
0.00188189
0.00188235
0.00188394
0.00188672
0.0018907
0.00189669
0.00190563
0.00191916
0.0140596
0.0136428
0.0135085
0.0136591
0.014098
0.014739
0.0151423
0.014215
0.0101114
0.00583654
0.0372076
0.0362393
0.0359006
0.0360468
0.036364
0.035945
0.0330126
0.025362
0.0133434
0.00709913
0.0410783
0.0397735
0.0393429
0.0395687
0.0400658
0.0397141
0.0361948
0.0266161
0.0125396
0.00720416
0.0413078
0.0397913
0.039375
0.0397145
0.0405188
0.0406496
0.0373589
0.026691
0.0114193
0.00717657
0.0405671
0.0389585
0.0385222
0.0389258
0.0399545
0.0405735
0.0376952
0.0261752
0.0103049
0.00724837
0.0394616
0.037894
0.0375007
0.0379087
0.03904
0.0400187
0.0376489
0.0255295
0.00938102
0.00733209
0.0336208
0.0324571
0.0321475
0.0324646
0.0334056
0.0345667
0.0334131
0.0226399
0.0079693
0.00704315
0.0122603
0.0120049
0.0119607
0.0120212
0.012217
0.0124498
0.0126049
0.0106469
0.00448899
0.00445657
0.00178911
0.0017862
0.00178533
0.00178622
0.00178891
0.00179327
0.0018003
0.00181212
0.00183886
0.00189236
0.00187585
0.00187471
0.00187433
0.00187469
0.00187585
0.00187772
0.00188004
0.00188312
0.00188707
0.00189175
0.0134693
0.0132211
0.0131301
0.013226
0.0135173
0.013974
0.0144491
0.0148649
0.014595
0.0128621
0.0340359
0.0333518
0.0331561
0.0333585
0.0339248
0.0346042
0.0346314
0.0324107
0.025687
0.0173826
0.0376417
0.0366996
0.0364309
0.0367222
0.037531
0.0385379
0.0385976
0.0352929
0.0257929
0.0167227
0.0381888
0.0370956
0.0368268
0.0371834
0.0381964
0.0395773
0.0399728
0.0361436
0.024634
0.0158816
0.0378681
0.0366912
0.0363891
0.0367849
0.0379446
0.0396882
0.0405378
0.0363502
0.0231428
0.0153355
0.0372081
0.0360322
0.0357509
0.0361393
0.0373422
0.0392817
0.0405154
0.0360596
0.0215244
0.0148469
0.0322053
0.0313233
0.0310931
0.0313801
0.0322878
0.0339186
0.0354065
0.031999
0.018529
0.0137244
0.0121944
0.011984
0.0119515
0.0119978
0.0121468
0.0123376
0.0125444
0.012673
0.00958889
0.00831982
0.00178019
0.00177715
0.00177614
0.00177695
0.00177966
0.00178432
0.00179192
0.00180462
0.00183077
0.00187812
0.00186477
0.00186408
0.00186384
0.00186408
0.00186484
0.00186595
0.00186714
0.00186857
0.00187014
0.00187161
0.0131874
0.0130498
0.0129896
0.0130493
0.0132291
0.0134905
0.0137221
0.0140112
0.0142929
0.0144154
0.0315035
0.0311021
0.0309954
0.0311205
0.0315043
0.032119
0.0328072
0.0330906
0.0316403
0.0274618
0.0347705
0.0341676
0.0339982
0.0341938
0.0347896
0.0357749
0.0368768
0.0371094
0.0340968
0.0274703
0.0355133
0.0347891
0.0346125
0.0348532
0.0355969
0.0368632
0.0383247
0.0385824
0.0342339
0.0263058
0.0355119
0.0347007
0.0344854
0.0347615
0.0356219
0.0371623
0.0390466
0.0394567
0.0338288
0.0253967
0.0352026
0.0343583
0.0341502
0.0344267
0.03533
0.0370013
0.0391527
0.0396387
0.0328221
0.024445
0.0309611
0.0303133
0.0301379
0.0303457
0.0310157
0.0323209
0.0341935
0.0350287
0.0289294
0.0222951
0.0121762
0.0120027
0.0119792
0.0120106
0.0121121
0.0122305
0.0123011
0.0126963
0.0125745
0.0122121
0.00176985
0.00176679
0.00176571
0.00176646
0.00176914
0.00177388
0.00178153
0.0017939
0.00181661
0.00185324
0.00185133
0.00185098
0.00185086
0.00185101
0.00185145
0.00185202
0.00185254
0.00185313
0.0018537
0.0018541
0.0131458
0.013079
0.0130414
0.0130804
0.0131925
0.013332
0.013424
0.0135394
0.0136595
0.0137515
0.0297456
0.029552
0.0295041
0.0295641
0.0297577
0.0300868
0.0305428
0.0310949
0.0314194
0.0310586
0.032604
0.0322628
0.0321638
0.032271
0.0326169
0.03324
0.034151
0.0351928
0.0354811
0.0339468
0.0333866
0.0329484
0.0328405
0.0329795
0.0334342
0.0342667
0.0355092
0.0369054
0.0369219
0.0340666
0.0335729
0.0330491
0.0329028
0.0330745
0.0336296
0.0346831
0.0363064
0.0381505
0.0378593
0.0338503
0.0334977
0.0329218
0.0327749
0.0329536
0.0335595
0.0347303
0.0365755
0.038689
0.0379501
0.0331027
0.0299085
0.0294531
0.0293255
0.0294659
0.0299196
0.0308151
0.032274
0.0342159
0.033767
0.0299558
0.0122093
0.0120669
0.0120518
0.0120718
0.0121354
0.0121885
0.0121408
0.0123355
0.0127471
0.0136388
0.00175792
0.00175496
0.00175388
0.00175457
0.00175713
0.00176173
0.00176898
0.00178025
0.00179872
0.00182519
0.00183592
0.0018358
0.00183577
0.00183585
0.00183608
0.0018363
0.00183649
0.00183669
0.00183686
0.00183691
0.0132684
0.0132491
0.0132283
0.0132551
0.0133246
0.0133886
0.0134284
0.0134711
0.0135021
0.0134924
0.028685
0.0286077
0.0285924
0.0286175
0.0286999
0.0288346
0.0290271
0.0292925
0.0295747
0.0297929
0.0311269
0.0309494
0.0308949
0.0309476
0.0311259
0.0314509
0.0319518
0.0326492
0.0333502
0.0337463
0.0318251
0.0315788
0.0315178
0.0315905
0.0318411
0.0323044
0.0330402
0.0340992
0.0350958
0.0353912
0.0320802
0.03176
0.0316655
0.0317649
0.0320955
0.0327273
0.0337625
0.035303
0.0366629
0.0367243
0.0321313
0.0317558
0.031657
0.031765
0.0321454
0.032881
0.0341046
0.0359711
0.0374817
0.0371065
0.0290746
0.0287676
0.0286792
0.0287688
0.0290575
0.0296179
0.0305419
0.0321143
0.0335582
0.0335488
0.0123021
0.0121847
0.0121769
0.0121881
0.0122226
0.0122215
0.0121002
0.0121034
0.0122902
0.0129855
0.00174426
0.0017415
0.00174047
0.0017411
0.00174347
0.00174772
0.00175426
0.00176399
0.0017784
0.00179697
0.00181877
0.0018188
0.00181881
0.00181885
0.00181895
0.001819
0.00181903
0.00181907
0.00181908
0.001819
0.0134973
0.0135125
0.0135053
0.013524
0.0135645
0.0135901
0.0136095
0.0136261
0.013627
0.0135852
0.0281276
0.0281055
0.0281055
0.0281157
0.0281466
0.0281919
0.028257
0.0283458
0.0284436
0.0285282
0.0302022
0.0301131
0.0300838
0.0301088
0.0301967
0.0303544
0.0305924
0.030923
0.0312983
0.0316316
0.030757
0.0306255
0.0305933
0.030629
0.0307594
0.0309965
0.0313676
0.0319152
0.0325583
0.0331305
0.0310011
0.0308136
0.030755
0.03081
0.0309978
0.0313508
0.0319229
0.0328123
0.0338838
0.0348229
0.0310982
0.0308623
0.0307988
0.0308607
0.0310893
0.0315233
0.032236
0.033388
0.0347758
0.0359137
0.0284639
0.0282651
0.028207
0.0282612
0.0284344
0.0287594
0.0292741
0.0302066
0.0314657
0.0327024
0.0124608
0.0123624
0.012361
0.0123658
0.0123787
0.0123358
0.0121787
0.0120715
0.0120513
0.0123139
0.00172875
0.00172628
0.00172533
0.0017259
0.00172802
0.00173177
0.00173741
0.00174544
0.00175632
0.00176911
0.00179999
0.0018001
0.00180014
0.00180016
0.00180018
0.00180016
0.00180014
0.00180011
0.00180007
0.00179995
0.0137982
0.0138408
0.0138452
0.0138582
0.013877
0.0138879
0.0138988
0.0139054
0.0138956
0.013843
0.027888
0.0278898
0.0278962
0.0279007
0.0279101
0.0279224
0.0279408
0.0279647
0.0279881
0.028003
0.0296645
0.0296191
0.0296031
0.0296151
0.0296591
0.0297363
0.0298482
0.0299945
0.0301549
0.0302903
0.0300719
0.0300033
0.0299871
0.0300041
0.0300706
0.0301886
0.0303666
0.0306163
0.0309098
0.0311775
0.030267
0.0301603
0.030125
0.0301547
0.0302587
0.0304499
0.0307492
0.0311959
0.031756
0.0323096
0.0303623
0.0302178
0.0301784
0.0302126
0.0303464
0.0305943
0.0309868
0.0316009
0.0323929
0.033191
0.0280625
0.0279384
0.0279024
0.0279335
0.0280309
0.028204
0.0284628
0.0289337
0.0296375
0.0304962
0.0126903
0.0126059
0.0126096
0.0126101
0.0126071
0.0125349
0.0123684
0.0122142
0.0120877
0.0121465
0.00171131
0.00170917
0.00170835
0.00170883
0.00171066
0.00171383
0.0017185
0.00172486
0.00173284
0.0017415
0.00177963
0.00177976
0.00177982
0.00177982
0.00177981
0.00177978
0.00177974
0.00177969
0.00177964
0.00177952
0.0141697
0.0142227
0.0142374
0.0142463
0.0142527
0.0142598
0.0142666
0.0142686
0.0142539
0.0141958
0.0278361
0.0278454
0.0278542
0.0278566
0.0278583
0.0278608
0.0278646
0.0278688
0.0278703
0.0278661
0.0293734
0.0293488
0.0293396
0.0293458
0.029369
0.0294092
0.029465
0.0295334
0.0296035
0.0296563
0.0296581
0.0296218
0.0296136
0.0296218
0.0296563
0.0297162
0.0298028
0.0299163
0.0300426
0.0301475
0.0297965
0.0297364
0.0297155
0.0297315
0.0297889
0.0298919
0.0300473
0.0302648
0.030529
0.030777
0.0298695
0.0297819
0.0297579
0.0297766
0.0298543
0.0299944
0.0302079
0.0305221
0.0309165
0.0312931
0.0278431
0.0277681
0.0277473
0.027764
0.0278143
0.0278952
0.028011
0.0282231
0.028552
0.0289696
0.0129949
0.0129203
0.0129284
0.0129259
0.0129112
0.0128222
0.0126629
0.0125007
0.0123351
0.0123336
0.00169187
0.0016901
0.0016894
0.00168981
0.00169132
0.0016939
0.00169761
0.00170247
0.00170816
0.00171392
0.00175766
0.00175778
0.00175784
0.00175784
0.00175783
0.0017578
0.00175776
0.00175772
0.00175767
0.00175755
0.0146081
0.0146651
0.0146832
0.01469
0.014695
0.0147001
0.0147044
0.0147036
0.0146859
0.0146237
0.0278888
0.0278995
0.0279077
0.0279099
0.0279103
0.0279103
0.0279102
0.0279093
0.0279055
0.0278968
0.0292281
0.0292137
0.029208
0.0292115
0.0292247
0.0292472
0.0292774
0.0293126
0.0293466
0.0293697
0.0294223
0.0294021
0.0293975
0.0294018
0.0294207
0.029453
0.0294978
0.0295527
0.0296099
0.0296537
0.0295124
0.0294784
0.029466
0.0294748
0.0295069
0.0295631
0.029645
0.0297527
0.0298774
0.0299892
0.0295607
0.029507
0.0294924
0.0295029
0.0295486
0.0296285
0.0297463
0.029909
0.0301022
0.0302721
0.0277713
0.0277271
0.0277162
0.0277245
0.0277469
0.0277757
0.0278184
0.0279011
0.0280362
0.0282304
0.0133795
0.0133113
0.0133235
0.0133188
0.0132949
0.0132015
0.0130593
0.0129102
0.0127426
0.0127416
0.00167039
0.00166898
0.00166842
0.00166874
0.00166994
0.00167196
0.00167481
0.00167839
0.00168235
0.00168612
0.00173402
0.00173414
0.00173419
0.00173419
0.00173418
0.00173415
0.00173412
0.00173408
0.00173404
0.00173393
0.0151182
0.0151788
0.0151982
0.0152049
0.0152092
0.0152128
0.0152154
0.0152127
0.0151928
0.0151267
0.0279982
0.0280089
0.0280161
0.0280183
0.0280186
0.0280183
0.0280175
0.0280157
0.0280109
0.0280012
0.0291634
0.0291544
0.0291508
0.0291529
0.0291608
0.029174
0.0291914
0.0292111
0.0292295
0.0292409
0.0292959
0.0292836
0.0292806
0.0292831
0.0292944
0.0293132
0.0293386
0.029368
0.0293968
0.0294178
0.029351
0.0293314
0.0293239
0.029329
0.0293474
0.0293789
0.0294232
0.0294784
0.0295395
0.0295939
0.0293808
0.029347
0.0293379
0.0293442
0.0293719
0.0294191
0.0294863
0.0295739
0.0296718
0.0297539
0.0278111
0.0277857
0.0277811
0.0277846
0.0277912
0.0277947
0.0278031
0.0278265
0.0278719
0.0279699
0.0138506
0.0137868
0.0138029
0.0137964
0.0137646
0.0136789
0.0135591
0.013433
0.0132814
0.0133032
0.00164685
0.00164577
0.00164534
0.00164559
0.0016465
0.00164802
0.00165013
0.00165268
0.00165537
0.0016578
0.00170863
0.00170874
0.00170879
0.00170879
0.00170878
0.00170876
0.00170874
0.00170871
0.00170867
0.00170856
0.0157114
0.0157758
0.0157963
0.015803
0.0158066
0.0158093
0.0158106
0.0158065
0.0157849
0.0157149
0.0281381
0.0281484
0.0281547
0.0281568
0.0281573
0.0281571
0.0281565
0.0281548
0.0281502
0.0281404
0.0291403
0.0291347
0.0291324
0.0291337
0.0291384
0.0291462
0.0291565
0.0291679
0.0291785
0.0291847
0.0292324
0.0292242
0.029222
0.0292236
0.0292308
0.0292428
0.0292586
0.0292761
0.0292925
0.0293043
0.0292648
0.0292532
0.0292486
0.0292516
0.0292625
0.0292807
0.0293054
0.0293349
0.0293663
0.0293952
0.0292848
0.0292627
0.0292569
0.029261
0.0292785
0.0293077
0.0293478
0.0293978
0.0294506
0.0294953
0.0279307
0.0279159
0.027915
0.0279159
0.0279142
0.0279087
0.0279033
0.0279026
0.0279102
0.0279683
0.0144188
0.0143579
0.0143782
0.0143702
0.014333
0.0142654
0.0141696
0.0140694
0.0139406
0.0139913
0.00162124
0.00162045
0.00162014
0.00162032
0.00162098
0.00162209
0.0016236
0.00162535
0.00162713
0.00162868
0.00168142
0.00168152
0.00168156
0.00168156
0.00168155
0.00168154
0.00168152
0.0016815
0.00168147
0.00168137
0.0164057
0.0164742
0.0164955
0.0165021
0.0165055
0.0165073
0.0165077
0.0165028
0.0164799
0.0164057
0.0282945
0.0283042
0.0283097
0.0283116
0.0283122
0.0283123
0.028312
0.0283106
0.0283066
0.028297
0.0291371
0.0291337
0.0291324
0.0291331
0.0291358
0.0291402
0.0291461
0.0291527
0.029159
0.0291625
0.0292028
0.0291971
0.0291953
0.0291964
0.0292012
0.0292093
0.0292198
0.0292312
0.0292414
0.0292489
0.0292217
0.0292146
0.0292117
0.0292135
0.02922
0.0292308
0.0292451
0.0292615
0.0292784
0.029295
0.0292391
0.0292239
0.0292201
0.0292231
0.0292346
0.0292536
0.0292788
0.0293091
0.0293398
0.0293677
0.028105
0.0280934
0.0280947
0.0280943
0.0280901
0.0280832
0.0280744
0.0280662
0.0280601
0.0281015
0.0151142
0.0150444
0.015067
0.0150572
0.0150282
0.0149779
0.0149055
0.0148302
0.0147251
0.0148034
0.00159356
0.001593
0.00159278
0.00159291
0.00159338
0.00159416
0.00159519
0.00159636
0.00159751
0.00159848
0.0016523
0.00165239
0.00165242
0.00165242
0.00165242
0.00165241
0.0016524
0.00165238
0.00165236
0.00165226
0.017227
0.0173
0.0173219
0.0173283
0.0173316
0.0173329
0.0173327
0.0173272
0.0173034
0.0172245
0.0284591
0.0284682
0.0284728
0.0284746
0.0284752
0.0284755
0.0284755
0.0284745
0.0284713
0.0284622
0.0291423
0.0291404
0.0291398
0.0291401
0.0291415
0.0291438
0.0291468
0.0291504
0.0291541
0.0291564
0.0291902
0.0291861
0.0291845
0.0291853
0.0291886
0.0291942
0.0292014
0.0292091
0.029216
0.029221
0.0292011
0.0291966
0.0291947
0.0291958
0.0291998
0.0292063
0.0292148
0.0292242
0.0292337
0.0292439
0.0292204
0.0292097
0.0292071
0.0292094
0.0292173
0.02923
0.0292465
0.0292658
0.0292848
0.0293045
0.0283111
0.0283002
0.0283013
0.028301
0.0282978
0.0282924
0.0282845
0.0282759
0.0282665
0.0283004
0.0159628
0.0158856
0.0159024
0.0158962
0.0158767
0.0158423
0.0157916
0.0157382
0.0156551
0.0157563
0.00156381
0.00156343
0.00156328
0.00156337
0.00156369
0.00156421
0.0015649
0.00156565
0.00156637
0.00156696
0.00162124
0.00162132
0.00162134
0.00162135
0.00162135
0.00162134
0.00162133
0.00162131
0.00162129
0.0016212
0.0182122
0.0182904
0.0183124
0.0183185
0.0183218
0.0183227
0.0183221
0.0183166
0.0182923
0.0182083
0.0286262
0.0286344
0.0286382
0.0286396
0.0286403
0.0286407
0.0286409
0.0286405
0.0286381
0.0286299
0.02915
0.0291492
0.0291489
0.0291491
0.0291496
0.0291506
0.0291519
0.0291537
0.0291557
0.0291573
0.029185
0.029182
0.0291807
0.0291811
0.0291834
0.0291872
0.0291921
0.0291973
0.0292021
0.0292056
0.029191
0.029188
0.0291867
0.0291873
0.0291898
0.0291938
0.0291989
0.0292044
0.02921
0.0292164
0.0292135
0.029206
0.0292041
0.0292059
0.0292114
0.02922
0.029231
0.0292435
0.0292557
0.0292706
0.0285301
0.0285197
0.0285204
0.0285204
0.0285186
0.0285153
0.02851
0.0285037
0.0284951
0.0285243
0.0170031
0.0169203
0.0169312
0.0169282
0.0169174
0.0168973
0.0168664
0.0168313
0.0167678
0.0168855
0.00153201
0.00153176
0.00153166
0.00153172
0.00153193
0.00153226
0.0015327
0.00153317
0.0015336
0.00153396
0.0015883
0.00158836
0.00158838
0.00158839
0.00158839
0.00158838
0.00158837
0.00158836
0.00158834
0.00158825
0.0194155
0.0194994
0.0195218
0.0195274
0.0195301
0.0195306
0.0195298
0.0195245
0.0195006
0.0194109
0.0287896
0.0287966
0.0287994
0.0288004
0.028801
0.0288015
0.028802
0.028802
0.0288006
0.0287939
0.0291573
0.029157
0.029157
0.0291571
0.0291572
0.0291574
0.0291578
0.0291584
0.0291595
0.0291608
0.0291817
0.0291796
0.0291785
0.0291787
0.0291802
0.0291827
0.0291859
0.0291894
0.0291926
0.0291952
0.0291846
0.0291825
0.0291816
0.0291819
0.0291834
0.0291858
0.0291888
0.0291921
0.0291954
0.0291995
0.0292088
0.0292035
0.0292023
0.0292035
0.0292073
0.029213
0.0292201
0.0292281
0.0292359
0.0292472
0.0287443
0.0287348
0.0287352
0.0287354
0.0287348
0.0287334
0.0287307
0.0287271
0.0287206
0.0287458
0.018292
0.0182063
0.0182109
0.0182107
0.0182076
0.0182006
0.0181879
0.018168
0.0181229
0.0182487
0.00149825
0.00149809
0.00149802
0.00149806
0.00149819
0.0014984
0.00149867
0.00149894
0.00149921
0.00149941
0.00155369
0.00155375
0.00155376
0.00155377
0.00155377
0.00155376
0.00155375
0.00155374
0.00155372
0.00155364
0.0209195
0.0210089
0.0210314
0.0210365
0.0210375
0.0210376
0.0210369
0.0210322
0.0210096
0.0209144
0.0289407
0.0289459
0.0289475
0.028948
0.0289484
0.028949
0.0289497
0.0289503
0.0289499
0.0289456
0.0291624
0.0291623
0.0291624
0.0291624
0.0291624
0.0291623
0.0291622
0.0291623
0.0291627
0.0291639
0.029178
0.0291764
0.0291756
0.0291756
0.0291765
0.029178
0.02918
0.0291823
0.0291845
0.0291864
0.0291786
0.0291773
0.0291767
0.0291768
0.0291776
0.029179
0.0291807
0.0291825
0.0291844
0.0291869
0.0291999
0.0291965
0.0291956
0.0291964
0.0291988
0.0292023
0.0292066
0.0292113
0.0292161
0.0292242
0.0289344
0.0289263
0.0289264
0.0289268
0.0289269
0.0289267
0.0289258
0.0289242
0.02892
0.0289407
0.0199129
0.0198276
0.019825
0.0198271
0.0198311
0.0198366
0.019842
0.0198355
0.0198102
0.0199326
0.00146271
0.00146261
0.00146257
0.00146259
0.00146267
0.0014628
0.00146296
0.00146312
0.00146329
0.0014634
0.00151762
0.00151766
0.00151767
0.00151767
0.00151766
0.00151766
0.00151766
0.00151765
0.00151764
0.00151759
0.0228571
0.0229491
0.0229688
0.0229729
0.0229737
0.0229736
0.0229727
0.0229687
0.0229488
0.0228508
0.0290673
0.0290699
0.0290702
0.0290702
0.0290704
0.029071
0.0290718
0.0290728
0.0290736
0.0290724
0.0291644
0.0291643
0.0291645
0.0291645
0.0291644
0.0291643
0.0291642
0.0291641
0.0291641
0.0291651
0.0291734
0.0291724
0.0291718
0.0291718
0.0291722
0.0291731
0.0291743
0.0291756
0.029177
0.0291784
0.0291729
0.0291721
0.0291717
0.0291717
0.0291721
0.0291729
0.0291737
0.0291747
0.0291757
0.0291771
0.0291853
0.0291833
0.0291828
0.0291832
0.0291845
0.0291865
0.0291888
0.0291913
0.0291939
0.029199
0.0290791
0.029073
0.029073
0.0290732
0.0290734
0.0290736
0.0290733
0.0290729
0.0290709
0.0290865
0.0220125
0.0219341
0.0219321
0.0219339
0.021937
0.0219412
0.0219454
0.0219483
0.0219492
0.0220523
0.00142553
0.00142547
0.00142544
0.00142545
0.0014255
0.00142558
0.00142568
0.00142578
0.0014259
0.00142596
0.00147923
0.00147922
0.00147921
0.0014792
0.0014792
0.0014792
0.00147921
0.00147923
0.00147925
0.00147927
0.0254657
0.0255462
0.02556
0.0255629
0.0255635
0.0255632
0.0255621
0.0255588
0.025544
0.0254558
0.0291557
0.0291555
0.0291548
0.0291543
0.0291543
0.0291548
0.0291557
0.0291569
0.0291586
0.0291604
0.0291643
0.0291643
0.0291643
0.0291644
0.0291644
0.0291644
0.0291644
0.0291643
0.0291643
0.0291647
0.0291699
0.0291692
0.0291689
0.0291689
0.0291691
0.0291697
0.0291703
0.0291711
0.029172
0.0291729
0.0291693
0.0291688
0.0291686
0.0291686
0.0291689
0.0291693
0.0291699
0.0291705
0.029171
0.0291717
0.0291715
0.0291705
0.0291702
0.0291704
0.0291711
0.0291722
0.0291734
0.0291747
0.029176
0.0291783
0.0291667
0.0291629
0.0291625
0.0291624
0.0291624
0.0291624
0.0291623
0.0291624
0.0291626
0.0291724
0.0249072
0.0248484
0.0248473
0.0248485
0.0248505
0.0248533
0.0248561
0.0248579
0.0248582
0.0249351
0.00138594
0.00138589
0.00138587
0.00138588
0.00138592
0.00138598
0.00138606
0.00138614
0.00138622
0.00138626
0.00234416
0.00236504
0.00235482
0.0023209
0.00141082
0.00143384
0.0014312
0.00142636
0.00188742
0.00192951
0.00192037
0.00189569
0.00227439
0.00233256
0.00231303
0.00226679
0.00262186
0.00269301
0.00266101
0.00259652
0.00296331
0.00304562
0.00300538
0.00293188
0.00324541
0.00333588
0.00329356
0.00322024
0.00341313
0.00350996
0.0034699
0.00340126
0.00304488
0.00313442
0.00309556
0.00303986
0.00237485
0.00239149
0.00235661
0.00227536
0.00202755
0.00203326
0.00203438
0.00203136
0.00235372
0.00243409
0.00233412
0.00214227
0.00330848
0.00342304
0.0032926
0.00305473
0.00407215
0.00424062
0.00408198
0.00378401
0.00485401
0.00508999
0.00489543
0.00451972
0.00582887
0.00615494
0.00591342
0.00542881
0.00679509
0.00720888
0.00690728
0.00630943
0.00749284
0.00799101
0.00763287
0.00693805
0.00591696
0.00635375
0.0060009
0.0054043
0.0021817
0.00221404
0.00220718
0.0021714
0.00193322
0.00193527
0.00193542
0.00193417
0.00406636
0.00404198
0.0040524
0.00414348
0.00499165
0.00497311
0.00499327
0.00509756
0.00549652
0.00551626
0.00553612
0.00558593
0.00601151
0.00606562
0.00606892
0.00602736
0.00675454
0.00685132
0.00681169
0.00663386
0.00751256
0.00763606
0.00752249
0.00718468
0.00805074
0.00821133
0.00802408
0.00752535
0.00612437
0.00626423
0.00608831
0.00560738
0.00204806
0.00206516
0.00206325
0.00204549
0.00189448
0.00189471
0.00189483
0.00189487
0.0102407
0.00996216
0.0100981
0.0106128
0.011948
0.011614
0.011917
0.0128105
0.0114411
0.0112601
0.0116323
0.0125273
0.0110908
0.0110297
0.0114267
0.012257
0.0112088
0.0112514
0.0116418
0.0123687
0.0114049
0.0115067
0.0118454
0.0124239
0.0113548
0.0115321
0.0118023
0.0121732
0.00801813
0.00820278
0.00832596
0.00836712
0.00195682
0.00196728
0.00196825
0.00196025
0.00187255
0.0018726
0.00187263
0.00187264
0.0144913
0.0144314
0.0144596
0.0145689
0.0238421
0.0235187
0.0237065
0.0243336
0.0222465
0.0219545
0.0223072
0.023234
0.020382
0.0202026
0.0206825
0.0217899
0.0193319
0.0193016
0.0198725
0.0210708
0.0185189
0.0185939
0.0191867
0.0203781
0.0173313
0.0175434
0.0180985
0.0191106
0.0108801
0.0111154
0.0113568
0.0116701
0.00189358
0.00190007
0.00190153
0.00189813
0.00185452
0.00185449
0.00185448
0.00185447
0.014087
0.0140134
0.014004
0.0140589
0.0304047
0.0302979
0.030324
0.0304711
0.0317986
0.0315599
0.0316505
0.0320274
0.0304333
0.0301461
0.0303666
0.0310252
0.0290263
0.0288084
0.0291975
0.0301269
0.02745
0.0273223
0.0278369
0.028965
0.0247754
0.0248404
0.0253975
0.0264743
0.0131737
0.0134059
0.0135815
0.013742
0.00184565
0.00184958
0.00185085
0.0018495
0.00183721
0.00183717
0.00183715
0.00183714
0.0137854
0.0136947
0.0136771
0.0137314
0.0299167
0.0299198
0.0299342
0.02996
0.0336764
0.0336799
0.0337125
0.0337714
0.0348258
0.0347797
0.0348408
0.034997
0.0353472
0.0352624
0.0353987
0.0357259
0.0347088
0.0345954
0.0348275
0.0353616
0.0310993
0.0311309
0.0314427
0.0320075
0.013316
0.0135932
0.0136543
0.0135466
0.00180731
0.0018097
0.00181064
0.00181013
0.00181928
0.00181923
0.0018192
0.00181919
0.013865
0.0137678
0.0137477
0.0138033
0.0286255
0.0286188
0.0286218
0.0286347
0.0317597
0.031786
0.0318034
0.0318123
0.0333174
0.0333628
0.0333957
0.0334173
0.0350531
0.0351263
0.0351875
0.0352388
0.0359195
0.0359839
0.0360697
0.0361777
0.0326215
0.0327796
0.0329059
0.0330042
0.0123925
0.0126489
0.0126892
0.0125503
0.00177447
0.00177599
0.00177663
0.00177639
0.00180022
0.00180016
0.00180013
0.00180012
0.0141242
0.0140238
0.0140027
0.0140595
0.0280679
0.0280552
0.0280538
0.028064
0.0303414
0.0303494
0.0303545
0.0303568
0.0312805
0.0313019
0.0313147
0.0313194
0.0325579
0.0326148
0.0326461
0.0326533
0.0334934
0.033572
0.0336154
0.0336285
0.0307734
0.030941
0.0310092
0.0309858
0.0119574
0.012182
0.0122235
0.0121017
0.00174439
0.00174542
0.00174582
0.00174564
0.00177979
0.00177972
0.00177969
0.00177969
0.0144824
0.0143791
0.0143572
0.0144154
0.0279208
0.0279073
0.0279051
0.0279144
0.0296739
0.029675
0.0296759
0.0296768
0.0301788
0.030184
0.0301873
0.0301888
0.0308811
0.030904
0.0309162
0.030918
0.0314139
0.0314469
0.0314648
0.031469
0.0290409
0.0291509
0.0291907
0.0291616
0.0120324
0.0122517
0.0122932
0.0121708
0.00171552
0.00171627
0.00171652
0.00171634
0.00175782
0.00175775
0.00175772
0.00175772
0.0149175
0.014811
0.0147884
0.0148481
0.0279469
0.0279339
0.0279316
0.0279403
0.0293773
0.0293769
0.0293769
0.0293776
0.0296628
0.0296636
0.0296643
0.0296647
0.0300318
0.0300408
0.0300454
0.0300457
0.0302997
0.0303103
0.0303165
0.0303185
0.028184
0.0282586
0.028283
0.0282564
0.0123976
0.0126283
0.0126709
0.0125391
0.00168702
0.00168759
0.00168776
0.00168756
0.00173421
0.00173413
0.0017341
0.00173411
0.0154295
0.0153192
0.0152957
0.0153571
0.0280476
0.0280354
0.0280331
0.0280411
0.0292453
0.0292445
0.0292445
0.029245
0.0294212
0.0294212
0.0294212
0.0294213
0.029615
0.0296193
0.0296214
0.0296213
0.0297541
0.0297577
0.0297599
0.0297606
0.0278874
0.0279462
0.0279637
0.0279389
0.0129391
0.0131888
0.0132342
0.0130902
0.00165829
0.00165877
0.00165887
0.00165867
0.00170886
0.00170877
0.00170874
0.00170875
0.0160282
0.0159136
0.0158889
0.0159525
0.0281829
0.0281714
0.0281691
0.0281765
0.0291876
0.0291869
0.0291868
0.0291874
0.029306
0.0293059
0.0293059
0.0293059
0.0294079
0.0294105
0.0294117
0.0294115
0.0294902
0.029492
0.0294931
0.0294932
0.0278809
0.0279317
0.0279459
0.027923
0.0136128
0.0138854
0.0139346
0.013777
0.00162893
0.00162934
0.00162941
0.00162921
0.00168167
0.00168158
0.00168154
0.00168156
0.0167316
0.0166116
0.0165855
0.0166516
0.0283352
0.0283244
0.0283223
0.0283289
0.0291646
0.029164
0.0291639
0.0291644
0.0292501
0.02925
0.02925
0.0292499
0.0293037
0.0293054
0.0293062
0.0293059
0.0293637
0.0293653
0.029366
0.0293658
0.0280199
0.0280652
0.0280775
0.0280566
0.0144106
0.0147091
0.0147627
0.0145901
0.00159859
0.00159895
0.00159899
0.00159879
0.00165258
0.00165248
0.00165244
0.00165246
0.0175654
0.0174388
0.0174109
0.0174801
0.0284957
0.0284858
0.0284837
0.0284896
0.0291578
0.0291574
0.0291573
0.0291578
0.0292219
0.0292219
0.0292219
0.0292218
0.0292501
0.0292513
0.0292518
0.0292515
0.029303
0.0293047
0.0293053
0.0293049
0.0282291
0.0282698
0.0282806
0.0282615
0.0153473
0.0156746
0.0157329
0.0155436
0.00156699
0.00156731
0.00156734
0.00156715
0.00162153
0.00162142
0.00162139
0.00162142
0.018567
0.018432
0.0184019
0.0184747
0.0286582
0.0286493
0.0286473
0.0286525
0.0291585
0.0291581
0.0291582
0.0291585
0.0292064
0.0292064
0.0292063
0.0292063
0.0292209
0.0292218
0.0292221
0.0292218
0.0292717
0.0292734
0.0292739
0.0292733
0.0284662
0.0285025
0.0285118
0.0284943
0.0164563
0.0168156
0.0168787
0.0166706
0.00153394
0.00153423
0.00153425
0.00153407
0.00158861
0.00158849
0.00158845
0.00158849
0.0197909
0.0196449
0.0196115
0.0196891
0.0288165
0.0288087
0.0288069
0.0288114
0.0291617
0.0291615
0.0291616
0.0291618
0.0291959
0.029196
0.029196
0.029196
0.0292028
0.0292034
0.0292035
0.0292033
0.0292501
0.0292517
0.0292522
0.0292515
0.0287032
0.0287351
0.0287429
0.0287268
0.017792
0.0181855
0.0182528
0.0180246
0.00149937
0.00149962
0.00149963
0.00149948
0.00155402
0.0015539
0.00155386
0.0015539
0.0213175
0.0211558
0.0211181
0.0212022
0.0289639
0.0289578
0.0289564
0.0289598
0.0291646
0.0291646
0.0291646
0.0291647
0.0291872
0.0291873
0.0291873
0.0291873
0.0291891
0.0291895
0.0291896
0.0291894
0.0292278
0.0292293
0.0292297
0.029229
0.0289154
0.0289427
0.0289487
0.028934
0.0194339
0.0198571
0.0199272
0.0196809
0.00146337
0.00146357
0.00146358
0.00146346
0.00151801
0.00151789
0.00151785
0.0015179
0.023272
0.0230878
0.0230444
0.0231382
0.0290875
0.0290837
0.0290827
0.0290849
0.0291654
0.0291654
0.0291654
0.0291654
0.0291792
0.0291794
0.0291794
0.0291795
0.0291783
0.0291786
0.0291786
0.0291785
0.0292021
0.0292032
0.0292034
0.0292029
0.0290779
0.0290995
0.0291036
0.029091
0.0215226
0.0219752
0.0220422
0.0217744
0.00142605
0.00142621
0.00142622
0.00142613
0.00147973
0.00147963
0.00147962
0.00147967
0.0258484
0.0256396
0.025594
0.0257012
0.0291705
0.029169
0.0291685
0.0291694
0.0291643
0.0291642
0.0291642
0.0291641
0.0291734
0.0291736
0.0291737
0.0291737
0.0291721
0.0291722
0.0291722
0.0291722
0.0291797
0.0291802
0.0291803
0.0291801
0.0291745
0.0291868
0.0291887
0.029181
0.0244722
0.0248972
0.0249468
0.0246872
0.00138663
0.00138677
0.00138677
0.00138667
0.00215547
0.00203892
0.00197451
0.00194197
0.00192285
0.00191046
0.00190229
0.0018971
0.00189376
0.00189148
0.00174757
0.00158348
0.00476613
0.00942449
0.0139347
0.017122
0.0186321
0.0187827
0.0181506
0.01721
0.00236399
0.00257483
0.00732593
0.0155538
0.0249581
0.0330788
0.039063
0.0428651
0.0447404
0.0451262
0.00276882
0.00359794
0.00828956
0.0178412
0.0291678
0.0385195
0.0449936
0.0487231
0.0501595
0.0499499
0.00307736
0.00394232
0.00871665
0.0193456
0.0320844
0.0419654
0.0481494
0.0510019
0.0513168
0.0501042
0.00338903
0.00407108
0.00893778
0.0204175
0.0342677
0.0443128
0.0498907
0.0516807
0.0509052
0.0488651
0.00363103
0.00408401
0.00896739
0.0211691
0.0358995
0.0457604
0.0504397