/*--------------------------------*- C++ -*----------------------------------*\
| =========                 |                                                 |
| \\      /  F ield         | foam-extend: Open Source CFD                    |
|  \\    /   O peration     | Version:     4.0                                |
|   \\  /    A nd           | Web:         http://www.foam-extend.org         |
|    \\/     M anipulation  |                                                 |
\*---------------------------------------------------------------------------*/
FoamFile
{
    version     2.0;
    format      ascii;
    class       volScalarField;
    location    "1800";
    object      divFlux;
}
// * * * * * * * * * * * * * * * * * * * * * * * * * * * * * * * * * * * * * //

dimensions      [1 -3 -1 0 0 0 0];

internalField   nonuniform List<scalar> 
34480
(
6.79615e-05
2.56223e-05
2.59979e-05
2.41827e-05
2.25968e-05
2.13292e-05
2.03483e-05
0.000929957
0.02064
1.82063e-05
2.10553e-05
1.1412e-05
1.10928e-05
1.03649e-05
9.83254e-06
9.60184e-06
9.60619e-06
9.63036e-06
0.00804109
9.28259e-06
5.92356e-06
3.95732e-06
3.75063e-06
3.60002e-06
3.55324e-06
3.68099e-06
3.88337e-06
4.01899e-06
0.000543293
3.95517e-06
2.20644e-06
1.55873e-06
1.48317e-06
1.43674e-06
1.43747e-06
1.5141e-06
1.60807e-06
1.66637e-06
0.000467557
1.64461e-06
9.02992e-07
6.62482e-07
6.2995e-07
6.11491e-07
6.12997e-07
6.46445e-07
6.83493e-07
7.0673e-07
7.14127e-07
6.98417e-07
4.07548e-07
2.83106e-07
2.87001e-07
2.71078e-07
2.74801e-07
2.88375e-07
3.03267e-07
3.11629e-07
3.15008e-07
3.08307e-07
1.82507e-07
1.32876e-07
1.33894e-07
1.2529e-07
1.2748e-07
1.33029e-07
1.39647e-07
1.43414e-07
1.46011e-07
1.41989e-07
8.48058e-08
7.14781e-08
6.46969e-08
6.40096e-08
6.32765e-08
6.66213e-08
6.80417e-08
7.01035e-08
7.16614e-08
7.03785e-08
6.38919e-08
4.09041e-08
4.2362e-08
3.73636e-08
3.71553e-08
3.72386e-08
3.77801e-08
3.79051e-08
3.99461e-08
3.90297e-08
4.2402e-08
2.77589e-08
3.03935e-08
2.6957e-08
2.51624e-08
2.49715e-08
2.52006e-08
2.5697e-08
2.66134e-08
2.71098e-08
9.41158e-05
3.31532e-05
3.34583e-05
3.1575e-05
2.98388e-05
2.85106e-05
2.76224e-05
2.71476e-05
2.70802e-05
0.00102539
3.20104e-05
1.68488e-05
1.63412e-05
1.54299e-05
1.47845e-05
1.45157e-05
1.45449e-05
1.48185e-05
1.52896e-05
0.00041062
9.57392e-06
6.6524e-06
6.26857e-06
6.06522e-06
6.05249e-06
6.27739e-06
6.60039e-06
6.96807e-06
7.34849e-06
0.00294773
3.9654e-06
2.97964e-06
2.80497e-06
2.74232e-06
2.77008e-06
2.91256e-06
3.08393e-06
3.27071e-06
3.45763e-06
0.00152126
1.81252e-06
1.40771e-06
1.32502e-06
1.29842e-06
1.31406e-06
1.38532e-06
1.46382e-06
1.5529e-06
1.6432e-06
1.68393e-06
1.26499e-06
5.98463e-07
6.762e-07
6.30516e-07
6.47874e-07
6.80246e-07
7.16026e-07
7.57823e-07
8.03027e-07
8.15739e-07
7.41601e-07
2.81744e-07
3.53067e-07
3.12507e-07
3.30161e-07
3.42608e-07
3.60545e-07
3.81701e-07
4.04986e-07
4.10145e-07
5.12939e-07
1.9662e-07
1.68336e-07
1.80178e-07
1.80817e-07
1.84991e-07
1.95853e-07
2.07013e-07
2.19962e-07
2.22864e-07
4.0581e-08
1.28909e-07
1.59345e-07
1.06295e-07
1.27476e-07
1.18879e-07
1.24301e-07
1.29567e-07
1.37428e-07
1.40923e-07
8.5388e-07
1.48657e-07
2.35339e-07
4.19563e-08
1.15611e-07
8.9308e-08
9.72237e-08
1.00099e-07
1.06275e-07
1.1041e-07
8.92423e-05
2.5615e-05
2.653e-05
2.51476e-05
2.38138e-05
2.28536e-05
2.23298e-05
2.22705e-05
0.000534514
0.00106237
2.8439e-05
1.2309e-05
1.21389e-05
1.14384e-05
1.08446e-05
1.045e-05
1.03276e-05
1.05555e-05
0.000253689
0.000129507
8.06819e-06
4.68156e-06
4.42088e-06
4.20595e-06
4.04122e-06
3.97287e-06
4.04086e-06
4.29524e-06
1.77209e-05
0.000950115
3.08163e-06
1.93803e-06
1.82075e-06
1.74288e-06
1.6782e-06
1.65526e-06
1.69169e-06
1.81755e-06
2.03574e-06
2.5399e-06
1.26372e-06
8.47229e-07
7.87379e-07
7.57454e-07
7.2685e-07
7.15876e-07
7.30923e-07
7.87888e-07
8.92427e-07
1.13463e-06
6.64959e-07
3.34455e-07
3.70192e-07
3.37672e-07
3.27971e-07
3.21388e-07
3.27426e-07
3.54106e-07
4.05286e-07
5.22512e-07
3.12317e-07
1.49417e-07
1.78147e-07
1.56192e-07
1.53772e-07
1.49417e-07
1.52936e-07
1.66048e-07
1.91743e-07
2.51511e-07
1.59679e-07
9.31346e-08
8.03444e-08
8.32351e-08
7.78498e-08
7.6543e-08
7.76518e-08
8.38291e-08
9.8124e-08
1.30896e-07
4.2339e-08
6.32129e-08
5.71292e-08
4.99295e-08
4.93536e-08
4.76977e-08
4.78416e-08
5.15495e-08
5.87131e-08
7.99813e-08
1.65049e-07
2.63987e-09
4.95306e-08
2.87746e-08
3.39883e-08
3.12165e-08
3.19754e-08
3.36253e-08
3.86411e-08
5.73739e-08
8.90489e-05
2.34654e-05
2.44557e-05
2.32485e-05
2.20652e-05
2.12237e-05
2.07833e-05
2.0773e-05
0.000109374
0.000565776
2.85293e-05
1.1619e-05
1.15113e-05
1.08481e-05
1.02771e-05
9.86909e-06
9.67192e-06
9.74011e-06
0.000217073
9.26632e-05
8.3141e-06
4.57275e-06
4.3443e-06
4.11125e-06
3.91456e-06
3.78428e-06
3.76106e-06
3.88806e-06
5.66928e-05
0.00195997
3.19143e-06
1.92964e-06
1.81951e-06
1.73221e-06
1.65042e-06
1.59557e-06
1.59051e-06
1.65957e-06
0.000242031
0.00277112
1.30641e-06
8.56557e-07
7.94135e-07
7.61688e-07
7.23298e-07
6.98529e-07
6.95374e-07
7.30292e-07
0.000202576
0.00302669
6.62445e-07
3.49021e-07
3.72581e-07
3.44144e-07
3.28499e-07
3.16719e-07
3.15339e-07
3.32042e-07
8.79203e-05
0.00279686
3.11105e-07
1.57104e-07
1.81523e-07
1.59599e-07
1.55305e-07
1.49333e-07
1.47697e-07
1.56695e-07
1.79232e-07
0.00167327
1.39337e-07
1.02079e-07
8.35259e-08
8.42621e-08
7.93661e-08
7.64948e-08
7.60531e-08
8.09858e-08
9.31705e-08
0.000865126
7.05525e-08
5.66232e-08
6.04717e-08
5.07333e-08
5.03986e-08
4.81899e-08
4.88258e-08
5.06664e-08
5.83634e-08
7.65956e-08
1.28056e-07
1.3559e-08
4.32231e-08
3.1474e-08
3.4327e-08
3.17195e-08
3.28238e-08
3.47564e-08
3.90511e-08
5.5743e-08
8.78195e-05
2.126e-05
2.22297e-05
2.11747e-05
2.01352e-05
1.93801e-05
1.89778e-05
1.89354e-05
9.30935e-05
0.00025118
2.80772e-05
1.07587e-05
1.07123e-05
1.01068e-05
9.58745e-06
9.21217e-06
8.9994e-06
8.96702e-06
0.000151884
0.000131636
8.41146e-06
4.3692e-06
4.17824e-06
3.94851e-06
3.75382e-06
3.61009e-06
3.53662e-06
3.55818e-06
9.97935e-05
0.00140953
3.24816e-06
1.87813e-06
1.77801e-06
1.68989e-06
1.60661e-06
1.54499e-06
1.51347e-06
1.53016e-06
0.000307018
0.00227588
1.3277e-06
8.46298e-07
7.82548e-07
7.50233e-07
7.12345e-07
6.83697e-07
6.7079e-07
6.80128e-07
0.00037668
0.00291621
6.62872e-07
3.52353e-07
3.68951e-07
3.426e-07
3.26345e-07
3.13212e-07
3.06625e-07
3.12228e-07
0.000476622
0.00333803
3.15955e-07
1.57685e-07
1.8107e-07
1.60955e-07
1.54833e-07
1.48331e-07
1.45898e-07
1.48864e-07
0.000102785
0.0030546
1.25937e-07
1.04786e-07
8.45271e-08
8.37742e-08
8.06943e-08
7.58691e-08
7.5698e-08
7.7717e-08
0.000192068
0.00307549
9.00798e-08
5.01189e-08
6.11009e-08
5.03989e-08
5.03678e-08
4.86879e-08
4.84701e-08
5.01812e-08
5.47855e-08
0.00220655
1.04468e-07
2.3898e-08
3.96969e-08
3.40504e-08
3.28241e-08
3.2653e-08
3.26245e-08
3.41074e-08
3.86988e-08
0.00308725
8.48455e-05
1.90369e-05
1.98826e-05
1.89488e-05
1.80416e-05
1.73744e-05
1.69909e-05
1.69076e-05
1.71227e-05
5.66356e-05
2.7137e-05
9.78106e-06
9.78373e-06
9.24147e-06
8.77512e-06
8.43639e-06
8.23445e-06
8.16915e-06
3.96133e-05
0.000158457
8.32357e-06
4.08858e-06
3.93247e-06
3.71684e-06
3.53372e-06
3.39498e-06
3.30717e-06
3.27695e-06
0.000128906
0.000985555
3.24161e-06
1.78962e-06
1.70324e-06
1.61652e-06
1.53845e-06
1.477e-06
1.4372e-06
1.42387e-06
0.000337547
0.0016966
1.32248e-06
8.21561e-07
7.56025e-07
7.26348e-07
6.89853e-07
6.61994e-07
6.43678e-07
6.40043e-07
0.000467002
0.00235634
6.58189e-07
3.46847e-07
3.57504e-07
3.34718e-07
3.18771e-07
3.05489e-07
2.97337e-07
2.96104e-07
0.000679841
0.00299474
3.20819e-07
1.53341e-07
1.76459e-07
1.58962e-07
1.51927e-07
1.45883e-07
1.41888e-07
1.43055e-07
0.000485517
0.00310282
1.17777e-07
1.03553e-07
8.50375e-08
8.22379e-08
7.87385e-08
7.60025e-08
7.41891e-08
7.46663e-08
0.000750966
0.00358345
1.02727e-07
4.58115e-08
5.97516e-08
5.00918e-08
4.91953e-08
4.7807e-08
4.75757e-08
4.89639e-08
0.000264843
0.00345714
8.84548e-08
3.01698e-08
3.71158e-08
3.36428e-08
3.26089e-08
3.14689e-08
3.14159e-08
3.33247e-08
0.000687071
0.00423202
8.01008e-05
1.69779e-05
1.7567e-05
1.66663e-05
1.58731e-05
1.52885e-05
1.49359e-05
1.48221e-05
1.49488e-05
1.50431e-05
2.57351e-05
8.7397e-06
8.77149e-06
8.29049e-06
7.87604e-06
7.57297e-06
7.3831e-06
7.30539e-06
7.64809e-07
0.000122791
8.03908e-06
3.74286e-06
3.61959e-06
3.42218e-06
3.25632e-06
3.12752e-06
3.04022e-06
2.99308e-06
0.00011772
0.000662187
3.1633e-06
1.66739e-06
1.59707e-06
1.51448e-06
1.44188e-06
1.38465e-06
1.34384e-06
1.31887e-06
0.000302388
0.00120502
1.28518e-06
7.83525e-07
7.177e-07
6.88421e-07
6.55635e-07
6.29567e-07
6.10639e-07
5.99696e-07
0.000444385
0.00174846
6.42573e-07
3.36267e-07
3.39447e-07
3.21369e-07
3.05953e-07
2.93532e-07
2.84918e-07
2.80371e-07
0.000711533
0.00238164
3.24637e-07
1.45312e-07
1.6953e-07
1.5379e-07
1.47415e-07
1.41861e-07
1.37622e-07
1.35683e-07
0.000618563
0.00260129
1.1277e-07
9.97859e-08
8.37267e-08
7.93201e-08
7.68949e-08
7.34051e-08
7.17785e-08
7.20446e-08
0.000969709
0.00324739
1.10725e-07
4.1163e-08
5.90962e-08
4.83685e-08
4.78577e-08
4.63252e-08
4.5895e-08
4.67016e-08
0.000622248
0.00334499
7.63464e-08
3.29022e-08
3.42823e-08
3.32718e-08
3.13988e-08
3.04622e-08
3.0684e-08
3.19163e-08
0.000971359
0.00394966
7.26427e-05
1.51457e-05
1.54076e-05
1.44271e-05
1.3676e-05
1.31784e-05
1.28741e-05
1.27644e-05
1.2836e-05
1.36239e-05
2.39068e-05
7.66943e-06
7.72157e-06
7.29517e-06
6.92957e-06
6.66206e-06
6.48609e-06
6.40523e-06
3.04121e-06
6.31643e-05
7.5857e-06
3.35187e-06
3.25572e-06
3.08028e-06
2.93217e-06
2.81582e-06
2.73358e-06
2.68349e-06
7.58713e-05
0.000387248
3.01925e-06
1.51618e-06
1.46362e-06
1.38821e-06
1.32198e-06
1.26942e-06
1.23003e-06
1.20384e-06
0.000218599
0.000778294
1.21423e-06
7.32203e-07
6.67081e-07
6.38449e-07
6.09973e-07
5.8511e-07
5.66454e-07
5.54317e-07
0.000339492
0.00118862
6.13576e-07
3.19858e-07
3.16868e-07
3.01677e-07
2.87174e-07
2.76383e-07
2.66897e-07
2.6212e-07
0.000612937
0.00175154
3.22877e-07
1.37745e-07
1.58457e-07
1.46084e-07
1.39333e-07
1.33895e-07
1.30749e-07
1.28183e-07
0.000564342
0.00196883
1.08753e-07
9.24346e-08
8.08322e-08
7.56083e-08
7.32988e-08
7.04395e-08
6.85424e-08
6.83224e-08
0.000950292
0.00262917
1.15586e-07
3.67169e-08
5.60626e-08
4.62398e-08
4.5465e-08
4.38653e-08
4.35904e-08
4.40403e-08
0.000666835
0.00265862
6.6407e-08
3.5261e-08
3.18471e-08
3.09994e-08
2.95331e-08
2.88457e-08
2.90978e-08
2.96705e-08
0.000984976
0.00318137
6.20152e-05
1.35259e-05
1.35878e-05
1.2445e-05
1.16065e-05
1.11078e-05
1.08482e-05
1.07649e-05
1.08313e-05
1.14439e-05
2.17456e-05
6.59233e-06
6.66377e-06
6.29213e-06
5.97277e-06
5.73574e-06
5.58229e-06
5.50398e-06
5.47829e-06
1.49388e-05
6.98023e-06
2.94599e-06
2.86167e-06
2.7076e-06
2.57866e-06
2.47647e-06
2.40074e-06
2.35243e-06
3.58799e-05
0.000201298
2.82809e-06
1.34178e-06
1.30987e-06
1.24231e-06
1.18374e-06
1.13596e-06
1.09941e-06
1.07294e-06
0.000134012
0.00045636
1.1161e-06
6.67792e-07
6.07618e-07
5.78773e-07
5.53506e-07
5.31525e-07
5.14765e-07
5.01328e-07
0.000221498
0.000733261
5.67851e-07
2.9898e-07
2.89491e-07
2.76776e-07
2.64507e-07
2.53772e-07
2.45657e-07
4.48455e-05
0.000466291
0.00118728
3.1289e-07
1.27371e-07
1.44893e-07
1.366e-07
1.29302e-07
1.24588e-07
1.20839e-07
1.18368e-07
0.000416833
0.00133806
1.04541e-07
8.42691e-08
7.62691e-08
7.0876e-08
6.82179e-08
6.55341e-08
6.41795e-08
9.05082e-05
0.000803819
0.00194038
1.18945e-07
3.15542e-08
5.20946e-08
4.37762e-08
4.25912e-08
4.16617e-08
4.08485e-08
4.10344e-08
0.000564555
0.0018823
5.64933e-08
3.5208e-08
2.86691e-08
3.02026e-08
2.78384e-08
2.71781e-08
2.68586e-08
7.03296e-05
0.00085634
0.00233758
4.82826e-05
1.13129e-05
1.1822e-05
1.08212e-05
9.84321e-06
9.18149e-06
8.82249e-06
8.68988e-06
8.71517e-06
9.1287e-06
1.94744e-05
5.54029e-06
5.64525e-06
5.32635e-06
5.03579e-06
4.82215e-06
4.68303e-06
4.61189e-06
4.58389e-06
4.31835e-06
6.23483e-06
2.54279e-06
2.46241e-06
2.32436e-06
2.21313e-06
2.12415e-06
2.05729e-06
2.0124e-06
9.14121e-06
9.12074e-05
2.6033e-06
1.15882e-06
1.14179e-06
1.08502e-06
1.03389e-06
9.92135e-07
9.58097e-07
9.34059e-07
6.76695e-05
0.00024459
1.00046e-06
5.91747e-07
5.40695e-07
5.12692e-07
4.90696e-07
4.70499e-07
4.54545e-07
4.42733e-07
0.000127867
0.000418303
5.0907e-07
2.72894e-07
2.60241e-07
2.47707e-07
2.37015e-07
2.27332e-07
2.20234e-07
6.74657e-05
0.00033278
0.000759728
2.95335e-07
1.16956e-07
1.30262e-07
1.23187e-07
1.17643e-07
1.13023e-07
1.09326e-07
1.07109e-07
0.0002615
0.000821877
9.93507e-08
7.49893e-08
7.03084e-08
6.44632e-08
6.2396e-08
5.99249e-08
5.84517e-08
0.00016678
0.000630237
0.00134146
1.20511e-07
2.65474e-08
4.73705e-08
4.08903e-08
3.88598e-08
3.77366e-08
3.7499e-08
3.72614e-08
0.000409275
0.00122561
4.70162e-08
3.46513e-08
2.65726e-08
2.7127e-08
2.58795e-08
2.53845e-08
2.47707e-08
0.00014151
0.000674889
0.00160814
4.02295e-05
7.25384e-06
9.3094e-06
9.65631e-06
9.19393e-06
8.58652e-06
8.09134e-06
7.78718e-06
7.69912e-06
8.03817e-06
1.7074e-05
4.46114e-06
4.66913e-06
4.45379e-06
4.21692e-06
4.0256e-06
3.89315e-06
3.81393e-06
3.76859e-06
3.49385e-06
5.34382e-06
2.14174e-06
2.07307e-06
1.95116e-06
1.85483e-06
1.7796e-06
1.72172e-06
1.68126e-06
1.6458e-06
3.45412e-05
2.34793e-06
9.75098e-07
9.68674e-07
9.21992e-07
8.79618e-07
8.43356e-07
8.14438e-07
7.91999e-07
2.14336e-05
0.000115531
8.78963e-07
5.07478e-07
4.68822e-07
4.43136e-07
4.23193e-07
4.06594e-07
3.92142e-07
3.80403e-07
6.41902e-05
0.000222271
4.40366e-07
2.42067e-07
2.27627e-07
2.16389e-07
2.07167e-07
1.98883e-07
1.91898e-07
6.77144e-05
0.000229698
0.000471283
2.68312e-07
1.0561e-07
1.12973e-07
1.09144e-07
1.03916e-07
9.91548e-08
9.67005e-08
9.36571e-08
0.000133543
0.000457013
9.27894e-08
6.51845e-08
6.25338e-08
5.73429e-08
5.56641e-08
5.32564e-08
3.20681e-06
0.000183705
0.000475872
0.000895841
1.20068e-07
2.17676e-08
4.15874e-08
3.65472e-08
3.5021e-08
3.36354e-08
3.30732e-08
3.33744e-08
0.000251967
0.000729643
3.66251e-08
3.30966e-08
2.35063e-08
2.42242e-08
2.28436e-08
2.20337e-08
2.23651e-08
0.000149624
0.00049406
0.00104993
5.17876e-05
3.03316e-06
6.22885e-08
2.43497e-06
3.60515e-06
4.12406e-06
4.30254e-06
4.31219e-06
4.21773e-06
4.16777e-06
1.53266e-05
3.28814e-06
3.56068e-06
3.45842e-06
3.29892e-06
3.1552e-06
3.05076e-06
2.98974e-06
2.96744e-06
2.76987e-06
4.42142e-06
1.74752e-06
1.69507e-06
1.58885e-06
1.50675e-06
1.44318e-06
1.39334e-06
1.35699e-06
1.32286e-06
1.15444e-05
2.06147e-06
7.98524e-07
8.00047e-07
7.62794e-07
7.26362e-07
6.96861e-07
6.71278e-07
6.51941e-07
6.31287e-07
4.096e-05
7.61196e-07
4.20198e-07
3.94119e-07
3.71824e-07
3.5478e-07
3.40494e-07
3.27997e-07
3.18287e-07
2.64744e-05
0.00010871
3.69975e-07
2.06861e-07
1.94181e-07
1.83991e-07
1.75725e-07
1.68949e-07
1.711e-06
5.95742e-05
0.000155991
0.000287098
2.32846e-07
9.44822e-08
9.67639e-08
9.29764e-08
8.95996e-08
8.55839e-08
8.30741e-08
8.05415e-08
3.98606e-05
0.000219128
8.16709e-08
5.60802e-08
5.47659e-08
4.99198e-08
4.84823e-08
4.64083e-08
5.28534e-05
0.00017382
0.000353896
0.000589823
1.18242e-07
1.68384e-08
3.5469e-08
3.21647e-08
3.05593e-08
2.97193e-08
2.89912e-08
2.85432e-08
0.000118454
0.000382609
2.61918e-08
3.03742e-08
2.09111e-08
2.09796e-08
1.99186e-08
1.99357e-08
1.86865e-08
0.000129204
0.000340857
0.000656026
0.000188937
7.15087e-06
8.89219e-06
9.52222e-06
9.65747e-06
9.74329e-06
9.86744e-06
1.00037e-05
1.01267e-05
1.03506e-05
1.19225e-05
2.03439e-06
2.56382e-06
2.67948e-06
2.68041e-06
2.64951e-06
2.60327e-06
2.5445e-06
2.46134e-06
2.15901e-06
3.46398e-06
1.33689e-06
1.32601e-06
1.25124e-06
1.19324e-06
1.14924e-06
1.11423e-06
1.08829e-06
6.52159e-06
7.74066e-06
1.75092e-06
6.28546e-07
6.37916e-07
6.09074e-07
5.80837e-07
5.57071e-07
5.38029e-07
5.21055e-07
5.04192e-07
6.53385e-07
6.5035e-07
3.33825e-07
3.19944e-07
3.01863e-07
2.87601e-07
2.76092e-07
2.65457e-07
2.56703e-07
8.559e-06
4.89118e-05
3.0456e-07
1.68395e-07
1.60569e-07
1.51453e-07
1.44366e-07
1.38544e-07
1.34241e-05
4.97369e-05
0.000106007
0.000173855
1.9379e-07
8.05163e-08
8.03678e-08
7.7568e-08
7.39622e-08
7.14381e-08
6.84898e-08
6.6305e-08
6.41203e-08
7.42544e-05
4.01491e-06
4.6369e-08
4.60636e-08
4.20738e-08
3.99357e-08
2.22282e-05
7.73958e-05
0.000154556
0.000264087
0.00038941
1.1328e-07
1.36405e-08
2.86693e-08
2.74545e-08
2.591e-08
2.51985e-08
2.4296e-08
2.37928e-08
1.84499e-05
0.000155629
1.57496e-08
2.77119e-08
1.75785e-08
1.77853e-08
1.73558e-08
1.60036e-08
8.22283e-06
0.000100215
0.000223828
0.000394453
3.95681e-05
2.22544e-05
2.08313e-05
1.96784e-05
1.95851e-05
1.93298e-05
1.83396e-05
1.65464e-05
1.40936e-05
1.10297e-05
1.48477e-05
2.15576e-06
2.12046e-06
1.8317e-06
1.57409e-06
1.43043e-06
1.4081e-06
1.47303e-06
1.56608e-06
1.51028e-06
5.54039e-05
7.09335e-06
7.96138e-06
4.77113e-06
2.09842e-06
9.42126e-07
4.97388e-06
8.54803e-06
1.72704e-05
1.3108e-05
1.44091e-06
4.75532e-07
4.95408e-07
4.72501e-07
4.48114e-07
4.27247e-07
4.09086e-07
3.94771e-07
3.801e-07
3.23023e-07
5.4612e-07
2.53192e-07
2.49921e-07
2.36282e-07
2.25e-07
2.14885e-07
2.06721e-07
1.99775e-07
3.80318e-06
2.20278e-05
6.19193e-06
1.29239e-07
1.27376e-07
1.19567e-07
1.1462e-07
3.69824e-06
1.8287e-05
4.04384e-05
7.28914e-05
0.000106126
1.52983e-07
6.64311e-08
6.47747e-08
6.17775e-08
5.93916e-08
5.67297e-08
5.47381e-08
5.28846e-08
5.12282e-08
4.79929e-08
0.000109456
3.27721e-06
7.95652e-06
1.47544e-06
1.80382e-05
4.48086e-05
8.58401e-05
0.000133762
0.000200565
0.00026247
1.04947e-07
1.06963e-08
2.27478e-08
2.24897e-08
2.11183e-08
1.98438e-08
1.99083e-08
1.95696e-08
1.91017e-08
1.84709e-05
6.15027e-09
2.26268e-08
1.52324e-08
1.41528e-08
1.36944e-08
1.34282e-08
1.95194e-05
7.13664e-05
0.000139745
0.000227735
0.000599625
7.1339e-05
8.4582e-05
8.74569e-05
8.29286e-05
7.37025e-05
6.2126e-05
4.97408e-05
3.71982e-05
2.44306e-05
6.98257e-06
1.69343e-06
1.36746e-07
1.02356e-06
1.27854e-06
1.26363e-06
1.20054e-06
1.25332e-06
1.57618e-06
2.16003e-06
0.000185095
0.000111955
5.32072e-05
2.26817e-05
4.90532e-06
5.59972e-06
1.27542e-05
1.7436e-05
2.6169e-05
2.08183e-05
1.16328e-06
3.26958e-07
3.54358e-07
3.47003e-07
3.34465e-07
3.21322e-07
3.08783e-07
2.9652e-07
2.82786e-07
2.36608e-07
4.50059e-07
1.81075e-07
1.84657e-07
1.76196e-07
1.6856e-07
1.60948e-07
1.54466e-07
2.675e-07
5.53861e-06
1.29143e-05
2.14326e-05
1.8577e-05
1.0492e-05
5.57198e-06
7.55021e-07
6.6598e-06
1.77753e-05
3.12195e-05
4.97772e-05
6.52442e-05
1.14634e-07
5.21513e-08
4.9145e-08
4.70553e-08
4.53689e-08
4.34991e-08
4.16111e-08
4.05479e-08
3.86598e-08
3.5664e-08
0.000302822
3.31669e-05
9.22605e-06
3.10331e-06
2.61085e-05
5.24322e-05
8.33125e-05
0.000113582
0.000155382
0.000183186
9.27964e-08
8.27888e-09
1.71427e-08
1.71577e-08
1.66328e-08
1.57029e-08
1.53429e-08
1.5133e-08
1.4818e-08
1.57627e-08
6.62113e-10
1.78038e-08
1.23183e-08
1.1411e-08
1.0861e-08
1.04623e-08
1.78946e-05
4.39675e-05
7.92415e-05
0.000121601
0.00176487
0.000294664
0.00029171
0.000244433
0.00019236
0.000144448
0.000103076
6.78488e-05
3.68905e-05
7.575e-06
5.40777e-05
7.15039e-06
6.13398e-06
5.62675e-06
5.07171e-06
4.20584e-06
2.91166e-06
1.05806e-06
1.63699e-06
5.41866e-06
0.00032234
0.000220691
9.65856e-05
4.00427e-05
9.70558e-06
6.13346e-06
1.50645e-05
2.05082e-05
2.88595e-05
2.57835e-05
8.97816e-07
2.09247e-07
2.36623e-07
2.34374e-07
2.28494e-07
2.23842e-07
2.20967e-07
2.18717e-07
2.13055e-07
1.65984e-07
1.64115e-05
1.21578e-07
1.27866e-07
1.73198e-07
6.85933e-07
1.50433e-07
1.50061e-06
3.85599e-06
7.1706e-06
1.00669e-05
2.11249e-05
2.8893e-05
2.02525e-05
1.10988e-05
3.22505e-06
4.24355e-06
1.21122e-05
2.01771e-05
3.03901e-05
3.75749e-05
8.13571e-08
3.84105e-08
3.5735e-08
3.38946e-08
3.24972e-08
3.156e-08
3.00433e-08
2.8663e-08
2.76917e-08
2.51382e-08
0.000572746
0.000100867
3.12399e-06
1.23206e-06
2.14219e-05
4.58791e-05
6.99882e-05
9.07839e-05
0.00011809
0.000130043
7.82865e-08
6.69247e-09
1.22835e-08
1.27994e-08
1.20604e-08
1.16839e-08
1.14887e-08
1.08613e-08
1.07219e-08
1.11283e-08
3.24447e-09
1.14132e-08
9.66226e-09
8.49921e-09
7.96242e-09
5.75134e-09
7.92249e-06
1.8161e-05
3.41429e-05
5.14699e-05
0.00745332
0.000517249
0.000465417
0.000339855
0.000231224
0.00014873
8.7661e-05
4.11049e-05
2.33482e-06
3.4272e-05
8.13034e-05
3.08159e-05
2.4377e-05
1.89333e-05
1.35693e-05
8.14874e-06
2.55452e-06
3.56401e-06
1.086e-05
1.93552e-05
0.000480727
0.000356356
0.000150809
6.64859e-05
2.46889e-05
4.90855e-06
4.90161e-06
1.10399e-05
1.88128e-05
2.27488e-05
7.34854e-07
1.32775e-07
1.47568e-07
1.42126e-07
1.3268e-07
1.25314e-07
1.18779e-07
1.18565e-07
1.23234e-07
1.42495e-07
5.55379e-05
3.23232e-05
1.76226e-05
1.03876e-05
6.03677e-06
3.02904e-06
6.05445e-07
1.55442e-06
3.75023e-06
5.47833e-06
1.99259e-05
2.84711e-05
2.24381e-05
1.46137e-05
8.02103e-06
2.60952e-06
2.08644e-06
6.38269e-06
1.10695e-05
1.46947e-05
5.33955e-08
2.65194e-08
2.38421e-08
2.29074e-08
2.19094e-08
2.10064e-08
2.004e-08
1.93905e-08
1.79648e-08
1.61313e-08
0.000895132
0.000180419
2.138e-06
2.00355e-05
2.7936e-06
1.82667e-05
3.72273e-05
5.2855e-05
7.05594e-05
7.84023e-05
6.0719e-08
4.84763e-09
8.29541e-09
8.63241e-09
8.34726e-09
7.81583e-09
7.73806e-09
7.29737e-09
7.42699e-09
6.80289e-09
6.43954e-10
6.38034e-09
6.07142e-09
5.66745e-09
5.54864e-09
5.41794e-09
5.03773e-09
1.38084e-06
6.74373e-06
1.08455e-05
0.0134485
0.000260815
0.000187287
0.00010044
4.15256e-05
5.02204e-06
1.84962e-05
3.63362e-05
5.38394e-05
7.42502e-05
8.3423e-05
6.02753e-05
4.38849e-05
2.90945e-05
1.66583e-05
6.46505e-06
2.32262e-06
1.0772e-05
2.00238e-05
2.9592e-05
0.000582614
0.000490475
0.000208719
0.000105386
5.8556e-05
3.89932e-05
3.11969e-05
2.71455e-05
2.35585e-05
9.98356e-06
4.39856e-07
9.51121e-08
9.97401e-08
8.8032e-08
6.63829e-08
4.184e-08
1.30557e-08
1.62478e-08
4.89201e-08
1.16293e-07
5.32935e-05
3.68747e-05
2.1976e-05
1.47051e-05
1.0479e-05
7.8894e-06
6.19224e-06
4.9099e-06
4.06377e-06
2.62577e-06
1.98268e-05
2.29699e-05
1.98345e-05
1.55533e-05
1.20643e-05
9.4769e-06
7.60666e-06
6.14248e-06
5.24055e-06
3.66112e-06
3.04233e-08
1.69216e-08
1.40792e-08
1.39025e-08
1.28569e-08
1.24887e-08
1.18407e-08
1.11485e-08
1.07067e-08
9.51455e-09
0.0010612
0.000209446
2.63193e-05
6.33762e-05
5.54666e-05
4.08418e-05
2.80435e-05
1.76165e-05
9.45211e-06
1.8205e-07
4.14969e-08
3.8438e-09
5.2777e-09
5.16925e-09
4.98851e-09
4.73547e-09
4.85597e-09
4.68727e-09
4.56678e-09
4.03856e-09
9.94844e-07
5.92233e-07
3.68917e-09
3.54558e-09
2.61776e-09
4.26452e-07
6.36691e-07
1.8701e-07
6.51956e-07
1.65923e-06
0.00574398
0.000500946
0.000317655
0.000225679
0.000175342
0.000136297
0.000100703
6.96176e-05
2.25186e-05
2.47486e-05
6.55137e-05
2.54908e-05
1.05451e-05
1.4663e-07
6.24376e-06
9.73842e-06
1.21598e-05
1.44393e-05
1.6995e-05
1.82626e-05
0.000363092
0.000450934
0.000201761
0.000122269
8.90141e-05
7.65273e-05
7.25015e-05
7.12226e-05
7.22378e-05
5.62463e-05
2.6696e-07
1.3513e-08
5.82515e-08
8.77213e-08
1.09233e-07
1.25621e-07
1.40839e-07
1.51015e-07
1.56159e-07
1.49268e-07
2.83565e-05
2.2571e-05
1.53379e-05
1.18956e-05
9.98056e-06
8.93832e-06
8.42329e-06
8.20137e-06
8.56772e-06
8.12082e-06
1.47119e-05
1.35973e-05
1.24463e-05
1.11339e-05
1.01662e-05
9.57024e-06
9.32325e-06
9.32536e-06
1.0129e-05
1.03456e-05
1.54509e-08
8.43362e-09
7.53002e-09
6.29783e-09
5.88711e-09
5.9008e-09
5.91449e-09
5.62698e-09
5.40792e-09
3.92236e-09
0.000622534
8.77669e-05
8.0648e-05
0.000112104
0.000111674
0.000105637
0.000100492
9.68513e-05
9.85601e-05
9.04196e-05
2.11467e-08
2.44197e-09
2.10592e-09
2.97965e-09
2.55398e-09
2.35235e-09
2.37476e-09
2.21793e-09
2.17313e-09
2.3377e-09
0.000146209
0.000184179
0.000139249
0.000104431
8.28086e-05
7.04121e-05
6.36084e-05
5.83587e-05
5.87962e-05
5.05713e-05
0.0149067
0.00103517
0.0008756
0.000756483
0.000663479
0.000589637
0.000530536
0.000483435
0.000441622
0.000427346
3.3454e-05
7.20372e-05
5.01459e-05
3.32733e-05
2.17481e-05
1.40162e-05
8.60624e-06
4.31531e-06
2.36113e-08
5.49381e-06
2.70829e-05
0.000150275
8.56091e-05
7.03417e-05
6.46247e-05
6.29953e-05
6.3012e-05
6.38975e-05
6.66187e-05
6.6469e-05
1.02002e-07
5.44104e-08
2.63843e-08
4.48647e-09
1.42708e-08
3.03362e-08
4.74612e-08
6.42711e-08
7.61555e-08
9.1925e-08
6.89489e-06
6.21968e-06
5.08946e-06
4.54809e-06
4.25666e-06
4.12519e-06
4.12294e-06
4.23796e-06
4.73677e-06
5.51766e-06
4.83321e-06
3.90176e-06
3.6905e-06
3.54745e-06
3.4537e-06
3.40731e-06
3.42683e-06
3.53274e-06
4.0834e-06
5.00323e-06
6.03863e-09
3.02917e-09
2.45642e-09
2.60916e-09
1.69277e-09
2.2146e-09
1.51458e-09
1.96005e-09
1.23458e-09
1.19639e-09
2.87541e-05
5.25097e-05
7.72038e-05
8.18721e-05
8.19405e-05
8.11874e-05
8.07726e-05
8.09304e-05
8.47252e-05
8.57559e-05
5.17056e-09
7.1853e-10
8.74732e-10
8.22665e-10
5.31087e-10
1.14548e-09
9.268e-10
7.91424e-10
9.89281e-10
5.83155e-10
0.000657361
0.00055308
0.000486348
0.000445036
0.000420633
0.000406452
0.000398178
0.000392441
0.000393181
0.000371921
0.0916281
0.125845
0.200531
0.398895
0.359541
0.360332
0.451585
0.705331
0.699347
0.666927
0.800191
1.23332
0.633893
0.609458
0.718657
1.11122
0.598085
0.5838
0.679299
1.07559
0.528048
0.503233
0.6128
1.01554
0.469917
0.427992
0.563001
0.983049
0.40658
0.356229
0.506199
0.918942
0.335732
0.292281
0.444718
0.830001
0.271238
0.239934
0.396093
0.751903
0.000541654
0.000194023
5.26569e-05
0.00610493
0.0375519
0.00349109
4.03973e-05
0.0254209
0.111096
0.0126525
2.25248e-05
0.0604559
0.128342
0.0174012
1.19436e-05
0.0610456
0.148432
0.0222426
6.30485e-06
0.0610832
0.155928
0.024857
3.29862e-06
0.0610428
0.160203
0.0259803
1.75813e-06
0.0656762
0.157526
0.0265996
1.01015e-06
0.0677635
0.148901
0.0281376
0.00393766
0.0676474
0.137705
0.0360248
0.0162045
0.0646619
0.00262277
0.000300763
0.00218903
0.00497042
0.0185762
0.0146943
0.0159171
0.0265828
0.0636739
0.0422714
0.0435166
0.0713288
0.0768206
0.0460555
0.0473508
0.0788614
0.0923174
0.0506097
0.052335
0.0900242
0.100505
0.0511326
0.0532149
0.0940529
0.106609
0.0506904
0.053558
0.0983768
0.108154
0.0486395
0.0522474
0.0990616
0.105092
0.0435523
0.0486245
0.0962807
0.0994278
0.0396519
0.0469968
0.0915083
0.000475438
4.38043e-05
0.000155994
0.000449315
0.00314265
0.00249876
0.00256467
0.00448989
0.0148834
0.0102203
0.00983061
0.0156974
0.0223589
0.0143878
0.0139279
0.0210062
0.0316556
0.0191044
0.0188779
0.0277676
0.0393028
0.0224099
0.0224841
0.0325891
0.0461712
0.0249005
0.0254347
0.0371928
0.0513536
0.0265939
0.0276844
0.040821
0.053021
0.025384
0.0278574
0.0421962
0.0522817
0.0248362
0.0297559
0.0436432
0.000145506
2.17434e-05
0.000114353
0.000249622
0.00144912
0.00150382
0.00182094
0.00274794
0.00623605
0.00584281
0.00648541
0.00898111
0.00955817
0.00821187
0.00853403
0.0113069
0.0140593
0.0111555
0.0112278
0.0145301
0.0183558
0.0135111
0.0133683
0.0169198
0.0225184
0.0154629
0.0152805
0.0191979
0.0264715
0.0172113
0.0171811
0.0214727
0.0290234
0.0174919
0.0184092
0.0230279
0.0307045
0.0186749
0.0214547
0.0256218
4.07379e-05
1.51557e-05
2.85625e-05
6.96888e-05
0.00066862
0.000654195
0.000781565
0.0011555
0.00286351
0.00281007
0.00328522
0.00444411
0.00448194
0.0042336
0.00464059
0.00593729
0.00665412
0.00601684
0.00632076
0.00784008
0.00891688
0.00762443
0.00774322
0.00932522
0.0111351
0.00901699
0.00899011
0.0106056
0.013664
0.0105134
0.0104362
0.0121144
0.0158054
0.0113587
0.0117709
0.0133821
0.0171829
0.0123577
0.0138485
0.0149809
3.5069e-05
7.1364e-06
1.04635e-05
6.87094e-06
0.000333118
0.000298381
0.000343048
0.000511929
0.00154705
0.00149104
0.00175968
0.00238609
0.00248853
0.0023967
0.00268366
0.0033956
0.00366798
0.00349709
0.00378119
0.0046128
0.00493966
0.00456227
0.00475975
0.00561917
0.00608431
0.00545095
0.0055546
0.00638147
0.00762586
0.00656866
0.00659935
0.00744107
0.00903877
0.00740598
0.00765423
0.00832621
0.00982768
0.00808718
0.00886092
0.00920854
4.82888e-05
1.72713e-05
1.66161e-05
1.70867e-05
0.000137151
0.000102844
0.000110315
0.000177745
0.000786034
0.000717634
0.000840604
0.00115846
0.0013944
0.00132152
0.00147787
0.00186393
0.00210628
0.0020206
0.00220186
0.00267345
0.00293191
0.00277002
0.00292485
0.00343314
0.00357031
0.00334355
0.00345556
0.00392417
0.00456297
0.00416952
0.00423697
0.0047216
0.00523037
0.00466859
0.00481321
0.00513465
0.00574048
0.00521849
0.00562068
0.00576324
4.00053e-05
1.38475e-05
1.33305e-05
1.37223e-05
3.98216e-05
1.51629e-05
1.14075e-05
3.64973e-05
0.000373445
0.000307236
0.000354808
0.000516446
0.000762299
0.000701956
0.000778612
0.000983352
0.00119091
0.00113529
0.00123629
0.00149909
0.00176093
0.00167108
0.00176867
0.00207377
0.00212962
0.00203622
0.00211539
0.00238542
0.0028153
0.00265096
0.00270889
0.00300601
0.00301939
0.00284649
0.00292161
0.00309554
0.00342827
0.00333472
0.00354315
0.00362096
3.05184e-05
1.00754e-05
9.72985e-06
1.01115e-05
5.97366e-06
3.81527e-06
3.70667e-06
4.10497e-06
0.000151297
9.43764e-05
0.000105293
0.000186292
0.000398819
0.000350857
0.000384322
0.00048887
0.0006467
0.000605757
0.000657165
0.000798984
0.00103764
0.000978105
0.0010334
0.00121474
0.00123015
0.0011896
0.0012366
0.00138523
0.00172577
0.00164744
0.00168666
0.00187328
0.00174017
0.00169349
0.00173081
0.00183103
0.00206754
0.00209488
0.00220346
0.00225121
2.82278e-05
9.27395e-06
8.78392e-06
9.03668e-06
8.16034e-06
2.8573e-06
2.78936e-06
3.10084e-06
4.00158e-05
1.24286e-06
1.19794e-06
3.07008e-05
0.000196473
0.00016133
0.000173428
0.000223691
0.00033561
0.000305123
0.000329386
0.000404201
0.000603997
0.000559909
0.000589467
0.000697945
0.000681029
0.000662727
0.000688034
0.000764031
0.00105109
0.00100416
0.00102863
0.00114889
0.000984971
0.000973588
0.000991259
0.00104791
0.00124114
0.00128536
0.00134432
0.00137255
9.4809e-06
3.09559e-06
3.43308e-06
4.1154e-06
5.97173e-06
1.99622e-06
1.94467e-06
2.15339e-06
2.4367e-06
8.96659e-07
8.69592e-07
9.8163e-07
8.688e-05
6.37201e-05
6.61522e-05
8.68944e-05
0.000162164
0.000140593
0.000150928
0.000189025
0.000346925
0.000313404
0.000328374
0.000393947
0.000352719
0.000345718
0.000358127
0.000391614
0.000638455
0.000603593
0.000618406
0.000698594
0.000528101
0.000524962
0.00053231
0.000561286
0.000731324
0.000765001
0.000799338
0.00081378
4.13633e-05
1.03987e-05
8.69423e-06
7.77999e-06
5.02608e-06
1.78404e-06
1.80014e-06
2.09658e-06
1.85843e-06
6.60817e-07
6.36126e-07
7.10534e-07
3.06092e-05
1.7489e-05
1.62671e-05
2.12836e-05
7.08484e-05
5.66406e-05
6.04906e-05
7.92471e-05
0.000196851
0.00017197
0.000179151