/*--------------------------------*- C++ -*----------------------------------*\
| =========                 |                                                 |
| \\      /  F ield         | foam-extend: Open Source CFD                    |
|  \\    /   O peration     | Version:     4.0                                |
|   \\  /    A nd           | Web:         http://www.foam-extend.org         |
|    \\/     M anipulation  |                                                 |
\*---------------------------------------------------------------------------*/
FoamFile
{
    version     2.0;
    format      ascii;
    class       volScalarField;
    location    "1800";
    object      k;
}
// * * * * * * * * * * * * * * * * * * * * * * * * * * * * * * * * * * * * * //

dimensions      [0 2 -2 0 0 0 0];

internalField   nonuniform List<scalar> 
34480
(
8.76716
8.76475
8.76462
8.7664
8.77021
8.77634
8.79129
8.85464
9.07712
9.68587
9.27739
8.66595
8.57333
8.85298
9.45206
10.339
11.9381
15.8509
28.7373
67.0222
15.0341
13.5653
13.1195
13.2681
13.8387
14.8721
17.2064
22.9038
41.6367
101.409
14.4862
12.9591
12.5093
12.7037
13.4144
14.8291
18.0017
25.4041
49.2513
127.787
13.4242
12.0087
11.6579
11.925
12.7765
14.4866
18.2562
26.9533
55.2707
151.58
12.2164
10.9431
10.6308
10.9127
11.8042
13.6976
17.9389
27.8996
61.06
176.659
11.3242
10.2041
9.9496
10.2246
11.1197
13.0851
17.5867
28.4169
65.5161
198.013
9.83802
9.00184
8.79706
9.01281
9.72534
11.3955
15.4894
26.1221
64.5403
205.586
6.88183
6.6133
6.56466
6.67469
7.00409
7.72868
9.72904
16.272
43.4075
149.654
9.23841
9.23867
9.24455
9.25744
9.27556
9.29716
9.32316
9.36171
9.43271
9.50581
8.67854
8.67553
8.67495
8.67672
8.6815
8.68987
8.70312
8.73416
8.80838
9.06721
7.9282
7.50846
7.41514
7.57285
8.01983
8.86228
10.304
12.1068
15.427
41.1719
12.2311
11.1687
10.8766
11.08
11.7588
13.0201
15.2182
18.1202
23.7875
66.4148
12.1354
10.9674
10.6487
10.892
11.6971
13.2476
16.0284
20.0114
28.39
86.1843
11.5955
10.4618
10.195
10.4711
11.3638
13.1049
16.2934
21.0719
31.8411
104.301
10.8028
9.75251
9.49714
9.77094
10.6691
12.4955
15.9647
21.4525
34.8362
123.706
10.2129
9.26081
9.04362
9.29715
10.1704
11.9983
15.6049
21.5487
37.1071
140.956
9.05285
8.33099
8.14686
8.33838
9.01596
10.5133
13.66
19.2823
35.7015
147.36
6.64441
6.39707
6.34288
6.41704
6.68169
7.26662
8.61324
11.5606
22.4895
102.41
9.11123
9.10655
9.10711
9.11432
9.127
9.14282
9.1638
9.1995
9.27249
9.4577
8.57682
8.57393
8.57303
8.57401
8.57716
8.58214
8.58793
8.60084
8.62962
8.69525
6.78154
6.56995
6.51589
6.59181
6.82322
7.27029
8.06498
9.35921
11.1351
16.4363
9.68863
9.0686
8.91528
9.08295
9.60268
10.5578
12.1732
14.5684
17.5469
29.1791
9.88634
9.1484
8.96304
9.17697
9.83634
11.0921
13.2846
16.6398
21.1133
40.7625
9.75738
9.00221
8.83938
9.07609
9.81447
11.2579
13.8609
17.938
23.7771
52.2553
9.3293
8.60187
8.43433
8.6722
9.42638
10.9719
13.8861
18.6159
26.0225
64.9047
9.01468
8.33025
8.18399
8.40654
9.14784
10.7155
13.7999
18.9534
27.7458
76.9282
8.19436
7.66601
7.53674
7.70709
8.28196
9.56412
12.2693
17.16
26.6499
82.8789
6.37326
6.18102
6.14119
6.20212
6.413
6.87568
7.92438
10.3675
16.6973
57.1038
8.99169
8.98393
8.98142
8.98534
8.99496
9.00807
9.02609
9.05963
9.13841
9.3384
8.46135
8.45953
8.45901
8.45978
8.46195
8.46474
8.46596
8.46934
8.47827
8.49767
6.00797
5.91714
5.89001
5.92086
6.02111
6.21379
6.55064
7.1323
7.99607
9.88093
7.807
7.49432
7.42141
7.51688
7.81842
8.38139
9.33276
10.8203
12.6578
17.0739
8.12305
7.70555
7.60176
7.73925
8.16538
8.98769
10.4214
12.7255
15.5982
23.5547
8.24597
7.78728
7.69037
7.84817
8.34634
9.33379
11.1205
14.083
17.8841
30.1264
8.08277
7.61426
7.5046
7.67152
8.20098
9.29991
11.3856
14.9934
19.8632
37.6375
7.97499
7.5106
7.4111
7.57256
8.10937
9.25474
11.5208
15.5749
21.3663
44.9615
7.44471
7.07437
6.98231
7.11072
7.5345
8.4803
10.4784
14.3801
20.6509
48.7694
6.13138
5.9844
5.9545
6.00046
6.15782
6.49576
7.22428
8.98465
12.9796
33.0371
8.85779
8.84999
8.84717
8.85055
8.85966
8.8733
8.89214
8.92604
8.9992
9.15505
8.33369
8.33285
8.33267
8.33316
8.33434
8.33523
8.33364
8.33226
8.33219
8.33432
5.53726
5.50276
5.48964
5.49953
5.53574
5.60456
5.71993
5.91156
6.17883
6.6213
6.56503
6.42727
6.39642
6.43672
6.57315
6.83157
7.27083
7.98184
8.87944
10.357
6.87101
6.65424
6.59756
6.66832
6.89557
7.33824
8.1131
9.40763
11.0456
14.0203
7.10115
6.84129
6.78488
6.87218
7.15765
7.72575
8.75803
10.559
12.8858
17.7768
7.0966
6.80989
6.73812
6.8386
7.16234
7.83467
9.11428
11.4633
14.6134
22.2351
7.12026
6.81738
6.74924
6.85116
7.19596
7.92776
9.37209
12.1299
15.9819
26.6489
6.81308
6.5614
6.4953
6.58134
6.86336
7.48449
8.77753
11.4734
15.6909
29.014
5.91825
5.80736
5.78461
5.81642
5.92739
6.15967
6.62991
7.74085
10.1048
19.2392
8.71434
8.70664
8.70362
8.70649
8.71496
8.72838
8.74686
8.77829
8.8398
8.95232
8.19473
8.19465
8.19474
8.19501
8.19547
8.19509
8.19261
8.19005
8.18787
8.18655
5.27013
5.25869
5.25232
5.25459
5.26591
5.28779
5.32333
5.37804
5.44764
5.53747
5.80885
5.75732
5.74756
5.761
5.81205
5.90899
6.07173
6.33465
6.67456
7.13928
6.04239
5.93858
5.90975
5.94224
6.05049
6.25902
6.61587
7.21145
7.98821
9.10723
6.28176
6.14498
6.11507
6.15872
6.30697
6.59672
7.11133
8.02066
9.23816
11.2037
6.35066
6.18497
6.14073
6.19693
6.37992
6.75236
7.44364
8.73986
10.5397
13.8047
6.44179
6.25373
6.20992
6.27004
6.47732
6.9065
7.72823
9.33976
11.653
16.3947
6.29301
6.13006
6.08524
6.14018
6.3179
6.69875
7.4595
9.0763
11.657
17.7692
5.7328
5.65163
5.63541
5.65674
5.73297
5.88821
6.18371
6.83584
8.10023
11.8449
8.56042
8.5531
8.55007
8.55254
8.5603
8.57294
8.59028
8.61812
8.66616
8.74091
8.04506
8.04549
8.04577
8.04589
8.04588
8.0447
8.04239
8.03991
8.03766
8.036
5.12648
5.12304
5.11956
5.1195
5.1224
5.12882
5.13897
5.15342
5.16967
5.18576
5.37562
5.3606
5.35968
5.36255
5.37761
5.40687
5.45599
5.53386
5.63306
5.75076
5.5262
5.47918
5.46518
5.47897
5.5271
5.6179
5.76672
6.00368
6.30904
6.68074
5.72687
5.65933
5.64499
5.66498
5.73668
5.87282
6.10407
6.49882
7.03162
7.75064
5.81483
5.72366
5.69774
5.72733
5.82505
6.01815
6.36017
6.98357
7.86739
9.18753
5.92877
5.81691
5.79029
5.8236
5.94207
6.17957
6.61164
7.43918
8.65425
10.6622
5.88349
5.78297
5.75413
5.78751
5.89411
6.11592
6.536
7.40136
8.80306
11.4709
5.57802
5.52004
5.50907
5.52281
5.57383
5.67504
5.85847
6.23056
6.89012
8.32519
8.39547
8.38876
8.38588
8.388
8.39493
8.40629
8.42183
8.44554
8.48212
8.53141
7.885
7.88575
7.88615
7.88618
7.88588
7.88454
7.88268
7.88069
7.8789
7.87756
5.05191
5.05066
5.04839
5.04788
5.04851
5.05056
5.05355
5.05742
5.06104
5.06347
5.1377
5.13598
5.13798
5.13758
5.13986
5.14536
5.15587
5.17352
5.19616
5.22016
5.21942
5.19869
5.19203
5.19764
5.21844
5.25689
5.31699
5.40607
5.51493
5.62702
5.36791
5.3365
5.33046
5.33891
5.37187
5.43257
5.53082
5.68792
5.89285
6.12726
5.44697
5.39902
5.38456
5.39943
5.44952
5.54559
5.70728
5.98356
6.36798
6.85647
5.55761
5.4936
5.47834
5.49579
5.56102
5.68764
5.9056
6.2976
6.8648
7.64844
5.57426
5.51551
5.498
5.5174
5.57843
5.70218
5.92543
6.35703
7.04561
8.13562
5.45372
5.41312
5.40614
5.41473
5.4483
5.51327
5.62664
5.83754
6.18519
6.75853
8.21897
8.21305
8.21044
8.21223
8.21824
8.22799
8.24134
8.26073
8.28794
8.32085
7.71464
7.71558
7.71605
7.71603
7.71557
7.71445
7.71307
7.7116
7.71031
7.70931
5.01359
5.01267
5.01099
5.01055
5.01084
5.01184
5.0131
5.01452
5.01552
5.01568
5.01135
5.01347
5.01591
5.01491
5.01359
5.0123
5.01184
5.013
5.0156
5.01863
5.04466
5.03537
5.03211
5.03439
5.0435
5.06006
5.08486
5.119
5.15798
5.19186
5.14531
5.13147
5.12938
5.13267
5.14729
5.17354
5.21433
5.27506
5.35004
5.4227
5.20527
5.1811
5.17336
5.18058
5.20547
5.25201
5.32712
5.44624
5.60511
5.77854
5.30056
5.26506
5.2568
5.26551
5.30048
5.36649
5.47488
5.65531
5.90508
6.19361
5.35058
5.31835
5.30841
5.31923
5.35254
5.41872
5.53407
5.74188
6.06223
6.49202
5.35778
5.32969
5.32555
5.33085
5.35282
5.39437
5.46443
5.58439
5.76918
6.02084
8.0305
8.02549
8.02324
8.02473
8.02975
8.03773
8.04874
8.06401
8.08373
8.1056
7.53414
7.53497
7.53547
7.53543
7.53498
7.53419
7.53321
7.53219
7.5313
7.53057
4.99318
4.99233
4.99101
4.99074
4.99108
4.99185
4.99277
4.99371
4.99432
4.99425
4.94611
4.9487
4.95077
4.94994
4.94817
4.94577
4.94325
4.94109
4.93968
4.939
4.94923
4.94472
4.94301
4.94399
4.94822
4.95581
4.96676
4.98087
4.99596
5.0072
5.0129
5.007
5.00651
5.0077
5.01412
5.02543
5.04245
5.06614
5.09367
5.11692
5.05335
5.04163
5.03763
5.04107
5.05317
5.07533
5.10999
5.16137
5.22696
5.29124
5.13019
5.11087
5.10662
5.11084
5.12936
5.16349
5.21749
5.30095
5.41035
5.51839
5.19574
5.17944
5.17429
5.18012
5.19734
5.23108
5.28874
5.38647
5.53153
5.70593
5.28658
5.26718
5.26494
5.26827
5.28281
5.30964
5.35317
5.4221
5.52034
5.64037
7.82977
7.82573
7.82387
7.82507
7.82909
7.83536
7.84409
7.85566
7.86957
7.88388
7.34324
7.34391
7.34434
7.3443
7.344
7.34346
7.3428
7.34211
7.34152
7.34097
4.98131
4.98057
4.97961
4.97945
4.9798
4.98048
4.98129
4.98211
4.9827
4.98263
4.91313
4.91527
4.91681
4.91629
4.91491
4.91294
4.91076
4.9087
4.9072
4.90636
4.89941
4.89694
4.89595
4.89643
4.89858
4.90238
4.90771
4.91423
4.92089
4.92518
4.93744
4.93485
4.93483
4.93525
4.93819
4.94332
4.95081
4.9606
4.97118
4.97933
4.96218
4.95667
4.95466
4.9563
4.96211
4.97257
4.98854
5.01093
5.03838
5.06433
5.02222
5.01169
5.00958
5.01165
5.02156
5.03942
5.06675
5.10636
5.15529
5.19855
5.09321
5.08595
5.08365
5.0867
5.09502
5.1112
5.13861
5.18306
5.24649
5.32179
5.23563
5.2221
5.22105
5.22328
5.23319
5.25093
5.27835
5.31862
5.37073
5.43169
7.61661
7.6135
7.61206
7.61298
7.61606
7.62079
7.62744
7.6359
7.64544
7.65463
7.1417
7.14225
7.14259
7.14257
7.14238
7.14203
7.14159
7.14114
7.14075
7.14032
4.97343
4.97286
4.9722
4.97212
4.97243
4.973
4.9737
4.97441
4.97498
4.97486
4.89665
4.89824
4.89932
4.89906
4.89815
4.89685
4.89541
4.89404
4.89312
4.89262
4.8747
4.87319
4.87259
4.87285
4.87403
4.87608
4.8789
4.88226
4.88564
4.88754
4.89633
4.89498
4.89498
4.89515
4.89669
4.89936
4.90311
4.90773
4.91233
4.91575
4.91008
4.90755
4.90655
4.90734
4.91014
4.91509
4.92248
4.93237
4.94408
4.95563
4.95685
4.95089
4.94985
4.95097
4.95649
4.96622
4.98057
5.00028
5.02313
5.04218
5.02821
5.02571
5.02501
5.02659
5.03024
5.03731
5.04924
5.06823
5.09393
5.12889
5.20025
5.19063
5.19029
5.19195
5.19903
5.21115
5.2288
5.2529
5.2805
5.31341
7.39096
7.3887
7.38765
7.38833
7.39055
7.39403
7.3989
7.40486
7.41121
7.417
6.9293
6.92976
6.93002
6.93002
6.92991
6.92968
6.9294
6.92911
6.92885
6.92849
4.96742
4.96705
4.96664
4.96661
4.96686
4.96731
4.96786
4.96843
4.96896
4.96873
4.8884
4.88956
4.89031
4.89021
4.88968
4.88893
4.8881
4.88733
4.88693
4.88673
4.86321
4.86227
4.86193
4.86208
4.86272
4.86383
4.86536
4.86716
4.86906
4.87002
4.875
4.87408
4.87396
4.87408
4.87504
4.87672
4.879
4.88166
4.88412
4.88599
4.88185
4.88067
4.88016
4.88056
4.88194
4.88432
4.88779
4.89225
4.89737
4.90309
4.91897
4.91535
4.9148
4.91552
4.91884
4.9245
4.93254
4.94307
4.95454
4.96418
4.98847
4.98825
4.98839
4.98921
4.99055
4.99314
4.99746
5.00454
5.01309
5.03092
5.17609
5.16909
5.16914
5.17053
5.17586
5.18443
5.19617
5.21105
5.22561
5.24479
7.15289
7.15135
7.15064
7.15111
7.15262
7.15513
7.15856
7.16259
7.16668
7.17026
6.70588
6.70627
6.70647
6.70648
6.70642
6.70628
6.70609
6.7059
6.70573
6.70541
4.96231
4.96216
4.96196
4.96197
4.96216
4.96247
4.96287
4.96329
4.96378
4.96345
4.8842
4.88507
4.88557
4.88556
4.8853
4.88492
4.88452
4.88418
4.88416
4.88415
4.85843
4.85789
4.85773
4.8578
4.85812
4.85866
4.85942
4.86035
4.86144
4.86199
4.86456
4.8638
4.86358
4.86367
4.86437
4.8656
4.86722
4.86905
4.87067
4.87196
4.86743
4.86684
4.86656
4.86677
4.86748
4.86868
4.87035
4.87244
4.87476
4.87791
4.89779
4.89538
4.89504
4.8956
4.89777
4.90136
4.90623
4.91238
4.91874
4.92459
4.96452
4.96523
4.96577
4.96621
4.96652
4.96705
4.96787
4.96964
4.97065
4.98103
5.15938
5.15426
5.15452
5.1558
5.15991
5.16624
5.17435
5.18391
5.19144
5.20376
6.90265
6.90158
6.90115
6.90145
6.90249
6.90422
6.90653
6.90915
6.91166
6.91384
6.47136
6.4717
6.47186
6.47187
6.47184
6.47175
6.47164
6.47151
6.4714
6.4711
4.9577
4.95778
4.95773
4.95778
4.95791
4.9581
4.95836
4.95865
4.95913
4.9587
4.88196
4.88262
4.88293
4.88298
4.88288
4.88276
4.88265
4.88258
4.88281
4.88296
4.85694
4.85668
4.85664
4.85667
4.85678
4.85696
4.85724
4.85764
4.85825
4.85861
4.85985
4.85918
4.8589
4.85897
4.85951
4.86046
4.8617
4.86306
4.86427
4.86529
4.8606
4.86025
4.86008
4.86019
4.86057
4.86122
4.86208
4.86312
4.86422
4.86613
4.88606
4.88433
4.88408
4.88455
4.88607
4.8885
4.89169
4.89559
4.89949
4.90369
4.94947
4.95041
4.95111
4.95138
4.95128
4.95102
4.95044
4.95007
4.94803
4.95507
5.14724
5.14345
5.14388
5.14506
5.14835
5.15321
5.15905
5.16545
5.1691
5.17786
6.64044
6.63975
6.63947
6.63967
6.64036
6.64149
6.64298
6.64459
6.64606
6.64736
6.22583
6.22612
6.22623
6.22624
6.22624
6.22618
6.22611
6.22603
6.22594
6.22566
4.95342
4.95371
4.95378
4.95387
4.95395
4.95405
4.95418
4.95436
4.95488
4.9544
4.8806
4.8811
4.88127
4.88132
4.88133
4.88137
4.88144
4.88156
4.88195
4.88226
4.857
4.85693
4.85696
4.85696
4.85694
4.85691
4.85691
4.85701
4.85732
4.85762
4.85801
4.85744
4.85715
4.8572
4.8576
4.85832
4.85925
4.86027
4.8612
4.86202
4.85773
4.85748
4.85735
4.8574
4.85763
4.858
4.85848
4.85903
4.85959
4.86082
4.87918
4.87788
4.87767
4.87805
4.87915
4.88085
4.88302
4.88562
4.88818
4.8915
4.93856
4.93938
4.94008
4.94028
4.94011
4.93966
4.93872
4.93771
4.93472
4.94014
5.13744
5.13467
5.13516
5.13629
5.13898
5.14283
5.1472
5.15165
5.15306
5.15983
6.36661
6.36619
6.36602
6.36615
6.36658
6.36727
6.36817
6.3691
6.36989
6.37065
5.96955
5.9698
5.96989
5.9699
5.9699
5.96987
5.96982
5.96976
5.96969
5.96943
4.94933
4.94983
4.94998
4.95012
4.95016
4.95018
4.95021
4.95029
4.95087
4.95045
4.87954
4.87987
4.87992
4.87996
4.88002
4.88015
4.88033
4.88056
4.88104
4.88155
4.85774
4.85774
4.8578
4.85778
4.8577
4.85758
4.85745
4.8574
4.85753
4.85784
4.85753
4.85706
4.85681
4.85683
4.85711
4.85761
4.85827
4.859
4.85969
4.86034
4.85685
4.85664
4.85654
4.85656
4.85669
4.85691
4.85719
4.85749
4.85778
4.85857
4.8743
4.87331
4.87313
4.8734
4.87417
4.87533
4.87678
4.87849
4.88021
4.88288
4.92854
4.9291
4.92971
4.92989
4.92976
4.92937
4.92851
4.92751
4.92455
4.92899
5.12801
5.12605
5.12655
5.12762
5.12985
5.13294
5.1363
5.13944
5.13952
5.14494
6.0817
6.08145
6.08136
6.08144
6.08169
6.08208
6.08258
6.08307
6.08345
6.08387
5.70318
5.70339
5.70346
5.70348
5.70347
5.70345
5.70342
5.70337
5.70331
5.70308
4.94516
4.9458
4.94602
4.9462
4.94624
4.9462
4.94613
4.94612
4.94672
4.94655
4.87837
4.87849
4.87846
4.87846
4.87853
4.8787
4.87892
4.87921
4.87969
4.88041
4.85857
4.85857
4.85861
4.85858
4.85849
4.85836
4.85822
4.85812
4.85817
4.85851
4.85766
4.85731
4.85712
4.85712
4.85729
4.85761
4.85802
4.8585
4.85898
4.85948
4.85695
4.8568
4.85672
4.85672
4.85678
4.8569
4.85703
4.85718
4.85732
4.85778
4.86966
4.86895
4.86879
4.86896
4.86943
4.87015
4.87103
4.87206
4.87315
4.87519
4.91726
4.91754
4.91802
4.91816
4.91807
4.91776
4.91708
4.91627
4.91382
4.91741
5.1162
5.11493
5.11539
5.11636
5.11816
5.1206
5.12314
5.12527
5.12455
5.12876
5.78653
5.7864
5.78635
5.78639
5.78652
5.78671
5.78697
5.78718
5.78734
5.78755
5.42757
5.42774
5.42778
5.42779
5.42779
5.42778
5.42776
5.42773
5.42768
5.42749
4.93949
4.94013
4.94051
4.94075
4.9408
4.94071
4.94053
4.94037
4.94074
4.94106
4.87676
4.87664
4.87653
4.87649
4.87654
4.8767
4.87692
4.87721
4.87763
4.87849
4.85909
4.85903
4.85903
4.859
4.85894
4.85885
4.85876
4.8587
4.85872
4.85906
4.85812
4.85789
4.85777
4.85776
4.85785
4.85802
4.85825
4.85852
4.85882
4.85916
4.85759
4.8575
4.85745
4.85744
4.85745
4.85749
4.85753
4.85757
4.85761
4.85782
4.86469
4.86425
4.86414
4.86422
4.86445
4.86481
4.86524
4.86574
4.86634
4.8677
4.90355
4.90359
4.90387
4.90392
4.90379
4.90349
4.90294
4.90231
4.90069
4.90334
5.09494
5.09424
5.09463
5.09543
5.09677
5.09854
5.10033
5.10158
5.10041
5.1032
5.4821
5.48204
5.48203
5.48204
5.48208
5.48214
5.48222
5.48228
5.48233
5.48243
5.14252
5.14262
5.14263
5.14264
5.14264
5.14263
5.14263
5.14262
5.14262
5.14253
4.92468
4.92525
4.92587
4.9262
4.92628
4.92616
4.92587
4.92546
4.92505
4.92567
4.87366
4.87331
4.87311
4.87301
4.87302
4.87314
4.87334
4.87362
4.87403
4.87487
4.85937
4.85929
4.85927
4.85925
4.85922
4.85918
4.85915
4.85913
4.85916
4.85938
4.85894
4.85882
4.85876
4.85875
4.85879
4.85887
4.85898
4.8591
4.85926
4.85944
4.85862
4.85859
4.85857
4.85856
4.85855
4.85855
4.85854
4.85853
4.85852
4.85857
4.86082
4.86063
4.86057
4.8606
4.86069
4.86082
4.86097
4.86114
4.86137
4.862
4.88687
4.8867
4.88676
4.8867
4.88652
4.88621
4.88579
4.88538
4.88481
4.88652
5.04083
5.04055
5.0408
5.0413
5.0421
5.04313
5.04415
5.0447
5.04369
5.04472
5.16847
5.16844
5.16845
5.16845
5.16846
5.16846
5.16846
5.16845
5.16842
5.16848
11.2687
11.3837
11.3381
11.1219
82.8103
84.8873
85.3471
85.9961
143.14
148.614
149.083
147.838
202.802
212.238
212.105
207.815
264.479
278.139
276.933
269.48
332.766
351.044
348.944
340.202
395.14
417.788
415.405
408.014
433.137
459.404
457.456
452.881
345.645
368.217
365.666
364.317
11.4765
11.7151
11.559
11.1511
9.71358
9.77295
9.77579
9.7318
76.0778
79.3215
80.0813
80.202
133.889
144.809
145.91
143.744
192.911
214.539
215.073
209.175
256.143
290.983
290.034
280.082
329.508
380.265
378.49
365.614
399.586
466.599
465.631
452.599
446.057
527.534
528.573
517.381
350.483
422.83
420.92
416.083
10.7112
10.942
10.8715
10.6513
8.77678
8.78975
8.78874
8.77724
26.5379
28.9548
28.2176
25.7084
49.3581
53.7645
52.1004
47.4262
74.585
81.3443
78.2245
70.7084
103.459
112.999
107.819
96.7364
139.444
152.806
145.178
129.284
177.309
194.671
184.511
163.488
207.52
228.693
216.433
190.898
164.714
181.604
170.122
149.288
9.91264
10.0034
9.9802
9.88101
8.51187
8.51442
8.51509
8.51412
11.4731
11.7229
11.6933
11.4962
21.2134
21.9408
21.8775
21.3351
31.9982
33.4851
33.2331
31.9172
44.5119
46.9452
46.2807
43.7584
60.6355
64.4034
63.0832
58.7668
78.056
83.1679
80.9006
74.4564
92.573
99.1221
95.8348
87.1429
71.9304
77.0693
73.5576
65.9571
9.44854
9.49297
9.4899
9.44949
8.33285
8.33395
8.33421
8.33356
7.04211
7.13373
7.15896
7.12909
11.6784
11.9748
12.0578
11.9718
16.8718
17.4864
17.5868
17.3201
22.8374
23.8572
23.893
23.289
30.7137
32.3385
32.2257
31.0368
39.2234
41.4577
41.0397
39.0604
46.2604
49.1957
48.3784
45.3985
34.3992
36.6171
35.4267
32.5471
9.09822
9.12215
9.12377
9.10681
8.18253
8.18345
8.18354
8.18278
5.60685
5.62115
5.62638
5.62466
7.45621
7.52617
7.5589
7.56026
9.93783
10.1216
10.1888
10.1637
12.834
13.1798
13.266
13.1655
16.7964
17.4127
17.5025
17.2348
21.0457
21.9421
21.9653
21.4362
24.4775
25.729
25.6273
24.6912
17.4799
18.3736
18.0191
17.0156
8.8127
8.8246
8.82696
8.82082
8.03169
8.03258
8.03265
8.03187
5.19701
5.20021
5.20109
5.2001
5.82328
5.83909
5.84773
5.84993
6.91447
6.96733
6.99249
6.99358
8.25912
8.3713
8.41558
8.40587
10.2337
10.4612
10.5311
10.4822
12.3584
12.706
12.7761
12.6571
14.0525
14.5718
14.6183
14.3542
10.2213
10.5573
10.4787
10.1876
8.56527
8.57074
8.57281
8.57141
7.87344
7.87432
7.87438
7.87363
5.06326
5.06443
5.06444
5.06351
5.2332
5.23557
5.237
5.23765
5.68413
5.69647
5.70299
5.70436
6.26565
6.29593
6.31045
6.31197
7.19409
7.26957
7.30017
7.29446
8.21543
8.33623
8.37599
8.35734
9.06828
9.26853
9.31299
9.24765
7.33861
7.45117
7.44505
7.37902
8.33727
8.33954
8.341
8.34122
7.70546
7.70629
7.70636
7.70565
5.01332
5.01424
5.01418
5.01326
5.02035
5.02046
5.02051
5.02055
5.20445
5.20676
5.20803
5.20839
5.45537
5.46194
5.4655
5.4666
5.88054
5.90345
5.91396
5.91381
6.35885
6.39456
6.40981
6.4101
6.80611
6.87723
6.89966
6.88502
6.19829
6.23212
6.23641
6.22592
8.11405
8.11484
8.11573
8.11629
7.52698
7.52777
7.52783
7.52717
4.99135
4.99221
4.99216
4.99128
4.93893
4.93883
4.93872
4.93863
5.0096
5.00981
5.00992
5.00997
5.12347
5.12434
5.12489
5.12527
5.32335
5.33031
5.33359
5.33351
5.55966
5.56803
5.57261
5.57467
5.81389
5.83863
5.84765
5.84343
5.69847
5.70596
5.7086
5.70938
7.88837
7.88849
7.88899
7.88952
7.33766
7.33838
7.33844
7.33783
4.9796
4.98038
4.98033
4.97949
4.90613
4.90609
4.906
4.90589
4.92538
4.92526
4.92519
4.92519
4.98028
4.98011
4.98004
4.98011
5.07665
5.07918
5.08027
5.07995
5.20658
5.20762
5.20866
5.21002
5.36619
5.37582
5.37911
5.37642
5.45399
5.45301
5.45357
5.45586
7.65698
7.65683
7.65709
7.6575
7.13729
7.13794
7.13799
7.13744
4.97183
4.97253
4.97246
4.97167
4.89241
4.89242
4.89236
4.89224
4.88729
4.88716
4.8871
4.88711
4.91573
4.9155
4.91537
4.91535
4.96184
4.96308
4.96352
4.96317
5.0426
5.0421
5.04217
5.04291
5.15347
5.15826
5.15938
5.15681
5.3248
5.32147
5.32095
5.32289
7.4181
7.41788
7.41801
7.41828
6.92575
6.92632
6.92636
6.92586
4.9658
4.96639
4.9663
4.96554
4.88653
4.88655
4.8865
4.88637
4.86971
4.86962
4.86959
4.86961
4.88594
4.8858
4.8857
4.88565
4.90697
4.90776
4.90799
4.90767
4.96371
4.96315
4.96302
4.96339
5.04873
5.05191
5.05223
5.04966
5.25281
5.24925
5.24833
5.24962
7.17056
7.1704
7.17046
7.1706
6.70298
6.70348
6.7035
6.70306
4.96065
4.96114
4.96101
4.9603
4.88396
4.88399
4.88394
4.88381
4.86174
4.86168
4.86167
4.86169
4.87201
4.87194
4.87188
4.87183
4.88061
4.88117
4.88132
4.88105
4.9248
4.9245
4.92439
4.9245
4.99614
4.99874
4.99876
4.9962
5.21074
5.2077
5.20671
5.20735
6.91361
6.91357
6.91359
6.9136
6.469
6.46942
6.46942
6.46904
4.9561
4.95646
4.9563
4.95564
4.88284
4.88288
4.88284
4.8827
4.85848
4.85846
4.85845
4.85846
4.8654
4.86538
4.86534
4.86529
4.86808
4.86848
4.86857
4.86834
4.9048
4.90478
4.90473
4.90465
4.96892
4.97133
4.97123
4.96863
5.1846
5.18234
5.18143
5.18143
6.64675
6.64685
6.64686
6.64675
6.22395
6.22427
6.22425
6.22393
4.95204
4.9523
4.95211
4.9515
4.88232
4.8824
4.88236
4.8822
4.85764
4.85766
4.85767
4.85765
4.86217
4.86217
4.86215
4.86211
4.86221
4.86249
4.86254
4.86235
4.89332
4.89354
4.89353
4.89331
4.95328
4.95568
4.95555
4.95287
5.16663
5.16528
5.16451
5.16389
6.36977
6.37002
6.37003
6.36982
5.96815
5.96837
5.96833
5.96807
4.94845
4.94863
4.94842
4.94786
4.88192
4.88207
4.88205
4.88185
4.85803
4.8581
4.85811
4.85806
4.86052
4.86054
4.86053
4.8605
4.85951
4.85969
4.85971
4.85957
4.88508
4.88546
4.88549
4.88518
4.94149
4.94401
4.94389
4.9411
5.15185
5.15152
5.15096
5.1497
6.08279
6.08316
6.08318
6.0829
5.70231
5.70242
5.70236
5.70217
4.94519
4.94537
4.94518
4.94465
4.88122
4.88147
4.88146
4.8812
4.85886
4.85896
4.85897
4.8589
4.85967
4.8597
4.8597
4.85969
4.85834
4.85844
4.85844
4.85835
4.8774
4.87785
4.8779
4.87757
4.9287
4.93135
4.93128
4.92844
5.13555
5.13643
5.13615
5.1342
5.78637
5.78682
5.78684
5.78653
5.42736
5.42733
5.42724
5.42714
4.94098
4.94137
4.94125
4.94064
4.8796
4.87994
4.87993
4.87959
4.85945
4.85957
4.85958
4.8595
4.85934
4.85938
4.85939
4.85939
4.85807
4.85812
4.85811
4.85807
4.86952
4.86992
4.86997
4.8697
4.91191
4.91431
4.91429
4.91181
5.10909
5.11148
5.11155
5.10874
5.48139
5.48191
5.48194
5.4816
5.14312
5.14288
5.14279
5.14286
4.92729
4.92818
4.92816
4.9272
4.87564
4.87587
4.87584
4.87557
4.85961
4.85969
4.8597
4.85964
4.85957
4.8596
4.85961
4.85961
4.85862
4.85863
4.85862
4.85862
4.86298
4.8632
4.86325
4.86311
4.89067
4.89183
4.8918
4.89058
5.04752
5.05104
5.05136
5.04793
5.16796
5.16852
5.16853
5.16816
10.1123
9.3665
9.05447
8.94196
8.8775
8.83206
8.8018
8.78479
8.77533
8.7697
103.675
49.1191
35.7483
29.9518
24.5535
19.9456
16.3595
13.6859
11.7782
10.4164
160.956
70.8643
51.0941
43.7397
37.1861
31.4192
26.5863
22.7057
19.6622
17.2879
206.43
82.5985
55.9819
46.7239
39.3557
32.7597
27.2219
22.8288
19.4378
16.8504
242.06
88.9518
58.8238
47.96
40.0708
32.7298
26.6707
21.949
18.363
15.718
278.028
94.6875
60.9697
48.2962
39.8393
31.7815
25.3475
20.4605
16.8783
14.3275
307.076
98.1521
61.6845
47.7749
39.0407
30.5153
23.9396
19.0708
15.5918
13.2079
315.179
93.7428
56.6213
42.2223
33.9134
25.7836
19.9214
15.7946
13.044
11.2273
224.441
56.1269
30.5396
21.1136
16.2816
12.2228
9.95422
8.61232
7.8035
7.27935
9.5691
9.54446
9.38907
9.36292
9.31634
9.29021
9.26945
9.25841
9.25095
9.24452
9.36697
9.05688
8.90468
8.81909
8.76516
8.72954
8.70641
8.69267
8.68527
8.68057
53.1029
28.6713
22.557
19.4489
16.6673
14.1961
12.1612
10.5986
9.45887
8.66683
90.0011
46.2766
35.8019
31.02
27.1787
23.5054
20.2865
17.6273
15.4993
13.8804
122.268
58.6145
42.8658
35.6325
30.5469
25.7624
21.6917
18.4187
15.8689
13.9825
152.564
68.7692
47.8561
38.5176
32.3807
26.6741
21.9734
18.2944
15.4823
13.4724
186.435
78.8754
52.1432
40.4722
33.2542
26.6659
21.4508
17.4929
14.5889
12.589
217.196
86.4721
54.7101
41.2463
33.3501
26.1747
20.6955
16.6587
13.7689
11.8516
233.179
86.7445
51.9137
37.4806
29.5755
22.5753
17.5724
14.0818
11.762
10.2818
167.388
54.7505
29.0597
19.3778
14.6936
11.2257
9.2739
8.12897
7.43317
7.00232
9.81835
9.50186
9.33071
9.26744
9.21254
9.17926
9.15511
9.14036
9.12996
9.12094
8.73768
8.69628
8.66355
8.63633
8.61503
8.59957
8.58926
8.58308
8.57965
8.57718
19.9482
16.5765
14.5028
12.6842
11.1143
9.811
8.79657
8.04759
7.5088
7.1362
35.9213
28.7132
24.9258
21.6891
18.9126
16.5038
14.5083
12.9037
11.6283
10.6664
51.0389
37.9378
31.5413
26.3494
22.2574
18.8374
16.094
13.9448
12.2855
11.0717
66.1299
45.6938
36.6298
29.5921
24.3768
20.1229
16.8109
14.288
12.3768
11.0237
83.2269
53.3446
41.1432
32.0823
25.7329
20.6591
16.8398
14.0181
11.9724
10.579
99.1232
59.19
44.1486
33.4559
26.3341
20.7034
16.5959
13.6527
11.5692
10.1981
108.414
59.7556
42.597
30.9981
23.7626
18.2163
14.4232
11.8557
10.1694
9.09668
75.938
36.6468
23.8667
16.2716
12.2248
9.6818
8.28923
7.47107
6.96236
6.64297
9.57133
9.37688
9.24292
9.16307
9.10545
9.06941
9.04432
9.02722
9.01457
9.00366
8.50931
8.49925
8.48821
8.47827
8.47073
8.4656
8.4624
8.46077
8.46036
8.45989
10.9416
10.1336
9.28455
8.44
7.73263
7.18975
6.79081
6.50269
6.29407
6.14897
19.8683
18.0293
16.1774
14.304
12.6877
11.359
10.2973
9.46136
8.80199
8.30735
28.4787
24.6343
21.1909
17.9883
15.3997
13.3272
11.7034
10.4504
9.49197
8.79675
37.2442
30.668
25.4315
20.8628
17.3661
14.6385
12.5617
11.0079
9.84035
9.01609
47.4709
36.972
29.5243
23.3588
18.8633
15.4383
12.9139
11.085
9.77326
8.88251
57.0688
42.0769
32.5523
25.012
19.7582
15.83
13.0256
11.0602
9.68
8.76854
62.7968
43.2639
32.0874
23.7109
18.2341
14.3052
11.6788
9.94018
8.80213
8.06918
42.7437
26.2029
17.9716
12.7908
10.023
8.39089
7.47275
6.91809
6.55937
6.32876
9.32669
9.18813
9.08097
9.01129
8.96305
8.93138
8.90863
8.89229
8.87996
8.86952
8.33339
8.3319
8.33039
8.32921
8.32851
8.32821
8.32824
8.3287
8.3298
8.33082
6.99905
6.75889
6.50593
6.26743
6.06896
5.91243
5.79198
5.70026
5.63086
5.58285
11.6117
10.9259
10.152
9.37412
8.68698
8.11439
7.65497
7.29323
7.00465
6.78663
16.4407
14.9582
13.3761
11.8596
10.5717
9.52101
8.69268
8.05443
7.56615
7.21331
21.5371
18.9356
16.3585
14.0115
12.1124
10.6139
9.47169
8.62284
7.98276
7.5283
27.7684
23.4449
19.5087
16.0864
13.4428
11.421
9.93241
8.86263
8.09505
7.57115
33.7358
27.3833
22.0654
17.6412
14.3783
11.9541
10.2296
9.03314
8.18755
7.62094
37.3933
28.7906
22.2617
17.1533
13.6353
11.1578
9.50802
8.42096
7.69977
7.22482
24.5278
17.3342
12.8088
9.95667
8.36325
7.40458
6.82973
6.46679
6.22033
6.05858
9.05252
8.96942
8.89779
8.8467
8.80926
8.78243
8.76221
8.74702
8.73528
8.72549
8.18336
8.18351
8.18387
8.18445
8.18519
8.18597
8.18677
8.18776
8.18924
8.191
5.60819
5.565
5.51363
5.46139
5.41411
5.37357
5.34001
5.31301
5.29241
5.27941
7.50493
7.31397
7.06555
6.806
6.57056
6.37219
6.21198
6.08407
5.97738
5.89436
9.97814
9.47247
8.85108
8.22752
7.67845
7.22394
6.86188
6.57949
6.35956
6.1998
12.7365
11.7748
10.6617
9.59945
8.70655
7.9951
7.44999
7.04254
6.72764
6.49973
16.3276
14.6102
12.7534
11.0605
9.69775
8.64758
7.87012
7.30792
6.89722
6.61297
19.8647
17.2468
14.5832
12.2672
10.4866
9.15998
8.21137
7.54968
7.06958
6.73972
22.1179
18.4202
14.9973
12.2234
10.2375
8.84148
7.90111
7.2716
6.8414
6.55045
14.3938
11.5381
9.42757
8.05161
7.21559
6.67972
6.33258
6.10264
5.93833
5.82906
8.79742
8.75129
8.70707
8.67159
8.64324
8.6212
8.6038
8.5902
8.57945
8.57062
8.03258
8.03291
8.03347
8.03423
8.03508
8.03592
8.03674
8.03768
8.03909
8.04089
5.19681
5.18866
5.17899
5.16829
5.15761
5.14754
5.13859
5.13117
5.1261
5.12419
5.83893
5.79305
5.73065
5.66343
5.60094
5.54731
5.50324
5.46677
5.43291
5.40469
6.95025
6.79232
6.58445
6.36814
6.17112
6.00296
5.86427
5.75181
5.66076
5.5939
8.29803
7.96349
7.54448
7.13188
6.77495
6.48455
6.25654
6.08121
5.93844
5.83159
10.2207
9.55395
8.76939
8.03131
7.41891
6.93825
6.57387
6.30269
6.09704
5.95198
12.1902
11.1261
9.92488
8.84887
7.99502
7.34923
6.87677
6.53842
6.28103
6.0982
13.5191
11.9505
10.3395
8.99868
8.00413
7.29157
6.79559
6.45152
6.20664
6.0368
9.42597
8.38613
7.50703
6.88447
6.46164
6.16811
5.96292
5.82066
5.7137
5.64219
8.56187
8.53732
8.51059
8.4863
8.46523
8.44771
8.43325
8.42156
8.41208
8.40442
7.87434
7.8746
7.87502
7.87559
7.87624
7.87687
7.87745
7.87815
7.87931
7.8809
5.06301
5.06126
5.05928
5.05691
5.05426
5.05148
5.04887
5.0468
5.04605
5.04695
5.2357
5.22728
5.21554
5.20235
5.18989
5.17933
5.17098
5.16383
5.15488
5.14611
5.69447
5.65156
5.59151
5.52538
5.46168
5.40419
5.35399
5.31096
5.27449
5.24761
6.28732
6.18748
6.05371
5.91573
5.79067
5.6842
5.59669
5.52631
5.46458
5.41632
7.22105
6.98852
6.69967
6.4165
6.17106
5.97
5.81022
5.68557
5.5865
5.51558
8.22881
7.83663
7.36114
6.91942
6.55391
6.26648
6.04646
5.88194
5.74886
5.65081
8.98469
8.36888
7.69595
7.11363
6.65999
6.32016
6.07125
5.89036
5.75602
5.66117
7.18586
6.82337
6.46894
6.188
5.97512
5.81541
5.69583
5.60946
5.54114
5.49563
8.33703
8.32366
8.30731
8.29085
8.27555
8.26209
8.25053
8.24087
8.23283
8.22644
7.70633
7.70651
7.70678
7.70716
7.70759
7.70799
7.70833
7.70877
7.70965
7.71099
5.01332
5.01257
5.01183
5.01098
5.00997
5.00885
5.0078
5.0071
5.00732
5.00857
5.02004
5.01899
5.01786
5.01665
5.01583
5.01574
5.01642
5.01707
5.01556
5.01301
5.20581
5.19453
5.17767
5.15767
5.13704
5.11719
5.09876
5.08203
5.0673
5.05651
5.46123
5.43456
5.39591
5.35317
5.31186
5.27458
5.24234
5.21517
5.18901
5.16737
5.89241
5.81793
5.72093
5.61945
5.52568
5.44406
5.37538
5.31897
5.27209
5.23842
6.3802
6.25255
6.08386
5.91724
5.77021
5.64747
5.54803
5.47004
5.40254
5.35084
6.80383
6.58108
6.32428
6.08738
5.89013
5.73327
5.61179
5.51934
5.44802
5.3973
6.17789
6.04664
5.90068
5.77143
5.66376
5.57706
5.50802
5.45633
5.41327
5.38494
8.11403
8.10651
8.09644
8.08547
8.07466
8.06467