/*--------------------------------*- C++ -*----------------------------------*\
| =========                 |                                                 |
| \\      /  F ield         | foam-extend: Open Source CFD                    |
|  \\    /   O peration     | Version:     4.0                                |
|   \\  /    A nd           | Web:         http://www.foam-extend.org         |
|    \\/     M anipulation  |                                                 |
\*---------------------------------------------------------------------------*/
FoamFile
{
    version     2.0;
    format      ascii;
    class       volScalarField;
    location    "1800";
    object      MaU;
}
// * * * * * * * * * * * * * * * * * * * * * * * * * * * * * * * * * * * * * //

dimensions      [0 0 0 0 0 0 0];

internalField   nonuniform List<scalar> 
34480
(
0.623765
0.624762
0.625298
0.625411
0.625105
0.624306
0.622874
0.620128
0.614034
0.608238
0.627184
0.628011
0.628472
0.628504
0.627946
0.626652
0.624648
0.621685
0.614668
0.609116
0.62937
0.630128
0.630502
0.63041
0.629675
0.628328
0.626555
0.624262
0.617227
0.61211
0.629368
0.630147
0.63059
0.630628
0.630118
0.629175
0.627901
0.626322
0.619675
0.615033
0.629835
0.630718
0.6313
0.631557
0.631369
0.630904
0.630176
0.629368
0.623506
0.619349
0.629437
0.630378
0.631043
0.63143
0.631479
0.631419
0.631226
0.63124
0.626561
0.623224
0.629647
0.630729
0.631501
0.632028
0.632287
0.632567
0.632871
0.633703
0.630471
0.627936
0.629061
0.630184
0.630912
0.631324
0.631468
0.631703
0.632159
0.633531
0.631815
0.630466
0.628812
0.630092
0.630934
0.631481
0.631802
0.632197
0.632903
0.634771
0.634327
0.632886
0.62501
0.626033
0.626069
0.625191
0.623571
0.621586
0.619689
0.619147
0.61835
0.619141
0.613866
0.615328
0.615901
0.615653
0.614509
0.612194
0.60808
0.600811
0.590101
0.576247
0.61848
0.619788
0.620313
0.620052
0.61881
0.616215
0.611674
0.603827
0.59117
0.575014
0.621551
0.622774
0.623247
0.622952
0.621637
0.618997
0.614527
0.606842
0.593339
0.576006
0.622363
0.623598
0.624136
0.623975
0.622868
0.620571
0.6165
0.609244
0.595351
0.577596
0.623512
0.624821
0.625476
0.625521
0.624713
0.622869
0.619319
0.612707
0.598909
0.581309
0.623654
0.625007
0.625741
0.625921
0.625349
0.62392
0.620915
0.615091
0.601842
0.585033
0.624312
0.625772
0.626601
0.626926
0.62657
0.625513
0.623045
0.618075
0.605754
0.590018
0.624049
0.625537
0.626334
0.626576
0.626165
0.625171
0.622995
0.618742
0.60761
0.593563
0.624047
0.625643
0.626532
0.626887
0.626656
0.625896
0.624112
0.620606
0.610733
0.597486
0.620437
0.621849
0.622181
0.621518
0.619915
0.617522
0.614066
0.609261
0.599863
0.589739
0.606237
0.607804
0.608369
0.608049
0.606807
0.604488
0.600794
0.595227
0.587154
0.576965
0.611137
0.612671
0.613228
0.612852
0.61142
0.608671
0.604097
0.596839
0.585451
0.570295
0.614482
0.616015
0.616568
0.616188
0.614693
0.611764
0.606782
0.598618
0.584602
0.564783
0.615788
0.617383
0.618013
0.617746
0.616379
0.613591
0.608603
0.600013
0.583845
0.55992
0.617414
0.619098
0.619837
0.619751
0.618614
0.616133
0.611383
0.602775
0.585106
0.557893
0.617976
0.619716
0.62054
0.620586
0.619651
0.617491
0.613085
0.604755
0.5862
0.556618
0.618997
0.62083
0.621744
0.621935
0.621202
0.619368
0.61537
0.607516
0.588649
0.5574
0.619034
0.620892
0.62179
0.621926
0.621165
0.619418
0.615692
0.608366
0.589713
0.557623
0.619292
0.621214
0.622182
0.622408
0.621778
0.620224
0.61686
0.610198
0.592189
0.558698
0.615924
0.617676
0.618232
0.617698
0.616059
0.613316
0.608806
0.601374
0.583922
0.550846
0.600678
0.602052
0.602524
0.602216
0.601125
0.599193
0.596323
0.592419
0.58746
0.58193
0.605312
0.606777
0.607287
0.606878
0.605479
0.602942
0.599019
0.593365
0.58554
0.576616
0.608507
0.610091
0.610637
0.610197
0.608646
0.605757
0.601105
0.594063
0.58347
0.570535
0.610011
0.611734
0.612368
0.611992
0.610447
0.607459
0.602411
0.594366
0.581115
0.563902
0.611905
0.613755
0.614492
0.614251
0.612829
0.609942
0.604785
0.59615
0.580647
0.559437
0.612757
0.61469
0.615514
0.61538
0.614088
0.611368
0.606267
0.597374
0.580074
0.555387
0.614051
0.61608
0.616985
0.61698
0.615843
0.613344
0.608427
0.599533
0.580955
0.553322
0.614345
0.616399
0.617301
0.617259
0.616102
0.613654
0.60887
0.600147
0.580876
0.550985
0.614825
0.616915
0.617869
0.617902
0.616852
0.61454
0.609944
0.601555
0.582259
0.54983
0.611706
0.613641
0.614307
0.613799
0.612044
0.608919
0.603557
0.594563
0.575459
0.541831
0.596817
0.597899
0.59826
0.598023
0.597208
0.595825
0.593889
0.591469
0.588715
0.585997
0.600895
0.602136
0.602567
0.602211
0.601036
0.598992
0.596007
0.592061
0.587213
0.582427
0.603637
0.60511
0.605616
0.605197
0.603781
0.601245
0.597376
0.591958
0.584712
0.577092
0.605071
0.606766
0.607377
0.606974
0.605446
0.602605
0.598064
0.591365
0.581581
0.570532
0.607006
0.608885
0.609604
0.609285
0.607766
0.604823
0.599874
0.592212
0.580036
0.565399
0.607986
0.609994
0.610805
0.610561
0.609088
0.606139
0.600962
0.592633
0.578311
0.560191
0.609428
0.611555
0.612447
0.612307
0.610927
0.608066
0.602828
0.594097
0.577992
0.556611
0.609898
0.612065
0.612967
0.612801
0.611393
0.608524
0.603246
0.594328
0.576951
0.552725
0.610551
0.612743
0.613685
0.613579
0.612246
0.609464
0.604241
0.59529
0.577283
0.549983
0.607659
0.60971
0.610456
0.60997
0.608151
0.604807
0.599059
0.589585
0.571352
0.541973
0.594176
0.59498
0.595238
0.595075
0.594522
0.593611
0.592392
0.590957
0.58944
0.587989
0.597657
0.598615
0.598953
0.598676
0.597779
0.596266
0.59416
0.591557
0.588661
0.586083
0.599829
0.601081
0.601515
0.601158
0.599973
0.597918
0.594937
0.591046
0.586358
0.581933
0.601025
0.602561
0.603114
0.602732
0.601348
0.598861
0.595089
0.589907
0.583126
0.576287
0.602824
0.6046
0.605266
0.604921
0.603449
0.6007
0.596328
0.59003
0.581107
0.571522
0.603791
0.605745
0.606512
0.606208
0.604695
0.601786
0.596971
0.589764
0.578759
0.566289
0.605267
0.607374
0.608225
0.607995
0.606505
0.60355
0.598463
0.590572
0.577684
0.562305
0.605826
0.607998
0.608872
0.608619
0.607081
0.604044
0.598755
0.590394
0.576
0.557879
0.606597
0.6088
0.609707
0.609498
0.608
0.604991
0.599635
0.590976
0.575604
0.55449
0.603899
0.605975
0.606756
0.606286
0.604455
0.601052
0.595308
0.586154
0.57028
0.546953
0.592362
0.59295
0.593126
0.593024
0.592674
0.592111
0.591381
0.59056
0.589728
0.588897
0.595326
0.596016
0.596263
0.596066
0.595429
0.594381
0.592976
0.59133
0.589629
0.588232
0.59693
0.597921
0.59827
0.59799
0.597067
0.595507
0.593336
0.590665
0.587716
0.585153
0.597814
0.599115
0.599588
0.599259
0.598093
0.596057
0.593105
0.589291
0.584756
0.580562
0.599363
0.600942
0.601531
0.601203
0.599878
0.597483
0.593854
0.588947
0.582669
0.576501
0.600211
0.602009
0.602706
0.602386
0.600952
0.598283
0.594087
0.588192
0.580108
0.571737
0.601629
0.603616
0.604401
0.604125
0.602647
0.599818
0.595204
0.588481
0.578656
0.567941
0.602192
0.604272
0.605094
0.604792
0.603237
0.600258
0.595318
0.587954
0.576638
0.563594
0.603029
0.605156
0.606009
0.605736
0.604188
0.601175
0.596071
0.58825
0.575847
0.560258
0.600483
0.6025
0.603277
0.602827
0.601049
0.597749
0.592327
0.584027
0.570981
0.553465
0.591086
0.591523
0.591642
0.591583
0.591371
0.591037
0.590613
0.590151
0.589686
0.589154
0.593653
0.594123
0.594296
0.594164
0.593737
0.593046
0.592147
0.591134
0.590141
0.589366
0.594758
0.595497
0.595762
0.595557
0.594878
0.593755
0.592244
0.590469
0.588637
0.587141
0.595333
0.596374
0.596758
0.596494
0.595569
0.593989
0.591786
0.589081
0.586104
0.583538
0.596578
0.597909
0.598406
0.598118
0.596999
0.595026
0.592162
0.58849
0.584183
0.580246
0.597244
0.598818
0.599425
0.599121
0.597845
0.595536
0.592066
0.587451
0.581686
0.576142
0.598541
0.60033
0.601028
0.600743
0.599371
0.596824
0.59286
0.587392
0.580151
0.572821
0.599035
0.600942
0.601688
0.601371
0.599897
0.597144
0.592783
0.586612
0.578042
0.568878
0.599897
0.601873
0.602651
0.602351
0.60085
0.59801
0.593413
0.586718
0.57711
0.565969
0.59746
0.599343
0.600083
0.599662
0.597998
0.594936
0.59006
0.582908
0.572637
0.560005
0.590156
0.590495
0.590576
0.590544
0.59042
0.590228
0.589987
0.589728
0.589461
0.589082
0.59244
0.592748
0.592865
0.592781
0.592507
0.592069
0.591511
0.5909
0.590322
0.589885
0.593139
0.593664
0.593856
0.593712
0.593237
0.592462
0.591449
0.590301
0.589173
0.588295
0.593454
0.594247
0.594545
0.594345
0.593646
0.592476
0.590895
0.589032
0.587103
0.58553
0.594389
0.595458
0.59586
0.595624
0.594726
0.593178
0.591009
0.588351
0.585446
0.582944
0.594849
0.596164
0.596672
0.596405
0.595328
0.593428
0.590681
0.587197
0.58317
0.579532
0.595993
0.597537
0.598136
0.597868
0.596663
0.594483
0.591229
0.586953
0.581744
0.576797
0.596362
0.598039
0.598693
0.598388
0.597062
0.594645
0.59097
0.586012
0.579702
0.573384
0.597224
0.598991
0.599678
0.59938
0.598002
0.595459
0.59151
0.586026
0.578812
0.571049
0.594858
0.596547
0.597222
0.596841
0.595341
0.592617
0.588415
0.582513
0.574697
0.565869
0.589451
0.589728
0.589786
0.58977
0.589699
0.58959
0.589454
0.589309
0.58915
0.588852
0.591544
0.591742
0.591819
0.591768
0.591597
0.591328
0.590989
0.590626
0.590287
0.590034
0.591924
0.592282
0.592415
0.59232
0.592
0.591485
0.590825
0.590098
0.58941
0.588891
0.592052
0.592632
0.592853
0.59271
0.592204
0.591371
0.590272
0.58902
0.587782
0.586815
0.592702
0.593524
0.593836
0.593653
0.592963
0.591797
0.590212
0.588343
0.58641
0.584824
0.592962
0.594014
0.594423
0.594203
0.593335
0.591837
0.589743
0.587194
0.584427
0.582058
0.593948
0.595228
0.595724
0.595489
0.59448
0.592697
0.59013
0.586896
0.583222
0.579921
0.594153
0.59557
0.596123
0.595849
0.59471
0.592682
0.589709
0.585868
0.58133
0.577043
0.595008
0.59653
0.597118
0.596843
0.595637
0.593461
0.590206
0.585882
0.580605
0.575307
0.592681
0.594137
0.594729
0.594395
0.593093
0.590764
0.587283
0.582595
0.576815
0.570806
0.588899
0.589137
0.589179
0.589172
0.589132
0.589071
0.588995
0.588913
0.588813
0.588562
0.590869
0.590994
0.591044
0.591014
0.590912
0.590749
0.590547
0.590332
0.590131
0.589981
0.590999
0.591234
0.591323
0.591261
0.591053
0.590721
0.590302
0.589851
0.589434
0.589126
0.591018
0.591427
0.591586
0.591487
0.591135
0.590561
0.589818
0.588994
0.588206
0.587609
0.591418
0.592027
0.59226
0.592124
0.591615
0.590769
0.589646
0.588364
0.587095
0.586093
0.591505
0.592315
0.592632
0.592459
0.591789
0.590653
0.589109
0.587295
0.585423
0.583889
0.592351
0.593372
0.593768
0.593575
0.592766
0.591365
0.589411
0.587037
0.58449
0.582309
0.592367
0.593519
0.593969
0.593735
0.592799
0.591167
0.588849
0.58597
0.582772
0.579906
0.593226
0.59449
0.594976
0.594738
0.593727
0.591941
0.589358
0.586063
0.582291
0.578736
0.590913
0.592117
0.592618
0.592336
0.591247
0.589331
0.586551
0.582954
0.578787
0.57479
0.588455
0.588667
0.588699
0.588697
0.588674
0.588641
0.588597
0.588551
0.588484
0.588262
0.590351
0.59043
0.590465
0.590448
0.590387
0.59029
0.59017
0.590043
0.589922
0.589827
0.590274
0.590425
0.590481
0.590442
0.590311
0.590102
0.589842
0.589567
0.589318
0.589136
0.590262
0.590541
0.590653
0.590588
0.590351
0.589966
0.589476
0.588943
0.588444
0.588075
0.590452
0.590886
0.591053
0.590956
0.590594
0.59
0.589227
0.588368
0.587545
0.586914
0.590403
0.591003
0.59124
0.591109
0.590611
0.58978
0.588676
0.587417
0.586168
0.585183
0.591137
0.591923
0.592228
0.592076
0.591454
0.590394
0.588953
0.587259
0.585522
0.584093
0.590951
0.59185
0.592203
0.592014
0.591275
0.59001
0.588264
0.58617
0.583961
0.582072
0.59184
0.592853
0.59324
0.593044
0.592232
0.590823
0.588845
0.586411
0.583771
0.58142
0.589517
0.590474
0.590881
0.590651
0.589775
0.588257
0.586112
0.583442
0.580509
0.577906
0.588093
0.588286
0.588309
0.58831
0.588297
0.588279
0.588254
0.588227
0.588181
0.587979
0.589953
0.590006
0.59003
0.590021
0.589985
0.589928
0.589857
0.58978
0.589704
0.58964
0.589689
0.589781
0.589816
0.589791
0.58971
0.589582
0.589425
0.589261
0.589114
0.589007
0.589713
0.589901
0.589978
0.589936
0.589781
0.58953
0.589213
0.588873
0.58856
0.588329
0.589727
0.590026
0.590142
0.590074
0.589825
0.58942
0.588903
0.588339
0.587813
0.587419
0.589581
0.590011
0.590182
0.590088
0.589731
0.589142
0.588375
0.587521
0.5867
0.586072
0.590238
0.590822
0.591049
0.590936
0.590475
0.5897
0.588671
0.587492
0.586328
0.585398
0.58984
0.590515
0.590783
0.590635
0.590074
0.589129
0.587856
0.586378
0.584881
0.583653
0.590801
0.591586
0.591883
0.59173
0.591102
0.590032
0.588568
0.586824
0.585013
0.583477
0.588448
0.589175
0.589494
0.589314
0.588635
0.587475
0.585877
0.583955
0.581936
0.580279
0.587792
0.587969
0.587986
0.587989
0.587982
0.587971
0.587957
0.587941
0.587908
0.587724
0.589657
0.589694
0.589712
0.589708
0.589687
0.589653
0.58961
0.589562
0.589511
0.589462
0.589196
0.58925
0.58927
0.589254
0.589205
0.589128
0.589035
0.58894
0.588856
0.588795
0.589323
0.589446
0.589498
0.589474
0.589375
0.589215
0.589014
0.588799
0.588602
0.588457
0.589184
0.589383
0.589461
0.589415
0.589249
0.588981
0.588643
0.588282
0.587951
0.587708
0.588981
0.589278
0.589398
0.589332
0.589085
0.58868
0.588162
0.587596
0.587064
0.586668
0.589589
0.590009
0.590173
0.590091
0.589762
0.589215
0.588502
0.587703
0.586936
0.586336
0.588971
0.589458
0.589653
0.589543
0.589132
0.588451
0.587551
0.586537
0.585542
0.584758
0.59006
0.590648
0.590868
0.590754
0.590288
0.589505
0.588457
0.587241
0.586025
0.585032
0.587646
0.588175
0.588416
0.58828
0.587773
0.586919
0.585766
0.584425
0.583067
0.582037
0.587534
0.587695
0.587708
0.587711
0.587706
0.587701
0.587693
0.587683
0.587659
0.587493
0.589456
0.589485
0.5895
0.589498
0.589485
0.589465
0.589438
0.589406
0.589368
0.589326
0.588763
0.588793
0.588802
0.588791
0.588761
0.588717
0.588664
0.588611
0.588566
0.588534
0.589053
0.589134
0.589169
0.589155
0.589094
0.588994
0.588868
0.588734
0.588611
0.588517
0.588782
0.58891
0.588959
0.588929
0.588821
0.588649
0.588434
0.588207
0.588003
0.587856
0.588555
0.588755
0.588836
0.588792
0.588626
0.588356
0.588015
0.587648
0.587308
0.58706
0.589136
0.589426
0.58954
0.589483
0.589256
0.588883
0.588404
0.587876
0.587383
0.586998
0.588284
0.588622
0.588759
0.58868
0.58839
0.587916
0.587299
0.586622
0.585973
0.585483
0.589571
0.589998
0.590156
0.590074
0.589741
0.589188
0.588462
0.587639
0.58684
0.586202
0.587045
0.587412
0.587588
0.58749
0.587125
0.586519
0.585714
0.584806
0.583912
0.583292
0.58728
0.587423
0.587431
0.587434
0.587432
0.587429
0.587425
0.587419
0.587402
0.587255
0.589356
0.589382
0.589394
0.589395
0.589387
0.589373
0.589355
0.589332
0.589301
0.589258
0.588368
0.588382
0.588384
0.588376
0.588358
0.588333
0.588305
0.588278
0.588256
0.588243
0.58888
0.588932
0.588955
0.588948
0.58891
0.588849
0.588772
0.58869
0.588614
0.588552
0.588495
0.588574
0.588606
0.588587
0.588519
0.588411
0.588277
0.588138
0.588014
0.587927
0.588274
0.588405
0.58846
0.588431
0.588323
0.588149
0.587929
0.587696
0.587482
0.587328
0.588831
0.589023
0.589099
0.58906
0.588909
0.588662
0.588351
0.588013
0.587704
0.587462
0.587736
0.587961
0.588055
0.588001
0.587804
0.587483
0.587072
0.586631
0.586214
0.585918
0.589299
0.589601
0.58971
0.589653
0.589425
0.589048
0.588562
0.58802
0.587508
0.587098
0.586559
0.586801
0.586927
0.586858
0.586605
0.586189
0.585645
0.58505
0.584472
0.584114
0.58693
0.587052
0.587057
0.587059
0.587058
0.587057
0.587055
0.587053
0.587043
0.586919
0.589383
0.589409
0.58942
0.589421
0.589416
0.589407
0.589393
0.589374
0.589345
0.589297
0.58801
0.588014
0.588013
0.588007
0.587997
0.587983
0.587968
0.587955
0.587947
0.587946
0.588785
0.588818
0.588831
0.588826
0.588804
0.588767
0.588722
0.588674
0.588629
0.588589
0.588316
0.588365
0.588385
0.588373
0.588332
0.588265
0.588184
0.588099
0.588025
0.587973
0.588127
0.588212
0.588248
0.588231
0.588162
0.588052
0.587914
0.587768
0.587633
0.587537
0.588645
0.588766
0.588813
0.588786
0.588688
0.588531
0.588335
0.588126
0.587941
0.587793
0.587322
0.587469
0.587533
0.587498
0.587368
0.587158
0.58689
0.586607
0.586339
0.586166
0.589239
0.589445
0.589518
0.58948
0.589328
0.58908
0.588765
0.588418
0.5881
0.587834
0.586052
0.586204
0.586292
0.586245
0.586076
0.585801
0.585442
0.585063
0.584692
0.5845
0.586263
0.586358
0.58636
0.586361
0.586361
0.586362
0.586363
0.586363
0.586361
0.586265
0.589604
0.589632
0.58964
0.589641
0.589637
0.58963
0.58962
0.589604
0.589578
0.589522
0.587734
0.587736
0.587739
0.587737
0.587732
0.587723
0.587714
0.587705
0.587698
0.5877
0.588752
0.588768
0.588773
0.588769
0.588755
0.588734
0.588709
0.588683
0.588662
0.588639
0.588243
0.588274
0.588288
0.588282
0.588257
0.588217
0.588167
0.588115
0.588069
0.588036
0.588106
0.588162
0.588185
0.588175
0.588133
0.588064
0.587978
0.587887
0.587802
0.58774
0.588564
0.588634
0.58866
0.588642
0.588579
0.588481
0.588361
0.588237
0.588132
0.588049
0.58712
0.587219
0.587265
0.587245
0.587161
0.587025
0.586852
0.586668
0.586488
0.586382
0.589442
0.589576
0.589622
0.589596
0.589497
0.589338
0.589139
0.588926
0.588737
0.588562
0.585294
0.585387
0.585449
0.585419
0.585309
0.585129
0.584898
0.584658
0.584415
0.584322
0.584967
0.585032
0.585035
0.585038
0.585039
0.58504
0.58504
0.585039
0.585038
0.58497
0.590161
0.590179
0.590176
0.590171
0.590166
0.590162
0.590159
0.590156
0.590144
0.590092
0.587655
0.587669
0.587682
0.587687
0.587687
0.58768
0.587668
0.587653
0.587635
0.587622
0.588751
0.588754
0.588751
0.588745
0.588736
0.588724
0.588712
0.588702
0.588698
0.588693
0.588259
0.588282
0.588292
0.58829
0.588275
0.58825
0.588218
0.588184
0.588153
0.588129
0.588182
0.588219
0.588235
0.588229
0.588202
0.588158
0.588104
0.588045
0.58799
0.587947
0.588564
0.588602
0.588616
0.588602
0.588561
0.588499
0.588425
0.58835
0.588293
0.588254
0.587284
0.587361
0.587397
0.587386
0.587332
0.587242
0.587127
0.587001
0.586868
0.586781
0.590034
0.590109
0.590134
0.590114
0.590047
0.589944
0.589819
0.58969
0.589589
0.589492
0.58401
0.584073
0.584118
0.584098
0.584025
0.583906
0.583754
0.583597
0.583427
0.58338
0.583142
0.583183
0.583196
0.583203
0.583205
0.583203
0.583195
0.583183
0.583166
0.583111
0.591085
0.591057
0.591027
0.591008
0.590999
0.591
0.591011
0.591034
0.591067
0.591076
0.587838
0.587874
0.587898
0.58791
0.587912
0.587906
0.587891
0.587866
0.587829
0.587784
0.58874
0.588732
0.588725
0.588718
0.588711
0.588703
0.588697
0.588696
0.588701
0.588713
0.588313
0.588331
0.58834
0.588339
0.588328
0.58831
0.588287
0.588262
0.588238
0.588218
0.588277
0.588304
0.588316
0.588311
0.588292
0.588261
0.588222
0.58818
0.58814
0.588108
0.588584
0.588607
0.588615
0.588604
0.588574
0.588529
0.588476
0.588424
0.588389
0.588374
0.587803
0.587874
0.587905
0.587899
0.587859
0.587793
0.587707
0.58761
0.587502
0.587402
0.590991
0.591019
0.59103
0.591011
0.590961
0.590885
0.590795
0.590711
0.590665
0.590663
0.582322
0.582379
0.582413
0.582398
0.582343
0.582254
0.582142
0.582026
0.581898
0.581857
0.439175
0.418424
0.42533
0.466286
0.391405
0.368167
0.379208
0.436442
0.348219
0.321073
0.338409
0.417331
0.310152
0.280755
0.305088
0.406413
0.278676
0.248611
0.280177
0.404003
0.251575
0.222058
0.261892
0.401188
0.229859
0.202215
0.250838
0.398554
0.209475
0.185358
0.242818
0.396461
0.191534
0.17351
0.239236
0.398093
0.172074
0.1622
0.234923
0.393595
0.499254
0.489056
0.489381
0.499094
0.468767
0.456152
0.457296
0.469974
0.437893
0.421172
0.423382
0.440953
0.408875
0.387908
0.391502
0.414221
0.384216
0.358751
0.364007
0.392072
0.362172
0.331823
0.337871
0.371199
0.344293
0.308955
0.314838
0.353262
0.327852
0.287715
0.293151
0.336566
0.314311
0.27014
0.275122
0.32293
0.298951
0.252355
0.25495
0.305289
0.566651
0.564435
0.563905
0.565038
0.548894
0.545197
0.544502
0.546803
0.52891
0.523015
0.522207
0.526541
0.506674
0.498407
0.497606
0.50444
0.48568
0.474957
0.47433
0.484063
0.464606
0.451299
0.45089
0.463633
0.44567
0.429696
0.429463
0.445154
0.427038
0.408517
0.408428
0.426885
0.410778
0.390577
0.390534
0.410914
0.391864
0.372151
0.371384
0.391292
0.579115
0.578032
0.577683
0.578033
0.569487
0.568075
0.567585
0.567948
0.557629
0.555145
0.554428
0.555327
0.54286
0.53907
0.538164
0.539888
0.528427
0.523187
0.522169
0.525023
0.512866
0.506051
0.504975
0.509222
0.498266
0.489804
0.488712
0.494551
0.482955
0.472922
0.47187
0.479379
0.468733
0.457755
0.456751
0.465561
0.450894
0.440963
0.439699
0.448048
0.585983
0.585393
0.585193
0.585381
0.580157
0.579677
0.579447
0.579456
0.57268
0.57174
0.571317
0.571388
0.56258
0.560944
0.560292
0.560558
0.552625
0.550121
0.549248
0.54988
0.541333
0.537819
0.536751
0.537929
0.530605
0.525992
0.524773
0.526684
0.518824
0.513135
0.511835
0.514624
0.507655
0.501313
0.50001
0.503584
0.492906
0.487704
0.486274
0.489295
0.588563
0.588087
0.587941
0.588126
0.585119
0.584908
0.584799
0.58479
0.580036
0.579616
0.579399
0.579381
0.572816
0.572054
0.571677
0.571669
0.565765
0.564533
0.563965
0.56402
0.55745
0.555624
0.55485
0.555047
0.549625
0.547109
0.546143
0.54659
0.540729
0.537506
0.5364
0.537218
0.532308
0.528637
0.527492
0.528718
0.520399
0.517847
0.516625
0.517184
0.589689
0.589258
0.589135
0.589322
0.587809
0.587717
0.587665
0.587656
0.584274
0.584079
0.583972
0.583952
0.578908
0.578538
0.578336
0.578299
0.573708
0.573087
0.572758
0.57271
0.56736
0.566403
0.565917
0.565877
0.56152
0.560154
0.559501
0.559511
0.554724
0.552917
0.552122
0.552254
0.548566
0.546448
0.545594
0.545916
0.538895
0.537892
0.536992
0.536551
0.590022
0.589606
0.589491
0.58968
0.589153
0.589106
0.589079
0.589073
0.586693
0.586596
0.586541
0.58653
0.58268
0.582488
0.58238
0.582353
0.578784
0.578455
0.578269
0.578224
0.573826
0.573306
0.573017
0.572952
0.569391
0.568631
0.568223
0.56815
0.564115
0.563092
0.562573
0.562524
0.559707
0.55848
0.557896
0.557916
0.551668
0.551575
0.550977
0.550196
0.589979
0.589568
0.589457
0.589647
0.58977
0.589745
0.589729
0.589725
0.588053
0.588002
0.587973
0.587966
0.585058
0.584955
0.584894
0.584877
0.58214
0.581959
0.581854
0.581823
0.57825
0.577959
0.57779
0.577739
0.574888
0.574455
0.574207
0.574139
0.570744
0.570156
0.569832
0.569759
0.567601
0.566886
0.566507
0.56645
0.560786
0.561213
0.560848
0.559993
0.589755
0.589345
0.589236
0.589427
0.589968
0.589953
0.589944
0.58994
0.588754
0.588726
0.58871
0.588706
0.58654
0.586481
0.586445
0.586434
0.584359
0.584256
0.584195
0.584175
0.581316
0.581148
0.581047
0.581013
0.578813
0.578561
0.578411
0.578361
0.575533
0.57519
0.57499
0.574932
0.573329
0.572906
0.572668
0.572609
0.567457
0.568169
0.567961
0.567126
0.589458
0.589047
0.588938
0.58913
0.58994
0.58993
0.589923
0.58992
0.589048
0.589032
0.589023
0.589021
0.587442
0.587407
0.587385
0.587378
0.585813
0.585753
0.585716
0.585704
0.583443
0.583343
0.583282
0.58326
0.58164
0.581488
0.581395
0.581363
0.579015
0.57881
0.578688
0.578647
0.577549
0.577294
0.577146
0.577103
0.572408
0.573261
0.573153
0.572366
0.589144
0.588731
0.588622
0.588816
0.589799
0.589791
0.589786
0.589783
0.58909
0.589082
0.589077
0.589076
0.587969
0.587946
0.587933
0.587927
0.586743
0.586707
0.586685
0.586677
0.584907
0.584846
0.584808
0.584794
0.583674
0.58358
0.583522
0.583501
0.581533
0.581409
0.581333
0.581306
0.580674
0.580517
0.580425
0.580397
0.5761
0.577007
0.576958
0.576226
0.588841
0.588425
0.588316
0.588512
0.589617
0.58961
0.589605
0.589602
0.588982
0.588977
0.588975
0.588975
0.588259
0.588244
0.588235
0.588231
0.587313
0.587292
0.587279
0.587274
0.585899
0.585861
0.585837
0.585828
0.585129
0.585069
0.585033
0.58502
0.583322
0.583246
0.583199
0.583182
0.582987
0.582888
0.582831
0.582815
0.578847
0.579752
0.579735
0.579061
0.588559
0.58814
0.588032
0.588231
0.58944
0.589434
0.589429
0.589426
0.588783
0.588781
0.58878
0.588781
0.588408
0.588398
0.588391
0.588388
0.587642
0.58763
0.587622
0.587619
0.586557
0.586533
0.586518
0.586512
0.586159
0.586121
0.586098
0.58609
0.584555
0.584509
0.58448
0.584469
0.584695
0.584631
0.584596
0.584589
0.580871
0.581736
0.581737
0.581123
0.588294
0.587872
0.587766
0.587969
0.589302
0.589294
0.589289
0.589285
0.58853
0.58853
0.58853
0.588531
0.588482
0.588474
0.588469
0.588467
0.587816
0.587809
0.587805
0.587803
0.586989
0.586973
0.586964
0.58696
0.586881
0.586857
0.586842
0.586838
0.585361
0.585333
0.585315
0.585308
0.585959
0.585916
0.585894
0.585894
0.582334
0.583131
0.58314
0.582592
0.588013
0.587591
0.587489
0.587696
0.589228
0.58922
0.589213
0.589209
0.588245
0.588246
0.588248
0.588249
0.588525
0.588519
0.588515
0.588514
0.587902
0.587898
0.587896
0.587895
0.58728
0.587269
0.587262
0.58726
0.587386
0.587371
0.587363
0.587361
0.585846
0.585828
0.585816
0.585812
0.586913
0.586882
0.586869
0.586874
0.583337
0.584042
0.584053
0.583578
0.587621
0.587202
0.587109
0.58732
0.589259
0.589248
0.58924
0.589236
0.587951
0.587953
0.587955
0.587956
0.588569
0.588565
0.588562
0.588562
0.587956
0.587953
0.587952
0.587952
0.587501
0.587493
0.587488
0.587487
0.587748
0.587741
0.587737
0.587737
0.586119
0.586106
0.586098
0.586095
0.587685
0.587661
0.587654
0.587663
0.583892
0.584484
0.584492
0.584099
0.586889
0.586487
0.586408
0.58662
0.589472
0.589458
0.589449
0.589445
0.587702
0.587703
0.587703
0.587704
0.588629
0.588627
0.588626
0.588627
0.588021
0.588018
0.588017
0.588017
0.587709
0.587701
0.587698
0.587698
0.588031
0.588029
0.588029
0.58803
0.586333
0.58632
0.586312
0.58631
0.588439
0.588419
0.588415
0.588428
0.583877
0.584333
0.584337
0.584033
0.585475
0.585121
0.585066
0.585262
0.590031
0.590014
0.590007
0.590008
0.587603
0.587598
0.587595
0.587593
0.588696
0.588697
0.588699
0.588702
0.588111
0.588108
0.588106
0.588106
0.587918
0.587911
0.587908
0.587908
0.588261
0.588264
0.588266
0.588267
0.58669
0.586667
0.586658
0.586661
0.589413
0.589399
0.589399
0.589415
0.583063
0.583352
0.583349
0.583155
0.583404
0.583184
0.583158
0.583282
0.591047
0.591041
0.591044
0.591058
0.587719
0.587704
0.587695
0.587689
0.588735
0.58874
0.588744
0.588747
0.588198
0.588194
0.588192
0.588192
0.588081
0.588074
0.588072
0.588074
0.588404
0.58841
0.588413
0.588413
0.587236
0.587198
0.587187
0.5872
0.590732
0.590743
0.59075
0.590754
0.58158
0.581653
0.581649
0.581605
0.59524
0.603696
0.607697
0.6108
0.613924
0.616681
0.618919
0.620666
0.622033
0.623179
0.596171
0.599506
0.606927
0.611975
0.61644
0.619826
0.62229
0.624054
0.625299
0.626241
0.60003
0.596386
0.607369
0.613084
0.618366
0.621962
0.62453
0.626352
0.627605
0.628496
0.603444
0.592512
0.607126
0.612698
0.618557
0.622105
0.624661
0.626439
0.627655
0.628519
0.607936
0.590502
0.607874
0.613174
0.619479
0.622879
0.625405
0.627099
0.628227
0.62901
0.611023
0.587847
0.607618
0.612444
0.619202
0.622417
0.624958
0.626604
0.627737
0.628561
0.615023
0.586584
0.608444
0.612555
0.619718
0.62267
0.625227
0.626816
0.627921
0.628721
0.616593
0.583534
0.607451
0.610795
0.618466
0.62122
0.62394
0.625612
0.626917
0.627953
0.618257
0.582051
0.607901
0.60991
0.617724
0.620011
0.622959
0.62478
0.626287
0.627515
0.602712
0.566186
0.594681
0.597035
0.606723
0.610592
0.61524
0.618352
0.620914
0.622933
0.537823
0.559889
0.576234
0.587861
0.595824
0.601367
0.605374
0.608365
0.610674
0.612593
0.524113
0.554656
0.57674
0.590687
0.599539
0.605529
0.609772
0.612847
0.61509
0.616752
0.513849
0.551526
0.577846
0.592862
0.602314
0.608577
0.612965
0.616107
0.618343
0.619938
0.505463
0.548496
0.578021
0.593359
0.603216
0.609556
0.613954
0.617059
0.61925
0.620802
0.501007
0.547679
0.579288
0.594677
0.604825
0.611117
0.615457
0.618464
0.620552
0.622015
0.497812
0.546609
0.579703
0.594859
0.605247
0.611418
0.615702
0.618623
0.620672
0.622137
0.497415
0.547042
0.58121
0.595842
0.606395
0.612344
0.616551
0.619375
0.621363
0.622788
0.496621
0.546095
0.581167
0.5951
0.605846
0.61158
0.615814
0.618655
0.620766
0.622364
0.497113
0.546417
0.582346
0.595022
0.605564
0.610826
0.615156
0.618117
0.620396
0.622179
0.48803
0.536382
0.573062
0.585251
0.596814
0.603095
0.608617
0.612508
0.615548
0.617815
0.568939
0.575212
0.581289
0.586664
0.591248
0.595081
0.598255
0.600876
0.603068
0.604959
0.555704
0.567095
0.57728
0.585606
0.592273
0.597522
0.601616
0.604798
0.60726
0.609134
0.54262
0.559793
0.574162
0.58505
0.593359
0.59961
0.604317
0.607866
0.61052
0.612465
0.529466
0.552371
0.570724
0.583719
0.593302
0.600213
0.605273
0.609004
0.611754
0.613743
0.519545
0.547519
0.569303
0.583881
0.594382
0.601679
0.606908
0.610686
0.613433
0.615396
0.510702
0.54299
0.567715
0.583419
0.594595
0.602096
0.607405
0.611186
0.613937
0.615921
0.504677
0.540469
0.567648
0.584036
0.595667
0.603203
0.608516
0.612254
0.614976
0.616939
0.498987
0.537436
0.56668
0.583383
0.595332
0.602818
0.60816
0.611924
0.614739
0.616836
0.495281
0.536098
0.567078
0.583447
0.595283
0.602484
0.607885
0.611749
0.614694
0.61694
0.485191
0.527206
0.559393
0.575705
0.58824
0.596166
0.602383
0.606911
0.610389
0.612913
0.578752
0.58116
0.584065
0.587012
0.58979
0.592302
0.594524
0.596466
0.59818
0.599739
0.56998
0.574744
0.580158
0.5853
0.589837
0.593696
0.596917
0.599572
0.601727
0.603431
0.559462
0.567538
0.575948
0.583371
0.589592
0.59466
0.598735
0.601974
0.604509
0.606438
0.547148
0.55925
0.570994
0.580676
0.588432
0.594496
0.599217
0.602875
0.605684
0.607787
0.536459
0.552853
0.567881
0.57957
0.588604
0.595416
0.600578
0.604486
0.607442
0.60962
0.525845
0.546548
0.564698
0.578093
0.588173
0.595529
0.600994
0.605065
0.608125
0.610385
0.517315
0.542143
0.563143
0.577887
0.58877
0.596471
0.602115
0.606262
0.609369
0.611652
0.508941
0.537528
0.561069
0.576799
0.588278
0.596179
0.60196
0.606198
0.609412
0.611815
0.502429
0.534645
0.560386
0.57652
0.588199
0.596081
0.601975
0.606322
0.609642
0.612164
0.491531
0.526344
0.553535
0.570056
0.582375
0.590822
0.597291
0.602109
0.6058
0.608447
0.585247
0.586008
0.587172
0.588537
0.589972
0.591388
0.592734
0.593988
0.595167
0.596321
0.579914
0.581769
0.584287
0.58701
0.589681
0.592163
0.594389
0.596335
0.597991
0.599348
0.572379
0.575781
0.580089
0.584477
0.588568
0.592194
0.595309
0.597922
0.600061
0.601756
0.562565
0.568177
0.574744
0.581002
0.586554
0.591269
0.595179
0.598367
0.600921
0.602905
0.553448
0.561736
0.570796
0.57893
0.585845
0.591496
0.596042
0.599656
0.6025
0.604668
0.543654
0.554947
0.566605
0.576524
0.584663
0.591094
0.596143
0.600082
0.603151
0.605483
0.535207
0.549687
0.563917
0.57543
0.584607
0.591638
0.597055
0.601212
0.604427
0.606847
0.526515
0.544206
0.560884
0.573732
0.583743
0.591212