/*--------------------------------*- C++ -*----------------------------------*\
| =========                 |                                                 |
| \\      /  F ield         | foam-extend: Open Source CFD                    |
|  \\    /   O peration     | Version:     4.0                                |
|   \\  /    A nd           | Web:         http://www.foam-extend.org         |
|    \\/     M anipulation  |                                                 |
\*---------------------------------------------------------------------------*/
FoamFile
{
    version     2.0;
    format      ascii;
    class       volScalarField;
    location    "1800";
    object      p;
}
// * * * * * * * * * * * * * * * * * * * * * * * * * * * * * * * * * * * * * //

dimensions      [1 -1 -2 0 0 0 0];

internalField   nonuniform List<scalar> 
34480
(
107971
107871
107831
107846
107931
108113
108456
109139
110104
110450
107830
107731
107691
107702
107782
107958
108297
108967
110001
109975
107689
107586
107546
107549
107614
107761
108059
108661
109691
109115
107616
107512
107466
107456
107498
107601
107842
108344
109307
108154
107534
107419
107365
107338
107355
107413
107595
107993
108852
107159
107551
107436
107376
107340
107338
107359
107485
107775
108495
106277
107458
107330
107263
107215
107196
107188
107265
107456
108016
105341
107545
107423
107360
107327
107324
107326
107389
107507
107885
104745
107445
107318
107249
107212
107210
107222
107275
107336
107509
103997
107538
107424
107410
107476
107615
107806
108050
108286
108456
104460
108731
108606
108561
108586
108691
108895
109230
109758
110572
111639
108524
108392
108345
108372
108485
108710
109098
109751
110891
112494
108324
108187
108140
108161
108269
108487
108882
109588
110969
112955
108197
108055
108001
108011
108103
108296
108668
109365
110885
113124
108072
107918
107856
107849
107919
108077
108411
109063
110652
113037
108050
107896
107826
107807
107859
107984
108274
108857
110450
112867
107927
107760
107683
107650
107684
107778
108024
108533
110082
112472
107991
107829
107752
107729
107770
107864
108090
108532
109985
112255
107878
107711
107628
107596
107627
107715
107923
108317
109623
111814
107959
107804
107763
107808
107941
108153
108485
108982
110236
112222
109298
109185
109146
109174
109277
109463
109747
110149
110679
111290
109085
108952
108908
108944
109068
109299
109663
110207
111022
112028
108866
108722
108678
108713
108845
109093
109502
110152
111248
112676
108707
108555
108503
108531
108658
108906
109334
110044
111363
113172
108554
108388
108328
108343
108457
108688
109113
109841
111328
113465
108501
108333
108266
108271
108372
108583
108991
109707
111306
113693
108352
108172
108099
108091
108177
108365
108748
109436
111098
113682
108395
108218
108144
108142
108231
108416
108788
109443
111106
113800
108269
108089
108009
107998
108073
108244
108596
109227
110828
113638
108337
108164
108113
108157
108302
108555
108983
109678
111244
114053
109696
109608
109577
109601
109681
109819
110017
110271
110564
110844
109517
109401
109362
109394
109504
109698
109987
110378
110884
111403
109320
109182
109139
109175
109301
109531
109888
110401
111155
111994
109157
109003
108951
108985
109117
109366
109773
110388
111385
112571
108996
108824
108765
108788
108917
109168
109601
110283
111493
113020
108927
108749
108681
108698
108820
109065
109509
110227
111614
113452
108764
108573
108499
108505
108616
108849
109290
110024
111548
113670
108790
108601
108526
108535
108649
108882
109324
110062
111666
114014
108653
108461
108381
108383
108488
108710
109140
109879
111494
114071
108706
108521
108460
108502
108655
108933
109412
110199
111806
114524
109970
109908
109887
109904
109960
110054
110181
110333
110493
110631
109836
109744
109713
109739
109826
109974
110184
110448
110751
111027
109680
109560
109521
109554
109664
109856
110141
110518
111000
111472
109532
109389
109341
109374
109499
109725
110075
110564
111250
111972
109379
109214
109157
109185
109315
109559
109955
110534
111422
112415
109306
109130
109065
109088
109219
109471
109899
110545
111621
112888
109139
108947
108876
108891
109017
109268
109713
110407
111648
113188
109156
108964
108889
108907
109037
109294
109754
110482
111847
113630
109011
108815
108737
108750
108874
109127
109588
110342
111771
113813
109054
108863
108797
108837
108994
109285
109781
110577
112029
114268
110159
110119
110105
110116
110152
110211
110288
110375
110460
110528
110067
109999
109976
109996
110059
110164
110306
110475
110653
110801
109958
109860
109828
109855
109943
110093
110305
110570
110873
111140
109834
109710
109667
109697
109805
109996
110277
110646
111103
111537
109701
109551
109500
109528
109648
109867
110205
110668
111291
111921
109634
109470
109409
109436
109563
109801
110185
110729
111520
112361
109471
109288
109221
109242
109370
109619
110034
110644
111594
112662
109486
109299
109228
109252
109386
109647
110089
110752
111837
113122
109338
109145
109071
109091
109224
109486
109940
110646
111825
113355
109373
109184
109117
109156
109311
109600
110081
110826
112050
113767
110292
110268
110260
110266
110288
110324
110368
110417
110463
110497
110232
110186
110169
110183
110226
110296
110388
110492
110596
110678
110168
110093
110068
110088
110154
110265
110415
110594
110783
110939
110069
109969
109933
109958
110046
110197
110411
110678
110980
111245
109963
109835
109790
109816
109920
110104
110377
110731
111161
111562
109910
109763
109709
109736
109851
110063
110387
110823
111391
111945
109756
109589
109528
109552
109674
109904
110269
110778
111482
112211
109775
109602
109536
109562
109693
109940
110339
110910
111740
112644
109628
109446
109377
109402
109534
109788
110207
110827
111755
112863
109660
109481
109416
109453
109600
109874
110316
110974
111954
113214
110391
110376
110372
110375
110389
110409
110434
110461
110486
110503
110351
110320
110309
110318
110346
110391
110448
110512
110571
110617
110324
110270
110252
110266
110314
110391
110493
110610
110727
110818
110250
110172
110144
110163
110230
110344
110501
110687
110884
111048
110171
110066
110030
110051
110136
110284
110494
110755
111048
111304
110134
110010
109964
109988
110088
110265
110527
110863
111263
111629
109995
109849
109795
109818
109929
110129
110435
110841
111352
111847
110023
109868
109809
109836
109956
110178
110521
110989
111607
112235
109878
109713
109651
109677
109801
110034
110401
110919
111625
112407
109912
109748
109687
109721
109857
110105
110493
111047
111803
112697
110467
110459
110456
110458
110466
110477
110491
110506
110519
110528
110437
110419
110411
110417
110435
110462
110497
110535
110569
110595
110442
110404
110391
110401
110433
110485
110553
110627
110698
110752
110385
110327
110306
110320
110369
110452
110562
110689
110816
110917
110333
110251
110222
110239
110306
110419
110575
110761
110957
111120
110313
110212
110174
110194
110276
110419
110621
110871
111148
111389
110189
110066
110021
110042
110136
110303
110548
110861
111225
111559
110230
110097
110046
110071
110176
110366
110648
111017
111466
111897
110088
109944
109890
109914
110026
110229
110536
110952
111474
112013
110126
109982
109928
109958
110078
110294
110621
111069
111635
112253
110529
110524
110522
110523
110528
110534
110542
110550
110557
110562
110503
110491
110487
110490
110501
110518
110538
110561
110580
110595
110530
110505
110496
110503
110524
110558
110601
110647
110691
110722
110485
110444
110428
110438
110473
110531
110606
110690
110771
110833
110457
110395
110373
110386
110436
110519
110631
110760
110890
110993
110452
110373
110343
110359
110424
110534
110685
110865
111054
111210
110342
110243
110206
110224
110301
110434
110624
110856
111110
111333
110398
110289
110246
110268
110356
110511
110735
111016
111336
111626
110259
110138
110092
110114
110209
110379
110627
110949
111325
111690
110305
110183
110136
110162
110264
110445
110710
111059
111471
111890
110580
110577
110577
110577
110580
110583
110588
110592
110596
110598
110552
110546
110543
110545
110551
110561
110574
110587
110598
110607
110599
110582
110577
110581
110594
110616
110643
110671
110697
110715
110558
110530
110519
110525
110549
110588
110638
110693
110745
110783
110550
110506
110490
110499
110535
110594
110672
110759
110844
110909
110557
110498
110475
110488
110537
110618
110728
110854
110981
111082
110461
110383
110354
110368
110428
110531
110672
110841
111015
111162
110532
110446
110412
110430
110500
110623
110794
111000
111224
111416
110395
110295
110259
110277
110355
110491
110684
110925
111190
111434
110451
110351
110312
110334
110417
110563
110771
111033
111327
111605
110625
110623
110623
110623
110625
110627
110629
110631
110633
110635
110591
110588
110586
110587
110591
110597
110604
110612
110618
110624
110653
110643
110639
110642
110650
110664
110680
110697
110712
110722
110612
110593
110585
110589
110605
110631
110663
110699
110731
110755
110621
110589
110578
110585
110610
110651
110703
110761
110815
110856
110636
110593
110576
110586
110621
110680
110757
110843
110928
110992
110549
110491
110469
110480
110525
110601
110703
110822
110939
111035
110637
110571
110545
110559
110614
110707
110833
110981
111134
111259
110498
110420
110391
110406
110467
110572
110717
110892
111076
111236
110567
110489
110458
110475
110541
110654
110811
111002
111206
111389
110664
110663
110663
110663
110664
110665
110666
110668
110669
110669
110621
110619
110618
110618
110621
110624
110629
110633
110637
110641
110698
110692
110689
110691
110696
110704
110714
110724
110733
110738
110650
110638
110633
110635
110645
110662
110683
110705
110725
110741
110673
110652
110644
110649
110666
110693
110728
110765
110800
110825
110694
110664
110652
110659
110684
110724
110777
110835
110890
110931
110614
110572
110556
110564
110597
110651
110723
110804
110882
110944
110718
110670
110651
110662
110702
110770
110861
110963
111066
111146
110574
110515
110493
110504
110550
110628
110734
110857
110982
111086
110659
110599
110575
110589
110639
110723
110838
110973
111112
111230
110700
110699
110700
110699
110700
110700
110701
110702
110702
110702
110643
110642
110641
110641
110643
110645
110648
110651
110653
110656
110736
110732
110731
110733
110736
110740
110746
110751
110756
110758
110678
110670
110666
110668
110674
110684
110698
110712
110724
110734
110713
110699
110694
110697
110708
110726
110748
110772
110793
110808
110736
110715
110707
110711
110728
110756
110791
110829
110864
110890
110661
110631
110620
110626
110649
110686
110735
110789
110839
110880
110782
110748
110734
110742
110771
110819
110882
110951
111019
111069
110627
110583
110567
110576
110609
110665
110739
110824
110906
110974
110731
110687
110670
110679
110716
110777
110858
110951
111044
111118
110734
110733
110734
110734
110734
110734
110734
110735
110735
110734
110657
110657
110656
110656
110657
110658
110660
110662
110664
110667
110770
110768
110768
110769
110770
110773
110776
110779
110781
110782
110697
110691
110689
110690
110694
110700
110708
110717
110725
110731
110741
110732
110729
110731
110738
110750
110764
110778
110791
110800
110764
110750
110744
110747
110759
110777
110800
110824
110846
110862
110694
110674
110666
110670
110686
110711
110743
110778
110810
110836
110831
110808
110799
110804
110824
110857
110900
110945
110990
111019
110661
110629
110618
110624
110647
110686
110736
110793
110846
110890
110789
110759
110746
110753
110779
110822
110877
110939
110999
111046
110771
110770
110771
110771
110771
110771
110771
110771
110771
110770
110663
110662
110662
110662
110662
110663
110665
110666
110668
110671
110801
110800
110800
110801
110802
110803
110805
110806
110807
110806
110709
110705
110704
110704
110707
110711
110716
110721
110725
110730
110760
110755
110753
110754
110759
110766
110774
110783
110791
110796
110780
110771
110768
110769
110777
110788
110803
110818
110832
110842
110717
110704
110699
110702
110712
110728
110749
110771
110790
110806
110869
110854
110848
110851
110865
110887
110915
110944
110973
110989
110677
110655
110648
110652
110667
110693
110726
110763
110797
110826
110844
110823
110814
110819
110837
110865
110902
110942
110981
111009
110824
110823
110824
110824
110824
110824
110823
110823
110823
110822
110657
110656
110655
110655
110656
110656
110657
110659
110661
110664
110826
110826
110826
110827
110827
110828
110829
110830
110830
110828
110716
110714
110713
110713
110715
110717
110720
110723
110725
110728
110770
110767
110766
110766
110769
110773
110778
110784
110789
110792
110785
110780
110777
110778
110783
110790
110799
110809
110818
110824
110730
110723
110720
110722
110728
110739
110751
110764
110776
110785
110893
110884
110879
110881
110890
110904
110922
110941
110960
110969
110676
110661
110656
110659
110669
110686
110707
110730
110751
110770
110908
110895
110889
110892
110904
110922
110946
110972
110997
111012
110918
110917
110918
110918
110918
110918
110917
110917
110916
110915
110631
110629
110629
110629
110629
110630
110631
110632
110634
110637
110840
110840
110839
110839
110839
110840
110840
110841
110842
110841
110719
110718
110718
110718
110719
110721
110722
110723
110724
110725
110771
110769
110768
110768
110770
110772
110776
110779
110782
110784
110781
110777
110775
110776
110778
110783
110789
110795
110801
110805
110736
110732
110731
110732
110736
110743
110750
110758
110764
110769
110892
110885
110881
110882
110888
110897
110909
110922
110935
110941
110649
110639
110636
110638
110645
110656
110669
110683
110695
110708
111008
110999
110995
110997
111004
111017
111032
111048
111065
111074
111080
111079
111079
111079
111079
111079
111079
111079
111078
111078
110570
110570
110571
110572
110572
110572
110572
110572
110572
110574
110827
110826
110824
110823
110823
110823
110825
110826
110829
110830
110721
110722
110722
110723
110724
110724
110725
110725
110725
110725
110766
110764
110763
110763
110764
110766
110768
110771
110773
110775
110770
110767
110766
110767
110769
110772
110775
110779
110783
110787
110737
110735
110734
110735
110738
110742
110747
110752
110756
110757
110849
110843
110840
110841
110844
110851
110859
110868
110879
110886
110583
110578
110576
110578
110583
110590
110599
110607
110613
110619
111164
111158
111155
111156
111162
111170
111181
111192
111205
111209
111262
111260
111258
111258
111257
111258
111259
111260
111262
111266
110487
110492
110496
110498
110499
110499
110497
110495
110490
110483
110793
110790
110787
110786
110786
110786
110788
110790
110794
110799
110727
110728
110729
110729
110730
110730
110731
110731
110730
110729
110761
110759
110759
110759
110759
110761
110763
110765
110767
110768
110763
110761
110760
110760
110762
110764
110768
110771
110774
110776
110740
110738
110737
110738
110740
110744
110748
110752
110755
110756
110786
110780
110777
110778
110781
110786
110793
110801
110810
110819
110498
110497
110496
110498
110502
110508
110515
110522
110525
110521
111331
111326
111324
111325
111329
111336
111345
111355
111364
111368
122714
123927
123752
122478
125946
127352
126952
125330
128890
130476
129888
127898
131056
132759
131985
129716
132720
134502
133554
131081
134071
135912
134954
132360
134997
136871
136045
133384
135820
137700
137038
134338
135736
137587
137070
134378
135324
137162
136903
134365
113012
113202
113240
113120
115299
115670
115728
115438
117556
118109
118167
117658
119697
120417
120462
119707
121650
122506
122521
121508
123503
124469
124448
123219
125039
126088
126038
124650
126543
127652
127583
126087
127324
128463
128392
126845
127972
129145
129123
127623
111811
111900
111928
111901
113135
113303
113342
113275
114589
114855
114908
114778
116067
116438
116498
116285
117491
117966
118024
117706
118968
119544
119594
119160
120260
120927
120968
120414
121641
122385
122415
121748
122462
123253
123277
122515
123280
124108
124149
123332
110960
110983
110994
110994
111713
111766
111786
111779
112633
112737
112770
112745
113665
113833
113882
113827
114693
114934
114996
114897
115822
116141
116213
116057
116826
117223
117302
117078
117985
118452
118534
118236
118698
119216
119303
118940
119474
120035
120139
119735
110677
110687
110692
110692
111149
111173
111184
111183
111733
111782
111802
111798
112440
112524
112555
112545
113166
113292
113337
113313
114004
114180
114238
114193
114741
114971
115041
114966
115661
115944
116023
115912
116239
116563
116655
116511
116917
117277
117388
117221
110546
110550
110552
110553
110849
110859
110864
110865
111244
111265
111275
111277
111738
111777
111795
111797
112259
112323
112352
112352
112890
112985
113026
113020
113427
113558
113610
113595
114156
114324
114387
114357
114616
114814
114890
114846
115168
115393
115485
115428
110506
110508
110509
110509
110701
110706
110709
110709
110989
110999
111004
111006
111341
111361
111371
111374
111725
111758
111776
111780
112207
112259
112285
112290
112597
112671
112707
112710
113178
113277
113322
113321
113528
113647
113704
113698
113961
114099
114165
114153
110508
110509
110509
110509
110629
110631
110633
110633
110844
110849
110852
110853
111098
111108
111115
111117
111389
111407
111417
111421
111766
111795
111811
111816
112051
112093
112116
112122
112520
112577
112608
112614
112767
112839
112877
112881
113104
113187
113232
113234
110531
110531
110531
110531
110602
110603
110604
110604
110766
110769
110770
110771
110946
110951
110955
110956
111168
111178
111184
111187
111467
111483
111493
111497
111673
111697
111712
111717
112056
112090
112110
112116
112215
112258
112283
112289
112482
112532
112561
112565
110563
110563
110564
110564
110599
110600
110600
110600
110730
110731
110732
110733
110851
110854
110856
110857
111021
111027
111031
111032
111257
111267
111273
111275
111400
111415
111424
111428
111719
111739
111751
111756
111808
111834
111850
111854
112023
112054
112072
112076
110599
110599
110599
110599
110609
110610
110610
110610
110720
110720
110721
110721
110794
110796
110797
110798
110926
110929
110932
110933
111111
111117
111121
111122
111202
111211
111217
111220
111472
111484
111492
111495
111505
111521
111531
111535
111685
111704
111715
111718
110635
110635
110635
110635
110625
110625
110626
110626
110725
110725
110726
110726
110762
110763
110764
110764
110866
110868
110870
110870
111010
111014
111016
111017
111060
111066
111069
111071
111293
111301
111306
111308
111281
111291
111297
111299
111437
111449
111456
111458
110669
110669
110669
110669
110642
110642
110642
110642
110740
110740
110740
110740
110745
110746
110746
110747
110831
110832
110833
110833
110943
110945
110946
110947
110959
110963
110965
110966
111168
111173
111176
111177
111115
111121
111125
111127
111260
111267
111271
111273
110702
110702
110702
110702
110657
110657
110657
110657
110759
110759
110759
110759
110737
110737
110738
110738
110812
110812
110813
110813
110898
110899
110900
110901
110889
110891
110892
110893
111083
111086
111087
111088
110993
110997
110999
111000
111136
111141
111143
111145
110734
110734
110734
110734
110667
110667
110667
110668
110782
110782
110782
110782
110733
110733
110733
110734
110802
110803
110803
110803
110868
110869
110869
110870
110840
110841
110842
110843
111028
111030
111031
111032
110902
110905
110907
110907
111056
111059
111061
111061
110770
110770
110770
110770
110671
110671
110671
110672
110807
110807
110806
110806
110730
110730
110731
110731
110797
110798
110798
110798
110846
110847
110847
110847
110807
110808
110808
110809
110996
110997
110998
110998
110834
110836
110837
110837
111014
111016
111017
111017
110822
110822
110821
110821
110664
110664
110665
110665
110829
110829
110829
110829
110727
110727
110727
110728
110793
110793
110793
110793
110827
110828
110828
110828
110784
110784
110784
110784
110975
110976
110977
110977
110775
110776
110777
110777
111014
111015
111015
111016
110914
110914
110914
110914
110637
110637
110638
110638
110843
110844
110843
110843
110723
110723
110723
110723
110786
110786
110786
110786
110808
110808
110809
110809
110766
110765
110765
110766
110949
110951
110951
110951
110710
110711
110711
110711
111074
111074
111074
111076
111078
111078
111078
111078
110571
110570
110571
110571
110836
110837
110838
110838
110721
110721
110720
110720
110776
110776
110777
110777
110789
110790
110790
110790
110753
110752
110752
110752
110899
110901
110902
110901
110615
110614
110614
110614
111215
111215
111216
111217
111267
111268
111268
111269
110467
110464
110462
110462
110809
110811
110811
110812
110724
110723
110723
110723
110770
110770
110770
110770
110778
110778
110779
110779
110751
110750
110750
110750
110836
110840
110841
110839
110497
110491
110490
110494
111391
111394
111394
111391
116090
113576
111651
110363
109557
109037
108682
108432
108252
108116
117147
113966
111596
110195
109369
108844
108494
108253
108084
107959
117510
114005
111328
110006
109181
108661
108311
108069
107905
107799
117494
113902
111001
109845
109038
108552
108219
107989
107832
107725
117210
113683
110693
109667
108868
108418
108098
107883
107733
107638
116841
113557
110525
109633
108835
108424
108115
107911
107765
107661
116199
113300
110234
109482
108676
108305
108002
107809
107664
107567
115778
113324
110226
109616
108797
108460
108150
107952
107794
107672
115053
112991
109915
109485
108689
108400
108080
107878
107713
107582
115492
113689
110586
110181
109263
108870
108438
108147
107911
107710
112564
111819
111158
110605
110150
109780
109481
109240
109047
108897
114187
112821
111687
110832
110189
109705
109341
109065
108852
108693
115486
113534
111992
110916
110129
109564
109154
108852
108630
108480
116474
114023
112142
110936
110067
109469
109044
108736
108511
108356
117101
114289
112138
110855
109935
109329
108901
108598
108374
108227
117577
114539
112171
110858
109908
109309
108885
108588
108366
108212
117725
114571
112026
110719
109748
109166
108747
108457
108236
108087
117936
114774
112093
110827
109845
109283
108860
108566
108338
108168
117717
114577
111850
110693
109741
109210
108781
108480
108243
108064
118122
115091
112327
111191
110164
109559
109052
108687
108401
108171
111744
111429
111075
110736
110429
110161
109931
109738
109576
109446
112916
112275
111605
111026
110551
110169
109860
109611
109411
109255
114114
113064
112040
111217
110579
110089
109712
109421
109197
109037
115228
113743
112384
111369
110608
110046
109625
109306
109064
108891
116157
114240
112575
111405
110550
109941
109493
109162
108910
108737
117030
114714
112776
111492
110568
109931
109469
109132
108876
108693
117629
114956
112778
111416
110440
109791
109321
108982
108723
108543
118280
115320
112950
111551
110542
109890
109411
109065
108798
108601
118450
115274
112817
111457
110457
109815
109325
108969
108693
108486
118954
115693
113189
111824
110768
110073
109529
109128
108818
108576
110971
110875
110740
110587
110430
110279
110138
110011
109900
109806
111704
111476
111188
110894
110616
110365
110144
109954
109794
109664
112573
112138
111629
111151
110730
110373
110076
109831
109633
109485
113509
112820
112068
111407
110852
110401
110038
109749
109518
109346
114374
113395
112390
111558
110885
110359
109948
109628
109375
109193
115268
113983
112726
111744
110973
110391
109945
109603
109336
109139
115962
114365
112867
111757
110905
110282
109811
109456
109177
108978
116755
114866
113155
111952
111039
110388
109896
109525
109236
109019
117131
114995
113152
111914
110975
110309
109798
109416
109116
108892
117736
115423
113484
112197
111206
110498
109949
109534
109212
108962
110684
110644
110582
110506
110423
110338
110255
110177
110106
110044
111157
111061
110923
110765
110603
110445
110297
110164
110048
109950
111739
111546
111289
111015
110751
110508
110291
110103
109945
109822
112437
112111
111701
111292
110915
110584
110299
110060
109861
109706
113130
112636
112051
111499
111011
110599
110256
109974
109743
109571
113903
113214
112439
111747
111157
110674
110283
109968
109713
109519
114533
113625
112653
111829
111147
110606
110175
109835
109561
109359
115304
114173
113014
112078
111318
110730
110267
109903
109614
109393
115742
114407
113107
112094
111280
110658
110168
109788
109487
109258
116341
114827
113413
112331
111465
110805
110285
109880
109562
109314
110549
110532
110503
110466
110423
110377
110330
110285
110242
110205
110856
110813
110745
110662
110569
110474
110382
110295
110216
110148
111258
111171
111040
110886
110725
110567
110418
110282
110164
110070
111762
111607
111387
111143
110898
110667
110457
110271
110111
109982
112290
112043
111712
111363
111028
110722
110453
110221
110024
109873
112916
112555
112096
111635
111208
110832
110509
110238
110012
109834
113431
112933
112331
111756
111240
110800
110431
110127
109874
109684
114114
113466
112719
112036
111440
110944
110535
110201
109930
109718
114528
113730
112856
112083
111422
110882
110441
110088
109802
109581
115049
114114
113137
112294
111582
111006
110538
110164
109864
109628
110507
110499
110484
110465
110443
110418
110392
110366
110342
110320
110705
110683
110647
110602
110549
110493
110437
110382
110331
110287
110997
110952
110881
110792
110694
110593
110494
110401
110318
110250
111359
111280
111158
111011
110853
110696
110547
110410
110289
110189
111755
111627
111437
111218
110992
110773
110571
110391
110233
110109
112250
112057
111785
111484
111184
110904
110651
110429
110239
110086
112648
112374
112005
111615
111239
110898
110597
110340
110120
109950
113225
112857
112384
111904
111455
111057
110714
110425
110184
109991
113566
113096
112521
111959
111447
111004
110628
110317
110058
109855
113990
113428
112775
112152
111593
111117
110716
110385
110115
109899
110508
110504
110497
110487
110475
110461
110447
110433
110419
110406
110631
110619
110600
110575
110545
110513
110479
110446
110415
110386
110848
110824
110784
110732
110673
110609
110546
110484
110428
110382
111109
111066
110995
110906
110806
110702
110600
110503
110415
110340
111410
111339
111226
111088
110938
110786
110640
110506
110385
110288
111799
111692
111528
111332
111126
110923
110732
110560
110408
110282
112097
111943
111715
111454
111187
110931
110696
110488
110307
110163
112573
112362
112064
111734
111406
111100
110826
110586
110382
110214
112824
112547
112176
111781
111399
111052
110745
110484
110260
110082
113162
112829
112402
111958
111537
111160
110830
110551
110317
110126
110531
110529
110525
110519
110513
110506
110498
110490
110482
110476
110603
110597
110586
110572
110555
110536
110516
110497
110478
110460
110768
110754
110731
110701
110665
110626
110586
110546
110509
110480
110952
110927
110885
110831
110768
110700
110632
110566
110504
110451
111181
111139
111071
110984
110885
110782
110680
110583
110494
110422
111488
111426
111324
111197
111057
110915
110776
110647
110530
110432
111705
111614
111472
111298
111112
110926
110750
110588
110444
110328
112097
111972
111783
111560
111326
111099
110887
110698
110531
110392
112262
112098
111860
111589
111313
111051
110810
110599
110413
110263
112532
112334
112058
111751
111444
111156
110896
110669
110474
110312
110563
110562
110560
110557
110554
110550
110545
110541
110537
110533
110600
110596
110591
110583
110573
110562
110551
110539
110528
110517
110731
110723
110709
110691
110670
110646
110621
110595
110572
110554
110855
110840
110815
110782
110742
110699
110654
110610
110568
110531
111029
111004
110962
110907
110843
110774
110705
110637
110574
110522
111270
111233
111169
111087
110994
110896
110798
110704
110618
110543
111421
111366
111276
111162
111034
110903
110774
110653
110543
110452
111746
111671
111550
111401
111238
111074
110917
110772
110642
110530
111841
111742
111590
111407
111213
111020
110838
110673
110525
110404
112060
111941
111764
111556
111338
111125
110927
110748
110592
110460
110599
110598
110597
110596
110594
110592
110589
110587
110584
110583
110610
110608
110605
110600
110595
110589
110582
110575
110568
110561
110720
110715
110707
110696
110683
110669
110653
110638
110623
110613
110797
110788
110773
110752
110728
110700
110672
110643
110615
110590
110931
110915
110889
110855
110813
110768
110722
110675
110632
110596
111119
111096
111056
111003
110942
110875
110808
110742
110680
110625
111216
111182
111125
111050
110964
110873
110781
110693
110612
110544
111489
111443
111366
111268
111157
111041
110927
110820
110722
110635
111527
111467
111370
111248
111113
110976
110842
110718
110604
110509
111709
111638
111525
111386
111234
111082
110935
110800
110679
110575
110635
110634
110634
110633
110632
110631
110629
110628
110627
110626
110626
110625
110623
110620
110617
110614
110610
110606
110602
110597
110725
110722
110717
110710
110703
110694
110684
110675
110666
110661
110764
110759
110750
110737
110722
110705
110686
110668
110650
110633
110869
110860
110844
110822
110795
110766
110735
110705
110675
110651
111015
111001
110976
110942
110902
110858
110812
110767
110724
110685
111069
111048
111011
110963
110905
110843
110780
110718
110659
110611
111304
111276
111227
111162
111088
111008
110928
110851
110780
110715
111295
111257
111195
111115
111024
110928
110832
110741
110656
110585
111454
111410
111338
111247
111144
111037
110932
110833
110742
110664
110669
110669
110669
110668
110668
110667
110666
110666
110665
110665
110643
110642
110641
110640
110638
110636
110634
110631
110629
110625
110739
110737
110734
110730
110725
110720
110715
110709
110704
110702
110746
110743
110738
110730
110721
110710
110699
110687
110676
110665
110833
110827
110817
110803
110786
110768
110748
110728
110709
110693
110946
110937
110921
110900
110874
110845
110815
110784
110755
110728
110965
110952
110929
110897
110859
110818
110775
110732
110692
110658
111174
111157
111126
111084
111035
110981
110927
110873
110822
110775
111124
111100
111061
111008
110947
110882
110815
110751
110689
110638
111270
111243
111198
111139
111070
110997
110924
110854
110788
110731
110702
110702
110702
110701
110701
110701
110700
110700
110700
110700
110658
110657
110657
110656
110655
110654
110653
110651
110649
110646
110758
110757
110755
110753
110750
110747
110744
110740
110738
110738
110738
110736
110733
110728
110723
110716
110709
110702
110695
110687
110813
110809
110803
110794
110784
110772
110759
110747
110735
110725
110899
110894
110884
110871
110854
110836
110816
110796
110777
110759
110893
110884
110870