/*--------------------------------*- C++ -*----------------------------------*\
| =========                 |                                                 |
| \\      /  F ield         | foam-extend: Open Source CFD                    |
|  \\    /   O peration     | Version:     4.0                                |
|   \\  /    A nd           | Web:         http://www.foam-extend.org         |
|    \\/     M anipulation  |                                                 |
\*---------------------------------------------------------------------------*/
FoamFile
{
    version     2.0;
    format      ascii;
    class       surfaceScalarField;
    location    "1800";
    object      phi;
}
// * * * * * * * * * * * * * * * * * * * * * * * * * * * * * * * * * * * * * //

dimensions      [1 0 -1 0 0 0 0];

internalField   nonuniform List<scalar> 
97302
(
-0.000109786
9.52731e-07
-0.000869448
0.000878722
-0.000119599
1.14218e-06
-0.000870452
0.000879123
-0.000129521
1.20139e-06
-0.000870977
0.000879698
-0.000140122
1.13952e-06
-0.000871017
0.000880478
-0.000152229
9.47533e-07
-0.000870565
0.000881724
-0.000167321
6.15296e-07
-0.000869399
0.000883876
-0.000188491
1.16324e-07
-0.000866912
0.000887966
-0.000222742
-5.93723e-07
-0.000861287
0.000896131
-0.000271319
-1.63728e-06
-0.000851499
0.000901714
-4.39434e-06
-0.000824002
-0.000352988
0.000910065
-0.000150901
1.60612e-06
-0.0011659
0.00117599
-0.000161172
1.96864e-06
-0.00116685
0.00117629
-0.000171515
2.08729e-06
-0.00116744
0.0011769
-0.00018247
1.99541e-06
-0.00116747
0.00117756
-0.00019483
1.67807e-06
-0.00116667
0.0011783
-0.00021031
1.124e-06
-0.00116466
0.00117964
-0.000232762
2.75595e-07
-0.00116107
0.00118336
-0.000271563
-9.62348e-07
-0.00115428
0.00119345
-0.000328344
-2.89293e-06
-0.00114198
0.00120002
-7.45623e-06
-0.00110409
-0.000432762
0.00121157
-0.000191209
1.90218e-06
-0.00146126
0.0014721
-0.000201778
2.39861e-06
-0.00146227
0.0014724
-0.000212296
2.58012e-06
-0.00146289
0.00147291
-0.000223272
2.50364e-06
-0.00146269
0.00147315
-0.000235631
2.15112e-06
-0.00146134
0.00147323
-0.000251507
1.51201e-06
-0.00145867
0.00147416
-0.000275384
5.07111e-07
-0.0014548
0.00147844
-0.000318355
-9.62051e-07
-0.00144823
0.0014912
-0.000381688
-3.34745e-06
-0.00143507
0.00149886
-9.12963e-06
-0.00138636
-0.000500686
0.00150703
-0.000231442
2.09389e-06
-0.00175264
0.0017639
-0.000242304
2.72988e-06
-0.00175387
0.0017644
-0.000253117
2.98996e-06
-0.00175474
0.00176515
-0.000264406
2.95418e-06
-0.00175475
0.00176558
-0.000277164
2.59387e-06
-0.00175357
0.00176588
-0.000293711
1.90029e-06
-0.00175114
0.0017673
-0.000318862
7.71198e-07
-0.00174758
0.00177247
-0.000364967
-8.85036e-07
-0.00174136
0.00178739
-0.000432987
-3.67229e-06
-0.00172775
0.0017961
-1.06221e-05
-0.00166791
-0.00056075
0.00179716
-0.000271578
2.32784e-06
-0.00204517
0.00205662
-0.00028261
3.03293e-06
-0.00204678
0.00205751
-0.000293592
3.33062e-06
-0.00204816
0.0020588
-0.000305075
3.311e-06
-0.00204863
0.00205976
-0.000318121
2.94313e-06
-0.00204798
0.00206068
-0.00033517
2.21794e-06
-0.00204618
0.00206291
-0.000361326
1.01892e-06
-0.00204326
0.00206917
-0.000409967
-7.37871e-07
-0.00203773
0.00208622
-0.000481929
-3.80637e-06
-0.00202448
0.00209658
-1.18559e-05
-0.00195283
-0.000615166
0.0020873
-0.000312285
2.41341e-06
-0.00233631
0.00234806
-0.00032342
3.14393e-06
-0.00233837
0.00234939
-0.000334469
3.42941e-06
-0.00234014
0.00235109
-0.000346011
3.38213e-06
-0.00234103
0.0023525
-0.000359156
2.98004e-06
-0.0023409
0.00235401
-0.000376432
2.22294e-06
-0.00233985
0.00235712
-0.000403214
9.92977e-07
-0.00233786
0.00236467
-0.000453748
-7.7614e-07
-0.00233343
0.00238401
-0.000529016
-3.90406e-06
-0.00232169
0.00239705
-1.28255e-05
-0.00223794
-0.000665774
0.00237567
-0.000352814
2.39104e-06
-0.00262728
0.00263916
-0.000363891
3.02931e-06
-0.00262994
0.00264113
-0.000374864
3.24406e-06
-0.00263227
0.00264343
-0.000386315
3.11101e-06
-0.00263362
0.00264534
-0.000399408
2.635e-06
-0.00263407
0.00264751
-0.000416704
1.80865e-06
-0.00263383
0.00265154
-0.000443823
5.68128e-07
-0.00263298
0.00266052
-0.000495698
-1.10228e-06
-0.00263015
0.00268235
-0.00057375
-3.85381e-06
-0.00262106
0.00269906
-1.29831e-05
-0.00252498
-0.000712513
0.0026639
-0.000394613
2.0292e-06
-0.00291882
0.00293113
-0.000405743
2.47841e-06
-0.00292207
0.00293375
-0.000416714
2.50699e-06
-0.00292451
0.00293622
-0.000428115
2.16832e-06
-0.00292581
0.00293815
-0.000441073
1.49849e-06
-0.00292615
0.00294025
-0.000458092
4.95532e-07
-0.00292608
0.00294441
-0.000484939
-8.12367e-07
-0.00292592
0.00295415
-0.000537004
-2.3545e-06
-0.00292454
0.00297786
-0.000616524
-4.14401e-06
-0.00291881
0.00299862
-1.21368e-05
-0.00281222
-0.000755686
0.00295054
-0.000435812
1.07009e-06
-0.00320671
0.00321915
-0.000446515
1.13754e-06
-0.00321081
0.00322286
-0.000457092
8.4665e-07
-0.00321387
0.00322611
-0.00046819
1.13218e-07
-0.00321578
0.00322893
-0.000480976
-9.4598e-07
-0.00321691
0.00323215
-0.000497838
-2.30575e-06
-0.00321785
0.00323751
-0.000524538
-3.78056e-06
-0.00321911
0.00324877
-0.000576331
-5.09533e-06
-0.00322002
0.00327456
-0.000655784
-5.50297e-06
-0.00321667
0.00329748
-1.01932e-05
-0.00309932
-0.000792435
0.00323403
-0.000477226
-0.00347529
0.00348831
-0.000488569
-0.00347889
0.00349137
-0.000499755
-0.00347959
0.00349162
-0.000511464
-0.00347703
0.00348885
-0.000524736
-0.00347188
0.0034842
-0.000541701
-0.00346518
0.00347984
-0.00056759
-0.00345813
0.00348023
-0.000616594
-0.0034522
0.00349611
-0.000689685
-0.0034486
0.00351618
-0.00333963
-0.000818687
0.00345844
1.43966e-05
8.90261e-07
-0.000860995
5.31424e-06
1.11501e-06
-0.000862484
-3.78904e-06
1.19582e-06
-0.00086307
-1.3097e-05
1.13822e-06
-0.000862847
-2.28088e-05
9.32328e-07
-0.000861785
-3.31428e-05
5.59776e-07
-0.000859625
-4.42462e-05
-1.35898e-08
-0.000855795
-5.5538e-05
-8.66587e-07
-0.000849128
-6.62342e-05
-2.19516e-06
-0.000838608
-3.96633e-06
-0.000822356
-6.3914e-05
1.54111e-05
1.51714e-06
-0.00115605
5.39371e-06
1.93364e-06
-0.00115765
-4.61339e-06
2.08744e-06
-0.00115833
-1.49276e-05
2.0083e-06
-0.00115802
-2.58142e-05
1.67438e-06
-0.00115653
-3.76359e-05
1.0634e-06
-0.00115335
-5.12292e-05
1.13584e-07
-0.0011476
-6.76377e-05
-1.29129e-06
-0.00113745
-8.82599e-05
-3.53841e-06
-0.00112001
-6.60494e-06
-0.00109107
-9.8644e-05
1.67399e-05
1.83067e-06
-0.00145021
6.01029e-06
2.39495e-06
-0.001452
-4.62671e-06
2.61846e-06
-0.00145278
-1.55032e-05
2.55615e-06
-0.00145236
-2.69571e-05
2.175e-06
-0.00145039
-3.97223e-05
1.45137e-06
-0.0014463
-5.55443e-05
2.93307e-07
-0.00143916
-7.7152e-05
-1.42119e-06
-0.00142649
-0.000108633
-4.27709e-06
-0.00140285
-8.38998e-06
-0.00135932
-0.000133883
1.7955e-05
2.04115e-06
-0.00174089
6.74192e-06
2.7626e-06
-0.00174302
-4.38017e-06
3.07341e-06
-0.00174408
-1.5807e-05
3.05711e-06
-0.00174382
-2.79942e-05
2.66638e-06
-0.00174187
-4.19339e-05
1.87969e-06
-0.00173763
-5.99365e-05
5.64368e-07
-0.00172985
-8.61245e-05
-1.39322e-06
-0.0017152
-0.000128049
-4.78641e-06
-0.00168532
-9.89822e-06
-0.00162545
-0.000168999
1.90684e-05
2.28869e-06
-0.00203303
7.56881e-06
3.08861e-06
-0.0020356
-3.83359e-06
3.44312e-06
-0.00203712
-1.55956e-05
3.44899e-06
-0.00203726
-2.8311e-05
3.05484e-06
-0.00203566
-4.31575e-05
2.23856e-06
-0.00203169
-6.29114e-05
8.28445e-07
-0.00202377
-9.29908e-05
-1.27945e-06
-0.00200776
-0.000144887
-5.06723e-06
-0.0019723
-1.10555e-05
-0.00189517
-0.000201393
1.97709e-05
2.40695e-06
-0.00232375
8.09421e-06
3.24137e-06
-0.00232685
-3.43866e-06
3.59135e-06
-0.00232876
-1.53431e-05
3.57988e-06
-0.00232926
-2.83329e-05
3.16258e-06
-0.00232802
-4.37494e-05
2.32724e-06
-0.00232452
-6.47972e-05
8.82255e-07
-0.00231687
-9.80633e-05
-1.26633e-06
-0.00230018
-0.000159351
-5.19986e-06
-0.00226027
-1.18745e-05
-0.00216567
-0.000230801
2.01818e-05
2.37633e-06
-0.00261446
8.52807e-06
3.11692e-06
-0.00261816
-2.95428e-06
3.40144e-06
-0.0026206
-1.47973e-05
3.31693e-06
-0.00262151
-2.78449e-05
2.85842e-06
-0.00262072
-4.35489e-05
1.99652e-06
-0.0026178
-6.54923e-05
5.55766e-07
-0.00261071
-0.000101302
-1.55768e-06
-0.00259405
-0.00017127
-5.23818e-06
-0.00255106
-1.22411e-05
-0.00243908
-0.000256805
1.99226e-05
2.03851e-06
-0.00290557
8.26741e-06
2.59374e-06
-0.00290989
-3.10817e-06
2.72243e-06
-0.00291246
-1.4784e-05
2.485e-06
-0.0029133
-2.76592e-05
1.91231e-06
-0.00291233
-4.32594e-05
9.71305e-07
-0.00290945
-6.54677e-05
-4.30359e-07
-0.00290273
-0.000102744
-2.40179e-06
-0.00288642
-0.000180115
-5.21488e-06
-0.00284146
-1.18938e-05
-0.00271326
-0.000279424
1.93922e-05
1.0758e-06
-0.00319319
8.20693e-06
1.22066e-06
-0.00319825
-2.66393e-06
1.06065e-06
-0.00320134
-1.38314e-05
4.76173e-07
-0.0032026
-2.63491e-05
-4.01794e-07
-0.00320208
-4.18533e-05
-1.58262e-06
-0.00319979
-6.44315e-05
-3.008e-06
-0.00319395
-0.000103034
-4.67239e-06
-0.00317915
-0.000186365
-6.14614e-06
-0.00313241
-1.00726e-05
-0.00298564
-0.000301868
1.82372e-05
-0.00346149
6.80028e-06
-0.00346623
-4.11982e-06
-0.00346761
-1.5212e-05
-0.00346546
-2.74168e-05
-0.00346007
-4.23392e-05
-0.00345184
-6.38998e-05
-0.00343957
-0.000101283
-0.00341949
-0.000186013
-0.00337001
-0.0032157
-0.000320014
1.20267e-05
7.7913e-07
-0.000854325
4.42463e-06
1.01927e-06
-0.000855902
-3.29279e-06
1.10735e-06
-0.00085646
-1.10355e-05
1.04296e-06
-0.000856147
-1.86804e-05
8.19549e-07
-0.00085496
-2.59823e-05
4.21323e-07
-0.000852744
-3.23896e-05
-1.73745e-07
-0.000849214
-3.65981e-05
-1.0036e-06
-0.000843916
-3.67274e-05
-2.15205e-06
-0.000836327
-3.43047e-06
-0.000826681
-2.89717e-05
1.38797e-05
1.36567e-06
-0.00114754
4.85492e-06
1.80607e-06
-0.00114941
-4.23106e-06
1.96922e-06
-0.0011501
-1.34691e-05
1.87863e-06
-0.00114962
-2.28655e-05
1.51285e-06
-0.00114782
-3.22694e-05
8.47326e-07
-0.00114437
-4.12801e-05
-1.71422e-07
-0.0011386
-4.87456e-05
-1.61594e-06
-0.00112937
-5.22014e-05
-3.70145e-06
-0.00111501
-6.12414e-06
-0.00109582
-4.47573e-05
1.59838e-05
1.71448e-06
-0.00144005
5.78264e-06
2.30984e-06
-0.0014423
-4.41305e-06
2.5434e-06
-0.00144316
-1.47988e-05
2.46314e-06
-0.00144256
-2.54701e-05
2.03115e-06
-0.00144023
-3.64901e-05
1.21222e-06
-0.00143564
-4.79728e-05
-8.85572e-08
-0.00142776
-5.94499e-05
-1.96902e-06
-0.00141466
-6.85111e-05
-4.83925e-06
-0.00139265
-8.35985e-06
-0.00136065
-6.49477e-05
1.76323e-05
1.97552e-06
-0.0017297
6.64215e-06
2.73915e-06
-0.00173246
-4.33934e-06
3.06214e-06
-0.00173361
-1.56232e-05
3.02331e-06
-0.0017331
-2.74555e-05
2.56866e-06
-0.00173058
-4.01659e-05
1.66053e-06
-0.00172537
-5.43155e-05
1.5088e-07
-0.00171594
-7.00962e-05
-2.08097e-06
-0.00169931
-8.5799e-05
-5.69767e-06
-0.00166876
-1.0327e-05
-0.00162105
-8.82347e-05
1.90359e-05
2.26825e-06
-0.00202116
7.53698e-06
3.11717e-06
-0.00202448
-3.93259e-06
3.48788e-06
-0.00202608
-1.57918e-05
3.47243e-06
-0.00202585
-2.8466e-05
3.01198e-06
-0.00202342
-4.25375e-05
2.06462e-06
-0.00201802
-5.90195e-05
4.27174e-07
-0.00200757
-7.89015e-05
-2.04925e-06
-0.00198791
-0.000101934
-6.29258e-06
-0.00194868
-1.19614e-05
-0.00188335
-0.000112119
1.99724e-05
2.43549e-06
-0.00231127
8.13675e-06
3.32331e-06
-0.00231522
-3.61563e-06
3.6941e-06
-0.00231721
-1.57979e-05
3.66875e-06
-0.00231727
-2.89931e-05
3.19086e-06
-0.002315
-4.40337e-05
2.22708e-06
-0.00230964
-6.24193e-05
5.44088e-07
-0.0022986
-8.60442e-05
-2.03042e-06
-0.00227657
-0.000116868
-6.62916e-06
-0.00222911
-1.31715e-05
-0.0021451
-0.00013623
2.05232e-05
2.42825e-06
-0.00260154
8.6071e-06
3.22215e-06
-0.00260614
-3.18743e-06
3.53339e-06
-0.00260864
-1.54194e-05
3.44832e-06
-0.00260906
-2.88382e-05
2.95375e-06
-0.00260706
-4.44863e-05
2.00348e-06
-0.00260192
-6.43479e-05
3.61886e-07
-0.00259066
-9.12534e-05
-2.19385e-06
-0.00256698
-0.000129973
-6.75816e-06
-0.00251221
-1.39416e-05
-0.00240901
-0.000159277
2.03462e-05
2.10172e-06
-0.00289217
8.39997e-06
2.70644e-06
-0.00289743
-3.31077e-06
2.87854e-06
-0.00290009
-1.5408e-05
2.68147e-06
-0.00290044
-2.87358e-05
2.13108e-06
-0.00289818
-4.45262e-05
1.18065e-06
-0.00289284
-6.52318e-05
-3.21784e-07
-0.00288134
-9.45787e-05
-2.64173e-06
-0.00285663
-0.000140682
-6.3963e-06
-0.00279572
-1.37325e-05
-0.00267357
-0.000180582
1.97331e-05
1.15276e-06
-0.00317947
8.23957e-06
1.3301e-06
-0.00318538
-2.97091e-06
1.24992e-06
-0.0031885
-1.45251e-05
7.7473e-07
-0.00318914
-2.74252e-05
2.80797e-08
-0.00318708
-4.31456e-05
-1.01104e-06
-0.00318188
-6.46447e-05
-2.33418e-06
-0.00317044
-9.64353e-05
-4.0877e-06
-0.00314591
-0.000148894
-6.36828e-06
-0.00307998
-1.15101e-05
-0.00293617
-0.000200584
1.85713e-05
-0.00344762
6.99565e-06
-0.00345332
-4.1067e-06
-0.00345526
-1.54461e-05
-0.00345335
-2.7915e-05
-0.00344758
-4.29984e-05
-0.00343777
-6.3695e-05
-0.00342121
-9.54067e-05
-0.00339187
-0.000150678
-0.00332111
-0.00316253
-0.000215356
9.33438e-06
6.10426e-07
-0.000849497
3.46458e-06
8.54046e-07
-0.000850886
-2.58647e-06
9.46212e-07
-0.000851355
-8.54542e-06
8.8019e-07
-0.000851068
-1.41056e-05
6.54596e-07
-0.000850055
-1.88442e-05
2.6054e-07
-0.000848266
-2.21191e-05
-3.08921e-07
-0.000845631
-2.28918e-05
-1.05601e-06
-0.000842087
-1.95797e-05
-1.97724e-06
-0.000837662
-2.86115e-06
-0.000832816
-1.05837e-05
1.17261e-05
1.11985e-06
-0.00114071
4.10876e-06
1.57047e-06
-0.00114251
-3.63736e-06
1.73881e-06
-0.00114315
-1.13747e-05
1.64075e-06
-0.00114264
-1.88871e-05
1.25916e-06
-0.00114091
-2.57856e-05
5.7604e-07
-0.00113778
-3.13108e-05
-4.40143e-07
-0.00113294
-3.39453e-05
-1.81159e-06
-0.00112598
-3.08503e-05
-3.59851e-06
-0.00111648
-5.41421e-06
-0.00110596
-1.81546e-05
1.44348e-05
1.49352e-06
-0.00143129
5.25905e-06
2.10531e-06
-0.00143366
-3.98343e-06
2.34174e-06
-0.00143452
-1.32933e-05
2.24094e-06
-0.00143385
-2.25642e-05
1.7667e-06
-0.00143147
-3.15014e-05
8.84324e-07
-0.00142701
-3.94273e-05
-4.83644e-07
-0.00141979
-4.47326e-05
-2.39005e-06
-0.00140877
-4.3491e-05
-5.02919e-06
-0.00139246
-7.88721e-06
-0.00137296
-2.87107e-05
1.65207e-05
1.80706e-06
-0.0017196
6.22648e-06
2.59976e-06
-0.00172266
-4.13094e-06
2.92656e-06
-0.00172384
-1.46891e-05
2.85727e-06
-0.00172315
-2.54931e-05
2.33833e-06
-0.00172034
-3.64545e-05
1.32779e-06
-0.00171485
-4.71056e-05
-3.10434e-07
-0.00170546
-5.58628e-05
-2.66878e-06
-0.00169027
-5.78742e-05
-6.16966e-06
-0.0016656
-1.01656e-05
-0.00163376
-4.28867e-05
1.82702e-05
2.15075e-06
-0.00201007
7.19033e-06
3.03809e-06
-0.00201384
-3.92157e-06
3.41648e-06
-0.00201546
-1.5342e-05
3.36774e-06
-0.00201494
-2.73082e-05
2.83143e-06
-0.00201195
-3.99817e-05
1.75633e-06
-0.00200578
-5.31999e-05
-5.83492e-08
-0.0019946
-6.55962e-05
-2.75851e-06
-0.00197543
-7.19248e-05
-7.04538e-06
-0.00194147
-1.21836e-05
-0.00189462
-5.86302e-05
1.95015e-05
2.37819e-06
-0.00229935
7.87157e-06
3.31053e-06
-0.00230386
-3.73277e-06
3.69381e-06
-0.00230589
-1.5714e-05
3.64118e-06
-0.00230556
-2.84862e-05
3.0898e-06
-0.00230249
-4.24864e-05
1.992e-06
-0.00229588
-5.79546e-05
1.0342e-07
-0.00228329
-7.39536e-05
-2.77407e-06
-0.00226056
-8.55237e-05
-7.59785e-06
-0.00221699
-1.3758e-05
-0.00215325
-7.58023e-05
2.02569e-05
2.41505e-06
-0.00258898
8.39158e-06
3.25499e-06
-0.00259422
-3.40215e-06
3.58407e-06
-0.00259674
-1.56051e-05
3.48287e-06
-0.0025967
-2.88189e-05
2.92895e-06
-0.00259369
-4.37407e-05
1.86454e-06
-0.00258688
-6.10714e-05
2.97941e-08
-0.00257326
-8.04444e-05
-2.85876e-06
-0.00254752
-9.78671e-05
-7.84713e-06
-0.00249453
-1.48889e-05
-0.00241261
-9.31328e-05
2.02365e-05
2.11687e-06
-0.00287902
8.26841e-06
2.76431e-06
-0.00288497
-3.5163e-06
2.96657e-06
-0.00288769
-1.56837e-05
2.78866e-06
-0.00288758
-2.89482e-05
2.22855e-06
-0.00288422
-4.42561e-05
1.23153e-06
-0.0028769
-6.28352e-05
-3.95855e-07
-0.00286233
-8.5034e-05
-3.01484e-06
-0.00283427
-0.000108505
-7.32467e-06
-0.00277277
-1.48251e-05
-0.00267205
-0.000110093
1.96888e-05
1.20185e-06
-0.0031659
8.11539e-06
1.40699e-06
-0.00317245
-3.23047e-06
1.39172e-06
-0.00317558
-1.49154e-05
1.00149e-06
-0.00317567
-2.77928e-05
3.4819e-07
-0.00317232
-4.30421e-05
-6.051e-07
-0.00316479
-6.25133e-05
-1.89248e-06
-0.00314947
-8.76655e-05
-3.74915e-06
-0.00312003
-0.000117049
-6.49289e-06
-0.00305143
-1.22131e-05
-0.00292919
-0.000126649
1.86018e-05
-0.00343395
7.06772e-06
-0.00344038
-4.05911e-06
-0.00344274
-1.54492e-05
-0.00344095
-2.78725e-05
-0.0034348
-4.25487e-05
-0.0034237
-6.14284e-05
-0.00340422
-8.70634e-05
-0.00336998
-0.00011968
-0.00329498
-0.00315502
-0.000139408
6.84973e-06
4.25577e-07
-0.000846153
2.57553e-06
6.5624e-07
-0.000847268
-1.89787e-06
7.46966e-07
-0.000847629
-6.24008e-06
6.84665e-07
-0.000847411
-1.01064e-05
4.72883e-07
-0.000846661
-1.3092e-05
1.10717e-07
-0.000845391
-1.47033e-05
-3.9342e-07
-0.000843626
-1.43361e-05
-1.01826e-06
-0.000841436
-1.13201e-05
-1.71815e-06
-0.000838959
-2.32678e-06
-0.000836444
-5.36505e-06
9.38796e-06
8.25698e-07
-0.00113551
3.29843e-06
1.26558e-06
-0.00113703
-2.96726e-06
1.43232e-06
-0.00113757
-9.12918e-06
1.33324e-06
-0.00113713
-1.48449e-05
9.56966e-07
-0.00113568
-1.96448e-05
2.96827e-07
-0.00113317
-2.28135e-05
-6.52269e-07
-0.00112951
-2.32474e-05
-1.86851e-06
-0.00112469
-1.92836e-05
-3.30895e-06
-0.00111886
-4.62849e-06
-0.00111318
-9.76684e-06
1.24561e-05
1.1939e-06
-0.00142411
4.59212e-06
1.80228e-06
-0.00142633
-3.40489e-06
2.03525e-06
-0.00142713
-1.13521e-05
1.9189e-06
-0.00142648
-1.89746e-05
1.42232e-06
-0.00142431
-2.58002e-05
5.20955e-07
-0.00142041
-3.09526e-05
-8.3152e-07
-0.00141445
-3.28533e-05
-2.63744e-06
-0.00140611
-2.86148e-05
-4.91712e-06
-0.00139509
-7.1344e-06
-0.00138368
-1.53882e-05
1.48897e-05
1.54169e-06
-0.00171092
5.63912e-06
2.34735e-06
-0.00171396
-3.75049e-06
2.6725e-06
-0.00171509
-1.3213e-05
2.57488e-06
-0.00171435
-2.25845e-05
2.0059e-06
-0.00171156
-3.14994e-05
9.30086e-07
-0.00170634
-3.90653e-05
-7.55199e-07
-0.00169797
-4.33501e-05
-3.09215e-06
-0.00168553
-4.00326e-05
-6.26099e-06
-0.00166758
-9.52928e-06
-0.00164755
-2.38444e-05
1.69708e-05
1.92833e-06
-0.00200015
6.66571e-06
2.84198e-06
-0.00200403
-3.74439e-06
3.22321e-06
-0.0020056
-1.43369e-05
3.13989e-06
-0.00200491
-2.51182e-05
2.53427e-06
-0.0020017
-3.59111e-05
1.35566e-06
-0.00199541
-4.59376e-05
-5.66799e-07
-0.00198476
-5.30662e-05
-3.33607e-06
-0.00196805
-5.16592e-05
-7.36655e-06
-0.00194177
-1.17615e-05
-0.00191041
-3.36397e-05
1.85131e-05
2.21627e-06
-0.00228837
7.42833e-06
3.18512e-06
-0.00229312
-3.70359e-06
3.5768e-06
-0.00229511
-1.51041e-05
3.49305e-06
-0.00229451
-2.69507e-05
2.86861e-06
-0.00229098
-3.93098e-05
1.64947e-06
-0.00228381
-5.16552e-05
-3.89886e-07
-0.00227112
-6.18686e-05
-3.42228e-06
-0.00225026
-6.33659e-05
-8.11231e-06
-0.00221474
-1.3579e-05
-0.00216979
-4.50075e-05
1.95057e-05
2.31038e-06
-0.00257716
8.00398e-06
3.1926e-06
-0.00258273
-3.49399e-06
3.53674e-06
-0.0025852
-1.53148e-05
3.41499e-06
-0.0025848
-2.78293e-05
2.79719e-06
-0.0025811
-4.13619e-05
1.6168e-06
-0.00257331
-5.57397e-05
-3.8119e-07
-0.00255889
-6.90337e-05
-3.47132e-06
-0.00253418
-7.42141e-05
-8.47834e-06
-0.00248899
-1.49435e-05
-0.0024286
-5.68556e-05
1.9688e-05
2.05163e-06
-0.00286647
7.97841e-06
2.74259e-06
-0.00287281
-3.61984e-06
2.97073e-06
-0.00287553
-1.55456e-05
2.80362e-06
-0.00287504
-2.82955e-05
2.22252e-06
-0.00287089
-4.24482e-05
1.16417e-06
-0.0028623
-5.83043e-05
-5.83416e-07
-0.00284628
-7.43883e-05
-3.40251e-06
-0.00281826
-8.38689e-05
-7.90468e-06
-0.00276386
-1.50019e-05
-0.00268681
-6.90461e-05
1.92655e-05
1.20199e-06
-0.0031528
7.86354e-06
1.43572e-06
-0.00315974
-3.38809e-06
1.47731e-06
-0.00316284
-1.4937e-05
1.15612e-06
-0.00316247
-2.74277e-05
5.73036e-07
-0.00315818
-4.16455e-05
-3.24689e-07
-0.00314908
-5.83886e-05
-1.60397e-06
-0.00313171
-7.72854e-05
-3.53542e-06
-0.003101
-9.15581e-05
-6.47249e-06
-0.00303858
-1.20754e-05
-0.00294219
-8.14836e-05
1.82876e-05
-0.00342078
6.99881e-06
-0.00342766
-3.96746e-06
-0.00343029
-1.51885e-05
-0.00342858
-2.72587e-05
-0.00342216
-4.10485e-05
-0.00341023
-5.75034e-05
-0.00338937
-7.70892e-05
-0.00335393
-9.41511e-05
-0.00328439
-0.00317039
-9.08554e-05
4.81687e-06
2.52729e-07
-0.000843896
1.84316e-06
4.57475e-07
-0.000844752
-1.31399e-06
5.4185e-07
-0.000845013
-4.34559e-06
4.87335e-07
-0.000844867
-6.945e-06
3.01351e-07
-0.000844363
-8.78957e-06
-1.11049e-08
-0.000843535
-9.55014e-06
-4.31744e-07
-0.000842434
-8.91217e-06
-9.2862e-07
-0.000841146
-6.64638e-06
-1.44537e-06
-0.00083978
-1.86414e-06
-0.00083838
-2.84669e-06
7.16966e-06
5.24632e-07
-0.00113168
2.51986e-06
9.33069e-07
-0.00113286
-2.3218e-06
1.09112e-06
-0.00113328
-7.02395e-06
9.979e-07
-0.00113294
-1.1214e-05
6.47615e-07
-0.00113184
-1.44504e-05
4.47702e-08
-0.00112999
-1.61742e-05
-7.94104e-07
-0.00112742
-1.57046e-05
-1.82072e-06
-0.00112427
-1.22602e-05
-2.94682e-06
-0.0011208
-3.90376e-06
-0.00111774
-5.65385e-06
1.03341e-05
8.5461e-07
-0.00141848
3.86921e-06
1.43598e-06
-0.00142037
-2.77382e-06
1.65817e-06
-0.00142105
-9.28998e-06
1.53464e-06
-0.0014205
-1.53055e-05
1.04136e-06
-0.00141869
-2.03004e-05
1.68223e-07
-0.00141554
-2.34774e-05
-1.09689e-06
-0.00141097
-2.36614e-05
-2.7145e-06
-0.00140503
-1.91472e-05
-4.60552e-06
-0.00139795
-6.30695e-06
-0.00139133
-9.09208e-06
1.29521e-05
1.20793e-06
-0.00170375
4.94812e-06
2.0043e-06
-0.00170652
-3.26036e-06
2.32111e-06
-0.00170754
-1.14337e-05
2.20265e-06
-0.00170684
-1.92448e-05
1.60853e-06
-0.00170431
-2.61789e-05
5.17171e-07
-0.00169976
-3.1277e-05
-1.12992e-06
-0.00169284
-3.28858e-05
-3.32182e-06
-0.00168332
-2.80235e-05
-6.06505e-06
-0.00167098
-8.67753e-06
-0.00165866
-1.45461e-05
1.52809e-05
1.61884e-06
-0.0019916
6.01451e-06
2.53951e-06
-0.0019953
-3.42915e-06
2.91744e-06
-0.00199675
-1.29307e-05
2.80447e-06
-0.00199601
-2.22859e-05
2.14965e-06
-0.00199288
-3.10771e-05
9.11877e-07
-0.00198701
-3.82904e-05
-1.03207e-06
-0.00197765
-4.18742e-05
-3.72533e-06
-0.00196407
-3.73963e-05
-7.3356e-06
-0.00194498
-1.09764e-05
-0.00192464
-2.08734e-05
1.70974e-05
1.95723e-06
-0.00227861
6.84608e-06
2.94778e-06
-0.00228327
-3.53093e-06
3.34256e-06
-0.00228515
-1.40544e-05
3.22942e-06
-0.00228442
-2.46623e-05
2.54551e-06
-0.00228077
-3.51087e-05
1.23997e-06
-0.0022737
-4.44629e-05
-8.70371e-07
-0.00226193
-5.04386e-05
-3.90292e-06
-0.00224411
-4.72109e-05
-8.22866e-06
-0.00221708
-1.28993e-05
-0.00218656
-2.8517e-05
1.83212e-05
2.11376e-06
-0.00256638
7.47371e-06
3.02895e-06
-0.00257196
-3.44885e-06
3.38446e-06
-0.00257432
-1.45836e-05
3.24244e-06
-0.00257368
-2.60493e-05
2.569e-06
-0.00256966
-3.78138e-05
1.29653e-06
-0.0025616
-4.91453e-05
-8.0046e-07
-0.00254763
-5.76837e-05
-3.94335e-06
-0.0025256
-5.64423e-05
-8.68107e-06
-0.00248978
-1.43431e-05
-0.00244712
-3.64848e-05
1.87259e-05
1.90047e-06
-0.00285482
7.54914e-06
2.63177e-06
-0.00286124
-3.60081e-06
2.88123e-06
-0.00286387
-1.49947e-05
2.71971e-06
-0.00286312
-2.68813e-05
2.11539e-06
-0.00285855
-3.94547e-05
1.00338e-06
-0.00284943
-5.23237e-05
-8.21326e-07
-0.00283339
-6.33368e-05
-3.7043e-06
-0.00280748
-6.48594e-05
-8.0922e-06
-0.00276293
-1.44298e-05
-0.00270661
-4.49757e-05
1.84609e-05
1.1464e-06
-0.00314051
7.48651e-06
1.40713e-06
-0.00314754
-3.42824e-06
1.49708e-06
-0.00315054
-1.45702e-05
1.23034e-06
-0.00314984
-2.63501e-05
6.98664e-07
-0.00314499
-3.91536e-05
-1.61883e-07
-0.00313512
-5.29334e-05
-1.43562e-06
-0.00311731
-6.62994e-05
-3.37598e-06
-0.00308796
-7.12585e-05
-6.28616e-06
-0.00303543
-1.12853e-05
-0.00296298
-5.36122e-05
1.76204e-05
-0.00340839
6.78863e-06
-0.00341542
-3.81636e-06
-0.00341819
-1.46384e-05
-0.00341653
-2.60667e-05
-0.00341003
-3.86033e-05
-0.00339786
-5.23882e-05
-0.00337702
-6.65639e-05
-0.00334313
-7.36955e-05
-0.00328355
-0.00319579
-5.95793e-05
3.29133e-06
1.08908e-07
-0.000842374
1.28845e-06
2.80717e-07
-0.000843029
-8.66041e-07
3.55577e-07
-0.000843214
-2.91975e-06
3.10903e-07
-0.000843124
-4.63221e-06
1.56741e-07
-0.000842807
-5.7703e-06
-9.88769e-08
-0.000842298
-6.12978e-06
-4.33369e-07
-0.000841641
-5.55936e-06
-8.13463e-07
-0.000840903
-4.0117e-06
-1.18718e-06
-0.00084014
-1.47376e-06
-0.000839272
-1.64615e-06
5.24907e-06
2.48559e-07
-0.00112892
1.83141e-06
6.09958e-07
-0.00112977
-1.76686e-06
7.53493e-07
-0.00113007
-5.22904e-06
6.71482e-07
-0.00112984
-8.21437e-06
3.6261e-07
-0.00112906
-1.03596e-05
-1.60315e-07
-0.00112778
-1.12712e-05
-8.67219e-07
-0.00112608
-1.05669e-05
-1.69849e-06
-0.00112409
-7.9472e-06
-2.55752e-06
-0.00112205
-3.24892e-06
-0.00112038
-3.53813e-06
8.28437e-06
5.13234e-07
-0.00141418
3.15574e-06
1.04504e-06
-0.00141568
-2.16786e-06
1.24905e-06
-0.00141622
-7.33148e-06
1.1271e-06
-0.0014158
-1.19346e-05
6.61823e-07
-0.00141439
-1.54907e-05
-1.42888e-07
-0.001412
-1.73717e-05
-1.2711e-06
-0.00140869
-1.68196e-05
-2.65488e-06
-0.00140462
-1.29822e-05
-4.17118e-06
-0.00140017
-5.46382e-06
-0.00139632
-5.77756e-06
1.08987e-05
8.40975e-07
-0.00169803
4.20886e-06
1.60266e-06
-0.00170039
-2.72841e-06
1.90331e-06
-0.00170126
-9.56061e-06
1.77384e-06
-0.00170066
-1.5868e-05
1.18353e-06
-0.00169853
-2.10928e-05
1.27588e-07
-0.0016948
-2.4386e-05
-1.40911e-06
-0.00168941
-2.45442e-05
-3.37071e-06
-0.00168244
-1.98131e-05
-5.65943e-06
-0.00167422
-7.71567e-06
-0.00166668
-9.54021e-06
1.33464e-05
1.25097e-06
-0.00198448
5.2788e-06
2.15341e-06
-0.00198778
-3.0243e-06
2.52006e-06
-0.00198907
-1.12875e-05
2.3861e-06
-0.00198836
-1.9155e-05
1.71027e-06
-0.00198554
-2.60783e-05
4.6737e-07
-0.00198043
-3.10444e-05
-1.41236e-06
-0.00197268
-3.24032e-05
-3.91165e-06
-0.00196217
-2.72111e-05
-7.02062e-06
-0.00194881
-9.9734e-06
-0.00193577
-1.38192e-05
1.53572e-05
1.62134e-06
-0.00227022
6.15505e-06
2.61148e-06
-0.00227453
-3.24421e-06
3.00192e-06
-0.00227624
-1.26802e-05
2.86519e-06
-0.00227546
-2.18946e-05
2.14512e-06
-0.00227199
-3.04273e-05
8.0263e-07
-0.0022655
-3.72109e-05
-1.28968e-06
-0.00225527
-4.02408e-05
-4.18191e-06
-0.00224081
-3.52474e-05
-8.0035e-06
-0.00222109
-1.1886e-05
-0.00220074
-1.91536e-05
1.67692e-05
1.83695e-06
-0.00255687
6.8208e-06
2.76845e-06
-0.00256217
-3.28101e-06
3.12934e-06
-0.00256434
-1.34843e-05
2.9705e-06
-0.00256358
-2.36819e-05
2.25877e-06
-0.00255958
-3.35611e-05
9.34364e-07
-0.00255185
-4.21026e-05
-1.1807e-06
-0.0025392
-4.70663e-05
-4.22948e-06
-0.00252059
-4.28671e-05
-8.50073e-06
-0.00249348
-1.32726e-05
-0.00246403
-2.45646e-05
1.73893e-05
1.66858e-06
-0.00284431
6.99257e-06
2.43068e-06
-0.0028505
-3.46461e-06
2.69522e-06
-0.00285298
-1.40723e-05
2.53662e-06
-0.00285208
-2.48438e-05
1.91431e-06
-0.00284744
-3.56463e-05
7.69563e-07
-0.00283846
-4.56515e-05
-1.07465e-06
-0.00282349
-5.26129e-05
-3.88405e-06
-0.00280087
-4.99862e-05
-7.91187e-06
-0.00276614
-1.32791e-05
-0.0027261
-3.04903e-05
1.72941e-05
1.03504e-06
-0.00312928
6.98819e-06
1.31748e-06
-0.00313613
-3.35306e-06
1.44659e-06
-0.00313895
-1.38368e-05
1.22189e-06
-0.00313804
-2.46446e-05
7.28669e-07
-0.00313299
-3.58137e-05
-1.016e-07
-0.00312308
-4.67352e-05
-1.35637e-06
-0.00310611
-5.55472e-05
-3.23652e-06
-0.00307979
-5.51138e-05
-5.95258e-06
-0.00303782
-1.01048e-05
-0.00298513
-3.61363e-05
1.66117e-05
-0.00339705
6.44108e-06
-0.00340393
-3.6013e-06
-0.0034067
-1.38036e-05
-0.0034051
-2.43462e-05
-0.00339876
-3.53931e-05
-0.00338691
-4.65257e-05
-0.00336725
-5.61781e-05
-0.00333671
-5.73745e-05
-0.00328831
-0.00322358
-3.96876e-05
2.21213e-06
4.37491e-10
-0.000841333
8.93837e-07
1.38316e-07
-0.000841849
-5.4269e-07
2.02551e-07
-0.00084198
-1.90596e-06
1.67951e-07
-0.000841929
-3.02071e-06
4.61603e-08
-0.000841739
-3.72689e-06
-1.54135e-07
-0.000841438
-3.90064e-06
-4.10278e-07
-0.000841057
-3.47128e-06
-6.92755e-07
-0.000840639
-2.44966e-06
-9.59131e-07
-0.000840203
-1.15466e-06
-0.000839597
-9.69708e-07
3.69386e-06
1.67792e-08
-0.00112694
1.26081e-06
3.23104e-07
-0.00112752
-1.32596e-06
4.48621e-07
-0.00112773
-3.79906e-06
3.80821e-07
-0.00112758
-5.8774e-06
1.21475e-07
-0.00112706
-7.28463e-06
-3.12178e-07
-0.00112622
-7.75906e-06
-8.84442e-07
-0.00112513
-7.09729e-06
-1.53522e-06
-0.00112391
-5.2132e-06
-2.177e-06
-0.00112271
-2.67095e-06
-0.00112178
-2.2909e-06
6.44865e-06
1.99393e-07
-0.00141096
2.5018e-06
6.64382e-07
-0.00141207
-1.63124e-06
8.44183e-07
-0.00141249
-5.60359e-06
7.30972e-07
-0.00141217
-9.0407e-06
3.1267e-07
-0.00141114
-1.15304e-05
-3.9656e-07
-0.00140943
-1.26135e-05
-1.36228e-06
-0.00140713
-1.18339e-05
-2.5036e-06
-0.00140443
-8.82448e-06
-3.68806e-06
-0.00140167
-4.65457e-06
-0.00139942
-3.74661e-06
8.89112e-06
4.74944e-07
-0.0016936
3.47399e-06
1.17793e-06
-0.00169548
-2.20637e-06
1.45462e-06
-0.00169619
-7.74904e-06
1.32393e-06
-0.00169571
-1.27091e-05
7.6455e-07
-0.00169402
-1.65593e-05
-2.12699e-07
-0.00169114
-1.86193e-05
-1.58893e-06
-0.00168712
-1.80858e-05
-3.27797e-06
-0.0016822
-1.40449e-05
-5.13185e-06
-0.00167682
-6.71874e-06
-0.00167221
-6.45075e-06
1.13171e-05
8.57285e-07
-0.00197872
4.50579e-06
1.71401e-06
-0.00198151
-2.57584e-06
2.06046e-06
-0.00198259
-9.55443e-06
1.91579e-06
-0.00198197
-1.59923e-05
1.24953e-06
-0.00197959
-2.13065e-05
5.46101e-08
-0.00197538
-2.46074e-05
-1.69002e-06
-0.00196928
-2.46894e-05
-3.91773e-06
-0.00196145
-1.9816e-05
-6.50853e-06
-0.00195231
-8.8503e-06
-0.001944
-9.45434e-06
1.34164e-05
1.23618e-06
-0.0022632
5.39413e-06
2.19894e-06
-0.00226699
-2.87847e-06
2.57595e-06
-0.00226848
-1.11038e-05
2.42405e-06
-0.00226774
-1.88917e-05
1.69659e-06
-0.00226465
-2.56734e-05
3.71588e-07
-0.00225903
-3.0422e-05
-1.62062e-06
-0.00225059
-3.15555e-05
-4.26613e-06
-0.00223932
-2.63068e-05
-7.52105e-06
-0.00222532
-1.0663e-05
-0.0022119
-1.33356e-05
1.49444e-05
1.49981e-06
-0.00254872
6.0749e-06
2.42484e-06
-0.00255352
-3.01439e-06
2.78299e-06
-0.00255546
-1.21103e-05
2.61327e-06
-0.00255467
-2.09325e-05
1.88695e-06
-0.00255094
-2.89903e-05
5.59164e-07
-0.00254398
-3.51922e-05
-1.49285e-06
-0.00253312
-3.76473e-05
-4.32817e-06
-0.00251807
-3.24379e-05
-8.0259e-06
-0.00249818
-1.19047e-05
-0.00247816
-1.70739e-05
1.57491e-05
1.36881e-06
-0.00283509
6.33102e-06
2.14607e-06
-0.00284081
-3.22646e-06
2.41787e-06
-0.00284306
-1.28459e-05
2.26211e-06
-0.00284211
-2.23456e-05
1.63382e-06
-0.00283768
-3.13592e-05
4.87177e-07
-0.00282938
-3.88639e-05
-1.31441e-06
-0.00281616
-4.28085e-05
-3.94164e-06
-0.00279731
-3.8336e-05
-7.46583e-06
-0.00277118
-1.17949e-05
-0.00274324
-2.13072e-05
1.58145e-05
8.73521e-07