/*--------------------------------*- C++ -*----------------------------------*\
| =========                 |                                                 |
| \\      /  F ield         | foam-extend: Open Source CFD                    |
|  \\    /   O peration     | Version:     4.0                                |
|   \\  /    A nd           | Web:         http://www.foam-extend.org         |
|    \\/     M anipulation  |                                                 |
\*---------------------------------------------------------------------------*/
FoamFile
{
    version     2.0;
    format      ascii;
    class       volScalarField;
    location    "1800";
    object      rho;
}
// * * * * * * * * * * * * * * * * * * * * * * * * * * * * * * * * * * * * * //

dimensions      [1 -3 0 0 0 0 0];

internalField   nonuniform List<scalar> 
34480
(
1.34603
1.34532
1.34522
1.34567
1.34689
1.3492
1.35341
1.36151
1.37222
1.3767
1.34695
1.34628
1.34623
1.3467
1.34786
1.35005
1.35416
1.36231
1.37417
1.37605
1.34573
1.34508
1.34508
1.34548
1.34648
1.34838
1.3522
1.35999
1.37225
1.36888
1.34461
1.34405
1.34409
1.34446
1.34535
1.34694
1.35036
1.35743
1.36945
1.36053
1.34353
1.34294
1.34303
1.34334
1.34411
1.34541
1.34844
1.35474
1.36626
1.35223
1.34341
1.34294
1.34306
1.3434
1.34409
1.34517
1.34781
1.35332
1.36402
1.3452
1.34211
1.3416
1.34175
1.34205
1.34269
1.34362
1.34596
1.35078
1.3605
1.33772
1.34287
1.34253
1.34279
1.34332
1.34419
1.34533
1.34765
1.35198
1.36045
1.33376
1.34135
1.34104
1.34132
1.34188
1.34288
1.34428
1.34669
1.3507
1.35761
1.32785
1.33858
1.3385
1.33931
1.34081
1.34304
1.34601
1.35007
1.35558
1.36265
1.32903
1.35292
1.35182
1.35143
1.35167
1.35263
1.35444
1.35735
1.36169
1.36852
1.37746
1.3535
1.35226
1.35184
1.35208
1.35311
1.35511
1.35852
1.36422
1.37449
1.38931
1.352
1.35067
1.35024
1.3504
1.35132
1.35321
1.35673
1.36313
1.37612
1.3952
1.35067
1.34929
1.34878
1.34884
1.34964
1.35132
1.35467
1.36108
1.37567
1.39765
1.34947
1.34797
1.34739
1.3473
1.34792
1.34931
1.35234
1.3584
1.37385
1.39758
1.34925
1.34775
1.3471
1.34691
1.34738
1.34848
1.35113
1.35657
1.37223
1.39649
1.34791
1.34629
1.34558
1.34527
1.34557
1.34641
1.34868
1.35345
1.36885
1.39301
1.34864
1.34707
1.34636
1.34614
1.34651
1.34737
1.34949
1.35366
1.36821
1.39136
1.34714
1.34556
1.3448
1.34451
1.34482
1.34567
1.34769
1.35148
1.36462
1.3872
1.34446
1.34296
1.34255
1.34291
1.34407
1.34597
1.34904
1.35374
1.3664
1.38771
1.35768
1.35675
1.35643
1.35669
1.35759
1.35919
1.3616
1.36489
1.36903
1.37354
1.35822
1.35704
1.35667
1.35699
1.3581
1.36012
1.36324
1.36777
1.37441
1.38231
1.35656
1.35525
1.35487
1.35519
1.35637
1.35855
1.3621
1.36765
1.37697
1.38865
1.355
1.35359
1.35314
1.35341
1.35457
1.35678
1.36057
1.36673
1.37815
1.39328
1.35359
1.35204
1.35153
1.35168
1.35275
1.35486
1.35866
1.36505
1.37809
1.39623
1.35311
1.35155
1.35097
1.35105
1.35201
1.35396
1.35767
1.36399
1.37813
1.39861
1.35157
1.3499
1.34927
1.34923
1.35007
1.35183
1.35535
1.36146
1.37629
1.39864
1.35211
1.35049
1.34985
1.34986
1.35073
1.35249
1.35595
1.36182
1.37672
1.40012
1.35055
1.3489
1.3482
1.34813
1.34888
1.35052
1.35385
1.35962
1.37395
1.39841
1.34785
1.34624
1.34577
1.34615
1.34746
1.34976
1.35369
1.36006
1.37416
1.39892
1.36097
1.3603
1.36006
1.36026
1.36092
1.36206
1.36364
1.36561
1.36775
1.36957
1.36181
1.36081
1.36048
1.36076
1.3617
1.36333
1.36572
1.36885
1.37275
1.3765
1.36038
1.35915
1.35878
1.35909
1.36019
1.36215
1.36516
1.36938
1.37551
1.382
1.35882
1.35744
1.35699
1.35728
1.35846
1.36063
1.36414
1.36931
1.37764
1.38712
1.3574
1.35583
1.35532
1.35554
1.3567
1.35893
1.36272
1.36853
1.37882
1.39132
1.35681
1.35519
1.3546
1.35476
1.35588
1.35809
1.36203
1.36821
1.38014
1.39541
1.35517
1.35342
1.35279
1.35285
1.35388
1.35601
1.35997
1.36634
1.37958
1.39746
1.35559
1.35387
1.35321
1.35331
1.35437
1.35651
1.36053
1.367
1.381
1.40098
1.35396
1.3522
1.3515
1.35154
1.35252
1.35457
1.35849
1.36509
1.37922
1.40127
1.35123
1.34952
1.34897
1.34932
1.35069
1.35318
1.3575
1.36453
1.37866
1.40223
1.36325
1.36282
1.36266
1.3628
1.36325
1.364
1.36499
1.36615
1.36731
1.36821
1.36443
1.36366
1.3634
1.36363
1.36435
1.36556
1.36725
1.36933
1.37162
1.3736
1.36337
1.36232
1.362
1.36227
1.36321
1.36482
1.36717
1.37021
1.37398
1.37753
1.36197
1.36071
1.3603
1.36059
1.36167
1.36361
1.36656
1.37059
1.37613
1.38174
1.36066
1.35918
1.3587
1.35895
1.36009
1.36222
1.36562
1.37047
1.37778
1.38567
1.36006
1.35849
1.35792
1.35814
1.3593
1.36153
1.36526
1.37073
1.37972
1.38995
1.35841
1.35669
1.35607
1.35622
1.35736
1.3596
1.36352
1.36946
1.37995
1.39257
1.35877
1.35705
1.3564
1.35657
1.35775
1.36007
1.36416
1.37045
1.38209
1.39686
1.3571
1.35533
1.35465
1.35478
1.35591
1.3582
1.36232
1.36894
1.38118
1.39823
1.35439
1.35265
1.35206
1.35241
1.3538
1.35639
1.36079
1.36779
1.38028
1.39923
1.36486
1.36461
1.36451
1.3646
1.36488
1.36534
1.36593
1.36657
1.36718
1.36758
1.36631
1.36576
1.36557
1.36573
1.36624
1.36708
1.36821
1.36951
1.37084
1.3719
1.36566
1.36483
1.36456
1.36478
1.36551
1.36675
1.36848
1.37058
1.37291
1.37489
1.36448
1.36342
1.36306
1.36331
1.36423
1.36584
1.36817
1.37117
1.37479
1.3781
1.36338
1.36207
1.36163
1.36187
1.36291
1.36479
1.36765
1.37148
1.3765
1.38142
1.36285
1.36141
1.36088
1.36112
1.36223
1.36431
1.3676
1.37215
1.37862
1.38529
1.36127
1.35964
1.35907
1.35926
1.3604
1.36258
1.36618
1.37134
1.37921
1.38781
1.36162
1.35997
1.35935
1.35957
1.36077
1.36308
1.36694
1.37262
1.3817
1.39217
1.35995
1.35824
1.35759
1.35778
1.35897
1.3613
1.36529
1.3714
1.38136
1.39396
1.3573
1.35559
1.355
1.35534
1.35671
1.35925
1.36347
1.36994
1.38031
1.39462
1.36603
1.3659
1.36586
1.36591
1.36608
1.36634
1.36668
1.36704
1.36736
1.36753
1.36765
1.36728
1.36715
1.36726
1.3676
1.36815
1.36887
1.36967
1.37044
1.37102
1.36738
1.36676
1.36656
1.36672
1.36726
1.36815
1.36936
1.37077
1.37222
1.37338
1.36643
1.36558
1.36528
1.36549
1.36622
1.36748
1.36924
1.37139
1.37376
1.37578
1.36558
1.36447
1.3641
1.36431
1.3652
1.36676
1.36904
1.37194
1.37538
1.37847
1.36518
1.36391
1.36345
1.36368
1.36468
1.36649
1.36924
1.37285
1.37744
1.38179
1.36371
1.36224
1.36172
1.36193
1.363
1.36498
1.3681
1.37238
1.37813
1.38393
1.36411
1.36259
1.36202
1.36226
1.36341
1.36556
1.36901
1.37385
1.38071
1.38799
1.36247
1.36086
1.36027
1.36049
1.36166
1.36389
1.36752
1.37283
1.38058
1.38963
1.35992
1.35831
1.35774
1.35806
1.35935
1.36174
1.36558
1.37123
1.37944
1.38981
1.36694
1.36689
1.36687
1.3669
1.367
1.36715
1.36734
1.36753
1.3677
1.36776
1.36862
1.36839
1.3683
1.36837
1.36859
1.36893
1.36937
1.36985
1.37029
1.37062
1.36866
1.36822
1.36807
1.36819
1.36857
1.36918
1.36999
1.37091
1.3718
1.37248
1.36791
1.36726
1.36703
1.36719
1.36774
1.36868
1.36995
1.37144
1.37298
1.37424
1.36732
1.36642
1.36612
1.3663
1.36701
1.36825
1.36998
1.3721
1.37443
1.37641
1.36706
1.366
1.36561
1.36582
1.36667
1.36817
1.37036
1.37312
1.37634
1.3792
1.36573
1.36446
1.36401
1.36421
1.36516
1.36687
1.36945
1.37284
1.37698
1.38091
1.36622
1.36489
1.36438
1.36461
1.36566
1.36757
1.37049
1.37443
1.37949
1.38452
1.36463
1.36318
1.36265
1.36287
1.36396
1.36598
1.36913
1.37353
1.37936
1.3857
1.36223
1.36077
1.36024
1.36053
1.36171
1.36386
1.36719
1.3719
1.37818
1.38547
1.36768
1.36767
1.36767
1.36768
1.36774
1.36782
1.36793
1.36803
1.36812
1.36812
1.36933
1.36919
1.36913
1.36918
1.36931
1.36953
1.36979
1.37007
1.37032
1.37051
1.36963
1.36932
1.36922
1.36929
1.36955
1.36996
1.37049
1.37107
1.37161
1.37201
1.36902
1.36854
1.36837
1.36848
1.36889
1.36956
1.37044
1.37145
1.37244
1.37321
1.36866
1.36797
1.36773
1.36787
1.36843
1.36936
1.37063
1.37213
1.37368
1.37495
1.36855
1.3677
1.36738
1.36755
1.36824
1.36944
1.37111
1.37315
1.37537
1.37725
1.36736
1.36631
1.36593
1.36611
1.36691
1.36832
1.37037
1.37295
1.37588
1.37853
1.36797
1.36684
1.36641
1.36662
1.36753
1.36914
1.37152
1.3746
1.37826
1.38169
1.36642
1.36517
1.36471
1.36492
1.36589
1.36763
1.37024
1.37373
1.37801
1.38235
1.36422
1.36294
1.36247
1.36273
1.36376
1.36561
1.3684
1.37216
1.37682
1.38184
1.36831
1.36833
1.36833
1.36834
1.36837
1.36842
1.36848
1.36853
1.36857
1.36854
1.36987
1.36979
1.36975
1.36978
1.36986
1.36999
1.37014
1.37031
1.37045
1.37056
1.37036
1.37015
1.37009
1.37014
1.3703
1.37057
1.3709
1.37126
1.37158
1.37182
1.36984
1.3695
1.36937
1.36945
1.36974
1.3702
1.3708
1.37146
1.37209
1.37257
1.36969
1.36917
1.36899
1.3691
1.36951
1.37019
1.37109
1.37212
1.37314
1.37395
1.3697
1.36904
1.36879
1.36893
1.36947
1.37038
1.37162
1.37307
1.37458
1.3758
1.36864
1.3678
1.36749
1.36764
1.36829
1.36941
1.37097
1.37288
1.37491
1.37668
1.36939
1.36847
1.36811
1.3683
1.36904
1.37035
1.37222
1.37454
1.37713
1.37943
1.36788
1.36683
1.36645
1.36663
1.36745
1.36889
1.37097
1.37365
1.37672
1.37964
1.3659
1.36482
1.36442
1.36464
1.36551
1.36705
1.36928
1.37219
1.37556
1.37894
1.36887
1.3689
1.36891
1.36891
1.36893
1.36896
1.36899
1.36902
1.36903
1.36899
1.37028
1.37024
1.37022
1.37024
1.37029
1.37036
1.37045
1.37055
1.37063
1.37069
1.37093
1.37079
1.37075
1.37078
1.37089
1.37105
1.37126
1.37148
1.37167
1.3718
1.37043
1.3702
1.37011
1.37017
1.37036
1.37067
1.37106
1.37149
1.37189
1.37219
1.37046
1.37009
1.36996
1.37003
1.37033
1.37081
1.37143
1.37212
1.37278
1.37329
1.37057
1.37008
1.36989
1.37
1.3704
1.37107
1.37196
1.37297
1.37398
1.37477
1.36962
1.36897
1.36873
1.36885
1.36935
1.3702
1.37136
1.37273
1.37412
1.37528
1.37051
1.36979
1.36951
1.36966
1.37025
1.37127
1.37269
1.37438
1.37618
1.37769
1.36902
1.36817
1.36787
1.36802
1.36868
1.36982
1.37143
1.37342
1.37557
1.37751
1.3673
1.36642
1.36609
1.36627
1.36698
1.3682
1.36994
1.3721
1.37449
1.37674
1.36938
1.36942
1.36943
1.36943
1.36944
1.36945
1.36947
1.36948
1.36949
1.36944
1.37061
1.37059
1.37058
1.37059
1.37062
1.37066
1.37071
1.37077
1.37082
1.37086
1.37138
1.3713
1.37127
1.37129
1.37136
1.37146
1.37158
1.37171
1.37183
1.37189
1.37087
1.37071
1.37065
1.37069
1.37081
1.37101
1.37127
1.37154
1.37179
1.37198
1.37103
1.37078
1.37069
1.37074
1.37094
1.37127
1.37169
1.37214
1.37257
1.37288
1.37121
1.37086
1.37073
1.3708
1.37109
1.37157
1.37219
1.37287
1.37354
1.37404
1.37036
1.36987
1.36969
1.36978
1.37015
1.37078
1.37161
1.37256
1.37349
1.37425
1.37138
1.37084
1.37062
1.37074
1.3712
1.37196
1.373
1.3742
1.37543
1.3764
1.36989
1.36923
1.36899
1.36911
1.36962
1.3705
1.37169
1.37312
1.3746
1.37588
1.36845
1.36776
1.3675
1.36765
1.3682
1.36914
1.37044
1.37201
1.37365
1.37513
1.36985
1.3699
1.36991
1.36991
1.36991
1.36992
1.36993
1.36993
1.36993
1.36988
1.37086
1.37086
1.37085
1.37085
1.37087
1.3709
1.37093
1.37096
1.37099
1.37102
1.37176
1.37171
1.37169
1.37171
1.37175
1.37181
1.37188
1.37195
1.37202
1.37205
1.37118
1.37108
1.37104
1.37106
1.37114
1.37127
1.37143
1.3716
1.37176
1.37188
1.37147
1.3713
1.37123
1.37127
1.37141
1.37162
1.3719
1.37219
1.37246
1.37265
1.37168
1.37144
1.37134
1.37139
1.3716
1.37192
1.37234
1.3728
1.37324
1.37355
1.37089
1.37054
1.37041
1.37048
1.37074
1.37119
1.37176
1.37241
1.37302
1.37351
1.37206
1.37167
1.37151
1.3716
1.37193
1.37249
1.37322
1.37405
1.37487
1.37549
1.37052
1.37002
1.36984
1.36994
1.37032
1.37096
1.37182
1.37282
1.37382
1.37465
1.36941
1.36889
1.36869
1.3688
1.36921
1.36991
1.37085
1.37195
1.37306
1.37402
1.37031
1.37035
1.37036
1.37036
1.37036
1.37037
1.37037
1.37037
1.37037
1.37031
1.37105
1.37105
1.37104
1.37105
1.37106
1.37107
1.37109
1.37112
1.37113
1.37115
1.37208
1.37206
1.37205
1.37206
1.37208
1.37212
1.37216
1.3722
1.37223
1.37224
1.3714
1.37134
1.37131
1.37132
1.37137
1.37145
1.37155
1.37166
1.37176
1.37184
1.37179
1.37168
1.37164
1.37166
1.37175
1.37189
1.37207
1.37225
1.37241
1.37253
1.37201
1.37185
1.37178
1.37182
1.37195
1.37217
1.37245
1.37275
1.37303
1.37322
1.37127
1.37103
1.37094
1.37099
1.37117
1.37147
1.37186
1.37229
1.37268
1.373
1.37258
1.37231
1.37219
1.37226
1.3725
1.37288
1.37339
1.37394
1.37449
1.37486
1.37096
1.37059
1.37046
1.37053
1.37081
1.37126
1.37186
1.37254
1.3732
1.37374
1.37021
1.36983
1.36969
1.36977
1.37007
1.37056
1.37122
1.37197
1.37271
1.37332
1.37076
1.3708
1.37081
1.37081
1.37081
1.37081
1.37081
1.37081
1.37081
1.37075
1.37117
1.37117
1.37117
1.37117
1.37117
1.37119
1.3712
1.37122
1.37123
1.37125
1.37237
1.37236
1.37236
1.37236
1.37238
1.3724
1.37242
1.37244
1.37246
1.37245
1.37155
1.37151
1.37149
1.3715
1.37153
1.37158
1.37164
1.37171
1.37177
1.37182
1.37202
1.37195
1.37193
1.37194
1.372
1.37209
1.3722
1.37231
1.37241
1.37247
1.37223
1.37212
1.37208
1.3721
1.37219
1.37233
1.37251
1.3727
1.37288
1.373
1.37155
1.37138
1.37132
1.37136
1.37148
1.37168
1.37193
1.37221
1.37245
1.37266
1.37298
1.37281
1.37273
1.37277
1.37293
1.3732
1.37354
1.3739
1.37425
1.37447
1.37124
1.37097
1.37088
1.37093
1.37112
1.37143
1.37183
1.37229
1.37271
1.37306
1.37092
1.37065
1.37055
1.37061
1.37082
1.37116
1.37161
1.3721
1.37258
1.37296
1.37126
1.37129
1.3713
1.3713
1.3713
1.3713
1.3713
1.3713
1.37129
1.37124
1.37121
1.37121
1.37121
1.37121
1.37121
1.37122
1.37123
1.37125
1.37126
1.37128
1.37263
1.37263
1.37263
1.37264
1.37264
1.37265
1.37267
1.37267
1.37268
1.37266
1.37165
1.37162
1.37161
1.37162
1.37164
1.37167
1.3717
1.37174
1.37178
1.37181
1.37217
1.37213
1.37212
1.37213
1.37216
1.37221
1.37228
1.37235
1.37241
1.37245
1.37235
1.37228
1.37225
1.37227
1.37232
1.37241
1.37253
1.37265
1.37276
1.37283
1.37173
1.37163
1.37159
1.37162
1.3717
1.37182
1.37198
1.37215
1.3723
1.37243
1.37329
1.37318
1.37312
1.37315
1.37326
1.37343
1.37365
1.37389
1.37412
1.37423
1.37137
1.37118
1.37112
1.37115
1.37128
1.37149
1.37175
1.37204
1.3723
1.37254
1.37162
1.37144
1.37137
1.37141
1.37155
1.37177
1.37207
1.37238
1.37269
1.37293
1.37193
1.37196
1.37197
1.37197
1.37197
1.37197
1.37196
1.37196
1.37195
1.3719
1.37115
1.37114
1.37114
1.37114
1.37114
1.37115
1.37116
1.37117
1.37119
1.37121
1.37284
1.37285
1.37284
1.37285
1.37285
1.37286
1.37287
1.37287
1.37287
1.37285
1.37171
1.37169
1.37169
1.37169
1.3717
1.37172
1.37174
1.37176
1.37178
1.3718
1.37224
1.37222
1.37221
1.37221
1.37223
1.37226
1.3723
1.37235
1.37238
1.3724
1.37237
1.37233
1.37231
1.37232
1.37235
1.37241
1.37248
1.37255
1.37263
1.37267
1.37185
1.37179
1.37177
1.37178
1.37183
1.37191
1.37201
1.37211
1.37219
1.37227
1.37347
1.37339
1.37335
1.37337
1.37344
1.37355
1.37369
1.37384
1.374
1.37406
1.37134
1.37121
1.37117
1.3712
1.37128
1.37141
1.37158
1.37176
1.37192
1.37208
1.37245
1.37233
1.37228
1.37231
1.3724
1.37255
1.37274
1.37293
1.37313
1.37327
1.37302
1.37304
1.37305
1.37305
1.37305
1.37305
1.37305
1.37304
1.37303
1.37299
1.3709
1.37089
1.37089
1.37089
1.37089
1.3709
1.3709
1.37091
1.37092
1.37095
1.37293
1.37292
1.37292
1.37292
1.37292
1.37292
1.37293
1.37294
1.37295
1.37293
1.37174
1.37173
1.37173
1.37174
1.37175
1.37176
1.37176
1.37177
1.37178
1.37179
1.37223
1.37221
1.3722
1.37221
1.37222
1.37224
1.37226
1.37229
1.37232
1.37233
1.37231
1.37228
1.37226
1.37227
1.37229
1.37232
1.37237
1.37242
1.37246
1.3725
1.3719
1.37186
1.37185
1.37187
1.3719
1.37195
1.37201
1.37207
1.37211
1.37215
1.37338
1.37333
1.3733
1.37331
1.37335
1.37342
1.37352
1.37362
1.37373
1.37377
1.37106
1.37099
1.37097
1.37098
1.37104
1.37112
1.37123
1.37133
1.37142
1.37153
1.37365
1.37357
1.37353
1.37355
1.37361
1.37371
1.37383
1.37396
1.3741
1.37417
1.37478
1.37479
1.37479
1.37479
1.37479
1.37478
1.37478
1.37478
1.37478
1.37476
1.37031
1.37032
1.37033
1.37034
1.37034
1.37035
1.37034
1.37034
1.37033
1.37034
1.37275
1.37273
1.37272
1.37271
1.3727
1.37271
1.37272
1.37274
1.37276
1.37278
1.37177
1.37177
1.37178
1.37179
1.37179
1.3718
1.3718
1.3718
1.3718
1.37179
1.37217
1.37215
1.37215
1.37215
1.37216
1.37217
1.37219
1.37221
1.37223
1.37224
1.3722
1.37218
1.37217
1.37217
1.37219
1.37221
1.37224
1.37228
1.37231
1.37233
1.3719
1.37189
1.37188
1.37189
1.37192
1.37195
1.37199
1.37203
1.37205
1.37207
1.37291
1.37285
1.37283
1.37283
1.37286
1.37291
1.37298
1.37306
1.37315
1.37321
1.37043
1.37039
1.37038
1.3704
1.37044
1.3705
1.37057
1.37063
1.37068
1.37072
1.3754
1.37535
1.37532
1.37533
1.37537
1.37544
1.37553
1.37562
1.37572
1.37577
1.37663
1.37662
1.3766
1.37659
1.37659
1.37659
1.3766
1.37662
1.37664
1.37667
1.36956
1.36962
1.36966
1.36968
1.36969
1.36969
1.36968
1.36965
1.3696
1.36952
1.37239
1.37235
1.37233
1.37232
1.37231
1.37232
1.37233
1.37235
1.37239
1.37243
1.37183
1.37184
1.37185
1.37185
1.37186
1.37186
1.37187
1.37187
1.37186
1.37185
1.37212
1.37211
1.3721
1.37211
1.37211
1.37212
1.37214
1.37216
1.37217
1.37219
1.37214
1.37212
1.37212
1.37212
1.37213
1.37215
1.37218
1.37221
1.37223
1.37226
1.37194
1.37193
1.37192
1.37193
1.37195
1.37198
1.37202
1.37205
1.37208
1.37208
1.37228
1.37223
1.3722
1.37221
1.37224
1.37228
1.37234
1.37241
1.37248
1.37257
1.36967
1.36967
1.36966
1.36968
1.36971
1.36976
1.36983
1.36988
1.36991
1.36986
1.37718
1.37713
1.37711
1.37712
1.37716
1.37722
1.3773
1.37738
1.37746
1.3775
1.47348
1.47907
1.47564
1.46845
1.50623
1.51197
1.50511
1.49435
1.53267
1.53772
1.52803
1.51472
1.55163
1.55554
1.543
1.52768
1.56629
1.56879
1.55352
1.5367
1.57821
1.57926
1.56307
1.54432
1.58618
1.58559
1.56996
1.54886
1.59332
1.59098
1.57617
1.55278
1.59117
1.58697
1.57275
1.54731
1.58336
1.57814
1.56558
1.539
1.3727
1.37238
1.37293
1.37399
1.39415
1.39552
1.39652
1.39619
1.41356
1.41626
1.41751
1.4156
1.43217
1.43608
1.43746
1.43363
1.44966
1.45443
1.45577
1.44986
1.46661
1.4719
1.47296
1.46537
1.48076
1.48631
1.48697
1.47827
1.49504
1.50066
1.50101
1.49168
1.50202
1.50764
1.50783
1.49827
1.50565
1.51177
1.51196
1.50275
1.37691
1.37736
1.37755
1.37756
1.38963
1.39062
1.39091
1.39076
1.40171
1.4033
1.40373
1.40337
1.41348
1.41574
1.41627
1.41556
1.42502
1.42792
1.42849
1.42724
1.43724
1.44076
1.4413
1.43937
1.44786
1.4519
1.45238
1.44967
1.45974
1.46419
1.46459
1.46109
1.46574
1.47052
1.47085
1.4665
1.46925
1.47479
1.47513
1.46976
1.37016
1.37012
1.37016
1.37026
1.3782
1.37844
1.37854
1.37856
1.38606
1.38661
1.38682
1.38677
1.39443
1.39541
1.39575
1.39558
1.40288
1.40435
1.40482
1.40443
1.41227
1.41427
1.41486
1.41414
1.42044
1.42296
1.42364
1.42251
1.43033
1.43334
1.43407
1.43246
1.4352
1.43863
1.43944
1.43734
1.43786
1.44215
1.4431
1.44031
1.36877
1.36871
1.36872
1.36878
1.37443
1.37458
1.37464
1.37464
1.37944
1.37976
1.37988
1.37985
1.38516
1.38571
1.3859
1.38585
1.39116
1.39198
1.39228
1.39217
1.39816
1.39932
1.39972
1.39951
1.4041
1.40561
1.40612
1.40576
1.412
1.41387
1.41448
1.41391
1.4159
1.41811
1.41888
1.41811
1.41793
1.42092
1.42189
1.42066
1.36798
1.36789
1.36787
1.36793
1.37221
1.37226
1.37229
1.37231
1.37561
1.37573
1.3758
1.37581
1.37954
1.3798
1.37992
1.37994
1.38388
1.38431
1.3845
1.38451
1.38919
1.38983
1.39011
1.3901
1.39351
1.39438
1.39475
1.39469
1.39988
1.40101
1.40147
1.40133
1.40303
1.40441
1.40503
1.40483
1.40425
1.40628
1.40706
1.40652
1.36788
1.36778
1.36775
1.36781
1.3712
1.37122
1.37124
1.37125
1.37373
1.37379
1.37383
1.37384
1.37647
1.3766
1.37667
1.3767
1.37966
1.37988
1.38
1.38004
1.38372
1.38407
1.38426
1.3843
1.3868
1.3873
1.38756
1.3876
1.39195
1.39264
1.39297
1.39299
1.39438
1.39524
1.39569
1.3957
1.39479
1.39619
1.39675
1.39647
1.36807
1.36796
1.36793
1.36799
1.37071
1.37072
1.37073
1.37073
1.37267
1.3727
1.37271
1.37272
1.3746
1.37467
1.37471
1.37473
1.37703
1.37715
1.37722
1.37725
1.38021
1.38041
1.38052
1.38057
1.3824
1.38269
1.38286
1.38292
1.38662
1.38702
1.38725
1.38731
1.38829
1.38882
1.38912
1.38917
1.38805
1.38905
1.38942
1.38922
1.36842
1.3683
1.36827
1.36833
1.37056
1.37056
1.37057
1.37057
1.37211
1.37213
1.37214
1.37214
1.37343
1.37347
1.37349
1.37351
1.37531
1.37537
1.37542
1.37544
1.37783
1.37795
1.37802
1.37805
1.37937
1.37954
1.37965
1.3797
1.38287
1.38311
1.38326
1.38331
1.38382
1.38415
1.38435
1.3844
1.38316
1.38391
1.38415
1.38396
1.36883
1.36871
1.36868
1.36874
1.37059
1.37059
1.37059
1.3706
1.37188
1.37188
1.37189
1.37189
1.3727
1.37272
1.37274
1.37275
1.37416
1.3742
1.37422
1.37424
1.37616
1.37623
1.37628
1.3763
1.37718
1.37728
1.37735
1.37738
1.38013
1.38028
1.38037
1.38041
1.38051
1.38071
1.38083
1.38087
1.37959
1.38018
1.38034
1.38015
1.36927
1.36915
1.36912
1.36917
1.37071
1.37071
1.37071
1.37071
1.37184
1.37184
1.37184
1.37184
1.37227
1.37229
1.3723
1.3723
1.37342
1.37344
1.37346
1.37347
1.37499
1.37503
1.37506
1.37508
1.37558
1.37564
1.37569
1.37571
1.37812
1.37821
1.37827
1.3783
1.37804
1.37817
1.37824
1.37827
1.37701
1.3775
1.37761
1.37741
1.36971
1.36959
1.36955
1.36961
1.37087
1.37087
1.37087
1.37087
1.37191
1.37192
1.37192
1.37192
1.37203
1.37204
1.37205
1.37205
1.37296
1.37297
1.37298
1.37299
1.37419
1.37421
1.37423
1.37424
1.37443
1.37447
1.3745
1.37452
1.37667
1.37673
1.37677
1.37678
1.3762
1.37629
1.37634
1.37635
1.37519
1.37561
1.37568
1.37549
1.37014
1.37002
1.36998
1.37004
1.37102
1.37102
1.37102
1.37102
1.37206
1.37206
1.37206
1.37206
1.37191
1.37191
1.37192
1.37192
1.37269
1.3727
1.3727
1.37271
1.37365
1.37367
1.37368
1.37368
1.37362
1.37365
1.37366
1.37368
1.37566
1.37569
1.37572
1.37573
1.37485
1.37491
1.37494
1.37495
1.37396
1.37432
1.37437
1.37419
1.37057
1.37044
1.37041
1.37047
1.37116
1.37115
1.37116
1.37116
1.37225
1.37225
1.37225
1.37224
1.37185
1.37186
1.37186
1.37186
1.37255
1.37256
1.37256
1.37256
1.37329
1.3733
1.37331
1.37331
1.37306
1.37307
1.37308
1.37309
1.37497
1.375
1.37501
1.37502
1.37386
1.3739
1.37392
1.37393
1.3732
1.37351
1.37354
1.37337
1.371
1.37087
1.37084
1.3709
1.37125
1.37125
1.37125
1.37125
1.37246
1.37246
1.37245
1.37245
1.37183
1.37183
1.37183
1.37183
1.37249
1.37249
1.37249
1.37249
1.37305
1.37306
1.37306
1.37306
1.37268
1.37268
1.37269
1.3727
1.37454
1.37456
1.37457
1.37457
1.37314
1.37316
1.37317
1.37318
1.37281
1.37308
1.3731
1.37295
1.37147
1.37134
1.37131
1.37137
1.37127
1.37127
1.37128
1.37128
1.37267
1.37267
1.37267
1.37266
1.37181
1.37181
1.37181
1.37181
1.37245
1.37245
1.37245
1.37246
1.37287
1.37288
1.37288
1.37288
1.37242
1.37242
1.37243
1.37243
1.37429
1.3743
1.37431
1.37431
1.37258
1.37259
1.3726
1.37261
1.37276
1.37299
1.37301
1.37287
1.37211
1.37198
1.37195
1.37202
1.3712
1.3712
1.3712
1.37121
1.37286
1.37286
1.37286
1.37286
1.37179
1.37178
1.37179
1.37179
1.37241
1.37241
1.37241
1.37241
1.3727
1.37271
1.37271
1.37271
1.37224
1.37224
1.37224
1.37224
1.37412
1.37413
1.37413
1.37413
1.37209
1.3721
1.37211
1.37211
1.37311
1.37329
1.37331
1.3732
1.37317
1.37305
1.37302
1.37308
1.37093
1.37093
1.37093
1.37094
1.37296
1.37296
1.37296
1.37296
1.37176
1.37175
1.37175
1.37175
1.37234
1.37234
1.37234
1.37235
1.37252
1.37253
1.37253
1.37253
1.3721
1.37209
1.37209
1.3721
1.37386
1.37387
1.37388
1.37387
1.37152
1.37152
1.37153
1.37153
1.37404
1.37417
1.37418
1.37411
1.37491
1.3748
1.37478
1.37484
1.37028
1.37028
1.37028
1.37028
1.37285
1.37286
1.37286
1.37286
1.37175
1.37174
1.37174
1.37174
1.37225
1.37226
1.37226
1.37226
1.37235
1.37236
1.37236
1.37236
1.37201
1.372
1.372
1.372
1.37334
1.37337
1.37337
1.37337
1.37064
1.37063
1.37063
1.37064
1.37574
1.37583
1.37584
1.37579
1.37677
1.37671
1.37671
1.37676
1.36931
1.36926
1.36925
1.36925
1.37254
1.37256
1.37257
1.37257
1.3718
1.37179
1.37179
1.37179
1.3722
1.3722
1.3722
1.3722
1.37227
1.37227
1.37227
1.37227
1.37203
1.37202
1.37202
1.37202
1.37273
1.37277
1.37278
1.37276
1.36958
1.36951
1.3695
1.36955
1.37769
1.37774
1.37775
1.3777
1.42997
1.40547
1.38432
1.37005
1.36148
1.35619
1.3527
1.35032
1.34867
1.34748
1.44225
1.40926
1.38407
1.36925
1.36102
1.35597
1.35272
1.35053
1.34905
1.348
1.44378
1.40721
1.37971
1.36644
1.35862
1.35383
1.3507
1.3486
1.34726
1.34647
1.44055
1.40328
1.37434
1.36345
1.35617
1.35192
1.34909
1.34722
1.34601
1.34528
1.43464
1.39831
1.36951
1.36047
1.35358
1.34987
1.3473
1.34566
1.34459
1.34405
1.42736
1.39433
1.36612
1.35891
1.35232
1.34918
1.34685
1.34544
1.34448
1.34392
1.41713
1.38922
1.36155
1.35618
1.34977
1.34719
1.34504
1.34381
1.34294
1.34252
1.40919
1.38712
1.35998
1.35646
1.35017
1.34811
1.346
1.34484
1.34395
1.34336
1.39817
1.38114
1.35512
1.35369
1.34786
1.3464
1.34435
1.34328
1.34243
1.34185
1.39505
1.38125
1.35581
1.35496
1.34825
1.34612
1.34328
1.34161
1.34029
1.3392
1.37776
1.37498
1.37165
1.36828
1.36506
1.36215
1.35965
1.35757
1.35588
1.3546
1.39543
1.38745
1.38001
1.37364
1.36836
1.3642
1.36099
1.35849
1.35654
1.35507
1.40835
1.39529
1.38411
1.37536
1.36851
1.36342
1.35967
1.35689
1.35482
1.35345
1.41797
1.40037
1.38599
1.37575
1.36801
1.36254
1.35861
1.35575
1.35362
1.35218
1.42427
1.40337
1.38631
1.37514
1.36686
1.36128
1.35731
1.35446
1.35232
1.35094
1.42906
1.40608
1.38682
1.37523
1.36665
1.36113
1.35718
1.35439
1.35226
1.3508
1.43064
1.40657
1.38547
1.3738
1.36502
1.35964
1.35572
1.35299
1.35085
1.34944
1.43292
1.40877
1.38628
1.37491
1.36606
1.36085
1.35691
1.35413
1.35194
1.35031
1.43046
1.40641
1.38357
1.37314
1.36458
1.35961
1.35562
1.3528
1.35056
1.34888
1.43085
1.40743
1.38422
1.37384
1.36462
1.35903
1.35442
1.35108
1.34846
1.34629
1.37678
1.37474
1.37218
1.36959
1.36717
1.36501
1.36312
1.36151
1.36017
1.35913
1.38894
1.3844
1.37917
1.3745
1.37065
1.3675
1.36493
1.36281
1.36108
1.35972
1.39986
1.39197
1.3836
1.37672
1.37133
1.36718
1.36395
1.36142
1.35945
1.35807
1.40969
1.39811
1.38681
1.37818
1.37167
1.36682
1.36315
1.36034
1.35818
1.35664
1.41818
1.40277
1.38871
1.37866
1.37127
1.36595
1.36201
1.35906
1.35678
1.35524
1.42629
1.40725
1.3907
1.37959
1.37155
1.36596
1.36187
1.35885
1.35651
1.35486
1.43184
1.40946
1.39069
1.37882
1.37029
1.36456
1.36036
1.35731
1.35493
1.35331
1.43814
1.41303
1.39252
1.3803
1.37145
1.36567
1.36138
1.35825
1.3558
1.35399
1.43919
1.41204
1.39095
1.37908
1.37031
1.36456
1.36014
1.35692
1.35439
1.35252
1.44034
1.41227
1.39087
1.37887
1.36958
1.36337
1.35851
1.35491
1.35213
1.34989
1.37019
1.36972
1.36891
1.36791
1.3668
1.36568
1.3646
1.36361
1.36275
1.36206
1.37824
1.37684
1.37489
1.3728
1.37073
1.36879
1.36703
1.36548
1.36415
1.36306
1.38587
1.38289
1.37911
1.37542
1.37209
1.36921
1.36676
1.36472
1.36303
1.36179
1.39377
1.38883
1.38304
1.37777
1.37324
1.3695
1.36645
1.36397
1.36198
1.36048
1.40128
1.39401
1.38606
1.37928
1.37369
1.36925
1.36574
1.36296
1.36073
1.35914
1.40917
1.39937
1.38925
1.38113
1.37464
1.36968
1.36582
1.36283
1.36045
1.3587
1.41523
1.40277
1.39051
1.38123
1.37398
1.36862
1.36451
1.36137
1.35886
1.35709
1.42253
1.40757
1.39344
1.3833
1.37549
1.36984
1.36551
1.36221
1.35961
1.35765
1.42527
1.40827
1.39314
1.38268
1.3746
1.36875
1.36423
1.36081
1.35812
1.3561
1.42741
1.40884
1.39287
1.38188
1.37332
1.3671
1.36226
1.35857
1.35571
1.35341
1.36863
1.36836
1.36794
1.36741
1.36681
1.36619
1.36556
1.36497
1.36444
1.36403
1.37444
1.37381
1.37287
1.37174
1.37053
1.36932
1.36817
1.36711
1.36617
1.36537
1.37942
1.37805
1.37616
1.3741
1.37206
1.37014
1.36841
1.36687
1.36556
1.36455
1.38512
1.38276
1.37965
1.37647
1.37348
1.3708
1.36847
1.36647
1.36478
1.36347
1.39096
1.38731
1.38278
1.3784
1.37445
1.37105
1.36818
1.36579
1.3638
1.36232
1.3976
1.39242
1.38632
1.38074
1.37589
1.37187
1.36855
1.36584
1.36362
1.36193
1.40288
1.39593
1.38815
1.38142
1.37575
1.37118
1.36749
1.36454
1.36212
1.36036
1.40984
1.40106
1.3917
1.38397
1.3776
1.37259
1.36858
1.3654
1.36284
1.36088
1.41312
1.40276
1.3923
1.38388
1.37698
1.37161
1.36733
1.364
1.36132
1.35929
1.41528
1.40338
1.3919
1.38282
1.37545
1.36974
1.36521
1.36166
1.35885
1.35659
1.36782
1.36768
1.36749
1.36723
1.36692
1.36659
1.36624
1.36591
1.36562
1.3654
1.37225
1.37197
1.3715
1.3709
1.37023
1.36951
1.3688
1.36813
1.36751
1.36697
1.37569
1.37508
1.37414
1.373
1.37178
1.37056
1.36938
1.36829
1.36732
1.36657
1.3797
1.37859
1.37697
1.37511
1.37321
1.37137
1.36967
1.36815
1.36681
1.36574
1.3841
1.3823
1.37979
1.37709
1.37442
1.37195
1.36973
1.36779
1.36612
1.36485
1.3894
1.38673
1.3832
1.37956
1.37612
1.37304
1.37035
1.36805
1.36611
1.36458
1.3936
1.38985
1.38514
1.38054
1.37633
1.37268
1.36956
1.36696
1.36476
1.36312
1.39971
1.39477
1.38887
1.38335
1.37842
1.37426
1.37076
1.36788
1.36552
1.36366
1.40283
1.39678
1.38986
1.38353
1.37799
1.3734
1.3696
1.36653
1.36402
1.36209
1.40434
1.39715
1.38934
1.38237
1.37639
1.37147
1.36744
1.36419
1.36157
1.35943
1.3677
1.36763
1.36752
1.36739
1.36722
1.36704
1.36686
1.36668
1.36652
1.36642
1.37121
1.37106
1.37081
1.37048
1.37009
1.36967
1.36925
1.36883
1.36844
1.36809
1.37377
1.37345
1.37294
1.37228
1.37153
1.37075
1.36998
1.36923
1.36856
1.36804
1.37659
1.37602
1.37512
1.37401
1.37279
1.37155
1.37036
1.36925
1.36825
1.36742
1.37987
1.37894
1.37751
1.37583
1.37405
1.3723
1.37065
1.36916
1.36783
1.3668
1.38403
1.38261
1.38054
1.3782
1.37581
1.37353
1.37145
1.3696
1.36799
1.36669
1.38719
1.38514
1.3823
1.37922
1.37619
1.37338
1.37087
1.3687
1.36682
1.36537
1.39234
1.38958
1.3859
1.38206
1.37839
1.37509
1.3722
1.36973
1.36765
1.36598
1.3949
1.39136
1.38685
1.38229
1.37805
1.37432
1.37112
1.36845
1.3662
1.36445
1.39564
1.39136
1.38619
1.3811
1.37646
1.37244
1.36902
1.36618
1.36384
1.3619
1.36789
1.36784
1.36778
1.36771
1.36763
1.36753
1.36743
1.36733
1.36726
1.36723
1.37072
1.37063
1.3705
1.37032
1.3701
1.36986
1.36961
1.36936
1.36912
1.3689
1.37269
1.37251
1.37221
1.37183
1.37137
1.37089
1.37039
1.36991
1.36946
1.36911
1.37468
1.37436
1.37384
1.37316
1.37238
1.37157
1.37076
1.36998
1.36927
1.36866
1.37718
1.37666
1.37581
1.37475
1.37357
1.37236
1.37118
1.37008
1.36908
1.36828
1.38045
1.37966
1.37841
1.37689
1.37526
1.37362
1.37206
1.37064
1.36937
1.36831
1.38275
1.3816
1.37986
1.37781
1.37567
1.37358
1.37164
1.3699
1.36836
1.36715
1.38704
1.38546
1.38315
1.38053
1.37787
1.37535
1.37306
1.37104
1.3693
1.36787
1.38882
1.38674
1.38384
1.38066
1.37752
1.37463
1.37205
1.36983
1.36791
1.36638
1.38894
1.38641
1.38305
1.37946
1.376
1.37284
1.37007
1.36769
1.36568
1.36398
1.36823
1.3682
1.36817
1.36813
1.36808
1.36803
1.36798
1.36793
1.36789
1.36791
1.37056
1.37052
1.37044
1.37034
1.37022
1.37008
1.36993
1.36979
1.36964
1.36951
1.37212
1.37202
1.37185
1.37162
1.37134
1.37104
1.37073
1.37042
1.37013
1.36992
1.37348
1.37329
1.37298
1.37256
1.37207
1.37155
1.37101
1.37048
1.36999
1.36956
1.3754
1.37509
1.37457
1.37389
1.37312
1.3723
1.37148
1.3707
1.36997
1.36939
1.37799
1.37752
1.37675
1.37576
1.37465
1.37351
1.37238
1.37133
1.37036
1.36954
1.37962
1.37894
1.37784
1.37648
1.37499
1.37348
1.37203
1.3707
1.36949
1.36852
1.38318
1.38225
1.38078
1.37901
1.37713
1.37527
1.37352
1.37194
1.37054
1.36935
1.38423
1.38299
1.38113
1.37896
1.37671
1.37455
1.37254
1.37076
1.36919