/*--------------------------------*- C++ -*----------------------------------*\
| =========                 |                                                 |
| \\      /  F ield         | foam-extend: Open Source CFD                    |
|  \\    /   O peration     | Version:     4.0                                |
|   \\  /    A nd           | Web:         http://www.foam-extend.org         |
|    \\/     M anipulation  |                                                 |
\*---------------------------------------------------------------------------*/
FoamFile
{
    version     2.0;
    format      ascii;
    class       volScalarField;
    location    "1800";
    object      T;
}
// * * * * * * * * * * * * * * * * * * * * * * * * * * * * * * * * * * * * * //

dimensions      [0 0 0 1 0 0 0];

internalField   nonuniform List<scalar> 
34480
(
278.812
278.701
278.62
278.565
278.533
278.524
278.539
278.624
278.895
278.861
278.26
278.142
278.048
277.982
277.949
277.952
277.977
278.021
278.238
277.794
278.148
278.017
277.911
277.837
277.799
277.787
277.768
277.714
277.842
277.066
278.189
278.037
277.908
277.806
277.733
277.67
277.586
277.428
277.434
276.31
278.202
278.025
277.868
277.733
277.619
277.5
277.346
277.077
276.928
275.448
278.271
278.07
277.89
277.729
277.58
277.41
277.19
276.807
276.471
274.609
278.297
278.071
277.867
277.681
277.501
277.287
277.004
276.508
275.961
273.712
278.368
278.12
277.904
277.709
277.522
277.292
276.976
276.394
275.639
272.97
278.425
278.157
277.922
277.709
277.497
277.24
276.881
276.216
275.25
272.227
279.242
278.961
278.758
278.616
278.511
278.391
278.182
277.656
276.65
273.196
279.345
279.253
279.216
279.232
279.305
279.452
279.712
280.169
280.837
281.707
278.695
278.611
278.578
278.595
278.675
278.843
279.134
279.632
280.424
281.445
278.489
278.411
278.381
278.402
278.488
278.66
278.949
279.439
280.289
281.405
278.436
278.357
278.323
278.335
278.408
278.559
278.823
279.289
280.169
281.332
278.362
278.277
278.236
278.234
278.289
278.41
278.643
279.07
279.95
281.129
278.352
278.265
278.218
278.208
278.247
278.342
278.54
278.918
279.77
280.925
278.309
278.215
278.162
278.142
278.167
278.238
278.402
278.727
279.527
280.641
278.327
278.231
278.18
278.165
278.193
278.26
278.404
278.683
279.41
280.433
278.343
278.24
278.183
278.16
278.176
278.227
278.346
278.577
279.223
280.167
279.107
279.017
278.996
279.039
279.143
279.296
279.516
279.821
280.417
281.086
279.819
279.72
279.684
279.705
279.783
279.929
280.16
280.506
281.004
281.628
279.162
279.064
279.029
279.053
279.144
279.318
279.608
280.064
280.771
281.699
278.941
278.843
278.807
278.832
278.928
279.115
279.433
279.948
280.819
282.033
278.857
278.755
278.714
278.732
278.82
278.999
279.318
279.862
280.869
282.334
278.753
278.645
278.597
278.603
278.677
278.837
279.142
279.69
280.794
282.465
278.717
278.605
278.552
278.549
278.61
278.75
279.034
279.566
280.728
282.553
278.651
278.533
278.474
278.462
278.51
278.63
278.888
279.392
280.579
282.519
278.649
278.53
278.472
278.464
278.513
278.626
278.868
279.338
280.514
282.514
278.648
278.524
278.462
278.448
278.489
278.59
278.808
279.237
280.376
282.455
279.38
279.269
279.233
279.268
279.373
279.548
279.833
280.301
281.385
283.383
280.157
280.071
280.042
280.061
280.129
280.25
280.428
280.669
280.975
281.313
279.529
279.437
279.404
279.43
279.518
279.678
279.924
280.277
280.762
281.31
279.319
279.218
279.184
279.212
279.31
279.493
279.787
280.228
280.884
281.675
279.223
279.114
279.073
279.097
279.196
279.386
279.705
280.21
281.031
282.079
279.103
278.985
278.938
278.954
279.045
279.229
279.556
280.1
281.061
282.352
279.049
278.925
278.873
278.881
278.964
279.138
279.463
280.025
281.098
282.599
278.966
278.837
278.779
278.779
278.852
279.013
279.327
279.891
281.046
282.728
278.948
278.817
278.759
278.762
278.836
278.993
279.299
279.853
281.052
282.871
278.932
278.799
278.738
278.736
278.803
278.952
279.246
279.779
280.983
282.951
279.632
279.509
279.467
279.499
279.611
279.81
280.148
280.71
281.884
283.884
280.387
280.319
280.297
280.312
280.362
280.448
280.568
280.717
280.886
281.053
279.806
279.728
279.701
279.723
279.797
279.925
280.111
280.357
280.657
280.951
279.625
279.532
279.5
279.527
279.616
279.776
280.018
280.356
280.804
281.272
279.534
279.427
279.389
279.414
279.511
279.69
279.975
280.394
280.998
281.672
279.413
279.293
279.248
279.268
279.365
279.551
279.863
280.342
281.094
281.984
279.351
279.223
279.172
279.187
279.281
279.468
279.795
280.317
281.201
282.3
279.259
279.124
279.067
279.076
279.164
279.346
279.678
280.227
281.222
282.516
279.23
279.093
279.035
279.046
279.136
279.318
279.652
280.213
281.286
282.75
279.203
279.064
279.004
279.011
279.096
279.273
279.605
280.168
281.282
282.927
279.87
279.741
279.693
279.724
279.84
280.051
280.412
281
282.115
283.856
280.538
280.489
280.473
280.483
280.517
280.573
280.648
280.736
280.829
280.918
280.007
279.948
279.926
279.944
280
280.094
280.225
280.387
280.566
280.725
279.863
279.785
279.758
279.78
279.854
279.983
280.169
280.411
280.701
280.973
279.788
279.692
279.657
279.681
279.768
279.924
280.16
280.482
280.9
281.319
279.675
279.563
279.521
279.543
279.636
279.809
280.083
280.475
281.025
281.61
279.615
279.491
279.443
279.462
279.558
279.741
280.043
280.492
281.17
281.927
279.522
279.389
279.335
279.349
279.444
279.63
279.95
280.443
281.236
282.168
279.487
279.35
279.295
279.311
279.408
279.6
279.933
280.455
281.34
282.435
279.453
279.313
279.256
279.269
279.364
279.554
279.892
280.434
281.38
282.651
280.088
279.958
279.908
279.938
280.054
280.268
280.626
281.193
282.16
283.546
280.637
280.601
280.59
280.597
280.618
280.653
280.697
280.748
280.799
280.849
280.152
280.109
280.094
280.106
280.146
280.211
280.298
280.4
280.506
280.592
280.044
279.982
279.96
279.978
280.036
280.133
280.268
280.434
280.616
280.774
279.989
279.907
279.878
279.898
279.971
280.098
280.282
280.519
280.799
281.056
279.892
279.793
279.756
279.777
279.86
280.01
280.236
280.54
280.927
281.305
279.839
279.726
279.682
279.702
279.792
279.96
280.222
280.588
281.085
281.595
279.75
279.625
279.576
279.593
279.686
279.864
280.153
280.57
281.174
281.825
279.716
279.585
279.533
279.552
279.65
279.837
280.146
280.604
281.299
282.088
279.676
279.542
279.489
279.506
279.603
279.793
280.114
280.6
281.363
282.303
280.282
280.156
280.107
280.135
280.247
280.454
280.791
281.303
282.097
283.143
280.702
280.675
280.668
280.671
280.684
280.705
280.731
280.759
280.787
280.82
280.255
280.226
280.215
280.224
280.25
280.293
280.349
280.412
280.473
280.521
280.179
280.133
280.117
280.13
280.172
280.242
280.336
280.446
280.559
280.651
280.143
280.078
280.054
280.071
280.128
280.227
280.364
280.531
280.715
280.873
280.066
279.982
279.951
279.969
280.039
280.162
280.341
280.568
280.833
281.075
280.024
279.926
279.888
279.907
279.987
280.131
280.347
280.632
280.987
281.326
279.943
279.831
279.787
279.805
279.891
280.051
280.298
280.636
281.081
281.528
279.913
279.794
279.747
279.767
279.859
280.031
280.303
280.685
281.211
281.768
279.872
279.748
279.699
279.718
279.812
279.99
280.278
280.693
281.283
281.958
280.449
280.332
280.285
280.312
280.416
280.607
280.909
281.35
281.975
282.733
280.744
280.723
280.718
280.72
280.728
280.739
280.754
280.77
280.786
280.809
280.33
280.311
280.304
280.309
280.326
280.353
280.388
280.426
280.461
280.488
280.28
280.247
280.235
280.244
280.274
280.322
280.385
280.456
280.526
280.58
280.26
280.211
280.192
280.204
280.248
280.321
280.419
280.534
280.653
280.75
280.202
280.135
280.11
280.125
280.181
280.277
280.412
280.576
280.755
280.909
280.173
280.091
280.06
280.076
280.143
280.262
280.432
280.648
280.895
281.118
280.102
280.006
279.968
279.985
280.06
280.196
280.398
280.663
280.983
281.285
280.08
279.975
279.934
279.953
280.036
280.187
280.415
280.722
281.109
281.494
280.038
279.927
279.884
279.903
279.989
280.148
280.394
280.734
281.177
281.649
280.588
280.483
280.441
280.465
280.558
280.728
280.988
281.35
281.827
282.359
280.771
280.754
280.75
280.751
280.756
280.762
280.77
280.779
280.789
280.807
280.385
280.373
280.368
280.371
280.382
280.398
280.419
280.442
280.463
280.479
280.355
280.333
280.325
280.331
280.35
280.382
280.423
280.468
280.511
280.543
280.347
280.311
280.297
280.306
280.337
280.389
280.457
280.535
280.611
280.671
280.307
280.255
280.236
280.247
280.29
280.363
280.461
280.576
280.696
280.793
280.29
280.225
280.2
280.213
280.267
280.36
280.49
280.647
280.818
280.963
280.229
280.15
280.119
280.133
280.196
280.307
280.466
280.666
280.892
281.094
280.217
280.129
280.095
280.112
280.183
280.309
280.493
280.73
281.009
281.271
280.175
280.08
280.043
280.061
280.136
280.272
280.474
280.741
281.066
281.389
280.699
280.608
280.571
280.592
280.673
280.818
281.032
281.321
281.673
282.037
280.787
280.773
280.77
280.771
280.773
280.777
280.781
280.786
280.792
280.808
280.426
280.419
280.415
280.417
280.424
280.434
280.446
280.459
280.472
280.481
280.412
280.398
280.392
280.396
280.409
280.43
280.455
280.483
280.509
280.528
280.411
280.386
280.376
280.382
280.404
280.439
280.485
280.536
280.585
280.622
280.386
280.348
280.334
280.342
280.374
280.426
280.496
280.575
280.653
280.715
280.381
280.33
280.311
280.322
280.363
280.434
280.529
280.641
280.756
280.851
280.328
280.265
280.24
280.252
280.303
280.389
280.511
280.657
280.814
280.948
280.328
280.256
280.228
280.243
280.301
280.402
280.546
280.724
280.92
281.096
280.285
280.206
280.176
280.191
280.254
280.365
280.525
280.729
280.961
281.179
280.782
280.707
280.676
280.694
280.761
280.88
281.051
281.272
281.527
281.77
280.796
280.783
280.781
280.781
280.783
280.785
280.787
280.79
280.794
280.808
280.458
280.453
280.451
280.452
280.455
280.461
280.469
280.477
280.484
280.49
280.457
280.448
280.444
280.447
280.455
280.468
280.484
280.501
280.516
280.528
280.458
280.44
280.433
280.437
280.452
280.476
280.506
280.539
280.57
280.593
280.446
280.419
280.409
280.415
280.437
280.474
280.522
280.575
280.626
280.664
280.449
280.412
280.397
280.405
280.436
280.488
280.556
280.633
280.71
280.771
280.404
280.355
280.336
280.345
280.384
280.45
280.539
280.643
280.75
280.838
280.416
280.36
280.338
280.35
280.396
280.474
280.582
280.711
280.847
280.963
280.37
280.307
280.283
280.295
280.345
280.433
280.555
280.706
280.869
281.013
280.84
280.781
280.756
280.77
280.824
280.918
281.05
281.214
281.393
281.552
280.799
280.787
280.785
280.785
280.786
280.787
280.789
280.79
280.793
280.805
280.482
280.478
280.477
280.477
280.48
280.483
280.487
280.492
280.497
280.501
280.493
280.488
280.485
280.487
280.492
280.5
280.51
280.52
280.529
280.536
280.492
280.48
280.475
280.478
280.487
280.503
280.523
280.544
280.563
280.577
280.491
280.472
280.465
280.469
280.485
280.51
280.542
280.577
280.609
280.633
280.5
280.473
280.463
280.468
280.491
280.527
280.574
280.627
280.678
280.716
280.459
280.423
280.409
280.416
280.445
280.492
280.556
280.629
280.701
280.758
280.484
280.443
280.426
280.435
280.47
280.528
280.607
280.698
280.79
280.866
280.433
280.384
280.366
280.375
280.414
280.481
280.571
280.679
280.791
280.885
280.876
280.831
280.811
280.823
280.865
280.936
281.034
281.152
281.276
281.377
280.796
280.785
280.784
280.784
280.784
280.785
280.786
280.787
280.789
280.8
280.499
280.497
280.496
280.496
280.497
280.499
280.502
280.505
280.508
280.511
280.524
280.52
280.519
280.52
280.523
280.528
280.534
280.54
280.545
280.549
280.516
280.508
280.505
280.506
280.513
280.522
280.535
280.548
280.56
280.569
280.524
280.512
280.507
280.51
280.52
280.537
280.558
280.58
280.6
280.615
280.537
280.518
280.511
280.515
280.53
280.555
280.587
280.622
280.655
280.68
280.499
280.473
280.463
280.468
280.489
280.522
280.567
280.616
280.663
280.7
280.538
280.508
280.496
280.503
280.528
280.57
280.626
280.688
280.749
280.798
280.477
280.441
280.427
280.434
280.463
280.512
280.577
280.652
280.727
280.788
280.894
280.861
280.846
280.855
280.886
280.939
281.01
281.092
281.175
281.238
280.789
280.78
280.779
280.779
280.779
280.779
280.78
280.78
280.782
280.792
280.511
280.509
280.508
280.508
280.509
280.51
280.512
280.514
280.516
280.519
280.55
280.549
280.548
280.549
280.551
280.553
280.557
280.56
280.563
280.565
280.532
280.527
280.525
280.526
280.53
280.536
280.544
280.552
280.56
280.566
280.549
280.541
280.538
280.54
280.547
280.557
280.571
280.585
280.597
280.606
280.563
280.551
280.546
280.549
280.559
280.575
280.597
280.619
280.64
280.655
280.527
280.509
280.502
280.506
280.52
280.543
280.573
280.605
280.636
280.659
280.58
280.559
280.551
280.556
280.574
280.603
280.641
280.683
280.723
280.753
280.506
280.48
280.47
280.475
280.496
280.53
280.575
280.626
280.675
280.715
280.897
280.875
280.864
280.87
280.892
280.93
280.979
281.035
281.09
281.128
280.781
280.773
280.772
280.772
280.772
280.772
280.772
280.773
280.774
280.783
280.516
280.515
280.514
280.514
280.514
280.515
280.516
280.518
280.52
280.522
280.575
280.574
280.574
280.574
280.575
280.577
280.579
280.58
280.582
280.583
280.543
280.54
280.538
280.539
280.541
280.545
280.55
280.555
280.56
280.563
280.567
280.562
280.56
280.561
280.565
280.572
280.58
280.589
280.597
280.602
280.581
280.572
280.569
280.571
280.577
280.588
280.602
280.616
280.629
280.639
280.546
280.534
280.53
280.532
280.541
280.557
280.576
280.597
280.616
280.631
280.614
280.6
280.594
280.598
280.61
280.63
280.655
280.682
280.708
280.726
280.522
280.503
280.497
280.5
280.514
280.538
280.568
280.601
280.633
280.658
280.892
280.877
280.869
280.873
280.889
280.914
280.948
280.984
281.02
281.042
280.778
280.77
280.77
280.77
280.77
280.77
280.77
280.77
280.771
280.778
280.514
280.512
280.512
280.512
280.512
280.513
280.513
280.515
280.516
280.519
280.597
280.597
280.597
280.597
280.598
280.599
280.599
280.6
280.601
280.601
280.549
280.547
280.546
280.546
280.548
280.55
280.553
280.556
280.559
280.561
280.578
280.575
280.574
280.574
280.577
280.581
280.586
280.591
280.596
280.599
280.59
280.584
280.582
280.583
280.587
280.594
280.603
280.612
280.62
280.626
280.558
280.55
280.547
280.549
280.555
280.565
280.577
280.59
280.601
280.61
280.639
280.63
280.626
280.629
280.637
280.65
280.666
280.684
280.7
280.711
280.525
280.512
280.507
280.51
280.519
280.534
280.554
280.575
280.595
280.611
280.885
280.876
280.871
280.874
280.884
280.901
280.923
280.946
280.969
280.981
280.792
280.786
280.786
280.786
280.786
280.786
280.786
280.786
280.786
280.792
280.5
280.498
280.497
280.497
280.498
280.498
280.499
280.5
280.501
280.505
280.614
280.614
280.614
280.614
280.614
280.615
280.615
280.616
280.616
280.616
280.551
280.55
280.55
280.55
280.551
280.552
280.554
280.555
280.557
280.558
280.582
280.581
280.58
280.58
280.582
280.584
280.587
280.59
280.593
280.595
280.591
280.587
280.586
280.587
280.589
280.593
280.599
280.604
280.61
280.613
280.563
280.558
280.557
280.558
280.562
280.568
280.575
280.583
280.589
280.594
280.652
280.646
280.643
280.644
280.649
280.658
280.668
280.68
280.691
280.697
280.511
280.503
280.5
280.501
280.507
280.517
280.53
280.543
280.554
280.565
280.892
280.887
280.883
280.885
280.892
280.903
280.917
280.931
280.946
280.952
280.844
280.84
280.839
280.839
280.839
280.839
280.839
280.839
280.839
280.843
280.465
280.464
280.464
280.464
280.464
280.465
280.465
280.465
280.466
280.469
280.619
280.618
280.617
280.617
280.617
280.617
280.618
280.619
280.62
280.621
280.551
280.551
280.551
280.551
280.552
280.553
280.553
280.554
280.554
280.555
280.581
280.58
280.579
280.58
280.58
280.582
280.584
280.586
280.588
280.589
280.586
280.584
280.583
280.583
280.585
280.588
280.591
280.595
280.598
280.601
280.563
280.56
280.559
280.56
280.563
280.567
280.571
280.576
280.579
280.582
280.642
280.637
280.635
280.635
280.639
280.644
280.651
280.659
280.667
280.673
280.473
280.469
280.467
280.468
280.472
280.479
280.487
280.494
280.501
280.507
280.93
280.926
280.923
280.924
280.929
280.936
280.945
280.955
280.965
280.968
280.925
280.923
280.922
280.922
280.922
280.922
280.922
280.923
280.924
280.927
280.407
280.409
280.411
280.412
280.412
280.412
280.412
280.41
280.408
280.408
280.607
280.605
280.604
280.603
280.603
280.603
280.604
280.606
280.608
280.611
280.552
280.552
280.553
280.553
280.554
280.554
280.554
280.554
280.554
280.553
280.578
280.577
280.576
280.577
280.577
280.578
280.58
280.581
280.583
280.584
280.58
280.579
280.578
280.578
280.579
280.581
280.584
280.586
280.589
280.591
280.561
280.56
280.559
280.56
280.562
280.565
280.568
280.571
280.573
280.574
280.61
280.605
280.603
280.604
280.606
280.61
280.616
280.622
280.628
280.634
280.413
280.411
280.411
280.412
280.415
280.42
280.425
280.43
280.433
280.433
280.989
280.985
280.983
280.984
280.988
280.993
281
281.007
281.015
281.017
289.473
291.231
291.496
289.907
290.639
292.769
293.178
291.518
292.301
294.927
295.461
293.489
293.583
296.65
297.318
295.135
294.528
298.005
298.814
296.491
295.277
299.133
300.102
297.907
295.823
300.04
301.2
299.332
296.295
300.835
302.202
300.712
296.509
301.35
302.931
301.865
297.069
302.099
303.946
303.465
286.162
286.709
286.69
286.165
287.459
288.101
288.04
287.387
289.063
289.867
289.755
288.897
290.504
291.453
291.282
290.231
291.68
292.771
292.534
291.299
292.702
293.93
293.669
292.275
293.508
294.867
294.618
293.089
294.204
295.669
295.441
293.802
294.643
296.171
295.971
294.268
295.428
296.93
296.841
295.191
282.253
282.386
282.418
282.349
282.981
283.199
283.239
283.102
284.148
284.486
284.53
284.28
285.416
285.874
285.914
285.534
286.579
287.153
287.18
286.657
287.715
288.401
288.413
287.753
288.706
289.501
289.501
288.716
289.645
290.532
290.523
289.633
290.404
291.332
291.321
290.38
291.648
292.505
292.533
291.67
281.485
281.551
281.572
281.551
281.742
281.828
281.857
281.835
282.451
282.599
282.641
282.588
283.328
283.549
283.601
283.5
284.169
284.469
284.525
284.362
285.059
285.439
285.497
285.259
285.878
286.339
286.395
286.075
286.715
287.247
287.299
286.898
287.47
288.036
288.083
287.628
288.814
289.306
289.367
288.954
281.053
281.089
281.102
281.09
281.09
281.12
281.134
281.133
281.541
281.598
281.623
281.619
282.152
282.25
282.289
282.273
282.748
282.896
282.948
282.91
283.415
283.62
283.681
283.612
284.04
284.305
284.373
284.263
284.716
285.036
285.107
284.949
285.353
285.702
285.772
285.574
286.605
286.883
286.959
286.798
280.882
280.912
280.921
280.909
280.784
280.797
280.804
280.805
281.089
281.115
281.128
281.13
281.53
281.577
281.599
281.6
281.958
282.032
282.066
282.063
282.457
282.566
282.612
282.6
282.923
283.071
283.127
283.101
283.446
283.634
283.697
283.649
283.949
284.158
284.223
284.153
285.07
285.212
285.281
285.249
280.8
280.827
280.834
280.823
280.618
280.624
280.627
280.627
280.828
280.84
280.847
280.848
281.157
281.18
281.192
281.195
281.475
281.512
281.532
281.535
281.86
281.917
281.947
281.949
282.211
282.293
282.332
282.331
282.618
282.725
282.772
282.764
282.997
283.121
283.171
283.152
283.994
284.051
284.103
284.129
280.766
280.791
280.798
280.787
280.534
280.537
280.539
280.539
280.679
280.685
280.688
280.689
280.925
280.937
280.944
280.946
281.164
281.184
281.196
281.198
281.467
281.498
281.516
281.52
281.736
281.782
281.806
281.811
282.055
282.116
282.147
282.15
282.334
282.407
282.441
282.44
283.227
283.232
283.267
283.313
280.753
280.779
280.786
280.774
280.495
280.497
280.498
280.498
280.595
280.598
280.6
280.6
280.779
280.785
280.789
280.79
280.958
280.969
280.976
280.978
281.196
281.214
281.225
281.228
281.402
281.428
281.443
281.447
281.654
281.689
281.709
281.713
281.858
281.901
281.924
281.927
282.664
282.638
282.659
282.71
280.751
280.776
280.783
280.771
280.482
280.483
280.484
280.484
280.551
280.553
280.554
280.554
280.688
280.691
280.693
280.694
280.822
280.828
280.832
280.833
281.009
281.019
281.025
281.027
281.162
281.177
281.186
281.189
281.363
281.384
281.396
281.399
281.51
281.535
281.55
281.553
282.239
282.196
282.209
282.259
280.752
280.777
280.784
280.772
280.484
280.484
280.485
280.485
280.533
280.534
280.535
280.535
280.632
280.634
280.635
280.636
280.732
280.736
280.738
280.739
280.878
280.884
280.888
280.889
280.989
280.998
281.004
281.006
281.15
281.163
281.17
281.173
281.252
281.267
281.276
281.279
281.914
281.862
281.869
281.917
280.753
280.778
280.785
280.773
280.492
280.492
280.493
280.493
280.53
280.531
280.531
280.531
280.599
280.601
280.602
280.602
280.675
280.677
280.679
280.679
280.788
280.792
280.794
280.795
280.864
280.87
280.873
280.875
280.996
281.003
281.008
281.01
281.059
281.068
281.074
281.076
281.662
281.607
281.61
281.654
280.752
280.778
280.784
280.772
280.502
280.503
280.503
280.503
280.537
280.537
280.537
280.537
280.581
280.582
280.583
280.583
280.64
280.641
280.642
280.642
280.727
280.729
280.731
280.731
280.774
280.778
280.78
280.781
280.886
280.891
280.894
280.895
280.916
280.921
280.925
280.926
281.465
281.41
281.41
281.452
280.748
280.774
280.781
280.768
280.512
280.513
280.513
280.513
280.549
280.549
280.549
280.549
280.572
280.573
280.573
280.573
280.62
280.62
280.621
280.621
280.686
280.688
280.689
280.689
280.711
280.713
280.715
280.715
280.81
280.813
280.815
280.815
280.809
280.813
280.815
280.816
281.31
281.257
281.256
281.294
280.742
280.768
280.775
280.762
280.52
280.521
280.521
280.521
280.565
280.565
280.565
280.565
280.568
280.568
280.568
280.569
280.609
280.609
280.61
280.61
280.66
280.661
280.661
280.662
280.667
280.668
280.669
280.669
280.76
280.762
280.763
280.764
280.73
280.732
280.734
280.734
281.187
281.138
281.137
281.171
280.736
280.762
280.768
280.755
280.524
280.525
280.525
280.525
280.582
280.582
280.582
280.582
280.565
280.565
280.566
280.566
280.603
280.604
280.604
280.604
280.642
280.643
280.643
280.643
280.635
280.636
280.637
280.637
280.731
280.732
280.732
280.733
280.67
280.671
280.672
280.672
281.09
281.046
281.046
281.075
280.735
280.761
280.766
280.753
280.522
280.522
280.523
280.523
280.601
280.6
280.6
280.6
280.562
280.563
280.563
280.563
280.6
280.6
280.6
280.6
280.628
280.629
280.629
280.629
280.613
280.613
280.614
280.614
280.714
280.714
280.715
280.715
280.621
280.622
280.622
280.622
281.018
280.982
280.981
281.005
280.753
280.778
280.783
280.77
280.508
280.509
280.509
280.509
280.616
280.616
280.616
280.616
280.559
280.559
280.559
280.559
280.596
280.596
280.596
280.596
280.615
280.616
280.616
280.616
280.596
280.596
280.596
280.596
280.7
280.701
280.702
280.702
280.573
280.574
280.574
280.574
280.979
280.951
280.951
280.97
280.812
280.834
280.837
280.825
280.473
280.474
280.474
280.474
280.622
280.622
280.622
280.623
280.554
280.554
280.554
280.554
280.591
280.591
280.591
280.591
280.603
280.603
280.603
280.603
280.581
280.581
280.581
280.581
280.678
280.68
280.68
280.68
280.512
280.513
280.513
280.512
280.988
280.97
280.97
280.982
280.909
280.923
280.924
280.917
280.409
280.41
280.409
280.409
280.615
280.616
280.616
280.617
280.552
280.552
280.552
280.551
280.585
280.585
280.586
280.586
280.592
280.593
280.593
280.593
280.573
280.572
280.572
280.572
280.645
280.647
280.648
280.647
280.429
280.428
280.428
280.428
281.034
281.03
281.03
281.033
282.182
280.882
280.34
279.993
279.698
279.457
279.265
279.113
278.992
278.887
282.327
281.088
280.255
279.73
279.314
279.006
278.779
278.609
278.48
278.375
282.901
281.595
280.465
279.825
279.326
278.979
278.724
278.534
278.39
278.276
283.497
282.131
280.732
280.029
279.463
279.092
278.819
278.614
278.458
278.333
283.976
282.586
280.941
280.188
279.562
279.172
278.879
278.662
278.496
278.363
284.526
283.079
281.212
280.422
279.736
279.328
279.014
278.782
278.601
278.45
285.008
283.479
281.412
280.599
279.857
279.435
279.1
278.854
278.659
278.497
285.574
283.969
281.716
280.886
280.085
279.646
279.281
279.011
278.788
278.595
286.023
284.36
281.929
281.123
280.288
279.844
279.444
279.144
278.892
278.674
287.756
286.092
283.505
282.646
281.685
281.115
280.591
280.187
279.852
279.558
283.98
282.671
281.683
280.97
280.477
280.131
279.88
279.692
279.547
279.425
284.427
282.64
281.309
280.449
279.896
279.518
279.249
279.054
278.911
278.804
285.022
282.828
281.241
280.311
279.716
279.319
279.039
278.838
278.695
278.593
285.511
283.015
281.234
280.282
279.66
279.257
278.976
278.777
278.636
278.536
285.778
283.071
281.161
280.201
279.559
279.158
278.88
278.687
278.552
278.458
285.978
283.142
281.139
280.191
279.532
279.138
278.863
278.676
278.544
278.45
286.022
283.123
281.049
280.131
279.46
279.079
278.809
278.627
278.499
278.408
286.079
283.181
281.052
280.177
279.494
279.128
278.856
278.674
278.538
278.435
286.037
283.171
280.994
280.199
279.531
279.195
278.917
278.726
278.579
278.464
286.946
284.232
282.059
281.316
280.599
280.207
279.859
279.613
279.42
279.276
282.113
281.733
281.363
281.034
280.751
280.514
280.317
280.154
280.017
279.899
282.574
281.892
281.274
280.763
280.349
280.021
279.764
279.563
279.407
279.289
283.346
282.33
281.463
280.795
280.278
279.886
279.589
279.363
279.194
279.07
284.116
282.777
281.677
280.88
280.284
279.85
279.529
279.292
279.116
278.988
284.691
283.069
281.767
280.873
280.219
279.759
279.426
279.185
279.009
278.883
285.201
283.34
281.867
280.904
280.207
279.733
279.395
279.153
278.977
278.849
285.548
283.492
281.874
280.867
280.14
279.663
279.325
279.085
278.91
278.784
285.87
283.67
281.933
280.907
280.161
279.687
279.347
279.106
278.925
278.791
286.075
283.757
281.92
280.916
280.178
279.723
279.38
279.132
278.944
278.799
287.063
284.741
282.866
281.885
281.117
280.626
280.237
279.953
279.733
279.573
281.507
281.36
281.183
281.002
280.831
280.676
280.539
280.419
280.312
280.215
281.713
281.424
281.093
280.777
280.497
280.257
280.056
279.89
279.754
279.647
282.341
281.857
281.347
280.892
280.507
280.191
279.936
279.732
279.572
279.45
283.075
282.358
281.651
281.06
280.581
280.203
279.907
279.676
279.498
279.365
283.703
282.742
281.843
281.13
280.572
280.147
279.822
279.575
279.387
279.249
284.319
283.118
282.037
281.222
280.6
280.14
279.796
279.539
279.344
279.2
284.808
283.379
282.133
281.237
280.564
280.082
279.726
279.463
279.265
279.12
285.281
283.649
282.259
281.303
280.594
280.1
279.736
279.468
279.263
279.11
285.65
283.827
282.312
281.334
280.613
280.121
279.75
279.475
279.263
279.103
286.696
284.77
283.196
282.21
281.461
280.941
280.539
280.238
280.006
279.839
281.098
281.052
280.981
280.897
280.809
280.722
280.639
280.561
280.488
280.417
281.105
280.992
280.837
280.669
280.504
280.35
280.212
280.091
279.987
279.902
281.559
281.352
281.089
280.819
280.566
280.341
280.147
279.984
279.85
279.743
282.153
281.815
281.417
281.034
280.692
280.4
280.156
279.956
279.796
279.671
282.698
282.204
281.658
281.163
280.737
280.387
280.103
279.876
279.697
279.56
283.278
282.612
281.914
281.311
280.811
280.412
280.097
279.85
279.656
279.509
283.772
282.925
282.077
281.379
280.815
280.379
280.04
279.779
279.576
279.423
284.273
283.249
282.26
281.483
280.869
280.406
280.05
279.777
279.565
279.403
284.69
283.484
282.37
281.542
280.899
280.422
280.054
279.772
279.552
279.384
285.729
284.4
283.214
282.354
281.68
281.179
280.788
280.487
280.253
280.084
280.925
280.907
280.875
280.834
280.787
280.739
280.69
280.643
280.596
280.545
280.794
280.743
280.666
280.576
280.481
280.386
280.296
280.214
280.141
280.079
281.109
281.012
280.873
280.716
280.558
280.407
280.27
280.149
280.046
279.961
281.56
281.396
281.173
280.935
280.705
280.494
280.308
280.149
280.016
279.909
281.991
281.738
281.416
281.088
280.784
280.516
280.286
280.095
279.937
279.813
282.481
282.121
281.687
281.268
280.892
280.571
280.304
280.085
279.907
279.768
282.915
282.433
281.881
281.373
280.931
280.565
280.267
280.026
279.834
279.684
283.377
282.764
282.095
281.507
281.009
280.607
280.283
280.026
279.82
279.661
283.771
283.015
282.238
281.588
281.05
280.625
280.284
280.015
279.801
279.634
284.755
283.894
283.047
282.354
281.783
281.334
280.973
280.689
280.464
280.3
280.841
280.835
280.82
280.799
280.775
280.749
280.722
280.693
280.663
280.627
280.623
280.599
280.56
280.512
280.457
280.401
280.345
280.292
280.244
280.202
280.839
280.791
280.717
280.627
280.531
280.434
280.342
280.257
280.182
280.119
281.179
281.095
280.971
280.826
280.676
280.532
280.398
280.278
280.174
280.088
281.509
281.376
281.187
280.978
280.77
280.575
280.4
280.247
280.117
280.012
281.905
281.71
281.446
281.165
280.896
280.652
280.438
280.255
280.102
279.978
282.26
281.99
281.641
281.287
280.958
280.668
280.419
280.211
280.039
279.902
282.654
282.297
281.86
281.436
281.052
280.723
280.446
280.217
280.029
279.88
282.988
282.532
282.012
281.529
281.103
280.745
280.448
280.204
280.007
279.85
283.894
283.363
282.783
282.256
281.798
281.416
281.1
280.844
280.637
280.485
280.806
280.804
280.797
280.786
280.774
280.759
280.744
280.727
280.708
280.681
280.537
280.525
280.504
280.477
280.446
280.413
280.379
280.346
280.315
280.288
280.684
280.659
280.618
280.566
280.508
280.447
280.387
280.33
280.278
280.233
280.938
280.893
280.822
280.734
280.639
280.542
280.449
280.363
280.286
280.221
281.186
281.114
281.002
280.871
280.732
280.595
280.466
280.35
280.249
280.164
281.501
281.392
281.232
281.048
280.861
280.682
280.518
280.373
280.248
280.144
281.781
281.627
281.409
281.169
280.932
280.712
280.514
280.343
280.197
280.078
282.104
281.895
281.615
281.32
281.035
280.777
280.551
280.357
280.194
280.062
282.369
282.099
281.758
281.413
281.09
280.803
280.555
280.346
280.171
280.031
283.191
282.873
282.486
282.103
281.749
281.44
281.176
280.954
280.771
280.636
280.793
280.794
280.79
280.785
280.778
280.77
280.761
280.751
280.738
280.717
280.497
280.491
280.48
280.465
280.447
280.427
280.407
280.387
280.368
280.351
280.598
280.584
280.56
280.53
280.495
280.457
280.419
280.382
280.347
280.317
280.786
280.761
280.72
280.666
280.606
280.543
280.48
280.42
280.365
280.318
280.972
280.93
280.864
280.781
280.69
280.596
280.505
280.42
280.344
280.279
281.218
281.156
281.058
280.939
280.812
280.685
280.563
280.453
280.354
280.271
281.433
281.344
281.208
281.048
280.882
280.719
280.568
280.433
280.314
280.216
281.692
281.57
281.392
281.19
280.985
280.791
280.613
280.456
280.321
280.209
281.895
281.735
281.515
281.275
281.037
280.816
280.618
280.446
280.298
280.178
282.637
282.449
282.196
281.926
281.663
281.422
281.209
281.025
280.87