/*--------------------------------*- C++ -*----------------------------------*\
| =========                 |                                                 |
| \\      /  F ield         | foam-extend: Open Source CFD                    |
|  \\    /   O peration     | Version:     4.0                                |
|   \\  /    A nd           | Web:         http://www.foam-extend.org         |
|    \\/     M anipulation  |                                                 |
\*---------------------------------------------------------------------------*/
FoamFile
{
    version     2.0;
    format      ascii;
    class       volVectorField;
    location    "1800";
    object      Urel;
}
// * * * * * * * * * * * * * * * * * * * * * * * * * * * * * * * * * * * * * //

dimensions      [0 1 -1 0 0 0 0];

internalField   nonuniform List<vector> 
34480
(
(208.992 -9.7934 -19.0914)
(209.312 -9.29293 -21.5538)
(209.469 -8.56746 -23.9801)
(209.476 -7.64287 -26.4135)
(209.327 -6.55795 -28.992)
(208.985 -5.3155 -31.8914)
(208.37 -3.89582 -35.5119)
(207.204 -2.18269 -40.198)
(204.533 0.0524828 -48.12)
(197.596 4.25663 -75.2899)
(209.924 -12.8011 -26.8104)
(210.183 -11.6736 -29.5942)
(210.31 -10.3917 -32.2537)
(210.284 -8.96953 -34.8565)
(210.049 -7.44367 -37.5199)
(209.546 -5.83392 -40.4513)
(208.74 -4.15924 -44.1103)
(207.448 -2.36567 -49.239)
(204.313 -0.291842 -58.0598)
(196.154 3.66101 -88.6296)
(210.612 -17.0974 -33.7481)
(210.847 -15.5458 -36.833)
(210.941 -13.8173 -39.7796)
(210.871 -11.9057 -42.602)
(210.576 -9.86682 -45.4274)
(210.049 -7.73486 -48.5126)
(209.298 -5.53725 -52.3861)
(208.155 -3.20431 -58.0765)
(204.855 -0.569254 -67.7746)
(195.646 4.13491 -101.289)
(210.62 -20.492 -41.161)
(210.856 -18.4097 -44.5403)
(210.965 -16.1519 -47.7264)
(210.928 -13.7003 -50.7507)
(210.694 -11.1115 -53.748)
(210.28 -8.4227 -57.0041)
(209.664 -5.6664 -61.0503)
(208.686 -2.76374 -67.1349)
(205.36 0.458075 -77.4562)
(195.348 5.84916 -112.877)
(210.781 -24.9688 -48.0233)
(211.045 -22.4769 -51.68)
(211.192 -19.7718 -55.1526)
(211.217 -16.8347 -58.4267)
(211.075 -13.7416 -61.6619)
(210.796 -10.5297 -65.156)
(210.329 -7.2259 -69.4371)
(209.533 -3.74062 -75.9407)
(206.307 0.106064 -86.9296)
(195.652 6.20027 -123.869)
(210.667 -28.2239 -55.6198)
(210.943 -25.2321 -59.5133)
(211.11 -22.0125 -63.1544)
(211.169 -18.5441 -66.5721)
(211.093 -14.8943 -69.9184)
(210.931 -11.1059 -73.5156)
(210.617 -7.20763 -77.8758)
(210.036 -3.11247 -84.6066)
(207.057 1.37965 -96.0804)
(196.003 8.11126 -134.168)
(210.75 -33.0067 -62.4781)
(211.065 -29.6258 -66.6117)
(211.261 -25.9817 -70.5024)
(211.358 -22.0634 -74.1267)
(211.342 -17.9461 -77.6658)
(211.277 -13.6662 -81.4431)
(211.103 -9.22844 -85.9745)
(210.739 -4.52953 -92.9893)
(208.091 0.701712 -105.041)
(196.742 8.26421 -144.122)
(210.578 -36.1783 -70.3248)
(210.898 -32.3253 -74.6656)
(211.073 -28.1632 -78.6844)
(211.129 -23.7068 -82.4178)
(211.072 -19.0097 -86.0101)
(210.989 -14.1293 -89.7895)
(210.86 -9.06296 -94.2555)
(210.653 -3.70311 -101.227)
(208.413 2.37281 -113.468)
(197.099 10.8394 -153.052)
(210.523 -41.4427 -77.1536)
(210.887 -37.2226 -81.6806)
(211.093 -32.685 -85.8825)
(211.187 -27.8688 -89.767)
(211.181 -22.8293 -93.5196)
(211.143 -17.5965 -97.4447)
(211.083 -12.114 -102.076)
(211.016 -6.22939 -109.202)
(209.105 0.776029 -121.816)
(197.675 10.7331 -161.34)
(209.559 -44.6445 -85.1151)
(209.833 -40.0422 -89.9233)
(209.779 -35.0029 -94.3277)
(209.42 -29.6473 -98.3964)
(208.802 -23.989 -102.257)
(208.017 -18.0687 -106.187)
(207.149 -11.8212 -110.66)
(206.363 -5.05582 -117.276)
(204.427 2.95984 -129.039)
(194.243 14.3053 -166.63)
(205.877 1.91276 3.00034)
(206.355 1.11035 1.54386)
(206.542 0.427359 -0.00980925)
(206.459 -0.116518 -1.60975)
(206.081 -0.545565 -3.31934)
(205.32 -0.860326 -5.151)
(203.972 -1.06489 -7.15845)
(201.607 -1.17074 -9.31667)
(198.142 -1.25582 -11.2444)
(193.567 -1.15802 -14.3932)
(207.175 2.8701 2.79742)
(207.606 2.16602 1.16151)
(207.778 1.52134 -0.492246)
(207.69 0.945952 -2.18885)
(207.278 0.418692 -3.99584)
(206.423 -0.0664949 -5.97116)
(204.93 -0.524727 -8.20795)
(202.346 -0.990966 -10.9573)
(198.177 -1.58146 -14.006)
(192.494 -1.82201 -20.5811)
(208.124 2.58008 3.30602)
(208.533 1.77434 1.54393)
(208.691 1.04787 -0.257133)
(208.591 0.425825 -2.09018)
(208.155 -0.130308 -4.02942)
(207.282 -0.633052 -6.15864)
(205.798 -1.11171 -8.66679)
(203.221 -1.58298 -12.0858)
(198.677 -2.15396 -16.332)
(192.059 -2.06836 -26.7159)
(208.368 3.18102 3.30187)
(208.783 2.40677 1.45482)
(208.962 1.69791 -0.404186)
(208.904 1.09181 -2.29729)
(208.531 0.550022 -4.30984)
(207.76 0.0608632 -6.56829)
(206.388 -0.408769 -9.29848)
(203.905 -0.851736 -13.2575)
(199.132 -1.35997 -18.4751)
(191.7 -0.930282 -32.453)
(208.722 2.67155 3.8363)
(209.165 1.81236 1.93407)
(209.383 1.04563 -0.0214703)
(209.39 0.412135 -2.00919)
(209.108 -0.143331 -4.14612)
(208.473 -0.632055 -6.58615)
(207.252 -1.08891 -9.57146)
(204.931 -1.48504 -14.0616)
(200.079 -1.89873 -20.2291)
(191.94 -1.06969 -37.6918)
(208.759 3.3958 3.63205)
(209.216 2.54407 1.71808)
(209.46 1.78659 -0.208028)
(209.509 1.1668 -2.17622)
(209.302 0.638045 -4.29773)
(208.794 0.185901 -6.77253)
(207.739 -0.220867 -9.84245)
(205.638 -0.544712 -14.6609)
(200.874 -0.826866 -21.5457)
(192.21 0.36768 -42.2085)
(208.966 2.56885 4.15785)
(209.458 1.61821 2.23574)
(209.732 0.788712 0.257895)
(209.828 0.116658 -1.75015)
(209.688 -0.448135 -3.93581)
(209.295 -0.917272 -6.51514)
(208.402 -1.30728 -9.74334)
(206.546 -1.56552 -14.9163)
(201.99 -1.65354 -22.5658)
(192.902 0.00356406 -46.2435)
(208.882 3.37477 3.69386)
(209.382 2.4107 1.80199)
(209.645 1.59948 -0.0891766)
(209.715 0.952351 -2.02473)
(209.559 0.442939 -4.12016)
(209.187 0.0391396 -6.62204)
(208.388 -0.261963 -9.78007)
(206.753 -0.416355 -15.0037)
(202.525 -0.206124 -23.0508)
(193.31 1.8362 -49.216)
(208.894 2.05551 4.24367)
(209.427 0.977657 2.4008)
(209.718 0.0666893 0.525298)
(209.823 -0.68813 -1.37782)
(209.725 -1.3174 -3.48024)
(209.428 -1.83358 -6.02949)
(208.75 -2.18883 -9.33398)
(207.343 -2.3204 -14.792)
(203.454 -1.74075 -23.4867)
(193.987 1.00389 -51.4967)
(207.972 2.86332 3.63586)
(208.448 1.69281 1.78871)
(208.565 0.796269 -0.0351134)
(208.352 0.0679713 -1.90535)
(207.824 -0.473856 -3.92922)
(207.017 -0.855201 -6.35272)
(205.818 -1.01286 -9.46826)
(204.016 -0.83174 -14.5624)
(200.276 0.222498 -23.0363)
(191.63 4.03761 -51.3437)
(203.503 1.42855 2.3341)
(204.006 0.834292 1.21616)
(204.188 0.303347 -0.0132423)
(204.084 -0.130876 -1.26326)
(203.683 -0.481431 -2.55436)
(202.936 -0.74575 -3.83212)
(201.751 -0.933601 -5.0487)
(199.976 -1.0705 -6.05445)
(197.421 -1.24186 -6.49826)
(194.205 -1.43127 -6.51685)
(204.898 2.41586 2.31264)
(205.393 1.87374 0.945687)
(205.573 1.34759 -0.44899)
(205.45 0.857053 -1.86576)
(204.986 0.392061 -3.33115)
(204.098 -0.0527276 -4.8478)
(202.625 -0.490626 -6.3793)
(200.297 -0.953308 -7.86253)
(196.674 -1.55221 -8.80208)
(191.835 -2.13457 -9.81064)
(205.932 2.21444 2.9469)
(206.432 1.53155 1.39451)
(206.613 0.893524 -0.209296)
(206.488 0.33017 -1.83825)
(206.001 -0.190503 -3.53868)
(205.048 -0.678415 -5.32734)
(203.432 -1.15833 -7.21405)
(200.788 -1.66042 -9.29134)
(196.287 -2.3291 -11.0021)
(189.846 -2.90849 -13.5837)
(206.33 2.89982 2.99253)
(206.852 2.22345 1.31673)
(207.058 1.58284 -0.381743)
(206.968 1.01783 -2.11277)
(206.518 0.494977 -3.94031)
(205.603 0.00453316 -5.92267)
(203.971 -0.485386 -8.10583)
(201.158 -0.992239 -10.7397)
(195.92 -1.67744 -13.1996)
(187.984 -2.16308 -17.5581)
(206.833 2.42936 3.5668)
(207.388 1.65313 1.80379)
(207.63 0.944034 -0.0206947)
(207.597 0.343915 -1.87803)
(207.216 -0.197657 -3.86961)
(206.389 -0.689181 -6.08596)
(204.817 -1.16615 -8.60188)
(201.959 -1.63457 -11.8307)
(196.174 -2.28267 -15.129)
(186.917 -2.5745 -21.5709)
(207.001 3.20275 3.38763)
(207.574 2.4201 1.5921)
(207.844 1.71066 -0.223696)
(207.852 1.11786 -2.08508)
(207.533 0.597143 -4.09238)
(206.804 0.136184 -6.38715)
(205.331 -0.300462 -9.06224)
(202.532 -0.712369 -12.7136)
(196.4 -1.27346 -16.7137)
(186.053 -1.33706 -25.3321)
(207.32 2.3924 3.93676)
(207.925 1.50494 2.11496)
(208.224 0.722398 0.230125)
(208.278 0.0809177 -1.69007)
(208.022 -0.467914 -3.78539)
(207.392 -0.932418 -6.2206)
(206.038 -1.33505 -9.1208)
(203.358 -1.66662 -13.2309)
(197.051 -2.06608 -18.0261)
(185.775 -1.79679 -28.9553)
(207.328 3.23649 3.47713)
(207.941 2.33357 1.68212)
(208.234 1.56712 -0.118535)
(208.27 0.950132 -1.9705)
(208.007 0.456018 -3.98457)
(207.405 0.0584794 -6.3667)
(206.136 -0.255313 -9.25956)
(203.609 -0.485922 -13.5531)
(197.318 -0.618646 -18.8709)
(185.38 -0.0679047 -31.8717)
(207.42 1.90375 4.03146)
(208.052 0.887795 2.27393)
(208.367 0.0354807 0.472039)
(208.432 -0.659896 -1.36175)
(208.211 -1.23027 -3.3875)
(207.671 -1.68589 -5.8144)
(206.513 -1.9915 -8.87535)
(204.18 -2.12556 -13.5136)
(198.023 -1.85966 -19.6408)
(185.3 -0.798304 -34.2629)
(206.565 2.76921 3.39131)
(207.144 1.67646 1.66297)
(207.329 0.850629 -0.0530533)
(207.157 0.187521 -1.82452)
(206.62 -0.293353 -3.74801)
(205.709 -0.614996 -6.0373)
(204.193 -0.726129 -8.92118)
(201.624 -0.546824 -13.3044)
(195.603 0.217843 -19.5457)
(182.823 2.30047 -34.6939)
(201.768 0.949808 1.70149)
(202.205 0.548468 0.91121)
(202.355 0.166464 0.00782494)
(202.257 -0.156999 -0.896398)
(201.909 -0.427683 -1.79998)
(201.293 -0.640235 -2.62134)
(200.382 -0.806869 -3.29549)
(199.148 -0.951099 -3.68703)
(197.589 -1.12832 -3.5804)
(195.858 -1.36395 -2.7529)
(203.089 1.90909 1.7907)
(203.556 1.53379 0.717564)
(203.719 1.13674 -0.388068)
(203.588 0.743801 -1.49729)
(203.141 0.356198 -2.60171)
(202.331 -0.0288478 -3.67083)
(201.082 -0.421997 -4.62865)
(199.29 -0.845752 -5.34681)
(196.825 -1.36836 -5.40289)
(194.028 -1.93599 -4.61977)
(204.078 1.76219 2.50233)
(204.588 1.22257 1.20506)
(204.764 0.692918 -0.151493)
(204.622 0.207455 -1.51835)
(204.123 -0.257239 -2.91223)
(203.195 -0.709485 -4.31325)
(201.704 -1.16871 -5.65498)
(199.456 -1.6612 -6.84594)
(196.101 -2.29273 -7.29959)
(192.022 -2.98896 -6.9239)
(204.538 2.52925 2.58547)
(205.095 1.9751 1.13041)
(205.3 1.42387 -0.355507)
(205.178 0.919276 -1.86171)
(204.677 0.436122 -3.42386)
(203.711 -0.0348756 -5.0562)
(202.084 -0.522792 -6.71293)
(199.497 -1.05011 -8.37877)
(195.28 -1.75601 -9.29287)
(189.816 -2.52269 -9.53993)
(205.125 2.10374 3.20084)
(205.726 1.43493 1.62374)
(205.966 0.803317 -0.0211002)
(205.885 0.253104 -1.68808)
(205.42 -0.258191 -3.45188)
(204.478 -0.738508 -5.35607)
(202.801 -1.22082 -7.38135)
(199.998 -1.72437 -9.61051)
(195.03 -2.43874 -11.1393)
(188.226 -3.17818 -12.3674)
(205.383 2.93175 3.05072)
(206.012 2.24184 1.41673)
(206.28 1.59892 -0.244993)
(206.233 1.04843 -1.9445)
(205.807 0.551629 -3.75884)
(204.913 0.0960236 -5.77983)
(203.244 -0.356073 -8.01055)
(200.334 -0.823297 -10.6677)
(194.761 -1.50379 -12.7404)
(186.749 -2.1637 -15.1343)
(205.787 2.14787 3.62899)
(206.449 1.34515 1.94599)
(206.743 0.625458 0.193317)
(206.737 0.0264587 -1.58959)
(206.358 -0.495859 -3.52117)
(205.529 -0.949296 -5.71733)
(203.907 -1.36041 -8.221)
(200.968 -1.74219 -11.3666)
(194.936 -2.298 -14.1225)
(185.835 -2.7717 -17.9487)
(205.875 3.04277 3.18029)
(206.544 2.22045 1.51666)
(206.837 1.51217 -0.160204)
(206.819 0.935286 -1.88704)
(206.435 0.46488 -3.75583)
(205.622 0.0786983 -5.92567)
(204.04 -0.245209 -8.46677)
(201.139 -0.53415 -11.8555)
(194.85 -0.878911 -15.1091)
(184.862 -1.19222 -20.3175)
(206.036 1.70864 3.76332)
(206.716 0.771269 2.12258)
(207.025 -0.0158697 0.42326)
(207.03 -0.652118 -1.30818)
(206.68 -1.16883 -3.21005)
(205.911 -1.57318 -5.43747)
(204.386 -1.84471 -8.14243)
(201.575 -1.99437 -11.8881)
(195.215 -1.94653 -15.9852)
(184.251 -1.89829 -22.3798)
(205.248 2.64773 3.10175)
(205.881 1.64505 1.51401)
(206.099 0.893062 -0.0762931)
(205.935 0.293794 -1.72673)
(205.364 -0.131464 -3.51604)
(204.341 -0.402798 -5.61204)
(202.575 -0.481414 -8.16609)
(199.575 -0.316334 -11.7246)
(193.234 0.228445 -16.0569)
(181.78 1.20187 -22.8627)
(200.558 0.551851 1.19361)
(200.9 0.29569 0.665857)
(201.015 0.0348746 0.0356071)
(200.94 -0.194431 -0.583168)
(200.681 -0.395778 -1.18744)
(200.243 -0.561501 -1.69748)
(199.631 -0.701151 -2.06656)
(198.868 -0.829874 -2.20474)
(198.003 -0.974146 -2.0203)
(197.151 -1.14071 -1.42913)
(201.714 1.4361 1.31061)
(202.107 1.20176 0.509603)
(202.244 0.922576 -0.321704)
(202.131 0.624076 -1.14592)
(201.758 0.315492 -1.93608)
(201.109 -0.00191996 -2.64903)
(200.165 -0.332679 -3.21064)
(198.921 -0.686618 -3.51255)
(197.398 -1.09204 -3.32754)
(195.901 -1.5095 -2.51772)
(202.564 1.29487 2.04922)
(203.034 0.893005 1.0146)
(203.196 0.473342 -0.0840413)
(203.063 0.0716176 -1.18085)
(202.61 -0.326903 -2.2678)
(201.801 -0.726854 -3.30343)
(200.571 -1.14145 -4.20322)
(198.853 -1.58821 -4.83717)
(196.57 -2.12249 -4.81302)
(194.181 -2.69183 -3.92687)
(203.004 2.11981 2.14679)
(203.547 1.69378 0.934141)
(203.743 1.24039 -0.316439)
(203.614 0.806179 -1.5748)
(203.123 0.375908 -2.84735)
(202.214 -0.0569399 -4.11444)
(200.763 -0.516502 -5.2939)
(198.631 -1.02201 -6.2702)
(195.541 -1.66148 -6.46595)
(192.072 -2.36626 -5.60721)
(203.605 1.73127 2.79245)
(204.21 1.18166 1.42941)
(204.442 0.638626 -0.00766975)
(204.338 0.148875 -1.45456)
(203.847 -0.319855 -2.95385)
(202.898 -0.773527 -4.50646)
(201.306 -1.24066 -6.0443)
(198.85 -1.74357 -7.49171)
(194.986 -2.4232 -8.0855)
(190.369 -3.19098 -7.53387)
(203.903 2.60934 2.66777)
(204.551 2.0269 1.22533)
(204.812 1.46262 -0.252965)
(204.732 0.964832 -1.7584)
(204.254 0.503461 -3.33693)
(203.299 0.0673523 -5.02962)
(201.627 -0.380879 -6.78365)
(198.943 -0.867559 -8.60507)
(194.384 -1.5564 -9.55904)
(188.643 -2.35043 -9.45889)
(204.353 1.85508 3.2739)
(205.041 1.15293 1.75965)
(205.329 0.507776 0.168041)
(205.281 -0.0398563 -1.44544)
(204.831 -0.52685 -3.1685)
(203.898 -0.960172 -5.06283)
(202.196 -1.36864 -7.11129)
(199.362 -1.77723 -9.39602)
(194.206 -2.37737 -10.8773)
(187.382 -3.09738 -11.5015)
(204.496 2.80688 2.83788)
(205.196 2.08084 1.33273)
(205.487 1.44189 -0.194349)
(205.431 0.913534 -1.76685)
(204.972 0.475008 -3.44902)
(204.036 0.107713 -5.34404)
(202.319 -0.216929 -7.45776)
(199.413 -0.541445 -9.9899)
(193.832 -0.989521 -11.8655)
(186.048 -1.65495 -13.2449)
(204.71 1.47493 3.45622)
(205.418 0.630923 1.95773)
(205.721 -0.0837402 0.385833)
(205.684 -0.658868 -1.21532)
(205.249 -1.12333 -2.95735)
(204.34 -1.48172 -4.93668)
(202.637 -1.72622 -7.2244)
(199.708 -1.88933 -10.0736)
(193.883 -1.98089 -12.6829)
(185.051 -2.39385 -14.8179)
(203.983 2.50125 2.77399)
(204.648 1.59922 1.34408)
(204.89 0.925164 -0.104102)
(204.733 0.390021 -1.61328)
(204.146 0.0177052 -3.23999)
(203.061 -0.209032 -5.10143)
(201.193 -0.263724 -7.2719)
(198.096 -0.11872 -9.99964)
(192.169 0.260229 -12.8104)
(182.628 0.64053 -15.1305)
(199.727 0.252425 0.82454)
(199.981 0.0938983 0.488128)
(200.062 -0.0787484 0.0633999)
(200.011 -0.235666 -0.342851)
(199.836 -0.381233 -0.735479)
(199.548 -0.506466 -1.04654)
(199.163 -0.617601 -1.25088)
(198.711 -0.722122 -1.29412)
(198.234 -0.830758 -1.14383)
(197.779 -0.942359 -0.777497)
(200.704 1.04197 0.910094)
(201.006 0.912736 0.336039)
(201.113 0.729966 -0.260683)
(201.025 0.514277 -0.84556)
(200.742 0.279104 -1.38675)
(200.264 0.0286802 -1.84347)
(199.6 -0.23576 -2.15836)
(198.781 -0.5148 -2.25869)
(197.872 -0.813412 -2.03778)
(197.065 -1.102 -1.43097)
(201.378 0.863576 1.63486)
(201.776 0.577246 0.841203)
(201.914 0.25715 -0.0160549)
(201.8 -0.0636373 -0.864318)
(201.424 -0.393262 -1.6812)
(200.772 -0.732212 -2.41808)
(199.827 -1.08706 -2.99861)
(198.598 -1.46651 -3.31445)
(197.124 -1.89268 -3.14368)
(195.737 -2.32307 -2.34633)
(201.746 1.71431 1.71892)
(202.235 1.40634 0.744949)
(202.411 1.04885 -0.270197)
(202.289 0.688155 -1.2838)
(201.848 0.317938 -2.28068)
(201.057 -0.0641575 -3.22117)
(199.86 -0.474805 -4.01837)
(198.219 -0.926515 -4.54501)
(196.085 -1.46559 -4.43688)
(193.943 -2.03816 -3.43871)
(202.305 1.34543 2.37585)
(202.873 0.913379 1.23523)
(203.087 0.462067 0.0169309)
(202.976 0.0387041 -1.20088)
(202.504 -0.378738 -2.43301)
(201.624 -0.792887 -3.64948)
(200.229 -1.22548 -4.76349)
(198.225 -1.69603 -5.64656)
(195.406 -2.29425 -5.7739)
(192.398 -2.95943 -4.76517)
(202.601 2.26029 2.2662)
(203.226 1.78945 1.03046)
(203.472 1.30992 -0.247602)
(203.374 0.871831 -1.54257)
(202.888 0.454541 -2.87111)
(201.954 0.0498591 -4.23241)
(200.414 -0.375019 -5.54335)
(198.114 -0.846566 -6.7115)
(194.632 -1.48048 -7.04581)
(190.715 -2.22395 -6.09478)
(203.061 1.53229 2.89302)
(203.738 0.938465 1.56644)
(204.012 0.375197 0.155863)
(203.936 -0.114388 -1.26773)
(203.455 -0.558782 -2.76079)
(202.502 -0.963032 -4.33673)
(200.866 -1.35482 -5.93725)
(198.333 -1.76379 -7.50394)
(194.238 -2.34102 -8.22413)
(189.388 -3.07269 -7.55797)
(203.232 2.54149 2.46703)
(203.929 1.92125 1.13914)
(204.21 1.35959 -0.218656)
(204.127 0.886449 -1.61569)
(203.631 0.486573 -3.0871)
(202.652 0.145462 -4.68405)
(200.95 -0.167359 -6.36087)
(198.26 -0.499669 -8.13982)
(193.678 -0.97177 -9.13379)
(187.947 -1.71549 -8.7928)
(203.481 1.21081 3.12219)
(204.188 0.470203 1.78476)
(204.48 -0.166447 0.360278)
(204.411 -0.678751 -1.08827)
(203.927 -1.09175 -2.64469)
(202.955 -1.40751 -4.35215)
(201.229 -1.62754 -6.21841)
(198.435 -1.7939 -8.27824)
(193.516 -1.95726 -9.83157)
(186.809 -2.51326 -9.91392)
(202.806 2.33602 2.41785)
(203.475 1.54212 1.15824)
(203.726 0.949114 -0.134328)
(203.575 0.478375 -1.48552)
(202.987 0.156707 -2.92814)
(201.892 -0.0305601 -4.53167)
(200.041 -0.067798 -6.30615)
(197.087 0.0558508 -8.29631)
(191.99 0.313918 -9.98316)
(184.562 0.412774 -10.0821)
(199.153 0.0428522 0.576017)
(199.338 -0.0558313 0.369466)
(199.394 -0.169649 0.0874039)
(199.362 -0.275021 -0.172618)
(199.251 -0.378463 -0.425659)
(199.073 -0.470585 -0.616544)
(198.843 -0.555237 -0.736456)
(198.585 -0.634692 -0.752756)
(198.323 -0.711958 -0.658281)
(198.062 -0.78323 -0.451605)
(199.975 0.742148 0.598253)
(200.192 0.683937 0.199528)
(200.27 0.573698 -0.211777)
(200.208 0.425257 -0.610254)
(200.007 0.253443 -0.967127)
(199.677 0.0639501 -1.2505)
(199.235 -0.137897 -1.42144)
(198.717 -0.347745 -1.43695)
(198.184 -0.560509 -1.25226)
(197.746 -0.752762 -0.850773)
(200.473 0.497341 1.28311)
(200.787 0.298427 0.693333)
(200.897 0.0611927 0.0449668)
(200.809 -0.187147 -0.591641)
(200.516 -0.450816 -1.18927)
(200.023 -0.727085 -1.70239)
(199.337 -1.0172 -2.07151)
(198.495 -1.3224 -2.22251)
(197.567 -1.64622 -2.04268)
(196.763 -1.95563 -1.47302)
(200.746 1.34411 1.3293)
(201.158 1.13476 0.572758)
(201.308 0.863885 -0.223646)
(201.204 0.574274 -1.01298)
(200.834 0.266194 -1.76823)
(200.189 -0.0587514 -2.44301)
(199.255 -0.40916 -2.96159)
(198.052 -0.790003 -3.22017)
(196.626 -1.21954 -3.01339)
(195.313 -1.65568 -2.19262)
(201.228 0.974746 1.97669)
(201.731 0.648672 1.05048)
(201.919 0.285413 0.047108)
(201.814 -0.0701177 -0.948721)
(201.392 -0.431202 -1.9323)
(200.629 -0.796754 -2.85731)
(199.476 -1.18086 -3.63803)
(197.922 -1.59683 -4.14832)
(195.943 -2.09427 -4.0656)
(194.009 -2.62546 -3.11797)
(201.488 1.90809 1.86848)
(202.061 1.54371 0.840728)
(202.283 1.14922 -0.232666)
(202.181 0.774332 -1.31455)
(201.723 0.407095 -2.39893)
(200.872 0.0430168 -3.45754)
(199.537 -0.34312 -4.39834)
(197.667 -0.772659 -5.09936)
(195.118 -1.31752 -5.10474)
(192.495 -1.94351 -4.03045)
(201.931 1.19841 2.50506)
(202.565 0.712664 1.37364)
(202.816 0.233909 0.154275)
(202.727 -0.193574 -1.07019)
(202.254 -0.589887 -2.32934)
(201.348 -0.9574 -3.60158)
(199.874 -1.31972 -4.80808)
(197.732 -1.70483 -5.8267)
(194.624 -2.21977 -6.09867)
(191.259 -2.86277 -5.0728)
(202.103 2.26082 2.08345)
(202.767 1.74914 0.942459)
(203.029 1.26885 -0.234307)
(202.932 0.855313 -1.44359)
(202.435 0.499133 -2.6944)
(201.481 0.189945 -3.99733)
(199.903 -0.100619 -5.27562)
(197.554 -0.416212 -6.4528)
(193.972 -0.856421 -6.8826)
(189.873 -1.53782 -5.92275)
(202.372 0.926812 2.77434)
(203.051 0.29395 1.60888)
(203.324 -0.26174 0.345412)
(203.236 -0.710513 -0.935699)
(202.74 -1.07293 -2.29245)
(201.774 -1.34863 -3.72545)
(200.14 -1.54517 -5.20058)
(197.64 -1.7051 -6.62847)
(193.698 -1.88877 -7.46323)
(188.784 -2.41791 -6.6996)
(201.734 2.16017 2.04473)
(202.381 1.47792 0.96185)
(202.629 0.967494 -0.165974)
(202.486 0.560909 -1.34771)
(201.917 0.287637 -2.59369)
(200.861 0.135223 -3.93359)
(199.125 0.110548 -5.33077)
(196.47 0.213338 -6.714)
(192.313 0.385032 -7.6151)
(186.782 0.372568 -6.78084)
(198.747 -0.0978176 0.417447)
(198.885 -0.162029 0.295269)
(198.922 -0.238973 0.106798)
(198.904 -0.309594 -0.0580284)
(198.837 -0.382738 -0.223123)
(198.732 -0.449249 -0.343443)
(198.598 -0.511686 -0.420423)
(198.452 -0.569634 -0.433008)
(198.306 -0.622903 -0.383272)
(198.138 -0.667495 -0.273295)
(199.451 0.532024 0.366505)
(199.599 0.518361 0.0960244)
(199.653 0.459343 -0.177143)
(199.612 0.362331 -0.438428)
(199.477 0.241953 -0.665231)
(199.26 0.104207 -0.835327)
(198.977 -0.0437147 -0.924444)
(198.659 -0.195495 -0.908737)
(198.347 -0.343175 -0.771778)
(198.105 -0.469265 -0.513278)
(199.794 0.206518 1.00101)
(200.027 0.0685043 0.573619)
(200.111 -0.104138 0.0953492)
(200.046 -0.291497 -0.371337)
(199.832 -0.496102 -0.800539)
(199.477 -0.713588 -1.15483)
(199 -0.941832 -1.39163)
(198.441 -1.17733 -1.46523)
(197.864 -1.41503 -1.32159)
(197.395 -1.63037 -0.946048)
(199.971 1.02825 0.993333)
(200.3 0.894883 0.423345)
(200.422 0.697189 -0.181528)
(200.338 0.47216 -0.776904)
(200.046 0.224045 -1.33215)
(199.547 -0.0427562 -1.80338)
(198.851 -0.330094 -2.13148)
(198 -0.637078 -2.24249)
(197.064 -0.965449 -2.02926)
(196.26 -1.2836 -1.42308)
(200.359 0.64099 1.61369)
(200.782 0.403512 0.882103)
(200.94 0.119646 0.0780854)
(200.848 -0.170617 -0.7145)
(200.493 -0.473985 -1.47987)
(199.867 -0.786209 -2.16755)
(198.96 -1.11468 -2.70367)
(197.8 -1.46566 -2.98632)
(196.444 -1.86165 -2.83103)
(195.208 -2.2647 -2.08401)
(200.564 1.57331 1.49386)
(201.064 1.30336 0.663584)
(201.257 0.989102 -0.211904)
(201.16 0.677415 -1.08975)
(200.754 0.363284 -1.94933)
(200.021 0.0457543 -2.74889)
(198.922 -0.291915 -3.40223)
(197.464 -0.663873 -3.79523)
(195.649 -1.10786 -3.64652)
(193.913 -1.60142 -2.71163)
(200.969 0.871971 2.12785)
(201.539 0.487151 1.18813)
(201.761 0.0909813 0.160249)
(201.67 -0.273253 -0.866479)
(201.232 -0.618214 -1.90141)
(200.421 -0.943406 -2.90243)
(199.16 -1.26696 -3.78725)
(197.427 -1.61109 -4.42065)
(195.141 -2.04483 -4.44697)
(192.841 -2.56596 -3.45629)
(201.12 1.97996 1.7034)
(201.727 1.57308 0.749426)
(201.965 1.17418 -0.242991)
(201.863 0.822058 -1.26148)
(201.394 0.512682 -2.29443)
(200.517 0.239512 -3.32542)
(199.131 -0.0212704 -4.26559)
(197.174 -0.304545 -5.00136)
(194.47 -0.682343 -5.08925)
(191.597 -1.24049 -4.02879)
(201.396 0.634796 2.42717)
(202.025 0.108228 1.43606)
(202.273 -0.366567 0.339856)
(202.177 -0.752526 -0.767301)
(201.699 -1.06567 -1.92179)
(200.793 -1.30346 -3.09445)
(199.329 -1.47661 -4.22863)
(197.201 -1.62322 -5.18355)
(194.161 -1.79762 -5.56464)
(190.66 -2.23138 -4.57211)
(200.784 1.98324 1.66736)
(201.385 1.41183 0.760988)
(201.621 0.98341 -0.198378)
(201.487 0.639749 -1.20552)
(200.956 0.412318 -2.25169)
(199.98 0.290514 -3.33713)
(198.427 0.274813 -4.39656)
(196.152 0.358521 -5.31)
(192.896 0.469142 -5.69466)
(188.921 0.424494 -4.59094)
(198.45 -0.191128 0.320969)
(198.556 -0.236346 0.251944)
(198.582 -0.291312 0.122266)
(198.572 -0.339469 0.0168445)
(198.533 -0.391698 -0.0946992)
(198.472 -0.439391 -0.174513)
(198.396 -0.484595 -0.229751)
(198.314 -0.52583 -0.245375)
(198.23 -0.561868 -0.226321)
(198.111 -0.589316 -0.173563)
(199.071 0.39749 0.198718)
(199.167 0.41025 0.0183946)
(199.204 0.385718 -0.156334)
(199.178 0.326239 -0.320812)
(199.091 0.245561 -0.458903)
(198.954 0.149346 -0.556393)
(198.778 0.0448601 -0.599085)
(198.587 -0.0613872 -0.574089)
(198.405 -0.161702 -0.477261)
(198.268 -0.243262 -0.311484)
(199.286 -0.0115239 0.784492)
(199.452 -0.10995 0.480515)
(199.513 -0.234807 0.134057)
(199.468 -0.373403 -0.2026)
(199.318 -0.527979 -0.507709)
(199.073 -0.694042 -0.753042)
(198.753 -0.867738 -0.909851)
(198.392 -1.0435 -0.951981)
(198.037 -1.2136 -0.854114)
(197.76 -1.36026 -0.621507)
(199.384 0.774307 0.715982)
(199.634 0.695553 0.298604)
(199.728 0.556371 -0.146696)
(199.665 0.387003 -0.582192)
(199.445 0.193514 -0.978988)
(199.076 -0.0181619 -1.30038)
(198.577 -0.245517 -1.50355)
(197.991 -0.484139 -1.53997)
(197.385 -0.727887 -1.35742)
(196.892 -0.953296 -0.931118)
(199.676 0.357712 1.2977)
(200.014 0.189713 0.734165)
(200.142 -0.0262847 0.10615)
(200.067 -0.256942 -0.509136)
(199.782 -0.504582 -1.09148)
(199.292 -0.76288 -1.59418)
(198.607 -1.03436 -1.95887)
(197.768 -1.31938 -2.11221)
(196.854 -1.62468 -1.95383)
(196.068 -1.91922 -1.41074)
(199.817 1.27124 1.15656)
(200.233 1.07979 0.504697)
(200.395 0.837284 -0.188613)
(200.31 0.585619 -0.880367)
(199.969 0.324707 -1.54263)
(199.367 0.0563437 -2.13068)
(198.499 -0.22839 -2.57187)
(197.401 -0.537244 -2.77529)
(196.135 -0.884808 -2.57429)
(194.995 -1.25553 -1.84073)
(200.175 0.568918 1.77623)
(200.665 0.272995 1.01566)
(200.855 -0.0463382 0.170641)
(200.77 -0.349029 -0.668949)
(200.387 -0.641781 -1.49908)
(199.695 -0.921542 -2.26933)
(198.664 -1.20111 -2.90484)
(197.311 -1.49542 -3.28496)
(195.67 -1.84546 -3.19619)
(194.117 -2.24398 -2.37548)
(200.288 1.71296 1.34178)
(200.82 1.40182 0.56634)
(201.027 1.08057 -0.246636)
(200.93 0.789023 -1.08004)
(200.509 0.527484 -1.90812)
(199.743 0.292643 -2.69974)
(198.579 0.0663796 -3.36762)
(197.012 -0.176933 -3.79996)
(195.026 -0.484213 -3.70257)
(193.046 -0.909346 -2.75594)
(200.563 0.346487 2.09471)
(201.124 -0.0804187 1.27224)
(201.342 -0.477441 0.342041)
(201.247 -0.802972 -0.592962)
(200.809 -1.06889 -1.55277)
(200.001 -1.27086 -2.49074)
(198.748 -1.4206 -3.34264)
(197.012 -1.54944 -3.96212)
(194.735 -1.70086 -4.08167)
(192.298 -2.02961 -3.14677)
(199.963 1.81517 1.29835)
(200.5 1.34967 0.56174)
(200.715 1.00034 -0.231333)
(200.594 0.717118 -1.06546)
(200.117 0.532475 -1.91744)
(199.252 0.437342 -2.76878)
(197.918 0.428007 -3.54101)
(196.048 0.495078 -4.10919)
(193.578 0.563121 -4.17896)
(190.804 0.519391 -3.11522)
(198.222 -0.255238 0.265564)
(198.309 -0.290173 0.229297)
(198.327 -0.332618 0.135265)
(198.322 -0.366744 0.0656343)
(198.3 -0.405059 -0.0141351)
(198.266 -0.439535 -0.0712322)
(198.223 -0.472137 -0.115539)
(198.177 -0.501159 -0.135289)
(198.127 -0.525238 -0.135992)
(198.033 -0.541695 -0.116876)
(198.789 0.321965 0.0775722)
(198.851 0.349885 -0.0408906)
(198.875 0.347837 -0.147592)
(198.859 0.314821 -0.245632)
(198.806 0.263611 -0.324437)
(198.721 0.199189 -0.375511)
(198.615 0.127922 -0.391072)
(198.501 0.0556418 -0.363981)
(198.394 -0.011334 -0.295187)
(198.315 -0.0635913 -0.18577)
(198.906 -0.166761 0.624086)
(199.018 -0.24088 0.410313)
(199.06 -0.331819 0.16187)
(199.03 -0.433084 -0.0792152)
(198.929 -0.5473 -0.295931)
(198.767 -0.670831 -0.468206)
(198.559 -0.799229 -0.577391)
(198.33 -0.926735 -0.609413)
(198.113 -1.04589 -0.551998)
(197.95 -1.14421 -0.417363)
(198.945 0.581211 0.494848)
(199.128 0.539332 0.197547)
(199.198 0.444782 -0.120339)
(199.152 0.321244 -0.429317)
(198.993 0.175076 -0.704987)
(198.73 0.0127517 -0.919053)
(198.385 -0.16123 -1.04217)
(197.991 -0.340931 -1.04413)
(197.602 -0.517723 -0.901773)
(197.299 -0.674716 -0.609293)
(199.148 0.130829 1.03251)
(199.408 0.0143884 0.608001)
(199.507 -0.146182 0.128775)
(199.449 -0.324863 -0.338259)
(199.231 -0.521399 -0.772824)
(198.862 -0.728703 -1.13589)
(198.362 -0.946064 -1.38413)
(197.772 -1.17008 -1.46892)
(197.164 -1.39986 -1.3379)
(196.665 -1.60981 -0.963194)
(199.228 1.01103 0.865165)
(199.56 0.881078 0.367616)
(199.69 0.699656 -0.165321)
(199.62 0.502369 -0.694644)
(199.346 0.292118 -1.19072)
(198.873 0.0725089 -1.61246)
(198.212 -0.15926 -1.90287)
(197.409 -0.406335 -1.99685)
(196.54 -0.669927 -1.79823)
(195.797 -0.939218 -1.25375)
(199.536 0.301218 1.46076)
(199.942 0.0796331 0.860324)
(200.099 -0.171327 0.182519)
(200.024 -0.416642 -0.487495)
(199.705 -0.658681 -1.13824)
(199.14 -0.89249 -1.71961)
(198.328 -1.12661 -2.16937)
(197.307 -1.36899 -2.39206)
(196.15 -1.64278 -2.26705)
(195.113 -1.9353 -1.63809)
(199.598 1.47133 1.01062)
(200.047 1.24326 0.398437)
(200.222 0.992884 -0.24714)
(200.135 0.75865 -0.908543)
(199.774 0.543931 -1.55212)
(199.133 0.347856 -2.14158)
(198.194 0.15826 -2.59927)
(196.983 -0.0428 -2.8339)
(195.556 -0.283669 -2.65389)
(194.212 -0.593898 -1.88808)
(199.871 0.0720908 1.78917)
(200.353 -0.265757 1.12278)
(200.539 -0.590842 0.350406)
(200.452 -0.860014 -0.421691)
(200.069 -1.08167 -1.20241)
(199.38 -1.25018 -1.93794)
(198.35 -1.37695 -2.56651)
(196.984 -1.48572 -2.95974)
(195.321 -1.60938 -2.94779)
(193.658 -1.84714 -2.17739)
(199.274 1.66541 0.948866)
(199.736 1.29746 0.3696)
(199.924 1.02205 -0.265022)
(199.818 0.795435 -0.934011)
(199.405 0.649966 -1.60481)
(198.667 0.577839 -2.24954)
(197.565 0.573007 -2.78816)
(196.083 0.626052 -3.11437)
(194.26 0.664704 -3.01067)
(192.372 0.633332 -2.10673)
(198.042 -0.303887 0.23731)
(198.117 -0.333261 0.220784)
(198.13 -0.368951 0.147548)
(198.128 -0.394644 0.0986041)
(198.115 -0.424029 0.0371584)
(198.096 -0.449589 -0.00778055)
(198.072 -0.473381 -0.0469488)
(198.046 -0.493816 -0.0705544)
(198.015 -0.509734 -0.0839992)
(197.936 -0.519076 -0.0850758)
(198.577 0.29031 -0.0118425)
(198.616 0.32707 -0.0883536)
(198.632 0.339392 -0.148785)
(198.623 0.324659 -0.201804)
(198.59 0.294711 -0.241197)
(198.539 0.253678 -0.262152)
(198.476 0.206789 -0.260829)
(198.408 0.158881 -0.232956)
(198.345 0.11474 -0.181643)
(198.298 0.0814504 -0.10497)
(198.615 -0.272077 0.508725)
(198.689 -0.331909 0.358685)
(198.717 -0.399497 0.180606)
(198.698 -0.473249 0.00738885)
(198.632 -0.55639 -0.148085)
(198.527 -0.646271 -0.272264)
(198.395 -0.738803 -0.353248)
(198.253 -0.82896 -0.383962)
(198.122 -0.910635 -0.357503)
(198.025 -0.975362 -0.287965)
(198.621 0.442319 0.323173)
(198.75 0.423868 0.117443)
(198.8 0.362033 -0.102365)
(198.769 0.274766 -0.314658)
(198.658 0.167883 -0.500481)
(198.477 0.047537 -0.639133)
(198.244 -0.0813686 -0.711395)
(197.985 -0.21277 -0.698954)
(197.737 -0.338294 -0.59347)
(197.55 -0.446309 -0.394712)