/*--------------------------------*- C++ -*----------------------------------*\
| =========                 |                                                 |
| \\      /  F ield         | foam-extend: Open Source CFD                    |
|  \\    /   O peration     | Version:     4.0                                |
|   \\  /    A nd           | Web:         http://www.foam-extend.org         |
|    \\/     M anipulation  |                                                 |
\*---------------------------------------------------------------------------*/
FoamFile
{
    version     2.0;
    format      ascii;
    class       volScalarField;
    location    "300";
    object      alphat;
}
// * * * * * * * * * * * * * * * * * * * * * * * * * * * * * * * * * * * * * //

dimensions      [1 -1 -1 0 0 0 0];

internalField   nonuniform List<scalar> 
34480
(
0.00186743
0.00186564
0.00186495
0.00186514
0.0018666
0.00187073
0.00188156
0.0019113
0.00198452
0.00213289
0.0149522
0.0137773
0.0132419
0.0124565
0.00974508
0.00512877
0.00220983
0.00130023
0.0014618
0.00228492
0.0416016
0.0397318
0.0375522
0.0326956
0.0219081
0.00949732
0.00334596
0.00159307
0.00159217
0.00248346
0.0467261
0.0446974
0.0425226
0.0372334
0.0248542
0.0104914
0.00349029
0.00151692
0.00147008
0.00241341
0.0467728
0.0448581
0.0431703
0.0385303
0.026387
0.0112864
0.00368218
0.00148427
0.00136419
0.00232237
0.0461155
0.044325
0.0429027
0.0386938
0.0267783
0.01148
0.00374792
0.00147761
0.00132696
0.00231755
0.044823
0.043258
0.042119
0.0384128
0.0270368
0.0117032
0.00384717
0.00150501
0.00132772
0.00235087
0.0375298
0.0365118
0.0358443
0.0333051
0.0241363
0.0105295
0.00345169
0.00138846
0.00128654
0.0023621
0.0128287
0.0126597
0.0126372
0.0124076
0.0107388
0.00594812
0.0020637
0.000873965
0.000928556
0.00188288
0.00182888
0.00182109
0.00181467
0.00180954
0.00180627
0.00180521
0.00180726
0.00181302
0.00182395
0.00177547
0.00187036
0.0018682
0.00186725
0.00186725
0.0018684
0.00187141
0.00187796
0.00189202
0.00192695
0.00201748
0.0142854
0.0132515
0.0129078
0.0129912
0.0132987
0.0131975
0.0111349
0.00665517
0.00336438
0.00422542
0.0392943
0.0377764
0.0369905
0.0362689
0.0339845
0.0281948
0.0189376
0.0091287
0.00377717
0.00463515
0.0442223
0.0426297
0.0419675
0.041329
0.0387845
0.0320626
0.0211947
0.00942207
0.00339624
0.00439764
0.0445797
0.0430589
0.0426589
0.0423933
0.0404107
0.0341117
0.0229632
0.00987607
0.00312413
0.00415739
0.0442968
0.0428331
0.0425256
0.0424724
0.0409446
0.035151
0.0241095
0.0103098
0.00304246
0.00416902
0.0433699
0.0420513
0.0418434
0.0419209
0.0408107
0.035668
0.0250375
0.0108313
0.00307577
0.00430136
0.0366353
0.0357477
0.0356643
0.0358827
0.0354455
0.0320386
0.0234147
0.010286
0.00293704
0.00437726
0.0127751
0.0126013
0.012621
0.0127317
0.0129239
0.0129758
0.0117899
0.00607892
0.00186691
0.00310673
0.00182
0.00181115
0.00180376
0.00179771
0.00179347
0.00179135
0.00179255
0.00179764
0.00181638
0.0018566
0.00186919
0.00186737
0.00186658
0.00186665
0.00186771
0.00187019
0.00187515
0.0018851
0.00190715
0.00195567
0.0135214
0.012719
0.0124452
0.0125363
0.0130038
0.0139068
0.01485
0.014255
0.0112112
0.00945149
0.0366777
0.0352832
0.0348458
0.0350585
0.0353135
0.0344
0.0304136
0.0222159
0.0129255
0.010029
0.0412925
0.0399391
0.0396557
0.0400651
0.0404844
0.0395057
0.0346307
0.0235641
0.0114196
0.00910953
0.0418943
0.0406701
0.0405677
0.0411743
0.0419679
0.0415757
0.0370812
0.0245023
0.0101305
0.00826195
0.0419346
0.0407654
0.0407005
0.0413954
0.0424733
0.0426691
0.0387679
0.0252132
0.00931565
0.0079048
0.0413571
0.0402954
0.0402809
0.0409804
0.0422115
0.042909
0.0397935
0.0257787
0.00881121
0.00780851
0.0353225
0.0346073
0.0346303
0.0351965
0.0362834
0.0374028
0.0359876
0.0237782
0.00782471
0.00756669
0.0126552
0.0125047
0.0125291
0.0126388
0.0128813
0.0133185
0.0138583
0.0114768
0.00455147
0.00493226
0.00180869
0.00180045
0.00179373
0.00178848
0.00178516
0.00178421
0.00178712
0.00179518
0.00181749
0.0018675
0.00186483
0.0018635
0.00186293
0.00186301
0.00186382
0.00186557
0.00186885
0.00187529
0.00188979
0.00192252
0.0129787
0.0123734
0.0121514
0.0121963
0.0125272
0.0132932
0.0146838
0.0165179
0.0179368
0.0191561
0.0341258
0.0329321
0.0326127
0.0329085
0.0335973
0.0342519
0.0337643
0.0307356
0.0253757
0.0221274
0.0384007
0.0373147
0.0371359
0.0376116
0.0385078
0.039315
0.0385071
0.0335512
0.0242575
0.0198537
0.0392136
0.0382835
0.0382484
0.0388466
0.0399563
0.041127
0.0406756
0.0349188
0.0225942
0.0177192
0.0395307
0.0386467
0.0386329
0.0392855
0.0405669
0.0421304
0.0421982
0.0360085
0.0213601
0.0165754
0.0392622
0.03845
0.0384739
0.0391183
0.0404617
0.0422922
0.042926
0.036648
0.0203019
0.0158816
0.0339625
0.0334145
0.0334576
0.033957
0.0350041
0.0366577
0.0379546
0.0332874
0.0179112
0.0147373
0.0125511
0.0124232
0.0124481
0.0125361
0.0127211
0.0130652
0.0136582
0.0137549
0.00953445
0.00882258
0.00179657
0.00178913
0.00178326
0.00177895
0.00177664
0.00177684
0.00178109
0.00179092
0.00181388
0.00185996
0.00185786
0.00185697
0.00185658
0.00185664
0.0018572
0.00185834
0.0018604
0.00186447
0.00187406
0.00189765
0.0126938
0.0122335
0.0120522
0.0120667
0.0122844
0.0128238
0.0139375
0.01596
0.0189683
0.0229058
0.0319414
0.031022
0.0307823
0.0309829
0.0315307
0.0323905
0.0332824
0.033581
0.0331609
0.033602
0.035845
0.0350497
0.0349216
0.0352533
0.0359489
0.0369527
0.0378248
0.0373502
0.0342842
0.0321515
0.036789
0.0361339
0.0361205
0.03654
0.0373624
0.0385462
0.0395829
0.0387535
0.0334124
0.0293166
0.0372998
0.0366714
0.0366711
0.037139
0.0380857
0.0395244
0.0409102
0.0400013
0.032738
0.0275609
0.037267
0.0366772
0.036708
0.0371802
0.0381778
0.0397731
0.0414892
0.0406792
0.0318842
0.0262505
0.0326713
0.0322702
0.0323155
0.0326884
0.0334477
0.0347524
0.0364804
0.0364763
0.0283975
0.0238342
0.0124821
0.0123732
0.0123967
0.0124619
0.0125885
0.0128171
0.0132238
0.0137977
0.0128885
0.0127147
0.00178405
0.00177742
0.00177236
0.0017689
0.00176744
0.0017685
0.00177347
0.00178369
0.00180427
0.00184074
0.00184867
0.0018481
0.00184785
0.00184788
0.00184823
0.00184893
0.00185022
0.00185285
0.0018595
0.00187736
0.012627
0.01227
0.0121206
0.0121201
0.0122688
0.0126519
0.0134774
0.0151341
0.0180038
0.0221626
0.0303116
0.0296517
0.0294795
0.0295903
0.0299271
0.0305658
0.0315987
0.0330226
0.0349657
0.0382162
0.0338016
0.0332608
0.0331735
0.0333685
0.0337805
0.034477
0.0355241
0.0368427
0.0380418
0.0401365
0.034756
0.0343278
0.0343307
0.0345903
0.0350801
0.035855
0.0369194
0.0380192
0.0380759
0.0384038
0.0353538
0.0349361
0.034947
0.0352506
0.0358392
0.0367942
0.0380936
0.0392558
0.0382272
0.0369748
0.0354654
0.0350623
0.0350988
0.0354163
0.0360594
0.0371332
0.0386406
0.0399464
0.0379836
0.0355535
0.0315041
0.0312282
0.031276
0.0315378
0.0320315
0.0328836
0.0342
0.0356316
0.0338858
0.0318369
0.0124578
0.0123649
0.0123872
0.0124335
0.012514
0.0126513
0.0128834
0.0132927
0.0132832
0.014279
0.00177089
0.00176508
0.00176078
0.00175806
0.00175727
0.0017589
0.00176406
0.0017738
0.00179088
0.00181769
0.00183754
0.00183717
0.00183701
0.00183702
0.00183723
0.00183765
0.00183845
0.00184023
0.00184512
0.0018592
0.0127233
0.012442
0.0123179
0.0123105
0.0124174
0.0127011
0.0133263
0.0146514
0.0171533
0.0209737
0.0292453
0.0287829
0.0286625
0.0287181
0.0289058
0.0293084
0.030104
0.0315355
0.0338933
0.0375832
0.0323112
0.0319558
0.0318995
0.0320038
0.0322108
0.0325853
0.0332906
0.0346767
0.0371869
0.041301
0.0331707
0.0329051
0.0329194
0.0330683
0.0333175
0.0337095
0.0343385
0.0354613
0.0374135
0.0410312
0.0337601
0.033498
0.0335177
0.0337023
0.0340251
0.0345416
0.0353223
0.036523
0.0379987
0.0407183
0.0339305
0.0336697
0.0337101
0.0339108
0.0342839
0.0348953
0.0358218
0.0371657
0.0382223
0.039997
0.0305149
0.0303372
0.0303861
0.0305614
0.0308532
0.0313369
0.0321041
0.0333241
0.0341183
0.0355923
0.0124905
0.0124096
0.0124302
0.0124616
0.012508
0.0125798
0.0126898
0.0128858
0.0127778
0.0136079
0.00175685
0.00175185
0.00174827
0.00174619
0.00174589
0.0017478
0.00175276
0.00176145
0.00177502
0.00179416
0.00182461
0.00182436
0.00182426
0.00182426
0.00182437
0.00182462
0.00182513
0.00182638
0.00183013
0.00184145
0.0129385
0.0127147
0.0126112
0.0126011
0.012681
0.0128981
0.0133847
0.0144607
0.0166514
0.0201787
0.0286309
0.0283069
0.0282236
0.0282505
0.0283541
0.0286041
0.0291732
0.0303618
0.0325354
0.0359665
0.0313023
0.0310686
0.0310329
0.0310856
0.0311769
0.0313506
0.0317441
0.0327341
0.0350456
0.039225
0.0320102
0.0318489
0.031868
0.0319489
0.0320561
0.0322097
0.0324778
0.0331296
0.0348937
0.0389423
0.0325282
0.03237
0.0323938
0.0325007
0.0326562
0.0328852
0.0332312
0.0338951
0.0353637
0.0390146
0.0326927
0.0325305
0.0325711
0.0326913
0.0328851
0.033181
0.03362
0.0343798
0.0356575
0.0388592
0.0297332
0.0296259
0.0296737
0.029786
0.0299395
0.0301717
0.030524
0.031168
0.0320736
0.0346485
0.0125899
0.0125166
0.0125352
0.0125555
0.0125784
0.0126072
0.0126426
0.0126991
0.0124465
0.0127872
0.00174173
0.00173754
0.00173461
0.00173305
0.00173309
0.00173506
0.00173953
0.00174689
0.00175731
0.00177082
0.00180998
0.00180979
0.00180971
0.0018097
0.00180977
0.00180991
0.00181025
0.00181115
0.00181407
0.00182322
0.013245
0.0130667
0.0129803
0.0129695
0.0130307
0.0132001
0.0135845
0.0144647
0.0163812
0.0196541
0.0283351
0.0281076
0.0280501
0.0280629
0.0281226
0.0282854
0.0287007
0.029665
0.0315866
0.0347355
0.030662
0.0305047
0.0304809
0.0305061
0.030541
0.0306146
0.0308293
0.0314943
0.0333279
0.0370242
0.0312085
0.031108
0.0311257
0.0311676
0.0312022
0.0312379
0.031317
0.0316322
0.0328403
0.0361366
0.0316272
0.0315317
0.0315547
0.031614
0.0316759
0.0317489
0.0318521
0.0321158
0.0330307
0.0358983
0.0317477
0.0316469
0.0316836
0.0317521
0.0318385
0.0319508
0.0321016
0.0323991
0.0331626
0.0357097
0.029167
0.0291052
0.0291492
0.0292183
0.0292849
0.0293654
0.0294719
0.0296972
0.0301678
0.0321139
0.0127638
0.0126941
0.01271
0.0127226
0.0127307
0.012734
0.0127287
0.0127127
0.0124093
0.0125128
0.00172536
0.00172193
0.00171959
0.00171845
0.0017187
0.00172055
0.00172438
0.00173033
0.0017381
0.0017475
0.00179366
0.0017935
0.00179344
0.00179342
0.00179346
0.00179355
0.00179378
0.00179444
0.00179672
0.00180409
0.0136309
0.0134893
0.0134174
0.013407
0.0134547
0.0135882
0.0138934
0.0146115
0.0162617
0.0192845
0.02825
0.028091
0.0280509
0.0280567
0.0280933
0.0282054
0.0285171
0.0292996
0.0309849
0.0338909
0.0302815
0.0301712
0.0301533
0.0301641
0.0301744
0.0302043
0.0303295
0.0307905
0.0322152
0.0353988
0.0306847
0.0306165
0.0306287
0.030649
0.0306517
0.0306405
0.0306441
0.0307971
0.0316099
0.0341421
0.0310027
0.0309412
0.0309598
0.0309912
0.0310066
0.0310079
0.0310051
0.0310791
0.0316124
0.0336458
0.0310653
0.0309984
0.0310281
0.0310651
0.0310937
0.0311135
0.0311274
0.0311941
0.031584
0.0333085
0.0288051
0.0287692
0.0288071
0.0288482
0.0288655
0.0288653
0.0288499
0.0288629
0.0290375
0.0302834
0.0130185
0.0129491
0.0129621
0.0129695
0.0129694
0.0129596
0.0129358
0.0128908
0.0126003
0.0126401
0.00170759
0.00170486
0.00170304
0.00170224
0.00170257
0.0017042
0.00170733
0.00171195
0.00171759
0.00172405
0.00177565
0.00177551
0.00177546
0.00177545
0.00177546
0.00177552
0.00177568
0.00177618
0.00177795
0.00178382
0.0140954
0.0139843
0.013925
0.0139157
0.0139533
0.0140588
0.0143007
0.0148809
0.0162765
0.0190171
0.0283011
0.0281908
0.0281623
0.028164
0.0281876
0.0282677
0.0285041
0.029133
0.030588
0.0332546
0.0300738
0.0299921
0.0299762
0.0299793
0.0299802
0.0299928
0.0300733
0.0304046
0.0315061
0.0342032
0.0303621
0.030309
0.0303144
0.0303229
0.0303145
0.0302909
0.0302739
0.0303596
0.0309295
0.0328736
0.0305925
0.0305475
0.0305599
0.0305757
0.0305713
0.0305468
0.03051
0.0305157
0.030849
0.0323184
0.0306005
0.03055
0.0305713
0.0305902
0.0305916
0.030573
0.0305361
0.0305174
0.0307278
0.0319302
0.0286231
0.0285997
0.0286302
0.0286539
0.0286469
0.0286112
0.0285479
0.0284798
0.0285257
0.0293588
0.0133605
0.013289
0.0132988
0.0133031
0.0132992
0.0132846
0.0132557
0.0132066
0.0129622
0.013011
0.00168831
0.00168621
0.00168484
0.00168428
0.00168464
0.00168599
0.00168843
0.00169188
0.00169588
0.00170026
0.00175592
0.00175582
0.00175578
0.00175576
0.00175577
0.00175581
0.00175592
0.0017563
0.00175766
0.00176225
0.0146457
0.0145609
0.0145128
0.0145051
0.014535
0.0146181
0.0148084
0.0152699
0.0164214
0.0188372
0.0284402
0.0283638
0.0283424
0.0283415
0.0283569
0.0284149
0.028593
0.0290874
0.0303086
0.032711
0.029976
0.0299112
0.0298957
0.0298945
0.0298924
0.0298988
0.0299549
0.030197
0.031037
0.0332635
0.0301769
0.0301303
0.0301291
0.0301314
0.0301211
0.0300995
0.0300832
0.0301422
0.0305567
0.0320479
0.0303383
0.0303004
0.0303067
0.0303139
0.0303033
0.0302748
0.0302355
0.0302258
0.0304558
0.0315505
0.0303041
0.0302608
0.0302741
0.0302831
0.0302743
0.0302455
0.0301994
0.030163
0.0302975
0.0311864
0.0285896
0.0285707
0.0285938
0.0286071
0.0285907
0.0285455
0.0284733
0.0283896
0.0283965
0.0290025
0.0137976
0.0137226
0.0137294
0.0137318
0.0137269
0.0137124
0.0136857
0.0136447
0.0134611
0.0135447
0.00166742
0.00166586
0.00166486
0.00166449
0.00166481
0.00166587
0.0016677
0.00167019
0.00167296
0.0016759
0.00173445
0.0017344
0.00173437
0.00173436
0.00173436
0.00173439
0.00173447
0.00173475
0.00173577
0.00173927
0.015296
0.0152346
0.0151967
0.0151908
0.0152145
0.0152796
0.015427
0.015786
0.016706
0.0187549
0.0286361
0.0285823
0.0285648
0.028562
0.0285719
0.0286135
0.0287451
0.0291214
0.030106
0.0322012
0.0299457
0.0298909
0.0298751
0.0298717
0.0298691
0.0298733
0.0299141
0.0300907
0.0307169
0.0324902
0.0300816
0.030038
0.0300317
0.0300308
0.0300221
0.0300066
0.0299969
0.0300441
0.0303523
0.0314869
0.0301916
0.0301572
0.0301585
0.030161
0.0301504
0.0301264
0.0300955
0.0300885
0.0302604
0.031093
0.0301309
0.0300915
0.0300981
0.030102
0.0300914
0.0300649
0.0300261
0.0299965
0.030099
0.0307865
0.0286715
0.0286538
0.0286702
0.0286774
0.0286596
0.0286177
0.0285541
0.0284815
0.0284859
0.0289593
0.0143415
0.0142627
0.0142667
0.0142681
0.0142637
0.0142518
0.0142306
0.0141999
0.0140828
0.0142075
0.00164484
0.00164373
0.00164302
0.00164278
0.00164305
0.00164384
0.00164516
0.00164687
0.00164875
0.00165072
0.00171123
0.00171122
0.0017112
0.00171119
0.00171119
0.00171121
0.00171127
0.00171148
0.00171223
0.00171479
0.0160668
0.0160269
0.0159986
0.0159945
0.0160131
0.0160629
0.0161746
0.0164454
0.0171511
0.0188088
0.0288679
0.0288282
0.0288126
0.0288084
0.0288143
0.0288434
0.0289378
0.029213
0.0299673
0.0317068
0.0299558
0.0299073
0.0298916
0.0298873
0.0298848
0.029888
0.0299179
0.0300449
0.0304986
0.0318512
0.0300435
0.0300023
0.0299931
0.0299905
0.0299842
0.0299745
0.029971
0.0300109
0.030242
0.0310959
0.0301166
0.0300849
0.0300827
0.0300828
0.0300741
0.0300566
0.0300358
0.0300352
0.0301695
0.0308111
0.0300438
0.0300082
0.0300101
0.0300113
0.0300023
0.0299823
0.0299548
0.0299371
0.0300231
0.0305709
0.0288385
0.0288212
0.028832
0.0288356
0.0288201
0.0287865
0.0287371
0.0286829
0.0286938
0.0290833
0.0150106
0.0149281
0.0149297
0.0149306
0.0149275
0.0149191
0.0149042
0.0148841
0.0148282
0.0149923
0.00162048
0.00161972
0.00161924
0.00161909
0.0016193
0.00161987
0.00162077
0.0016219
0.00162316
0.00162446
0.00168627
0.00168624
0.00168623
0.00168622
0.00168622
0.00168624
0.00168628
0.00168642
0.00168695
0.00168874
0.0169857
0.0169664
0.0169475
0.0169449
0.016959
0.0169956
0.017077
0.017273
0.0177867
0.0190474
0.0291204
0.0290887
0.029074
0.0290689
0.0290719
0.0290915
0.0291565
0.0293487
0.0298929
0.0312425
0.02999
0.0299464
0.0299317
0.0299272
0.0299251
0.0299275
0.0299488
0.0300378
0.0303562
0.0313402
0.0300416
0.0300038
0.0299935
0.0299903
0.029986
0.0299806
0.029981
0.0300141
0.0301872
0.0308229
0.0300886
0.0300603
0.0300561
0.0300548
0.0300484
0.0300368
0.0300243
0.0300283
0.0301347
0.0306334
0.0300152
0.0299845
0.0299835
0.0299833
0.0299767
0.0299634
0.0299461
0.0299381
0.0300114
0.0304552
0.0290643
0.0290475
0.0290539
0.0290552
0.0290433
0.0290188
0.0289837
0.0289469
0.028963
0.0292931
0.0158335
0.0157481
0.0157478
0.0157485
0.0157468
0.0157418
0.0157326
0.0157212
0.0157112
0.0159096
0.00159426
0.00159377
0.00159345
0.00159337
0.00159352
0.0015939
0.0015945
0.00159522
0.00159602
0.00159688
0.00165945
0.0016594
0.0016594
0.0016594
0.0016594
0.00165941
0.00165944
0.00165953
0.00165987
0.00166103
0.0180894
0.018091
0.0180812
0.01808
0.0180896
0.0181146
0.0181702
0.0183034
0.0186516
0.019532
0.0293808
0.0293534
0.0293393
0.0293339
0.029335
0.0293475
0.0293901
0.0295174
0.0298847
0.0308461
0.0300388
0.0300004
0.0299875
0.0299834
0.0299817
0.0299832
0.0299977
0.0300577
0.0302737
0.0309557
0.0300636
0.0300306
0.0300205
0.0300171
0.0300142
0.0300116
0.0300139
0.03004
0.0301678
0.030637
0.0300923
0.030068
0.0300628
0.0300608
0.0300562
0.0300492
0.0300426
0.0300489
0.0301321
0.0305209
0.0300256
0.030001
0.0299984
0.0299973
0.0299929
0.029985
0.0299754
0.0299736
0.030034
0.0303946
0.0293259
0.02931
0.0293128
0.0293127
0.0293042
0.0292877
0.0292648
0.029242
0.0292606
0.029541
0.016855
0.0167677
0.0167661
0.0167667
0.0167663
0.0167642
0.0167597
0.0167543
0.0167577
0.0169832
0.00156612
0.00156581
0.00156561
0.00156556
0.00156566
0.00156591
0.00156629
0.00156673
0.00156721
0.00156777
0.00163069
0.00163069
0.0016307
0.0016307
0.00163071
0.00163071
0.00163073
0.00163078
0.00163097
0.00163165
0.0194257
0.0194503
0.0194499
0.01945
0.0194554
0.0194699
0.0195033
0.0195848
0.0197957
0.020339
0.0296376
0.0296128
0.0295994
0.029594
0.0295938
0.0296012
0.0296275
0.029707
0.0299387
0.0305599
0.0300971
0.0300651
0.0300544
0.0300509
0.0300494
0.0300503
0.0300594
0.0300977
0.0302385
0.0306903
0.0301025
0.0300752
0.030066
0.0300627
0.0300606
0.0300596
0.0300626
0.030082
0.0301738
0.0305169
0.0301184
0.0300986
0.0300929
0.0300904
0.0300872
0.0300834
0.0300807
0.0300875
0.0301508
0.0304521
0.0300625
0.0300441
0.0300406
0.030039
0.0300362
0.0300321
0.0300279
0.0300296
0.0300767
0.0303645
0.0296022
0.0295869
0.0295869
0.0295858
0.0295801
0.0295701
0.0295566
0.0295443
0.0295634
0.0297995
0.018146
0.0180583
0.018056
0.0180566
0.0180572
0.0180574
0.0180562
0.0180546
0.0180606
0.0182768
0.00153603
0.00153583
0.00153571
0.00153567
0.00153574
0.0015359
0.00153614
0.00153641
0.0015367
0.00153704
0.00160017
0.0016002
0.00160021
0.00160022
0.00160023
0.00160023
0.00160023
0.00160025
0.00160034
0.00160068
0.0210571
0.0211098
0.0211205
0.0211227
0.0211245
0.0211295
0.0211436
0.0211832
0.0212944
0.0215871
0.0298795
0.0298562
0.0298434
0.0298381
0.0298371
0.0298412
0.0298565
0.0299028
0.0300398
0.0304055
0.0301614
0.0301367
0.0301281
0.030125
0.0301237
0.0301241
0.0301296
0.0301524
0.0302391
0.030526
0.0301544
0.0301332
0.0301251
0.0301217
0.0301201
0.0301201
0.0301231
0.0301367
0.0301998
0.030446
0.030162
0.0301464
0.0301406
0.0301377
0.0301354
0.0301336
0.0301335
0.0301401
0.0301861
0.0304136
0.0301174
0.0301044
0.0301004
0.0300984
0.0300966
0.030095
0.0300943
0.0300979
0.0301326
0.0303508
0.0298714
0.0298563
0.0298542
0.0298524
0.0298488
0.0298433
0.0298366
0.0298318
0.0298505
0.0300466
0.0198231
0.0197372
0.0197347
0.0197354
0.0197366
0.0197382
0.0197392
0.0197397
0.0197449
0.0199391
0.0015041
0.00150397
0.00150388
0.00150386
0.00150389
0.001504
0.00150415
0.00150433
0.00150452
0.00150474
0.00156796
0.00156805
0.00156805
0.00156805
0.00156805
0.00156806
0.00156807
0.00156808
0.00156813
0.00156826
0.0231661
0.0232318
0.0232442
0.0232466
0.0232477
0.0232502
0.023257
0.0232756
0.0233255
0.0234396
0.0300939
0.0300715
0.0300598
0.0300549
0.0300535
0.0300555
0.0300638
0.0300884
0.0301631
0.0303648
0.0302279
0.0302109
0.0302042
0.0302013
0.0302
0.0302002
0.0302033
0.0302155
0.0302637
0.030435
0.0302163
0.0302008
0.0301941
0.030191
0.0301897
0.03019
0.0301926
0.0302017
0.0302412
0.0304079
0.0302194
0.0302076
0.0302021
0.0301992
0.0301975
0.030197
0.0301981
0.0302039
0.0302349
0.0303941
0.0301851
0.0301761
0.0301721
0.0301699
0.0301688
0.0301685
0.0301696
0.0301739
0.0301976
0.0303456
0.0301103
0.0300957
0.0300921
0.03009
0.0300877
0.030085
0.0300825
0.0300825
0.0300998
0.0302546
0.0220884
0.0220091
0.0220071
0.0220079
0.0220093
0.0220114
0.0220134
0.0220145
0.0220174
0.0221739
0.00147049
0.00147039
0.00147032
0.0014703
0.00147032
0.00147039
0.0014705
0.00147063
0.00147079
0.00147094
0.00153347
0.00153343
0.0015334
0.00153338
0.00153338
0.00153339
0.00153341
0.00153344
0.0015335
0.00153359
0.0260774
0.0261498
0.0261617
0.0261643
0.026165
0.0261656
0.0261669
0.0261709
0.02618
0.0261734
0.0302658
0.0302472
0.0302386
0.0302348
0.0302335
0.0302344
0.030238
0.0302483
0.0302805
0.03038
0.0302928
0.0302833
0.030279
0.0302769
0.0302759
0.0302758
0.0302772
0.030282
0.0303015
0.030383
0.0302837
0.0302738
0.0302692
0.0302671
0.0302663
0.0302666
0.0302683
0.030273
0.0302917
0.0303819
0.0302854
0.030277
0.0302729
0.0302708
0.0302699
0.0302699
0.0302712
0.0302751
0.0302911
0.030379
0.0302624
0.0302561
0.030253
0.0302514
0.0302509
0.0302513
0.0302527
0.0302562
0.030269
0.0303453
0.0302926
0.0302802
0.0302763
0.0302745
0.0302732
0.0302723
0.0302721
0.0302744
0.0302878
0.0303892
0.025334
0.0252733
0.0252722
0.0252729
0.0252741
0.0252759
0.0252778
0.0252788
0.0252794
0.0253774
0.00143468
0.00143459
0.00143454
0.00143453
0.00143455
0.0014346
0.00143469
0.00143478
0.0014349
0.00143503
0.00252365
0.00254415
0.00252782
0.00248228
0.00182422
0.00183626
0.0018276
0.00182968
0.00217087
0.00219579
0.00217733
0.00214933
0.00241266
0.00244675
0.00241964
0.00236547
0.00260714
0.00264687
0.00261271
0.00254268
0.00281781
0.00286358
0.00282722
0.00274901
0.00299901
0.0030511
0.00301722
0.00293749
0.00312281
0.00318314
0.00315667
0.00307956
0.00282307
0.00288696
0.00286923
0.00280178
0.00229105
0.0023094
0.00229062
0.00222927
0.00214527
0.00215575
0.00215587
0.00214562
0.00472851
0.0048104
0.00468828
0.00442593
0.00522155
0.00530499
0.0051136
0.00476166
0.00537565
0.00548665
0.0052486
0.00481556
0.00555517
0.00569402
0.00541671
0.00491278
0.00602476
0.00620553
0.0058938
0.00530927
0.00656201
0.00678318
0.00643882
0.00577828
0.00706393
0.00733402
0.00696552
0.00623101
0.00577743
0.00602335
0.00568165
0.00501904
0.00213478
0.00216492
0.00216337
0.00213348
0.00200287
0.00200915
0.00200862
0.00200207
0.00767561
0.00764878
0.00755409
0.00751345
0.00768463
0.00759253
0.00744826
0.00742542
0.00718757
0.00710853
0.00693887
0.00686223
0.00689492
0.00682438
0.00662262
0.00646717
0.00708731
0.00702794
0.00678502
0.00653548
0.00745795
0.00739273
0.00709727
0.00674842
0.0078888
0.00783623
0.00749004
0.00702641
0.00627769
0.00625935
0.00594297
0.00546168
0.00201977
0.00203672
0.00203666
0.0020223
0.00194962
0.00195377
0.00195373
0.00194975
0.0170368
0.0167666
0.0168287
0.0172312
0.0172595
0.0168103
0.0169643
0.0177576
0.0146787
0.0143372
0.0145288
0.0153499
0.012758
0.0124977
0.0126697
0.0134383
0.011979
0.0117778
0.0119199
0.0126454
0.011676
0.011493
0.0115792
0.012246
0.0115165
0.011396
0.0114212
0.0119478
0.00835224
0.0083666
0.00829409
0.00840972
0.00193938
0.00194998
0.00195206
0.00194669
0.00191957
0.0019234
0.00192351
0.00191999
0.0236396
0.0237277
0.023743
0.0236776
0.0314988
0.0312822
0.0313658
0.0316924
0.0279501
0.0276293
0.0278224
0.0284802
0.0235984
0.0232305
0.0234982
0.0244218
0.0210294
0.0206816
0.0210148
0.0221491
0.0194038
0.0190717
0.0194155
0.0206622
0.0179406
0.0177432
0.0180587
0.0191976
0.0112877
0.01135
0.0114315
0.0117673
0.00188311
0.00188992
0.00189239
0.00189092
0.00189586
0.00189929
0.00189946
0.00189639
0.0234718
0.0236262
0.0236228
0.0234612
0.0380309
0.0379501
0.0378715
0.0377782
0.0386008
0.0383598
0.0382797
0.0383295
0.0349272
0.0344719
0.0344513
0.034831
0.0317226
0.0311475
0.0312559
0.0320364
0.0290653
0.028443
0.0286583
0.0297521
0.0258578
0.0254355
0.0257151
0.0268038
0.0135552
0.0136013
0.0136291
0.0137419
0.00184044
0.00184478
0.00184695
0.00184699
0.00187505
0.00187806
0.00187824
0.00187559
0.0224009
0.0225885
0.0226049
0.0224448
0.037766
0.0377394
0.0376547
0.0374981
0.0412147
0.0411148
0.0409654
0.0407659
0.0403099
0.0400685
0.0398808
0.0397575
0.0388065
0.0383791
0.0382169
0.038336
0.0367939
0.0362041
0.0360991
0.0365033
0.0323678
0.0319195
0.0319057
0.0323744
0.0136597
0.013733
0.0136388
0.0134778
0.0018066
0.00180941
0.00181107
0.00181157
0.00185495
0.00185753
0.0018577
0.00185541
0.021679
0.0218895
0.0219218
0.0217678
0.0362431
0.0362636
0.0362146
0.036077
0.0395922
0.0395776
0.0394583
0.0392342
0.039431
0.0393723
0.0391844
0.0388914
0.0391099
0.0389338
0.0387033
0.0384661
0.0382826
0.0379519
0.037697
0.0375876
0.0338429
0.0335657
0.0333583
0.0333053
0.0126927
0.0127866
0.0126993
0.0125184
0.00177791
0.00177978
0.00178095
0.00178144
0.0018346
0.00183677
0.0018369
0.00183495
0.0212076
0.0214313
0.0214721
0.02132
0.0351203
0.0351874
0.0351743
0.0350586
0.0376677
0.0377308
0.0376602
0.0374512
0.0369591
0.0369954
0.0368542
0.0365534
0.0364244
0.0363548
0.0361556
0.035871
0.0358036
0.0356046
0.0353601
0.0351422
0.0319187
0.0317414
0.0315245
0.0313532
0.0122157
0.0123297
0.0122809
0.0121276
0.00175178
0.00175306
0.00175385
0.00175418
0.00181354
0.00181532
0.00181541
0.00181377
0.0208687
0.0210965
0.0211395
0.0209872
0.0343819
0.0344826
0.0344938
0.0343926
0.0362547
0.0363788
0.0363466
0.036151
0.0350241
0.035108
0.0350142
0.0347529
0.0341327
0.0340979
0.0339528
0.0337279
0.0334074
0.0332576
0.0330722
0.0329031
0.0300859
0.0299523
0.0297873
0.0296498
0.0122677
0.0124099
0.0123885
0.0122445
0.00172675
0.00172766
0.00172818
0.00172836
0.00179153
0.00179295
0.001793
0.00179164
0.0206087
0.0208323
0.0208731
0.0207207
0.0338497
0.0339732
0.033998
0.0339028
0.0351882
0.0353505
0.0353414
0.0351528
0.0336986
0.033798
0.0337383
0.0335241
0.0327084
0.032688
0.0325904
0.0324338
0.0319978
0.0318852
0.0317584
0.0316495
0.0291515
0.0290569
0.0289452
0.0288521
0.0126206
0.0127934
0.012792
0.0126482
0.00170203
0.0017027
0.00170304
0.0017031
0.00176841
0.00176952
0.00176954
0.00176844
0.0204097
0.0206207
0.0206561
0.020506
0.0334095
0.033549
0.0335797
0.0334823
0.0342824
0.0344609
0.0344626
0.0342792
0.0327472
0.032839
0.0328004
0.0326324
0.0318436
0.0318269
0.0317629
0.0316615
0.0312419
0.0311585
0.0310755
0.0310117
0.0288122
0.0287498
0.0286792
0.0286202
0.0131528
0.0133557
0.0133702
0.0132236
0.00167709
0.0016776
0.00167782
0.0016778
0.00174409
0.00174493
0.00174492
0.00174404
0.0202762
0.0204651
0.0204926
0.0203497
0.0329913
0.0331424
0.0331731
0.033067
0.0334477
0.0336218
0.0336262
0.0334526
0.0320284
0.0320995
0.0320732
0.0319481
0.0312981
0.0312795
0.0312376
0.0311764
0.0308338
0.030771
0.0307178
0.0306844
0.0287887
0.028749
0.0287067
0.0286721
0.0138173
0.0140497
0.0140776
0.0139261
0.00165153
0.00165193
0.00165207
0.00165199
0.00171847
0.00171907
0.00171905
0.00171836
0.0202337
0.0203889
0.0204062
0.0202772
0.0325495
0.0327065
0.0327331
0.0326156
0.0326656
0.0328174
0.03282
0.0326652
0.0314792
0.0315254
0.0315061
0.0314185
0.0309441
0.0309226
0.0308944
0.0308604
0.0306109
0.0305626
0.0305287
0.0305142
0.0289293
0.0289042
0.0288802
0.0288623
0.0146044
0.014867
0.0149065
0.0147475
0.00162501
0.00162533
0.00162541
0.00162531
0.00169145
0.00169186
0.00169182
0.0016913
0.0203283
0.0204378
0.0204432
0.0203364
0.0320652
0.0322176
0.0322373
0.0321127
0.0319617
0.0320786
0.0320775
0.0319506
0.0310713
0.0310952
0.0310799
0.0310222
0.0307136
0.0306906
0.0306709
0.0306533
0.0304906
0.0304531
0.0304313
0.0304275
0.029154
0.0291377
0.0291248
0.0291174
0.0155252
0.0158201
0.0158697
0.0156992
0.00159724
0.0015975
0.00159754
0.00159744
0.00166293
0.00166319
0.00166313
0.00166276
0.020633
0.0206866
0.0206793
0.0206036
0.0315578
0.0316904
0.0317016
0.0315823
0.0313776
0.0314561
0.0314514
0.031357
0.0307855
0.0307937
0.0307812
0.0307447
0.0305662
0.030544
0.0305293
0.0305203
0.0304283
0.0303994
0.0303849
0.0303858
0.0294164
0.0294044
0.0293976
0.029397
0.0166043
0.0169339
0.0169914
0.0168036
0.001568
0.00156819
0.00156821
0.00156812
0.00163287
0.00163299
0.00163293
0.00163269
0.0212531
0.0212452
0.0212256
0.0211884
0.0310897
0.0311885
0.0311918
0.0310935
0.030945
0.0309904
0.0309837
0.0309197
0.0306008
0.0306004
0.0305901
0.0305667
0.030474
0.0304538
0.0304422
0.0304371
0.0303964
0.0303739
0.0303636
0.0303659
0.0296865
0.0296746
0.0296703
0.0296744
0.0178777
0.0182439
0.0183071
0.0180981
0.00153715
0.00153729
0.00153729
0.00153723
0.00160133
0.00160133
0.00160128
0.00160116
0.0223329
0.022262
0.0222312
0.0222361
0.0307387
0.0307995
0.0307978
0.0307304
0.0306647
0.0306878
0.030681
0.0306409
0.0304902
0.0304861
0.0304777
0.0304617
0.0304165
0.0303974
0.0303876
0.030385
0.0303756
0.0303565
0.0303482
0.0303513
0.0299437
0.0299278
0.0299234
0.0299321
0.0195003
0.0199071
0.0199739
0.0197396
0.00150478
0.00150487
0.00150487
0.00150484
0.00156848
0.00156837
0.00156833
0.00156834
0.0240568
0.0239243
0.0238838
0.0239314
0.030539
0.0305691
0.0305667
0.0305297
0.0305028
0.030513
0.0305077
0.0304842
0.0304245
0.0304178
0.0304106
0.0304
0.0303802
0.0303607
0.0303517
0.0303523
0.0303557
0.030337
0.0303295
0.0303345
0.0301694
0.0301485
0.0301422
0.0301546
0.0216905
0.0221368
0.0222025
0.0219401
0.00147104
0.0014711
0.00147111
0.0014711
0.00153363
0.00153348
0.00153346
0.00153358
0.0266699
0.0264824
0.0264371
0.0265249
0.0304456
0.0304556
0.0304545
0.0304395
0.0304061
0.0304081
0.0304044
0.0303936
0.0303807
0.0303719
0.0303656
0.0303609
0.0303604
0.0303426
0.0303347
0.0303378
0.0303423
0.0303261
0.0303193
0.0303249
0.0303399
0.0303179
0.0303095
0.0303213
0.0249083
0.0253423
0.025393
0.0251295
0.00143539
0.00143547
0.00143547
0.00143544
0.00229001
0.00210366
0.00199613
0.00194683
0.00191733
0.00189814
0.00188579
0.00187832
0.0018737
0.00187079
0.00287456
0.00330358
0.00673674
0.0113006
0.0154152
0.0181148
0.0192113
0.0190096
0.0180244
0.0167107
0.00324767
0.00474397
0.00901719
0.0161829
0.0239578
0.0307043
0.0358848
0.0394931
0.0416005
0.0422977
0.00331159
0.00448754
0.00894883
0.0172717
0.0268812
0.0352376
0.0415248
0.0456013
0.0476217
0.047918
0.00327841
0.00409707
0.00856423
0.0179375
0.0293119
0.0387171
0.0450684
0.0483687
0.0492722
0.0486079
0.0033663
0.00396153
0.00862342
0.019113
0.0320377
0.041876
0.0476475
0.0498066
0.0496296
0.0482636
0.0034847
0.00392093
0.00887299
0.0204181
0.034475
0.0441226
0.0488627
0.0497772
0.0487131
0.0469599
0.00358524