/*--------------------------------*- C++ -*----------------------------------*\
| =========                 |                                                 |
| \\      /  F ield         | foam-extend: Open Source CFD                    |
|  \\    /   O peration     | Version:     4.0                                |
|   \\  /    A nd           | Web:         http://www.foam-extend.org         |
|    \\/     M anipulation  |                                                 |
\*---------------------------------------------------------------------------*/
FoamFile
{
    version     2.0;
    format      ascii;
    class       volScalarField;
    location    "300";
    object      divFlux;
}
// * * * * * * * * * * * * * * * * * * * * * * * * * * * * * * * * * * * * * //

dimensions      [1 -3 -1 0 0 0 0];

internalField   nonuniform List<scalar> 
34480
(
0.000774149
0.000276451
0.000286936
0.000272602
0.000253116
0.000238889
0.000226539
0.000217338
10.3854
0.000202027
0.000202885
0.000168827
0.000120412
0.000122467
0.000105876
0.000104673
0.000105202
0.000106129
6.61238
0.000104118
7.46403e-05
0.000145152
4.05503e-05
6.44953e-05
4.46449e-05
4.3353e-05
4.46568e-05
4.74202e-05
2.86174
3.78796e-05
3.02284e-05
2.68325e-05
3.59368e-06
2.26584e-05
1.15315e-05
1.45526e-05
1.51735e-05
1.58216e-05
0.67678
1.80805e-05
4.07371e-05
1.60265e-05
1.26033e-06
4.30944e-06
2.83167e-06
5.43934e-06
4.95631e-06
4.34704e-06
8.09045e-06
8.42807e-06
1.79801e-05
1.23486e-05
1.25963e-06
1.75402e-06
1.73082e-06
2.41502e-06
1.39737e-06
4.80301e-07
3.16331e-06
3.34733e-06
3.3567e-06
5.93136e-06
1.48083e-06
2.87557e-06
2.08992e-06
1.41887e-06
1.47793e-07
8.20267e-07
1.04661e-06
1.15831e-06
1.07494e-05
6.73086e-08
3.81689e-06
3.23127e-06
1.81614e-06
6.47427e-07
5.03967e-07
1.1108e-06
1.1409e-08
8.78356e-08
1.00797e-05
2.24756e-06
3.75514e-06
2.50278e-06
1.07013e-06
1.37041e-08
8.19541e-07
1.01152e-06
2.32554e-07
2.4984e-07
7.43135e-06
2.59093e-06
2.69624e-06
1.48649e-06
4.67968e-07
2.5403e-07
6.4231e-07
5.47693e-07
5.19286e-08
4.39102e-08
0.00110296
0.000373617
0.000386589
0.000356108
0.00033162
0.000313339
0.000301492
0.000299061
0.000309212
0.692402
0.000372473
0.000148764
0.000185965
0.000173877
0.000167129
0.000165174
0.000166422
0.00016979
0.00016677
0.76253
7.89116e-05
2.30915e-05
5.77338e-05
5.84628e-05
6.01026e-05
6.6274e-05
7.5504e-05
8.39112e-05
7.01125e-05
0.35229
4.85743e-05
1.19152e-05
3.78439e-05
3.19736e-05
3.26788e-05
3.23915e-05
3.51527e-05
4.68359e-05
3.59312e-05
5.08827e-06
4.87319e-06
1.17705e-05
1.84506e-05
1.68617e-05
1.8202e-05
1.53327e-05
1.27408e-05
2.18732e-05
2.11996e-05
1.2911e-05
2.27397e-05
6.86556e-06
9.02742e-06
9.34423e-06
1.00467e-05
7.14189e-06
2.50577e-06
8.13447e-06
1.01502e-05
1.24926e-05
1.13646e-05
1.54609e-05
1.31679e-05
1.04383e-05
7.88788e-06
3.86093e-06
1.99298e-06
1.02939e-06
3.6958e-06
1.23115e-05
7.74488e-06
2.14633e-05
1.54501e-05
1.03423e-05
5.62739e-06
1.24493e-06
4.22809e-06
3.01809e-06
1.14113e-06
8.27448e-06
1.2175e-05
1.86279e-05
1.21622e-05
6.65311e-06
1.89007e-06
1.56967e-06
4.98059e-06
3.86455e-06
2.17278e-06
2.28654e-06
1.31466e-05
1.14638e-05
6.26356e-06
2.37905e-06
1.03812e-06
2.47429e-06
3.1463e-06
1.61702e-06
3.62819e-06
5.67515e-07
0.000950578
0.000270948
0.0002814
0.000268308
0.000256233
0.000245947
0.000237991
0.000231239
0.000227041
0.0855603
0.000236528
0.000110675
0.000125832
0.000113723
0.00010851
0.000106921
0.000108188
0.000112278
0.000119759
0.000136943
7.63408e-05
1.49609e-06
3.53333e-05
3.17553e-05
3.03839e-05
3.38666e-05
4.03731e-05
4.55026e-05
5.09474e-05
8.83683e-05
2.00156e-05
2.91985e-05
2.55285e-06
6.17376e-06
7.59758e-06
1.1059e-05
1.68696e-05
2.24205e-05
2.28581e-05
4.73546e-05
3.04883e-05
8.9101e-06
2.48226e-06
4.76266e-06
5.61831e-06
6.83205e-06
9.05344e-06
1.27408e-05
1.19629e-05
1.94862e-05
2.76909e-05
7.97802e-07
1.28372e-06
3.87729e-06
4.82329e-06
4.99317e-06
5.52576e-06
7.35573e-06
6.64807e-06
1.01669e-05
1.42209e-05
4.09369e-06
4.71635e-06
9.84935e-07
1.14667e-06
2.00393e-06
2.81133e-06
4.30158e-06
3.91119e-06
7.24275e-06
6.03478e-06
1.03965e-05
8.93851e-06
4.36426e-06
1.3457e-06
3.75112e-07
1.65472e-06
3.22894e-06
3.4398e-06
6.30493e-06
1.02231e-05
1.07924e-05
8.46524e-06
4.12763e-06
1.13308e-06
7.83933e-07
1.92407e-06
3.10924e-06
3.29287e-06
4.56352e-06
1.15502e-05
9.06713e-06
6.1477e-06
2.71039e-06
1.34963e-07
1.44539e-06
2.18875e-06
2.81245e-06
2.62515e-06
2.82142e-06
0.000982066
0.000245435
0.000250662
0.000240383
0.000230153
0.000222949
0.000220942
0.000222192
0.000214909
0.000204952
0.000363046
0.000154076
0.000132885
0.00011715
0.000108398
0.000102858
0.000100438
0.000102921
0.000110868
0.000132923
0.000163089
0.000104202
8.86028e-05
6.77065e-05
5.61159e-05
5.03065e-05
4.91214e-05
5.21682e-05
6.07418e-05
6.88752e-05
7.30353e-05
5.22021e-05
4.09485e-05
2.70328e-05
2.03491e-05
1.80238e-05
1.99161e-05
2.45089e-05
3.14844e-05
0.0341674
2.70954e-05
1.72647e-05
1.36984e-05
8.33515e-06
5.98935e-06
5.47217e-06
7.6341e-06
1.24569e-05
1.79141e-05
3.20027e-05
2.9364e-05
9.71848e-06
7.14921e-06
4.34517e-06
2.86092e-06
2.45074e-06
4.03369e-06
7.61819e-06
1.12948e-05
2.07687e-05
1.70143e-05
3.63577e-07
1.0612e-06
8.72643e-07
4.04111e-07
5.56062e-07
2.87598e-06
5.92845e-06
8.25254e-06
1.47164e-05
3.99462e-06
5.06184e-06
4.34563e-06
2.65133e-06
1.10778e-06
6.92981e-07
3.37608e-06
5.90641e-06
7.20973e-06
1.10539e-05
1.31569e-06
5.51949e-06
4.01901e-06
1.67768e-06
1.6669e-07
2.12876e-06
4.34563e-06
5.72369e-06
5.78142e-06
8.54409e-06
2.72323e-06
2.71091e-06
1.38023e-06
1.67739e-07
1.60395e-06
2.94114e-06
3.98472e-06
3.93195e-06
3.1509e-06
5.06327e-06
0.000978626
0.000224519
0.000239403
0.000229145
0.000216109
0.000205748
0.000202092
0.000209611
0.000227858
0.00024653
0.000305927
0.000120667
0.00011892
0.000114257
0.000108737
0.000103543
0.000100179
9.93844e-05
9.79964e-05
8.74441e-05
7.09602e-05
4.52882e-05
4.2234e-05
4.1085e-05
4.0748e-05
4.08502e-05
4.25122e-05
4.61074e-05
4.57536e-05
1.95163e-05
7.54572e-05
4.90668e-05
3.70398e-05
2.87878e-05
2.39971e-05
2.17905e-05
2.29805e-05
2.63448e-05
2.83956e-05
0.0689431
4.31696e-05
2.90074e-05
2.09747e-05
1.47722e-05
1.11686e-05
9.7069e-06
1.12224e-05
1.47802e-05
1.75993e-05
0.0463211
2.2323e-05
1.39528e-05
1.01771e-05
6.42325e-06
4.40478e-06
4.13969e-06
5.98149e-06
8.86906e-06
1.05396e-05
0.00244742
1.28819e-05
6.00173e-06
4.45549e-06
2.55737e-06
1.92089e-06
2.78472e-06
5.10562e-06
7.29435e-06
7.84844e-06
0.00301353
1.05356e-05
4.33559e-06
3.4473e-06
2.39359e-06
2.3774e-06
3.60619e-06
5.75616e-06
6.89717e-06
6.22777e-06
4.3628e-06
6.74586e-06
3.19545e-06
3.16661e-06
3.06594e-06
3.44779e-06
4.63788e-06
5.97934e-06
5.67153e-06
4.06772e-06
4.83723e-06
4.73966e-06
3.71415e-06
3.67875e-06
3.32604e-06
3.43955e-06
3.82052e-06
3.88089e-06
2.52064e-06
1.13681e-06
3.50211e-06
0.000891826
0.000187484
0.000206138
0.00020029
0.000191444
0.000183574
0.000178087
0.0001776
0.000189813
0.000224336
0.000278477
8.86081e-05
9.47072e-05
9.35655e-05
9.12746e-05
8.95509e-05
8.94388e-05
8.83154e-05
8.13213e-05
5.36225e-05
9.42274e-05
3.495e-05
3.21255e-05
3.17178e-05
3.19896e-05
3.29819e-05
3.49873e-05
3.4894e-05
2.74704e-05
1.48534e-05
4.73884e-06
1.92779e-06
6.67774e-06
1.04282e-05
1.26461e-05
1.46396e-05
1.74492e-05
1.82943e-05
1.09001e-05
0.0283426
6.5396e-06
6.37577e-06
6.80834e-06
7.15881e-06
7.27427e-06
7.84199e-06
9.44007e-06
9.79784e-06
4.57676e-06
0.0511008
3.80208e-06
1.10675e-06
2.22985e-06
2.58413e-06
2.99942e-06
3.98297e-06
5.51901e-06
5.74815e-06
2.04096e-06
0.0212574
5.60988e-06
9.92228e-08
1.62214e-06
1.94822e-06
2.50097e-06
3.71126e-06
5.06418e-06
4.80465e-06
1.63727e-06
0.0312145
3.87269e-06
2.49545e-07
2.02646e-06
2.45483e-06
3.05973e-06
4.1481e-06
4.94217e-06
3.84196e-06
7.60152e-07
0.0946604
2.30975e-06
8.10348e-07
2.35703e-06
2.82264e-06
3.27324e-06
3.95804e-06
3.83087e-06
1.79061e-06
7.46548e-07
0.0889847
9.00121e-07
6.16281e-07
1.44858e-06
1.47689e-06
1.66589e-06
1.67692e-06
8.11536e-07
9.81845e-07
1.90871e-06
0.186827
0.000869594
0.000166865
0.000179117
0.000171598
0.000163557
0.000157509
0.000152227
0.000144726
0.000133389
0.000132281
0.000294214
9.46582e-05
9.59583e-05
8.97096e-05
8.41153e-05
8.02476e-05
7.81606e-05
7.55145e-05
7.34099e-05
6.64573e-05
8.69421e-05
4.19545e-05
4.32667e-05
4.11949e-05
3.87428e-05
3.6764e-05
3.45071e-05
2.78547e-05
2.26738e-05
3.21333e-05
4.00696e-05
1.56361e-05
1.49364e-05
1.48225e-05
1.47281e-05
1.48192e-05
1.42725e-05
9.85371e-06
3.64157e-06
1.11863e-05
4.70048e-06
3.04394e-06
4.45152e-06
5.69967e-06
6.36462e-06
6.78534e-06
6.47956e-06
3.27953e-06
1.95932e-06
0.0245447
6.47309e-07
1.23823e-06
1.9193e-06
2.73631e-06
3.41972e-06
3.98611e-06
3.77683e-06
1.37147e-06
2.4399e-06
0.0376613
3.59936e-06
3.32981e-07
6.7914e-07
1.56491e-06
2.40504e-06
3.08362e-06
2.75826e-06
5.51245e-07
2.54046e-06
0.00701027
5.43209e-06
1.76666e-06
2.27639e-07
8.24994e-07
1.70166e-06
2.23471e-06
1.52755e-06
7.5567e-07
3.00736e-06
0.0689728
2.76319e-06
8.39015e-07
3.62966e-09
5.37028e-07
9.4656e-07
1.0031e-06
2.69858e-07
2.52038e-06
3.49764e-06
0.0945553
6.25749e-08
6.57526e-07
5.86348e-07
5.38905e-07
3.32546e-07
5.9808e-07
1.83808e-06
2.79562e-06
2.27754e-06
0.158149
0.000810103
0.00014105
0.00015607
0.000150916
0.000145009
0.000141737
0.000140802
0.000140727
0.000138244
0.000138997
0.000232789
7.5961e-05
8.09487e-05
7.79717e-05
7.43697e-05
7.05598e-05
6.5987e-05
6.17826e-05
6.11388e-05
6.80671e-05
7.63067e-05
3.03446e-05
3.24479e-05
3.21385e-05
3.14419e-05
3.03103e-05
2.76245e-05
2.4917e-05
2.73642e-05
3.46716e-05
4.51871e-05
2.17888e-05
2.08739e-05
1.91894e-05
1.74746e-05
1.55911e-05
1.24106e-05
9.14959e-06
1.33314e-05
2.79245e-05
2.13837e-05
1.00631e-05
9.50226e-06
9.11746e-06
8.52915e-06
7.49746e-06
5.31642e-06
2.89859e-06
5.7349e-06
1.49368e-05
1.18533e-05
6.00292e-06
5.3751e-06
5.14168e-06
4.87849e-06
4.18145e-06
2.47758e-06
5.19945e-07
2.04404e-06
0.0314633
7.66474e-06
3.92094e-06
3.11586e-06
2.90721e-06
2.80566e-06
2.26297e-06
7.02042e-07
1.05534e-06
2.38006e-07
0.0106099
7.47191e-06
3.46916e-06
2.30495e-06
1.83376e-06
1.55858e-06
8.55694e-07
8.00926e-07
2.30391e-06
1.34429e-06
0.0177326
6.6254e-06
2.94383e-06
1.61432e-06
9.61738e-07
5.11037e-07
3.23204e-07
1.92877e-06
2.76864e-06
1.37117e-06
0.0368876
4.80056e-06
2.05989e-06
1.22362e-06
7.5409e-07
4.67809e-07
2.28933e-07
1.21752e-06
8.52427e-07
3.02662e-07
0.0733574
0.000741776
0.000102581
0.000124995
0.000121456
0.000114871
0.0001113
0.000110583
0.000113808
0.000121253
0.000136633
0.00023249
6.42835e-05
6.71472e-05
6.37332e-05
6.10696e-05
5.8857e-05
5.61517e-05
5.46449e-05
5.04764e-05
4.07876e-05
8.24637e-05
3.17486e-05
3.09295e-05
2.87681e-05
2.7001e-05
2.53773e-05
2.39824e-05
2.78874e-05
2.9851e-05
2.04783e-05
1.65214e-05
9.86567e-06
1.21999e-05
1.28855e-05
1.27187e-05
1.17905e-05
1.05153e-05
1.28848e-05
1.74067e-05
1.45771e-05
1.24747e-05
6.62334e-06
7.10409e-06
7.07754e-06
6.63314e-06
5.6031e-06
4.43153e-06
6.08228e-06
1.12365e-05
1.06306e-05
4.52645e-06
2.80843e-06
3.34434e-06
3.47374e-06
3.23524e-06
2.42085e-06
1.47755e-06
2.51791e-06
6.31396e-06
6.41367e-06
3.85996e-06
2.47653e-06
2.38869e-06
2.16854e-06
1.76021e-06
8.85262e-07
1.02181e-07
4.15481e-07
3.30673e-06
5.44348e-06
4.30812e-06
2.54149e-06
1.96802e-06
1.47513e-06
9.14999e-07
2.61216e-08
9.88686e-07
5.01346e-07
1.90737e-06
0.0146266
1.9655e-06
1.26637e-06
9.72347e-07
7.45868e-07
4.04674e-07
3.19492e-07
8.81077e-07
8.76685e-08
1.76111e-06
0.000512447
2.61251e-11
2.77915e-07
4.23177e-07
4.8895e-07
4.11718e-07
5.114e-08
1.86839e-07
1.36189e-06
1.67092e-06
0.0102022
0.000734482
4.54926e-05
9.70262e-05
0.000100625
9.05962e-05
8.47651e-05
8.15877e-05
7.94998e-05
7.78469e-05
7.85972e-05
0.000211523
5.42302e-05
6.01602e-05
5.63659e-05
5.33739e-05
5.212e-05
5.2045e-05
5.29796e-05
5.29833e-05
3.92723e-05
5.83927e-05
2.38296e-05
2.52618e-05
2.44519e-05
2.3471e-05
2.24689e-05
2.2508e-05
2.40996e-05
2.3592e-05
1.04576e-05
3.92361e-05
1.46955e-05
1.33062e-05
1.20427e-05
1.11462e-05
1.05088e-05
1.14091e-05
1.3924e-05
1.23106e-05
3.99984e-07
1.20014e-05
6.18838e-06
6.0662e-06
5.61683e-06
5.1129e-06
4.60957e-06
5.29474e-06
7.42522e-06
6.88697e-06
1.12347e-06
7.2766e-06
3.53232e-06
3.16156e-06
2.70725e-06
2.24579e-06
1.77473e-06
2.27599e-06
4.0024e-06
4.31586e-06
5.5352e-07
2.93904e-06
1.55995e-06
1.4124e-06
1.15879e-06
7.96411e-07
3.80227e-07
7.44137e-07
2.088e-06
2.84779e-06
6.40405e-07
1.00188e-06
4.06192e-07
2.0268e-07
9.9059e-08
1.8063e-07
3.69244e-07
1.27334e-07
1.44925e-06
2.08699e-06
0.013975
1.21287e-06
8.35497e-07
6.30289e-07
3.67818e-07
2.80594e-07
2.68303e-07
5.33669e-07
1.84978e-06
1.80619e-06
3.08739e-09
3.08778e-07
5.09433e-07
6.07803e-07
5.01315e-07
4.51773e-07
2.33748e-07
8.00464e-07
1.43432e-06
9.6384e-07
0.0112177
0.00114864
6.54491e-05
8.31794e-05
0.00012431
0.000109295
9.84172e-05
9.70443e-05
9.77806e-05
9.64898e-05
9.04066e-05
0.000178075
3.11261e-05
4.74223e-05
4.55064e-05
4.19556e-05
4.0699e-05
4.07474e-05
3.94968e-05
4.11624e-05
3.88665e-05
7.18948e-05
2.33482e-05
2.32391e-05
2.14847e-05
2.0407e-05
1.98754e-05
1.98291e-05
1.57796e-05
1.54073e-05
1.33907e-05
2.11679e-05
1.03097e-05
1.07886e-05
1.03829e-05
9.99318e-06
9.96362e-06
1.08419e-05
9.36976e-06
7.48458e-06
4.93881e-06
1.40839e-05
6.18438e-06
5.78563e-06
5.35726e-06
5.11491e-06
5.29235e-06
6.22125e-06
5.44518e-06
2.48103e-06
1.37946e-06
6.73489e-06
3.42536e-06
3.15968e-06
2.83837e-06
2.60067e-06
2.7126e-06
3.46838e-06
3.16181e-06
1.22055e-06
9.78825e-07
4.14604e-06
1.69491e-06
1.3907e-06
1.18095e-06
1.00777e-06
1.16804e-06
1.93622e-06
2.08421e-06
9.24864e-07
6.55374e-07
3.53159e-06
1.3497e-06
7.62333e-07
4.97863e-07
3.6354e-07
6.10207e-07
1.46593e-06
1.81143e-06
6.52993e-07
1.04663e-06
3.14038e-06
1.35168e-06
8.10483e-07
5.50999e-07
3.69448e-07
6.32828e-07
1.55721e-06
1.65737e-06
6.55841e-07
1.929e-07
1.97518e-06
1.2932e-06
1.00694e-06
8.09854e-07
6.59373e-07
1.05677e-06
1.68761e-06
1.05858e-06
6.70878e-07
4.85719e-07
0.00197131
0.000639281
0.000207055
4.69073e-06
8.99213e-06
2.04847e-05
2.80781e-05
1.32608e-05
1.48394e-05
5.0273e-05
0.000209599
2.25956e-06
3.71295e-05
4.00823e-05
3.32818e-05
2.89657e-05
2.74227e-05
2.60426e-05
2.29096e-05
2.20546e-05
4.47405e-05
1.47155e-05
1.75931e-05
1.68861e-05
1.6141e-05
1.5853e-05
1.51946e-05
1.31005e-05
1.10963e-05
1.61376e-05
2.55725e-05
8.93487e-06
8.9387e-06
8.57534e-06
8.36994e-06
8.35405e-06
7.42675e-06
5.38417e-06
4.64275e-06
7.77167e-06
8.96381e-06
4.26263e-06
4.38854e-06
4.41643e-06
4.55294e-06
4.95193e-06
4.61741e-06
3.22874e-06
2.48045e-06
3.9187e-06
4.9654e-06
2.18461e-06
2.20342e-06
2.26374e-06
2.41803e-06
2.8288e-06
2.71987e-06
1.76413e-06
9.47546e-07
1.60251e-06
2.59948e-06
1.42492e-06
1.32928e-06
1.27281e-06
1.32565e-06
1.69254e-06
1.76632e-06
1.23094e-06
2.26931e-07
7.23141e-07
9.80716e-07
1.18908e-06
1.18551e-06
1.10626e-06
1.1106e-06
1.43942e-06
1.55955e-06
1.0731e-06
4.10693e-11
7.06956e-07
4.18846e-07
5.88131e-07
8.55511e-07
9.3358e-07
9.9735e-07
1.40241e-06
1.54223e-06
8.14983e-07
2.11656e-07
1.15443e-06
1.91973e-07
2.77303e-07
4.74642e-07
5.66175e-07
7.95855e-07
1.27792e-06
8.97929e-07
1.14361e-07
2.62022e-07
8.27789e-07
0.0104656
0.00166381
0.000515856
0.000263492
0.000428031
0.000340419
0.000204428
9.21497e-05
1.47104e-05
3.22966e-05
0.000264944
9.5291e-05
1.09349e-05
4.37189e-05
3.96674e-05
2.9772e-05
2.35387e-05
2.35722e-05
2.31201e-05
2.3589e-05
4.39375e-05
8.85264e-06
1.48122e-05
1.49954e-05
1.36868e-05
1.24053e-05
1.1002e-05
1.31528e-05
1.05081e-05
8.45995e-06
1.69121e-05
6.54813e-06
7.30835e-06
7.22812e-06
7.00971e-06
6.65007e-06
5.20859e-06
5.81241e-06
5.57145e-06
5.74246e-06
8.87702e-06
3.72354e-06
3.79017e-06
3.77035e-06
3.75137e-06
3.59839e-06
2.55231e-06
2.79617e-06
3.59052e-06
2.4043e-06
3.62436e-06
1.82376e-06
1.93654e-06
2.03342e-06
2.14168e-06
2.11541e-06
1.44462e-06
1.63103e-06
2.26832e-06
1.13306e-06
1.1733e-06
8.84894e-07
1.03717e-06
1.18291e-06
1.36101e-06
1.40547e-06
9.6469e-07
1.06801e-06
1.2669e-06
8.14766e-07
5.30234e-07
7.5519e-08
3.96399e-07
6.18431e-07
8.49589e-07
9.62734e-07
6.65526e-07
7.21134e-07
1.06962e-06
1.47395e-06
9.79059e-07
1.88624e-07
1.69361e-07
2.77027e-07
5.08638e-07
6.97661e-07
3.90142e-07
3.44657e-07
5.11952e-07
5.96614e-07
8.27136e-07
2.48071e-07
1.19375e-07
3.56819e-08
1.85155e-07
4.34133e-08
5.73885e-07
1.4206e-08
3.64964e-07
1.12642e-06
0.026302
0.00636685
0.00407814
0.00166732
0.000366365
0.000202458
0.000398247
0.000430623
0.000406311
0.000378082
0.000608982
0.000317633
9.56998e-05
1.7538e-05
4.7664e-05
4.43356e-05
3.13335e-05
1.85814e-05
7.9556e-06
8.45453e-06
4.00947e-05
4.52474e-06
7.06671e-06
1.11383e-05
1.16139e-05
1.09112e-05
1.00059e-05
1.09902e-05
1.2649e-05
6.87121e-06
1.61083e-05
4.717e-06
5.74525e-06
5.7789e-06
5.55976e-06
5.26298e-06
5.05821e-06
5.57733e-06
6.48602e-06
4.17259e-06
7.03992e-06
3.04046e-06
3.22379e-06
3.13323e-06
2.88652e-06
2.4757e-06
2.27102e-06
2.66655e-06
3.77334e-06
2.74608e-06
4.1081e-06
1.84539e-06
1.83157e-06
1.79371e-06
1.65817e-06
1.3502e-06
1.30494e-06
1.62704e-06
2.38693e-06
1.84793e-06
2.47864e-06
1.21771e-06
1.12233e-06
1.06656e-06
9.94297e-07
7.79505e-07
8.22767e-07
1.10249e-06
1.92705e-06
2.13779e-06
2.47445e-06
9.12969e-07
7.21857e-07
5.84871e-07
4.96281e-07
3.48435e-07
4.41906e-07
7.52895e-07
1.45986e-06
1.4173e-06
1.4179e-06
8.10144e-07
6.96421e-07
4.78365e-07
3.43637e-07
8.2247e-08
4.05427e-08
3.49267e-07
8.03594e-07
4.169e-07
6.74956e-07
4.95689e-07
6.72518e-07
6.17933e-07
5.10641e-07
8.84367e-09
2.04395e-07
6.0418e-07
1.133e-06
1.90026e-06
0.119186
0.00977963
0.00792444
0.00515182
0.00318677
0.00193268
0.00114641
0.000642757
0.000297186
2.5633e-05
0.00132162
0.000755632
0.000387132
0.0001481
2.99208e-05
2.06433e-05
3.78744e-05
3.97803e-05
3.88882e-05
3.3617e-05
4.7095e-05
2.12994e-05
5.87444e-06
1.51395e-06
4.33451e-06
4.89235e-06
4.17428e-06
1.55731e-06
2.14839e-06
1.33505e-06
1.35532e-05
2.27181e-06
3.59427e-06
3.79907e-06
3.76439e-06
3.83239e-06
4.03163e-06
3.35139e-06
3.78176e-06
3.38795e-06
5.78938e-06
2.14726e-06
2.30041e-06
2.1793e-06
1.95441e-06
1.85262e-06
1.70846e-06
1.17522e-06
1.11135e-06
2.14457e-06
2.90106e-06
1.36142e-06
1.31256e-06
1.2004e-06
9.86258e-07
8.73248e-07
6.40939e-07
2.71285e-07
1.5015e-07
1.33767e-06
1.07721e-06
6.8145e-07
7.23684e-07
6.58023e-07
4.8311e-07
3.25703e-07
1.85142e-09
2.29484e-07
2.84513e-07
7.22868e-07
8.74599e-07
3.96194e-07
4.94917e-07
4.69923e-07
3.17747e-07
4.28282e-08
3.69682e-07
5.10012e-07
6.72317e-07
3.87644e-07
7.27152e-07
2.34268e-07
3.39914e-07
3.94132e-07
2.98025e-07
1.80771e-07
5.26594e-07
3.80394e-07
1.69402e-07
7.17891e-07
4.51987e-07
9.96603e-08
1.46679e-07
6.59499e-08
1.31157e-07
5.38845e-07
4.88128e-07
1.10968e-06
1.52016e-06
2.40589e-06
0.221552
0.0016703
0.000993258
0.000502237
0.000241686
0.000124161
8.47547e-05
8.76206e-05
0.000115639
0.000159351
0.000119331
0.00115521
0.000744588
0.000447038
0.000254925
0.000131515
4.70745e-05
1.99461e-05
8.69807e-05
0.000171196
4.67931e-05
2.61167e-05
1.20034e-05
4.55769e-06
1.03829e-06
9.70213e-08
8.2781e-07
3.66459e-06
9.21719e-06
1.08698e-05
1.23825e-05
4.56363e-07
1.84447e-06
2.19122e-06
2.30403e-06
2.69532e-06
2.54441e-06
2.9156e-06
2.24922e-06
2.29051e-06
4.51063e-06
1.30091e-06
1.49648e-06
1.45291e-06
1.33359e-06
1.81886e-06
1.49527e-06
1.6893e-06
9.51776e-07
4.55806e-07
1.80028e-06
7.73843e-07
8.3544e-07
8.19394e-07
6.41275e-07
1.17132e-06
7.97347e-07
1.00741e-06
6.54139e-07
2.52952e-07
1.35972e-06
4.10075e-07
4.43135e-07
4.63243e-07
3.31465e-07
8.58595e-07
4.47207e-07
6.39021e-07
2.91623e-07
5.18383e-07
1.11442e-06
2.99898e-07
1.95254e-07
2.27661e-07
2.12968e-07
6.56481e-07
2.74117e-07
4.13483e-07
4.08361e-07
2.06808e-08
1.63222e-07
7.08426e-08
1.67033e-08
5.99534e-10
7.59038e-08
4.73088e-07
3.07923e-07
6.22539e-08
1.88323e-07
5.60394e-07
9.18544e-07
5.56577e-07
2.62606e-07
1.08087e-07
8.80467e-08
8.62855e-07
1.24172e-06
1.6181e-06
1.57398e-06
1.40754e-06
0.0112472
0.0024013
0.00145014
0.000810669
0.00040913
0.000155854
1.77827e-05
0.00016127
0.000314365
0.000508794
0.000263976
0.000183372
0.000131899
9.72322e-05
7.90679e-05
7.44088e-05
8.13239e-05
9.86582e-05
0.000128305
0.000155241
4.21511e-05
6.74123e-06
5.754e-07
3.01892e-06
5.75263e-06
8.12055e-06
1.01592e-05
1.33063e-05
1.53814e-05
1.37572e-05
1.16214e-05
6.41479e-08
1.19273e-06
1.4487e-06
1.63054e-06
1.83955e-06
1.34719e-06
1.49548e-06
1.44103e-06
2.99235e-08
3.69528e-06
7.70885e-07
1.02235e-06
1.02676e-06
1.05601e-06
1.36387e-06
1.06322e-06
1.1615e-06
1.5017e-06
3.96323e-07
1.61895e-06
6.31493e-07
6.74908e-07
7.34434e-07
7.19071e-07
1.01125e-06
7.37339e-07
7.61684e-07
1.12246e-06
1.43178e-07
9.04317e-07
4.69317e-07
4.0568e-07
5.276e-07
5.31782e-07
8.00477e-07
5.87371e-07
5.43204e-07
1.02218e-06
3.49912e-07
1.47758e-07
3.1109e-07
2.67304e-07
4.14914e-07
4.12633e-07
6.60604e-07
5.90812e-07
3.27115e-07
6.43737e-07
2.84268e-07
5.34741e-07
3.90714e-07
3.47863e-07
4.35846e-07
3.49561e-07
6.1876e-07
9.47517e-07
8.04227e-07
9.10771e-07
1.94089e-07
5.47541e-07
7.3665e-09
2.78632e-07
5.09964e-07
2.49451e-07
1.32526e-07
2.15791e-07
2.55249e-07
1.9741e-07
7.62405e-07
0.0115709
0.00066617
0.000574752
0.000437392
0.000332811
0.000266335
0.000232541
0.000225767
0.00024148
0.000272028
0.000274838
5.04075e-05
5.01375e-05
4.81012e-05
4.6116e-05
4.52383e-05
4.56666e-05
4.72782e-05
4.89985e-05
3.97252e-05
3.28307e-05
4.00197e-06
1.7377e-06
1.20383e-06
1.11221e-06
1.25718e-06
1.62753e-06
2.05702e-06
1.26966e-06
8.45282e-07
1.03548e-05
1.36455e-07
7.85947e-07
7.46946e-07
8.69981e-07
9.87659e-07
1.01869e-06
5.49565e-07
9.16681e-07
1.08842e-06
2.70543e-06
3.98468e-07
6.66512e-07
3.07646e-07
3.15798e-07
3.50421e-07
4.44584e-07
5.12286e-08
2.48702e-07
7.94628e-07
9.11987e-07
3.474e-07
4.02638e-07
1.20782e-08
1.45302e-08
2.28971e-08
1.24427e-07
1.66526e-07
1.26299e-07
6.14257e-07
4.90844e-07
2.35091e-07
2.24811e-07
1.94281e-07
1.68686e-07
1.96049e-07
6.81576e-08
3.76487e-07
4.22671e-07
3.59684e-07
0.00497925
0.0119019
0.00878205
0.0088176
0.00982953
0.0121187
0.0163964
0.0161803
0.0349246
1.833e-07
4.48779e-07
6.95259e-09
3.99683e-08
3.42725e-07
3.11312e-07
2.90527e-07
2.64921e-07
2.73199e-07
3.37857e-07
4.66256e-07
9.02757e-07
4.74401e-08
3.22924e-07
5.70683e-07
4.51901e-07
5.06896e-07
4.04549e-07
7.6727e-07
1.38549e-06
2.00384e-06
0.0127188
0.000180661
0.000153447
0.000123275
9.91509e-05
8.13938e-05
6.84465e-05
5.80344e-05
4.72803e-05
3.15507e-05
1.33454e-05
7.61004e-05
5.56515e-05
3.89071e-05
2.65466e-05
1.71955e-05
9.47442e-06
2.27475e-06
6.52887e-06
1.75419e-05
2.95555e-05
2.15515e-06
1.76979e-07
5.26747e-07
7.26102e-07
6.2961e-07
3.9717e-07
3.84331e-07
1.42067e-06
1.40076e-06
7.9252e-06
2.99832e-07
4.91272e-07
5.39297e-07
6.12807e-07
6.41691e-07
8.04668e-07
8.16127e-07
4.29837e-07
7.32271e-07
1.65817e-06
4.89705e-08
5.95057e-07
4.62633e-07
4.76952e-07
4.49607e-07
5.06305e-07
6.18126e-07
1.45275e-07
2.6734e-07
4.502e-07
5.95607e-08
5.78388e-07
3.98011e-07
4.11226e-07
3.89848e-07
3.99752e-07
5.73259e-07
1.67839e-07
1.45169e-07
2.95466e-08
6.48951e-08
5.18942e-07
3.57649e-07
3.72243e-07
3.63303e-07
3.34483e-07
5.20365e-07
2.10539e-07
1.05401e-07
0.0101628
0.0129565
0.00896233
0.00739829
0.00736502
0.00887353
0.0124743
0.0161621
0.0369377
0.0083783
2.43321e-07
1.92456e-07
5.31979e-07
2.78967e-07
2.1496e-07
2.1319e-07
2.70745e-08
2.13381e-07
1.04915e-07
4.58204e-07
6.84101e-07
2.833e-08
6.4547e-07
7.68606e-07
8.10028e-07
7.80445e-07
7.9133e-07
1.22138e-06
1.60275e-06
1.80418e-06
0.348894
0.354414
0.358367
0.358255
0.357937
0.357526
0.357187
0.357152
0.340756
0.362271
6.53348e-05
4.75478e-06
3.83979e-06
2.43783e-06
8.43061e-07
9.13351e-07
2.90025e-06
5.33125e-06
8.52946e-06
1.05953e-05
0.00903064
0.00422202
0.0014441
2.31926e-07
4.39854e-07
6.07782e-07
0.000276422
0.003856
0.0155084
0.0243316
2.54734e-06
2.08506e-07
6.69153e-09
2.16974e-08
4.23829e-08
2.86275e-08
3.89655e-08
1.49848e-07
4.15524e-08
2.54421e-07
5.8117e-07
1.09091e-07
9.15568e-09
2.59452e-08
1.7035e-08
2.01278e-09
1.03822e-07
8.17466e-08
1.28826e-07
2.79236e-07
1.92319e-07
1.48025e-07
6.42759e-08
8.51523e-08
8.7028e-08
5.60857e-08
1.55814e-07
5.2277e-08
1.39992e-07
3.72926e-07
4.87031e-07
1.28141e-07
1.0121e-07
1.31514e-07
1.41123e-07
9.88679e-08
1.83175e-07
1.27123e-07
1.30458e-07
4.51651e-07
2.04491e-07
1.31169e-07
1.24858e-07
1.72842e-07
1.8322e-07
1.52063e-07
2.25431e-07
2.52625e-07
0.0043828
0.01007
6.82327e-07
2.44623e-07
1.57004e-07
1.21869e-07
9.55957e-08
1.03739e-07
6.90414e-08
2.7023e-07
1.75207e-07
3.98815e-07
0.438206
0.442122
0.44255
0.443675
0.444023
0.443703
0.442856
0.440238
0.443023
0.411807
197.957
130.135
151.152
244.746
170.038
133.765
152.558
225.892
106.443
89.2644
110.562
169.198
44.2341
37.426
53.1642
87.5609
8.02775
5.00497
2.78185
1.76084
46.2548
34.6139
49.4716
84.6129
70.1901
51.9236
83.3189
151.398
82.1399
59.5338
104.327
196.768
83.1109
60.7314
113.724
217.619
71.5618
53.4572
108.542
210.251
21.0193
0.000441451
0.000479939
3.2828
25.2681
0.304926
0.000350007
2.51378
22.1999
1.06728
0.000282142
2.94855
13.6185
1.15956
0.000262672
3.01348
1.41715
0.167063
0.000139577
0.528253
11.5605
1.63101
7.909e-05
3.72008
22.7906
3.58547
0.204141
8.46353
30.7312
5.37212
0.986033
12.6418
33.9486
7.02599
2.55519
15.2482
33.2257
9.99069
6.54528
15.6023
14.1156
8.58117
7.33711
9.04056
15.368
8.73225
6.49221
8.91355
14.3506
7.75929
5.98662
8.57871
9.85034
5.01987
4.16738
6.27987
2.56859
1.24477
1.13455
1.83451
5.82768
2.67372
2.43277
3.93694
13.5504
5.98035
5.74819
9.8684
19.2951
8.28443
8.28447
14.8456
21.7646
8.96427
9.43537
17.541
21.7878
9.16823
10.2075
18.1736
1.48014
0.238084
0.000365114
0.0721479
2.58444
0.979829
0.357169
0.601595
3.40727
1.55589
0.863976
1.23697
3.18191
1.49611
0.990996
1.38119
1.49393
0.686966
0.51518
0.714344
1.33275
0.618913
0.513328
0.723512
4.62619
2.08513
1.84799
2.64873
7.70529
3.46114
3.22855
4.68856
9.44002
4.04009
4.13584
6.13554
9.90177
4.39177
5.11382
7.24039
0.241769
0.000268931
0.000261649
0.00026689
0.818481
0.214266
0.0168852
0.116969
1.18171
0.639837
0.419851
0.496974
1.327
0.813392
0.60021
0.685337
0.853232
0.513677
0.394313
0.452694
0.196111
0.127053
0.10928
0.137063
1.61957
0.9333
0.806581
0.979114
3.15928
1.76216
1.60443
1.95781
4.25397
2.21248
2.25865
2.77207
4.8503
2.60237
3.10098
3.62679
0.000804869
0.000300753
0.000284551
0.000280854
0.000132086
7.95799e-05
7.78778e-05
6.54259e-05
0.250449
7.95622e-05
7.00052e-05
1.598e-05
0.487977
0.263466
0.178099
0.206651
0.429596
0.277772
0.214298
0.235162
0.0991789
0.060635
0.0455149
0.045142
0.45739
0.316535
0.278644
0.321318
1.15274
0.768697
0.705105
0.808345
1.74802
1.07495
1.10624
1.262
2.10003
1.31045
1.58494
1.71428
0.000549602
0.000207821
0.000201944
0.000212317
0.000127414
3.64362e-05
4.5912e-05
8.00964e-05
6.93482e-05
5.29849e-06
2.61606e-05
0.00014784
0.149011
0.00922513
2.33623e-05
5.89076e-05
0.207607
0.117243
0.0832535
0.0952822
0.134705
0.0911103
0.0728928
0.077416
0.074223
0.0601719
0.0564902
0.0667503
0.372558
0.282257
0.261908
0.297105
0.660382
0.466143
0.47625
0.52949
0.827143
0.600026
0.714667
0.751124
0.000395885
0.000138721
0.000137466
0.000147635
0.000169616
5.23496e-05
5.30226e-05
7.58717e-05
6.62718e-05
6.8941e-06
4.00047e-06
5.89713e-05
4.99212e-05
1.73142e-05
1.57302e-05
6.28214e-05
0.0645784
6.18526e-07
6.3128e-06
3.08595e-05
0.0994577
0.057497
0.0418194
0.0480135
0.0359722
0.0228406
0.0167618
0.0157508
0.0755242
0.062089
0.0598945
0.0710597
0.190473
0.148291
0.150842
0.16818
0.265451
0.220254
0.259294
0.27403
0.000452761
0.000144829
0.000137359
0.000141855
0.000116131
4.46692e-05
3.56101e-05
2.50397e-05
6.09189e-05
3.24332e-05
8.08371e-06
5.8943e-05
2.79801e-05
9.68458e-06
1.21795e-06
2.55351e-05
9.96611e-06
1.32753e-06
3.06362e-06
6.84474e-06
0.0432654
0.00306964
4.78875e-06
7.54241e-06
0.0419103
0.021421
0.0127551
0.0143531
0.0245246
0.0153191
0.0109097
0.0098761
0.0158416
0.0152711
0.0171536
0.0213373
0.0433614
0.0425649
0.0526248
0.0589199
0.000299693
9.8089e-05
9.29301e-05
9.63192e-05
6.70791e-05
2.53526e-05
2.18258e-05
1.62233e-05
2.95986e-05
3.46471e-05
3.24121e-05
8.88257e-06
7.58247e-06
2.08885e-05
1.58816e-05
1.72598e-05
1.4473e-06
1.05182e-05
1.14368e-05
4.8246e-06
5.99362e-06
2.67118e-06
7.24064e-06
7.38588e-07
0.00220617
3.53818e-06
4.23579e-06
2.40618e-06
0.0354978
0.0193004
0.012456
0.0156765
0.0184693
0.0116461
0.00833245
0.00833633
0.0209082
0.0173167
0.0170553
0.015301
0.00026003
6.90241e-05
6.25109e-05
6.20595e-05
6.95589e-05
2.42353e-05
2.7713e-05
3.95274e-05
7.33567e-06
5.51839e-07
1.18284e-05
4.38558e-05
5.95116e-06
8.23753e-06
1.26373e-05
3.15439e-05
5.87348e-06
2.39084e-06
4.96989e-07
1.35361e-05
4.32249e-06
9.48019e-07
2.39375e-06
1.20599e-05
7.96956e-07
1.49963e-06
3.45915e-06
4.46243e-06
0.00651078
5.57494e-06
1.09573e-07
4.94685e-06
3.54595e-07
3.75889e-07
4.56772e-06
4.79969e-06
0.0125798
0.0121077
0.0144923
0.0148214
0.000289195
0.000122168
0.000121862
0.000135725
4.80844e-05
1.20612e-05
9.95543e-06
1.13658e-05
2.64016e-05
2.54897e-07
3.03443e-06
1.99336e-06
1.11668e-05
3.64039e-07
1.96838e-06
5.03899e-06
9.72252e-06
3.07044e-06
7.67686e-07
2.08017e-06
7.04557e-06
2.46991e-06
2.80744e-06
3.15348e-06
7.39028e-06
6.21611e-06
4.71403e-07
3.02923e-06
4.71338e-06
3.21119e-06
1.03845e-06
8.7272e-07
5.63663e-06
3.16933e-06
1.7722e-06
6.16998e-06
2.35434e-06
1.73839e-06
6.65061e-06
6.30391e-06
0.000380323
0.000101378
7.69288e-05
6.01132e-05
5.20973e-05
2.47687e-05
2.15434e-05
1.86342e-05
3.11022e-05
1.25307e-05
8.02552e-06
1.64746e-06
1.49984e-05
6.87914e-06
3.83113e-06
5.08282e-06
5.76198e-06
7.13401e-06
6.35075e-06
1.33197e-06
3.09729e-06
7.35108e-06
7.58246e-06
1.36107e-06
1.10304e-07
4.53819e-06
7.27872e-06
2.7408e-06
4.61894e-07
1.44945e-06
4.19655e-06
9.25777e-07
9.06272e-07
5.01467e-06
1.11923e-05
6.70694e-06
9.59308e-07
6.75027e-06
5.01815e-06
2.15631e-06
0.00155896
0.000354366
0.000349774
0.000400444
3.61948e-05
7.69929e-06
1.26807e-05
2.19644e-05
1.9575e-05
9.28271e-06
1.08533e-05
1.28565e-05
8.16076e-06
4.93548e-06
6.23464e-06
7.80932e-06
3.11883e-06
2.0293e-06
3.08657e-06
4.38849e-06
1.14435e-06
1.3206e-06
2.93591e-06
5.67973e-06
1.06515e-06
8.66679e-07
5.193e-07
4.22772e-06
2.15732e-06
1.26562e-06