/*--------------------------------*- C++ -*----------------------------------*\
| =========                 |                                                 |
| \\      /  F ield         | foam-extend: Open Source CFD                    |
|  \\    /   O peration     | Version:     4.0                                |
|   \\  /    A nd           | Web:         http://www.foam-extend.org         |
|    \\/     M anipulation  |                                                 |
\*---------------------------------------------------------------------------*/
FoamFile
{
    version     2.0;
    format      ascii;
    class       volScalarField;
    location    "300";
    object      epsilon;
}
// * * * * * * * * * * * * * * * * * * * * * * * * * * * * * * * * * * * * * //

dimensions      [0 2 -3 0 0 0 0];

internalField   nonuniform List<scalar> 
34480
(
4780.51
4774.9
4773.1
4773.9
4779.65
4799.61
4863.29
5056.69
5606.35
6999.2
642.094
590.984
603.693
689.056
1020.72
2553.16
10420.4
50211.9
227544
824094
512.133
446.343
457.071
555.594
930.116
2640.73
11734.2
60336.6
292001
1.14909e+06
437.688
388.712
402.587
496.729
855.187
2540.66
11864.3
63936.5
325362
1.36506e+06
401.124
363.98
380.518
469.279
809.449
2439.16
11708.9
65254.1
345675
1.52701e+06
375.555
344.173
359.145
441.25
766.278
2375.12
11794.8
67863
372490
1.71985e+06
363.462
336.632
350.839
425.564
731.143
2284.72
11612.4
68661.4
389291
1.86963e+06
360.139
339.176
350.765
412.887
675.909
2070.43
10707.2
65070.6
381188
1.90195e+06
514.623
504.535
513.396
551.089
708.301
1553.91
6916.26
41686.2
251517
1.30044e+06
5525.51
5511.16
5502.42
5500.83
5506.85
5520.4
5541.49
5571.35
5626.68
5667.81
4708.32
4702.88
4700.93
4701.25
4705.02
4717.02
4750.64
4838.4
5075.22
5753.63
533.445
492.726
491.863
514.339
574.138
748.443
1371.6
4278.5
26598.8
220134
402.557
348.232
344.473
376.065
465.341
711.25
1526.38
5271.6
36986.3
325855
358.428
315.488
315.283
348.905
440.608
689.071
1512.39
5447.03
43044.5
403161
341.662
307.303
310.681
344.759
436.946
684.957
1511.19
5527.27
47290.6
465021
329.261
299.312
302.541
334.895
424.139
669.155
1506.1
5696.61
52381.7
535273
325.508
299.192
303.156
333.049
417.781
654.404
1485.61
5757.5
56060
593075
328.246
307.466
310.945
335.901
405.149
600.978
1314.54
5221.93
55378.9
613681
487.977
476.935
480.962
497.024
537.319
637.281
988.687
3255.75
37186.3
442399
5407.45
5391.38
5380.27
5375.52
5377.64
5387.11
5405.8
5433.85
5488.36
5642.41
4626.83
4622.49
4620.78
4620.82
4623.29
4631.2
4653.74
4713.13
4865.05
5222.1
436.451
413.607
413.263
423.382
446.011
503.254
674.83
1260.35
3772.8
17709.4
301.758
268.001
264.694
279.945
318.591
408.678
651.415
1463.4
5422.31
31921.7
280.544
252.272
251.158
269.164
312.505
409.768
666.421
1553.42
6607.74
47062.5
278.917
255.493
257.231
277.041
324.104
428.088
701.18
1661.73
7820.49
63690.4
276.974
255.921
257.779
277.743
325.908
434.505
727.507
1805.18
9517.41
85579.2
279.94
260.987
263.768
283.14
331.074
440.776
746.671
1928.11
11258.9
109091
289.007
274.041
276.863
294.103
335.055
429.097
700.214
1841.06
12112.7
127407
455.982
447.702
451.204
463.616
491.622
550.376
707.46
1405.49
8636.03
97022.4
5302.34
5285.91
5274.03
5267.99
5268.25
5275.33
5291.64
5318.92
5378.08
5549.26
4536.12
4533.11
4531.96
4532.08
4533.87
4539.13
4553.86
4594.24
4700.75
4952.11
368.452
356.299
356.719
361.362
369.919
391.323
455.214
655.476
1297.38
3517.58
229.407
210.036
208.014
215.488
233.359
272.254
367.211
635.383
1530.35
5425.58
220.247
203.146
202.327
212.146
234.156
279.402
383.918
675.51
1744.13
7711.85
226.841
212.299
213.575
225.322
251.2
303.442
421.865
746.919
2012.3
10518.8
231.359
217.823
219.255
231.915
260.248
318.972
455.753
841.571
2452.54
14762.8
238.486
225.939
228.211
241.152
270.966
333.891
485.641
931.648
2950.25
19932.8
252.622
242.657
245.117
257.331
284.133
341.075
482.83
932.096
3228.99
24596.5
424.834
418.957
421.903
431.19
451.086
490.669
582.198
871.846
2469.4
18756.9
5184.82
5170.25
5159.8
5154.78
5155.7
5163.27
5180.12
5208.83
5264.66
5398.98
4437.37
4435.4
4434.68
4434.78
4435.94
4439.26
4448.66
4475.58
4549.92
4735.83
323.724
317.08
317.824
319.904
322.406
329.636
355.591
442.89
710.971
1408.2
182.595
171.549
170.401
173.768
181.231
197.106
235.279
339.164
637.593
1531.96
177.84
167.737
167.222
172.187
182.344
201.873
243.493
349.926
664.484
1882.76
187.169
178.557
179.558
186.058
199.081
223.381
272.706
391.915
738.958
2397.29
194.552
186.304
187.437
194.971
210.396
240.134
301.823
451.964
890.135
3314.07
203.423
195.572
197.398
205.516
222.799
256.848
329.839
512.954
1066
4506.48
220.819
214.601
216.659
224.814
241.204
273.803
345.838
539.321
1178.32
5657.43
395.407
391.515
393.901
400.435
413.694
438.713
490.249
626.785
1081.33
4405.48
5060.92
5048.08
5038.97
5034.88
5036.27
5043.91
5060.19
5087.33
5134.43
5230.95
4331.04
4329.78
4329.37
4329.43
4330.15
4332.25
4338.47
4357.2
4411.16
4554.41
294.475
290.565
291.338
292.307
292.586
294.637
306.613
353.716
509.304
904.575
153.762
147.239
146.627
148.088
150.903
156.979
172.75
218.535
351.946
696.472
149.545
143.514
143.254
145.669
149.931
157.515
172.981
212.791
327.904
690.311
158.422
153.47
154.321
157.774
163.769
173.881
192.359
234.535
346.107
772.196
166.203
161.422
162.389
166.696
174.481
188.212
213.57
269.988
406.515
997.033
175.021
170.409
171.931
176.809
186.162
203.124
235.402
308.527
479.65
1301.56
193.956
190.442
192.209
197.458
206.872
224.189
258.147
340.126
541.197
1613.14
368.089
365.841
367.819
372.25
380.682
395.72
423.63
489.74
650.521
1427.89
4929.95
4918.83
4911.01
4907.76
4909.49
4916.92
4932.03
4956.38
4992.87
5056.1
4217.49
4216.67
4216.43
4216.45
4216.88
4218.22
4222.48
4235.98
4276.62
4389.7
274.636
272.102
272.756
273.231
272.82
273.104
279.472
309.089
415.437
702.456
136.336
132.269
131.946
132.568
133.472
135.639
142.615
166.01
240.557
435.309
131.321
127.577
127.465
128.618
130.201
132.734
138.017
153.451
204.046
357.879
138.463
135.611
136.323
138.107
140.579
144.163
150.019
163.706
203.763
347.954
145.358
142.667
143.49
145.875
149.475
155.12
164.292
183.588
229.125
406.101
153.099
150.521
151.782
154.599
159.279
166.936
179.745
206.55
262.13
491.855
172.247
170.508
172.015
175.276
180.287
188.667
203.208
235.539
302.459
594.355
343.377
342.361
344.006
346.889
351.959
360.434
374.796
406.313
474.78
695.672
4791.53
4782.05
4775.46
4772.96
4774.87
4781.8
4795.25
4816.16
4843.81
4885
4096.97
4096.38
4096.22
4096.22
4096.46
4097.34
4100.33
4110.28
4141.44
4231.36
260.148
258.33
258.817
259.06
258.527
258.295
262.131
282.459
360.528
587.417
125.759
123.093
122.914
123.171
123.35
124.028
127.429
141.118
189.359
324.216
119.804
117.357
117.31
117.856
118.316
118.891
120.442
126.912
153.375
239.954
125.008
123.303
123.866
124.773
125.616
126.469
127.637
131.433
147.818
213.102
130.554
129.04
129.715
131.008
132.478
134.365
136.936
142.491
158.65
226.707
136.801
135.397
136.413
137.989
140.107
143.085
147.343
155.851
174.21
252.644
155.291
154.614
155.874
157.842
160.256
163.77
169.099
180.376
202.95
296.794
321.348
321.177
322.539
324.342
327.204
331.611
338.496
352.936
386.106
466.299
4645.31
4637.43
4632
4630.13
4632.05
4638.24
4649.74
4666.94
4687.47
4715.07
3969.68
3969.18
3969.04
3969.01
3969.15
3969.74
3971.89
3979.27
4003.17
4074.32
248.502
247.06
247.379
247.495
247.021
246.698
249.212
263.73
322.512
505.508
119.218
117.396
117.28
117.374
117.308
117.45
119.286
128.059
161.702
262.8
112.614
110.921
110.886
111.14
111.171
111.073
111.339
114.364
130.207
187.519
116.141
115.036
115.446
115.901
116.055
115.896
115.534
116.142
124.018
161.504
120.335
119.44
119.963
120.654
121.116
121.401
121.519
122.383
128.691
162.698
125.06
124.27
125.058
125.917
126.725
127.528
128.325
130.154
136.305
170.773
142.405
142.291
143.317
144.479
145.46
146.511
147.757
150.647
158.029
195.632
301.81
302.158
303.27
304.357
305.854
307.894
310.827
317.002
334.455
370.775
4491.15
4484.76
4480.39
4479.04
4480.84
4486.14
4495.58
4509.14
4524.02
4542.73
3835.78
3835.29
3835.14
3835.09
3835.16
3835.56
3837.12
3842.59
3860.69
3916.39
238.208
236.952
237.115
237.148
236.766
236.476
238.196
248.683
293.148
439.924
115.034
113.742
113.642
113.659
113.533
113.507
114.593
120.489
144.631
222.187
108.158
106.916
106.866
106.975
106.872
106.605
106.491
108.09
118.411
159.365
110.4
109.597
109.864
110.086
109.988
109.551
108.842
108.57
113.016
137.986
113.443
112.848
113.228
113.593
113.621
113.318
112.674
112.143
114.963
135.797
116.819
116.314
116.896
117.355
117.547
117.447
117.01
116.661
118.759
138.002
132.801
132.936
133.745
134.421
134.672
134.598
134.203
134.026
136.089
155.033
284.373
284.998
285.888
286.521
287.229
287.996
288.968
291.288
301.007
320.453
4329.04
4324.02
4320.6
4319.65
4321.24
4325.57
4333.01
4343.27
4353.8
4366.48
3695.48
3694.93
3694.76
3694.69
3694.72
3695
3696.14
3700.16
3713.67
3756.51
228.397
227.211
227.233
227.204
226.902
226.668
227.856
235.383
268.561
384.194
112.222
111.261
111.153
111.129
111.01
110.951
111.642
115.673
133.012
192.225
105.401
104.435
104.36
104.396
104.273
104.018
103.844
104.801
111.834
141.975
106.729
106.075
106.22
106.321
106.163
105.731
105.085
104.699
107.569
125.565
108.876
108.417
108.672
108.861
108.735
108.291
107.541
106.768
108.276
122.708
111.157
110.766
111.173
111.413
111.353
110.959
110.217
109.36
110.136
122.815
125.715
125.921
126.538
126.927
126.85
126.352
125.44
124.355
124.6
136.022
268.54
269.283
269.977
270.337
270.625
270.779
270.873
271.495
277.11
288.891
4159.15
4155.34
4152.75
4152.11
4153.42
4156.81
4162.42
4169.88
4177.19
4185.79
3549.01
3548.37
3548.18
3548.09
3548.1
3548.3
3549.13
3552.05
3561.96
3594.16
218.564
217.37
217.269
217.192
216.952
216.767
217.582
222.898
247.071
335.762
110.198
109.44
109.313
109.267
109.171
109.125
109.588
112.342
124.6
168.883
103.684
102.889
102.792
102.79
102.686
102.493
102.357
102.994
107.888
130.2
104.393
103.816
103.868
103.905
103.761
103.424
102.949
102.671
104.715
118.2
105.883
105.484
105.639
105.733
105.577
105.17
104.539
103.89
104.876
115.564
107.329
106.977
107.244
107.368
107.231
106.812
106.123
105.331
105.729
114.945
120.475
120.667
121.123
121.345
121.153
120.573
119.63
118.473
118.192
125.981
253.786
254.557
255.084
255.286
255.375
255.288
255.064
255.016
258.25
266.097
3981.82
3979.03
3977.14
3976.72
3977.75
3980.28
3984.34
3989.55
3994.55
4000.41
3396.63
3395.92
3395.72
3395.63
3395.63
3395.77
3396.36
3398.46
3405.56
3429.11
208.407
207.161
206.957
206.846
206.653
206.511
207.063
210.74
227.821
293.566
108.619
107.979
107.832
107.773
107.703
107.676
108
109.863
118.305
150.379
102.592
101.91
101.8
101.779
101.701
101.57
101.488
101.944
105.377
121.787
102.898
102.372
102.361
102.366
102.255
102.022
101.714
101.571
103.119
113.405
103.924
103.56
103.64
103.683
103.545
103.229
102.767
102.316
103.071
111.27
104.767
104.437
104.599
104.66
104.524
104.18
103.651
103.071
103.399
110.486
116.535
116.684
117.009
117.134
116.929
116.415
115.624
114.672
114.332
120.096
239.619
240.378
240.769
240.883
240.896
240.755
240.479
240.264
241.941
247.551
3797.52
3795.57
3794.25
3793.98
3794.74
3796.53
3799.34
3802.83
3806.21
3810.26
3238.64
3237.96
3237.78
3237.69
3237.67
3237.77
3238.19
3239.67
3244.64
3261.3
197.749
196.431
196.147
196.018
195.866
195.763
196.138
198.627
210.279
256.975
107.279
106.707
106.545
106.482
106.431
106.423
106.653
107.897
113.53
135.82
101.874
101.275
101.162
101.135
101.079
100.995
100.954
101.292
103.702
115.615
101.927
101.449
101.4
101.389
101.311
101.162
100.981
100.941
102.146
110.035
102.632
102.299
102.329
102.343
102.236
102.012
101.702
101.424
102.049
108.451
103.06
102.759
102.847
102.875
102.766
102.517
102.152
101.78
102.109
107.736
113.474
113.578
113.801
113.868
113.692
113.292
112.697
112
111.746
116.247
225.614
226.349
226.632
226.699
226.696
226.585
226.366
226.162
226.801
230.991
3606.86
3605.56
3604.68
3604.52
3605.05
3606.25
3608.1
3610.34
3612.6
3615.43
3075.41
3074.94
3074.78
3074.7
3074.68
3074.75
3075.04
3076.05
3079.43
3090.75
186.488
185.105
184.769
184.64
184.528
184.463
184.724
186.38
194.041
225.604
106.058
105.53
105.363
105.302
105.265
105.268
105.434
106.252
109.888
124.636
101.382
100.855
100.749
100.721
100.682
100.63
100.614
100.862
102.542
111.043
101.279
100.856
100.791
100.771
100.719
100.63
100.534
100.553
101.493
107.529
101.766
101.47
101.467
101.464
101.388
101.239
101.044
100.891
101.416
106.454
101.926
101.665
101.705
101.714
101.636
101.471
101.24
101.023
101.344
105.882
110.986
111.051
111.195
111.227
111.093
110.807
110.391
109.919
109.772
113.416
211.415
212.129
212.328
212.372
212.378
212.322
212.19
212.054
212.086
215.241
3410.55
3409.73
3409.19
3409.09
3409.43
3410.2
3411.35
3412.71
3414.18
3416.17
2907.65
2907.35
2907.23
2907.17
2907.16
2907.21
2907.4
2908.07
2910.27
2917.6
174.587
173.169
172.811
172.695
172.624
172.598
172.79
173.879
178.75
198.973
104.891
104.404
104.241
104.185
104.159
104.166
104.284
104.813
107.092
116.334
101.028
100.576
100.484
100.46
100.432
100.399
100.394
100.568
101.719
107.657
100.838
100.477
100.409
100.386
100.351
100.301
100.256
100.3
101.017
105.599
101.176
100.922
100.9
100.887
100.834
100.742
100.628
100.554
100.986
104.954
101.173
100.962
100.971
100.969
100.917
100.817
100.683
100.569
100.856
104.518
108.855
108.884
108.969
108.98
108.885
108.695
108.424
108.126
108.065
111.09
196.728
197.421
197.559
197.592
197.613
197.608
197.557
197.496
197.417
199.695
3209.42
3208.93
3208.62
3208.56
3208.77
3209.22
3209.89
3210.66
3211.52
3212.93
2736.15
2735.85
2735.77
2735.73
2735.73
2735.76
2735.88
2736.29
2737.63
2742.05
162.065
160.661
160.309
160.217
160.183
160.192
160.345
161.057
164.08
176.372
103.754
103.314
103.163
103.113
103.093
103.101
103.183
103.516
104.912
110.409
100.763
100.394
100.32
100.299
100.279
100.257
100.255
100.369
101.131
105.169
100.535
100.242
100.178
100.155
100.131
100.104
100.088
100.135
100.662
104.092
100.772
100.563
100.531
100.513
100.477
100.423
100.362
100.336
100.677
103.779
100.679
100.52
100.511
100.501
100.469
100.414
100.345
100.294
100.53
103.429
106.936
106.931
106.971
106.969
106.906
106.789
106.626
106.455
106.455
108.992
181.284
181.949
182.045
182.072
182.105
182.138
182.145
182.14
182.054
183.774
3004.41
3004.14
3003.97
3003.94
3004.05
3004.29
3004.65
3005.05
3005.5
3006.41
2561.37
2561.2
2561.17
2561.15
2561.15
2561.17
2561.23
2561.45
2562.19
2564.63
148.994
147.668
147.345
147.276
147.272
147.307
147.437
147.899
149.678
156.678
102.662
102.276
102.143
102.099
102.083
102.09
102.143
102.344
103.178
106.341
100.552
100.274
100.218
100.199
100.184
100.17
100.169
100.236
100.71
103.358
100.33
100.107
100.052
100.03
100.013
100
99.9981
100.038
100.404
102.905
100.502
100.34
100.304
100.284
100.26
100.231
100.203
100.202
100.458
102.814
100.365
100.253
100.235
100.222
100.202
100.175
100.146
100.133
100.312
102.491
105.154
105.114
105.124
105.115
105.076
105.009
104.919
104.833
104.874
106.968
164.791
165.408
165.474
165.499
165.538
165.588
165.627
165.648
165.562
166.643
2796.66
2796.52
2796.43
2796.41
2796.45
2796.57
2796.74
2796.93
2797.14
2797.68
2384.6
2384.41
2384.39
2384.38
2384.38
2384.39
2384.44
2384.55
2384.91
2386.02
134.862
133.858
133.659
133.632
133.634
133.651
133.706
133.919
134.816
138.57
101.669
101.351
101.244
101.207
101.194
101.2
101.232
101.344
101.812
103.629
100.364
100.182
100.142
100.126
100.114
100.106
100.106
100.14
100.403
102.025
100.196
100.043
100.001
99.9828
99.9718
99.9661
99.9693
99.9988
100.227
101.928
100.326
100.211
100.179
100.161
100.145
100.131
100.121
100.131
100.305
101.949
100.179
100.106
100.086
100.074
100.062
100.051
100.043
100.048
100.171
101.625
103.495
103.43
103.421
103.409
103.386
103.349
103.304
103.269
103.333
104.945
146.795
147.318
147.364
147.387
147.422
147.469
147.513
147.534
147.448
147.848
2587.43
2587.36
2587.31
2587.29
2587.3
2587.34
2587.41
2587.49
2587.58
2587.87
2205.87
2205.95
2205.94
2205.93
2205.93
2205.94
2205.97
2206.02
2206.15
2206.48
118.963
118.433
118.375
118.382
118.388
118.391
118.397
118.445
118.735
120.345
100.823
100.609
100.543
100.519
100.511
100.515
100.533
100.584
100.79
101.755
100.177
100.087
100.063
100.053
100.046
100.042
100.042
100.056
100.159
100.945
100.088
100.003
99.9783
99.9679
99.9625
99.9607
99.9639
99.9803
100.085
100.991
100.18
100.112
100.09
100.079
100.071
100.066
100.064
100.075
100.162
101.042
100.07
100.028
100.013
100.005
100
99.997
99.9967
100.005
100.07
100.791
101.925
101.855
101.836
101.825
101.811
101.794
101.776
101.771
101.835
102.828
126.208
126.545
126.573
126.589
126.613
126.645
126.675
126.684
126.616
126.493
2377.5
2377.46
2377.44
2377.43
2377.42
2377.43
2377.44
2377.47
2377.49
2377.63
9738.6
9863.59
9713.08
9265.68
1.57812e+06
1.59572e+06
1.59146e+06
1.60926e+06
2.53888e+06
2.60433e+06
2.58463e+06
2.52787e+06
3.38496e+06
3.50394e+06
3.4527e+06
3.30204e+06
4.1687e+06
4.33814e+06
4.2491e+06
4.02826e+06
5.11409e+06
5.34883e+06
5.23218e+06
4.96712e+06
5.97966e+06
6.28865e+06
6.16638e+06
5.89926e+06
6.48301e+06
6.87369e+06
6.78111e+06
6.55495e+06
4.57293e+06
4.90985e+06
4.87277e+06
4.75519e+06
7357.57
7558.11
7445.57
7178.49
7076.65
7204.97
7197.16
7058.37
543233
532489
547958
577447
961655
1.00904e+06
1.04391e+06
1.06449e+06
1.39928e+06
1.54418e+06
1.59796e+06
1.6082e+06
1.82694e+06
2.09304e+06
2.16876e+06
2.18122e+06
2.29996e+06
2.71342e+06
2.83195e+06
2.86461e+06
2.72131e+06
3.29244e+06
3.47969e+06
3.56187e+06
2.9835e+06
3.7019e+06
3.97988e+06
4.12852e+06
2.33762e+06
2.99838e+06
3.27196e+06
3.46503e+06
6717.21
6887.91
6847.99
6643.97
5642.81
5706.96
5702.92
5637.69
45357.6
49119.7
46273
39129.8
96548.7
105698
97666.4
79676.8
166115
183076
166817
132917
251762
278140
251451
198277
366195
405802
367531
289663
494058
548819
500480
397160
611962
682925
629566
504029
515662
573773
528386
424593
6045.27
6111.48
6089.65
6005.74
5215.8
5263.08
5265.12
5224.56
5031.05
4993.33
4713.86
4348.77
9611.99
9691.08
8975.85
7913.24
16996
17335.7
15764.7
13322.7
27611.7
28326.2
25350.9
20692.3
44301
45722.8
40579.8
32330.9
65943.6
68203.2
60297.5
47353.5
89912.7
93406.1
82669.3
64363.1
78766.3
81489.2
71466.7
55230.6
5653.3
5685.5
5679.89
5648.08
4945.29
4987.17
4990.44
4955.98
1635.55
1615.38
1564.28
1506.02
1973.45
1958.73
1870.85
1757.74
2881.56
2888.62
2717.56
2478.19
4351.61
4384.41
4047.77
3575.67
7001.28
7093.83
6449.69
5537.6
10723.8
10869.7
9744.14
8169.94
15285.4
15561
13824.7
11354.7
13701.1
13933.5
12157.3
9797.84
5359.1
5376.62
5376.31
5364.34
4729.39
4766.26
4769.72
4740.07
1027.1
1020.36
997.771
969.211
808.113
798.345
771.226
738.841
853.012
841.662
804.486
761.159
1042.11
1027.2
969.537
904.354
1509.64
1495.22
1396.73
1281.86
2198.86
2180.03
2009.33
1810.8
3114.99
3110.46
2836.99
2504.95
2964.74
2964.1
2668.54
2334.9
5120.96
5130.1
5131.69
5128.09
4537.49
4569.55
4572.83
4547.36
810.833
813.206
801.083
780.063
507.593
505.959
493.017
474.161
413.986
407.833
392.825
375.607
401.253
390.049
371.557
354.924
489.638
474.782
449.639
428.814
632.468
612.474
575.472
545.542
850.817
831.651
777.791
728.877
995.066
976.936
918.31
870.672
4917.41
4922.14
4924.14
4923.97
4355.64
4383.06
4385.91
4364.12
687.697
694.295
687.155
669.959
386.594
389.062
381.96
368.357
274.759
272.036
264.127
254.305
230.826
223.623
214.726
207.934
243.466
233.363
222.764
216.791
275.985
262.887
249.518
243.161
346.296
332.619
315.896
306.919
543.227
526.851
509.117
503.941
4732.3
4734.75
4736.37
4737.16
4177.54
4200.57
4202.91
4184.45
596.521
604.927
600.458
585.707
318.298
322.623
318.515
307.874
214.149
213.171
208.584
202.264
170.946
166.119
161.082
157.844
167.304
160.425
154.693
152.587
174.553
165.987
159.206
157.416
207.201
198.184
190.424
188.198
399.631
386.34
378.008
379.83
4552.85
4554.15
4555.23
4556.01
4000.7
4019.67
4021.49
4006.07
519.989
528.793
525.838
513.022
270.212
275.003
272.506
263.948
180.266
179.956
177.131
172.939
144.242
140.731
137.66
136.212
137.792
132.873
129.448
128.916
138.59
132.717
128.743
128.401
158.885
152.783
148.397
147.869
336.909
326.032
320.943
324.082
4372.98
4373.72
4374.39
4374.93
3823.99
3839.3
3840.66
3828
452.154
460.554
458.537
447.49
232.118
236.593
235.001
228.137
157.868
157.656
155.825
153.095
129.884
127.117
125.16
124.738
123.984
120.299
118.164
118.412
123.123
118.921
116.462
116.766
138.173
133.887
131.213
131.355
301.807
292.669
289.157
292.559
4190.28
4190.78
4191.19
4191.46
3646.94
3659.02
3659.98
3649.8
391.002
398.513
397.13
387.824
200.448
204.187
203.128
197.763
141.657
141.289
140.048
138.379
121.086
118.778
117.491
117.665
116.507
113.642
112.277
112.912
115.391
112.269
110.709
111.331
127.674
124.535
122.851
123.332
277.956
270.076
267.489
270.899
4003.68
4004.12
4004.36
4004.41
3469.31
3478.62
3479.27
3471.26
336.073
342.423
341.501
333.922
173.948
176.771
176.041
172.033
129.508
128.922
128.05
127.144
115.218
113.249
112.38
112.867
111.965
109.685
108.793
109.579
111.04
108.649
107.642
108.395
121.557
119.156
118.068
118.723
259.044
252.103
250.1
253.412
3812.73
3813.18
3813.32
3813.18
3291.02
3298.02
3298.43
3292.26
287.529
292.624
292.051
286.133
152.219
154.116
153.602
150.789
120.413
119.661
119.028
118.634
111.095
109.427
108.825
109.419
108.936
107.103
106.5
107.287
108.327
106.455
105.789
106.558
117.491
115.575
114.848
115.578
242.207
235.994
234.375
237.531
3617.28
3617.79
3617.87
3617.58
3111.99
3117.13
3117.36
3112.71
245.692
249.586
249.269
244.848
135.096
136.191
135.82
133.991
113.757
112.946
112.473
112.372
108.108
106.732
106.298
106.86
106.761
105.284
104.855
105.556
106.472
104.984
104.525
105.243
114.425
112.832
112.321
113.068
226.004
220.384
219.031
222.01
3417.5
3418.05
3418.1
3417.71
2932.18
2935.85
2935.94
2932.52
210.637
213.503
213.358
210.175
122.343
122.847
122.573
121.473
109.05
108.296
107.934
107.95
105.902
104.808
104.478
104.926
105.113
103.919
103.59
104.171
105.089
103.888
103.553
104.191
111.848
110.472
110.085
110.824
209.683
204.585
203.441
206.248
3213.76
3214.33
3214.35
3213.91
2751.57
2754.08
2754.09
2751.64
181.925
184.012
183.967
181.713
113.487
113.643
113.435
112.799
105.835
105.225
104.944
104.961
104.245
103.401
103.136
103.446
103.812
102.834
102.562
103.03
103.952
102.966
102.707
103.262
109.501
108.278
107.964
108.681
192.859
188.263
187.3
189.912
3006.71
3007.24
3007.25
3006.82
2570.34
2571.94
2571.88
2570.25
158.45
160.034
160.05
158.444
107.775
107.785
107.621
107.238
103.678
103.238
103.02
102.999
102.962
102.314
102.089
102.283
102.744
101.927
101.689
102.069
102.916
102.098
101.885
102.365
107.262
106.178
105.904
106.573
174.404
170.341
169.55
171.915
2797.47
2797.94
2797.95
2797.58
2388.89
2389.73
2389.65
2388.73
138.505
139.808
139.885
138.732
104.25
104.209
104.085
103.843
102.174
101.87
101.706
101.668
101.91
101.401
101.205
101.33
101.825
101.151
100.939
101.246
101.9
101.245
101.064
101.456
105.086
104.192
103.944
104.5
153.704
150.319
149.727
151.734
2587.31
2587.7
2587.71
2587.44
2207.37
2207.55
2207.48
2207.22
119.778
120.918
121.049
120.231
101.954
101.87
101.783
101.659
100.989
100.786
100.676
100.662
100.959
100.604
100.45
100.528
100.954
100.502
100.335
100.525
100.902
100.49
100.351
100.581
102.891
102.294
102.092
102.436
129.726
127.432
127.104
128.467
2377.03
2377.36
2377.37
2377.15
7756.44
6275.19
5554.65
5267.4
5084.92
4960.45
4880.19
4832.89
4805.46
4789.6
1.34015e+06
261303
48096.5
15515.7
6483.41
3255.55
1884.53
1238.25
919.506
753.985
1.83625e+06
235870
48046.9
15248.8
6296.51
3153.15
1811.22
1166.36
834.255
650.472
2.05141e+06
215478
41793.2
12318.9
4979.86
2478.11
1433.3
936.627
682.802
542.591
2.14893e+06
197605
36893.8
10176.6
4081.81
2041.76
1201.97
802.966
598.449
485.117
2.25498e+06
193637
35061.6
9103.82
3613.65
1800.12
1067.07
720.24
544.565
447.391
2.30753e+06
192754
33926.3
8377.55
3299.57
1638.68
980.479
670.47
513.734
426.93
2.22567e+06
183226
30949.3
7157.09
2773.84
1377.86
847.614
601.446
480.281
411.945
1.50442e+06
117562
18300.6
4000.68
1719.55
1031.88
776.588
650.322
585.946
547.786
5914.9
5831.53
5703.44
5671.94
5631.18
5606.25
5585.36
5568.44
5552.48
5537.38
6337.75
5694.66
5336.44
5111.82
4960.32
4857.03
4790.05
4750.87
4728.5
4715.76
297021
76585.7
22852
8335.66
3806.32
2071.48
1287.93
899.37
703.238
606.72
466060
106610
28457.1
9447.23
4094.02
2138.19
1275.31
847.951
624.506
504.452
608775
124710
29198
8666.7
3547.89
1805.99
1072.52
718.714
536.787
440.021
736580
138343
29083.4
7870.05
3115.79
1578.34
948.589
647.632
492.741
410.499
886938
155718
30170.8
7590.73
2926.22
1467.14
882.419
605.372
464.779
390.748
1.02895e+06
170683
30981.4
7362.29
2788.79
1389.61
839.91
581.78
450.822
381.942
1.11867e+06
175241
29706.3
6590.3
2433.16
1209.63
748.23
535.506
430.719
375.456
848312
121764
18513.7
3862.55
1580.66
957.113
724.279
609.662
550.556
520.176
6007.03
5752.58
5619.6
5567.11
5522.66
5494.43
5472.71
5454.67
5437.61
5421.58
5420.76
5191.96
5017.51
4884.12
4786.42
4719.34
4676.91
4652.51
4638.66
4630.67
20878.6
9074.9
4559.82
2557.41
1573.88
1047.34
754.232
591.424
507.01
467.629
36703.9
14091.7
6361.73
3205.02
1792
1092.7
725.624
525.699
416.352
356.952
52816.6
17600.7
7096.21
3239.22
1698.11
998.708
654.898
474.987
378.932
327.646
69699.8
20444.9
7510.15
3191.45
1618.93
941.698
620.651
455.746
367.858
321.069
92711.8
24406.2
8309.31
3327.43
1639.45
936.058
611.773
447.728
361.772
316.571
118121
28324.1
9033.16
3438.89
1657.36
933.624
608.815
447.185
362.514
317.948
140207
30569.3
9031.57
3233.24
1522.89
855.271
568.902
429.646
358.904
321.667
104905
20096.1
5500.38
2043.33
1131.11
780.892
626.179
544.98
501.972
480.443
5777.12
5625.47
5523.18
5462.22
5418.69
5390.33
5369.18
5350.68
5333.14
5317.06
5084.32
4921.77
4794.86
4700.08
4633.65
4590.32
4564.3
4550.03
4541.94
4537.24
3459.07
2325.81
1575.08
1092.8
791.077
603.844
489.369
422.567
389.839
377.814
5519.73
3277.4
1978.88
1222.55
794.628
549.523
407.272
324.867
279.29
255.332
8082.27
4204.25
2271.07
1279.56
784.587
526.33
385.997
307.771
265.462
243.647
11004.5
5099.37
2529.85
1341.38
799.386
530.828
389.954
312.949
271.059
249.253
15315.3
6425.17
2983.54
1502.78
867.787
562.326
406.321
322.347
277.172
253.806
20278.4
7778.07
3418.12
1647.91
927.912
590.246
422.736
334.395
286.551
261.432
24952.9
8671.73
3577.58
1642.69
907.575
576.218
419.103
338.184
295.577
273.214
18421.5
5808.03
2405.35
1239.87
827.696
637.495
540.572
486.286
456.871
442.847
5561.08
5453.65
5373.97
5323.35
5288.26
5264.21
5245.71
5228.91
5212.81
5198.34
4838.96
4706.87
4610
4541.86
4496.57
4468.42
4452.34
4444.06
4439.41
4436.74
1351.67
1048.31
798.602
620.213
499.367
419.478
368.313
338.1
325.398
323.703
1487.39
1074.21
752.838
533.579
393.466
305.466
250.848
218.313
201.276
193.679
1937.93
1267.61
813.035
539.03
383.236
293.531
240.942
210.485
194.832
188.101
2566.23
1532.2
916.794
581.33
405.395
308.686
253.623
222.098
205.332
197.627
3650.18
2011.09
1134.57
685.994
461.889
341.645
274.566
236.349
215.698
205.844
4957.83
2538.48
1361.26
788.773
515.46
372.678
295.34
252.155
228.156
215.965
6276.54
2959.05
1504.37
838.381
539.119
388.764
310.613
267.824
244.58
232.73
4803.98
2220.18
1235.84
816.662
630.276
529.469
470.742
435.729
416.653
408.491
5326.02
5263.4
5212.55
5177.11
5150.75
5131.02
5115.17
5100.34
5085.88
5072.96
4640.05
4530.42
4453.55
4401.93
4369.09
4349.55
4338.89
4333.72
4330.97
4329.47
883.327
702.175
555.622
453.208
384.583
339.504
310.894
294.578
289.217
290.802
655.144
505.919
382.763
296.098
238.834
201.858
178.6
165.155
159.331
158.155
659.428
490.254
357.414
271.413
219.437
188.038
168.992
158.125
153.754
153.45
763.64
544.594
383.283
286.461
231.391
199.12
179.739
168.535
163.489
162.524
1043.48
705.958
473.661
340.173
266.117
222.927
196.954
181.482
173.629
171.035
1407.72
899.859
575.69
397.318
301.613
246.986
214.925
196.07
185.65
181.097
1822.37
1090.7
668.1
447.805
335.025
272.604
237.108
216.478
205.213
200.136
1623.85
1041.29
741.682
587.535
502.822
449.873
415.069
393.103
381.439
377.626
5111.45
5078.67
5048.92
5025.27
5005.89
4990.14
4976.93
4964.3
4951.68
4940.38
4461.47
4369.88
4307.86
4267.73
4243.12
4228.98
4221.54
4218.02
4216.35
4215.51
709.521
563.802
451.545
376.822
328.835
298.447
279.811
269.764
267.3
269.666
419.986
326.656
254.768
206.678
175.941
156.625
144.892
138.657
136.914
137.878
332.771
261.202
207.282
173.463
153.419
141.503
134.445
130.863
130.597
132.467
319.709
254.939
204.91
174.803
157.664
147.565
141.467
138.258
137.893
139.561
388.61
305.351
239.495
199.866
176.801
162.607
153.553
148.108
146.115
146.846
490.038
372.435
281.782
228.49
197.692
178.815
166.915
159.706
156.157
155.556
632.61
459.507
337.317
267.895
228.438
204.509
189.694
180.707
176.147
174.967
761.95
615.207
518.482
459.311
419.986
392.068
371.672
358.104
351.386
350.52
4916.89
4900.46
4883.38
4867.78
4853.77
4841.57
4830.92
4820.57
4809.9
4800.25
4290.75
4214.67
4164.73
4133.46
4114.85
4104.43
4099.05
4096.47
4095.42
4094.95
608.207
483.304
390.75
331.779
295.482
273.373
260.316
253.722
252.501
254.834
325.256
252.784
200.41
167.354
147.242
135.175
128.232
124.911
124.593
126.088
227.223
182.92
152.746
135.376
125.817
120.531
117.673
116.625
117.579
119.861
192.628
163.329
142.982
131.943
126.305
123.317
121.729
121.319
122.489
124.855
205.989
177.61
155.823
143.435
136.544
132.344
129.636
128.203
128.563
130.507
233.745
200.287
173.106
157.446
148.373
142.637
138.876
136.731
136.297
137.442
291.411
244.49
208.053
186.703
173.758
165.323
159.767
156.442
155.31
156.108
484.81
441.813
407.724
383.592
364.796
349.921
338.005
329.657
326.039
326.988
4733.32
4724.69
4714.73
4704.53
4694.63
4685.49
4677.2
4669.05
4660.35
4652.32
4122.48
4060.14
4020.48
3996.38
3982.4
3974.7
3970.73
3968.77
3968.1
3967.8
531.136
423.725
346.859
299.772
271.887
255.5
246.183
241.759
241.151
243.237
271.747
212.196
171.15
146.455
132.084
123.834
119.318
117.362
117.528
119.013
182.637
150.085
129.668
118.852
113.364
110.594
109.288
109.087
110.228
112.301
148.982
130.579
119.584
114.488
112.385
111.592
111.422
111.852
113.308
115.578
148
133.529
124.251
119.834
117.867
116.905
116.414
116.444
117.562