/*--------------------------------*- C++ -*----------------------------------*\
| =========                 |                                                 |
| \\      /  F ield         | foam-extend: Open Source CFD                    |
|  \\    /   O peration     | Version:     4.0                                |
|   \\  /    A nd           | Web:         http://www.foam-extend.org         |
|    \\/     M anipulation  |                                                 |
\*---------------------------------------------------------------------------*/
FoamFile
{
    version     2.0;
    format      ascii;
    class       volScalarField;
    location    "300";
    object      MaU;
}
// * * * * * * * * * * * * * * * * * * * * * * * * * * * * * * * * * * * * * //

dimensions      [0 0 0 0 0 0 0];

internalField   nonuniform List<scalar> 
34480
(
0.562396
0.564002
0.565237
0.566173
0.5668
0.56716
0.567197
0.566249
0.561958
0.556752
0.56204
0.564401
0.566042
0.567301
0.568079
0.568307
0.567856
0.56619
0.559672
0.55518
0.560835
0.563574
0.565625
0.567331
0.568649
0.569629
0.570214
0.570124
0.564688
0.562697
0.561297
0.564281
0.566707
0.568867
0.570711
0.572348
0.573769
0.575136
0.571325
0.571681
0.562941
0.566281
0.569109
0.571708
0.574024
0.576228
0.578362
0.580995
0.578969
0.581311
0.564088
0.567826
0.57105
0.574023
0.576717
0.579378
0.582111
0.585801
0.585583
0.589749
0.565606
0.569838
0.573498
0.576866
0.579915
0.582968
0.586212
0.590789
0.592356
0.59796
0.566319
0.571034
0.575103
0.57874
0.581922
0.585039
0.588411
0.593393
0.596455
0.603525
0.566888
0.572356
0.577194
0.581532
0.585268
0.588742
0.592313
0.597427
0.601344
0.608655
0.563617
0.569348
0.573957
0.577446
0.579708
0.581091
0.582137
0.584643
0.587828
0.597427
0.553441
0.55533
0.556463
0.556911
0.556554
0.555216
0.552314
0.546549
0.537721
0.525438
0.554498
0.557103
0.558626
0.559442
0.559372
0.558099
0.554937
0.548306
0.536263
0.520465
0.554447
0.557373
0.559274
0.560523
0.560952
0.560325
0.55802
0.552501
0.540728
0.525767
0.555723
0.558847
0.561093
0.562782
0.563727
0.56373
0.562165
0.557738
0.546736
0.533144
0.558032
0.561451
0.564066
0.566183
0.567602
0.56818
0.567284
0.563896
0.553886
0.541826
0.559708
0.563481
0.566469
0.568957
0.570761
0.571813
0.571491
0.569033
0.5601
0.549746
0.561706
0.565908
0.569295
0.572164
0.574322
0.575779
0.575964
0.574358
0.566625
0.557962
0.562762
0.567388
0.571149
0.57428
0.576606
0.578209
0.578628
0.577572
0.570969
0.564333
0.56376
0.568984
0.573394
0.577117
0.579939
0.581946
0.582723
0.582116
0.576347
0.570995
0.560779
0.566265
0.570599
0.573777
0.575594
0.576189
0.575341
0.573268
0.567563
0.565684
0.546344
0.548182
0.549151
0.549354
0.548713
0.547118
0.544258
0.539593
0.532384
0.522417
0.54807
0.550647
0.551992
0.552495
0.552039
0.550338
0.546734
0.540135
0.528451
0.511425
0.54868
0.551619
0.553338
0.554246
0.554212
0.55292
0.549638
0.543052
0.529805
0.509721
0.550481
0.55363
0.555682
0.556993
0.557392
0.556569
0.55369
0.547343
0.533032
0.51044
0.553229
0.556658
0.559059
0.560771
0.561588
0.561243
0.55881
0.552852
0.53787
0.513206
0.555259
0.559026
0.561789
0.563861
0.565032
0.565097
0.563074
0.557554
0.542169
0.515934
0.557583
0.561738
0.564872
0.567306
0.568808
0.569243
0.567619
0.5626
0.547182
0.519845
0.558909
0.563442
0.566921
0.569603
0.571273
0.571871
0.570474
0.565865
0.550669
0.522911
0.56033
0.565334
0.569346
0.572509
0.574559
0.575475
0.574412
0.570282
0.55546
0.527005
0.557717
0.562932
0.56693
0.569713
0.571036
0.570915
0.568709
0.563699
0.549167
0.521557
0.540961
0.542517
0.543273
0.543341
0.542674
0.54124
0.538911
0.535548
0.531022
0.525296
0.542797
0.545137
0.546258
0.546529
0.545879
0.544121
0.540844
0.535394
0.526594
0.514069
0.54371
0.546475
0.547954
0.548551
0.548173
0.546568
0.543182
0.53714
0.526498
0.511257
0.545795
0.548799
0.550594
0.551529
0.551454
0.550088
0.546726
0.540313
0.527978
0.509951
0.548789
0.552076
0.5542
0.555489
0.555735
0.554667
0.551436
0.544839
0.530973
0.510085
0.551031
0.554653
0.557123
0.55874
0.559274
0.558484
0.555402
0.548721
0.533475
0.509835
0.553563
0.557545
0.560358
0.562306
0.563123
0.562611
0.559729
0.553107
0.536841
0.510776
0.555087
0.559408
0.562535
0.564712
0.565682
0.565295
0.562525
0.556014
0.539112
0.511223
0.55682
0.561511
0.565077
0.567652
0.568931
0.568779
0.566175
0.559901
0.542847
0.513168
0.554542
0.559404
0.563013
0.565354
0.566152
0.565303
0.561925
0.554955
0.537942
0.507476
0.536992
0.538199
0.538751
0.538768
0.538235
0.537169
0.535559
0.533437
0.530877
0.527804
0.538617
0.540611
0.541499
0.541636
0.540996
0.539476
0.536861
0.53282
0.526641
0.517465
0.53954
0.542012
0.543244
0.543624
0.543105
0.541519
0.538526
0.533647
0.525823
0.51478
0.541672
0.544419
0.545951
0.546598
0.546247
0.544684
0.54142
0.535835
0.526318
0.513201
0.544707
0.547756
0.5496
0.550545
0.550407
0.548952
0.54553
0.539367
0.528068
0.512423
0.547004
0.550396
0.552573
0.553806
0.553875
0.552542
0.549008
0.542352
0.529238
0.510763
0.549609
0.553352
0.55585
0.557376
0.557667
0.556498
0.552944
0.545967
0.531276
0.509991
0.551238
0.555295
0.558083
0.559819
0.560236
0.559134
0.555542
0.548362
0.532465
0.508729
0.553198
0.557553
0.560701
0.562762
0.563422
0.562488
0.558936
0.551673
0.535108
0.509008
0.55123
0.555718
0.558943
0.560872
0.561223
0.55982
0.555737
0.547879
0.530987
0.503104
0.534052
0.534951
0.535331
0.535334
0.534958
0.53424
0.533207
0.531931
0.530502
0.528673
0.535364
0.536988
0.537656
0.537718
0.537177
0.535987
0.534048
0.53118
0.526838
0.519711
0.536142
0.538257
0.539242
0.539472
0.538939
0.537552
0.535133
0.531451
0.525884
0.51763
0.538163
0.540569
0.541832
0.542262
0.541784
0.540261
0.537411
0.532937
0.526019
0.516517
0.541079
0.543803
0.545361
0.546029
0.545661
0.544084
0.540874
0.53563
0.527095
0.515809
0.543299
0.546378
0.548255
0.549164
0.548917
0.547316
0.543785
0.537795
0.527437
0.513853
0.545864
0.549295
0.551472
0.552633
0.552538
0.55098
0.547237
0.54065
0.528561
0.512459
0.547511
0.55124
0.553685
0.555031
0.555027
0.553467
0.54954
0.542492
0.52895
0.51045
0.549611
0.553587
0.556332
0.557941
0.558119
0.556656
0.55266
0.545285
0.53075
0.509909
0.54791
0.551987
0.554829
0.556378
0.556365
0.554586
0.550202
0.542279
0.527164
0.504283
0.531821
0.532487
0.532741
0.532743
0.532499
0.532046
0.531417
0.530677
0.529884
0.528689
0.532828
0.534118
0.534598
0.534618
0.534203
0.533337
0.531974
0.529994
0.526889
0.52107
0.5334
0.53515
0.535907
0.53604
0.535568
0.534451
0.532614
0.52995
0.526011
0.519613
0.535225
0.537255
0.53826
0.538534
0.538039
0.536697
0.534379
0.530987
0.526101
0.519079
0.537913
0.540262
0.541541
0.541998
0.541528
0.54002
0.537239
0.533045
0.526867
0.518721
0.539963
0.54267
0.544248
0.544899
0.544472
0.542826
0.539593
0.53455
0.526768
0.516943
0.542401
0.545462
0.547319
0.548178
0.547835
0.546124
0.542543
0.536753
0.527339
0.51551
0.543984
0.547334
0.549439
0.550454
0.550163
0.548381
0.544505
0.538091
0.527214
0.51336
0.546149
0.549711
0.552067
0.553294
0.553128
0.551379
0.547348
0.54046
0.528474
0.512658
0.544669
0.548302
0.550766
0.551977
0.551696
0.549726
0.545384
0.537979
0.525285
0.507624
0.530059
0.53057
0.530738
0.530741
0.530591
0.530317
0.529944
0.52952
0.529074
0.528197
0.530811
0.531829
0.53216
0.532157
0.531857
0.531258
0.530338
0.528996
0.526722
0.521776
0.531179
0.532594
0.533153
0.533224
0.532842
0.531999
0.530671
0.528803
0.526001
0.520852
0.532779
0.534438
0.53521
0.535378
0.534929
0.533831
0.532046
0.529578
0.526178
0.520852
0.535181
0.537143
0.53816
0.538463
0.537981
0.536656
0.534387
0.531182
0.526829
0.520887
0.537003
0.539313
0.540604
0.541056
0.540558
0.53902
0.536247
0.532205
0.526549
0.519461
0.539259
0.541915
0.543464
0.544081
0.543607
0.541927
0.53873
0.533905
0.526844
0.518268
0.540715
0.543648
0.545423
0.546167
0.545706
0.543898
0.54034
0.534826
0.526443
0.5163
0.542885
0.546007
0.547993
0.548905
0.548521
0.546689
0.542914
0.536866
0.527414
0.515808
0.541577
0.544744
0.54684
0.547761
0.547307
0.545309
0.541267
0.534735
0.524558
0.511499
0.528603
0.529019
0.529131
0.529137
0.529047
0.528885
0.528667
0.528425
0.528168
0.527456
0.529148
0.529961
0.53018
0.530164
0.529956
0.529558
0.528955
0.528059
0.526363
0.52206
0.52934
0.530472
0.530871
0.530902
0.530613
0.530008
0.529088
0.527817
0.525812
0.521541
0.530728
0.532055
0.532628
0.532724
0.532351
0.531502
0.530188
0.528455
0.526116
0.521966
0.532826
0.534422
0.535205
0.535399
0.534961
0.533869
0.532104
0.529746
0.526738
0.522335
0.5344
0.536316
0.537343
0.537647
0.537153
0.535815
0.533555
0.530443
0.526427
0.521294
0.536447
0.538692
0.53995
0.540381
0.539867
0.53834
0.535638
0.531787
0.526631
0.52045
0.537727
0.54023
0.541692
0.542222
0.541688
0.539996
0.536908
0.532385
0.526119
0.518795
0.539864
0.542535
0.544174
0.544835
0.544339
0.542578
0.539241
0.534187
0.526984
0.51867
0.538683
0.541374
0.543119
0.543802
0.543259
0.541365
0.537788
0.532294
0.524429
0.515081
0.527346
0.527707
0.527784
0.52779
0.527737
0.527642
0.527514
0.527376
0.527221
0.526595
0.527715
0.528378
0.528519
0.528495
0.528354
0.528096
0.527713
0.527125
0.525845
0.522064
0.527765
0.528672
0.528947
0.528953
0.528743
0.528327
0.527714
0.526875
0.525436
0.521821
0.528977
0.530027
0.530439
0.530489
0.530197
0.529571
0.52864
0.527462
0.52587
0.522555
0.530779
0.532053
0.532639
0.532758
0.532389
0.531534
0.530216
0.528537
0.526494
0.523168
0.532111
0.533664
0.534459
0.534655
0.534211
0.53311
0.531345
0.529032
0.526234
0.522478
0.53395
0.5358
0.536796
0.537089
0.536596
0.535289
0.533107
0.530146
0.526462
0.522002
0.535022
0.537104
0.538278
0.538643
0.538109
0.53662
0.534064
0.530499
0.525931
0.52068
0.537108
0.539336
0.540657
0.541122
0.540595
0.539012
0.5362
0.53215
0.526813
0.520959
0.536014
0.538235
0.539655
0.540145
0.539583
0.537885
0.534859
0.530426
0.52453
0.518017
0.526212
0.52654
0.526596
0.526603
0.526572
0.526515
0.52644
0.526359
0.52626
0.525676
0.52642
0.526978
0.527067
0.527038
0.526943
0.52678
0.526543
0.526167
0.525201
0.521882
0.526357
0.527092
0.527277
0.527268
0.52712
0.526844
0.526451
0.525916
0.524886
0.521798
0.527441
0.528275
0.528564
0.528586
0.528367
0.527921
0.527283
0.526507
0.525435
0.522737
0.528972
0.529981
0.530407
0.530476
0.530183
0.529541
0.528589
0.52743
0.526064
0.523495
0.530085
0.531324
0.531921
0.532044
0.53167
0.530806
0.529477
0.527811
0.525893
0.523099
0.531735
0.533229
0.533996
0.534187
0.533753
0.53269
0.530995
0.528793
0.52621
0.522965
0.532581
0.534271
0.535188
0.535431
0.534942
0.533699
0.531668
0.528958
0.5257
0.521936
0.534616
0.536427
0.537463
0.537782
0.537281
0.535932
0.533661
0.530534
0.526676
0.522593
0.533571
0.535349
0.536473
0.536814
0.536283
0.534834
0.532377
0.528931
0.524631
0.520197
0.525145
0.525451
0.525494
0.525501
0.525482
0.525448
0.525402
0.525354
0.525284
0.524718
0.525199
0.525685
0.525741
0.525711
0.525645
0.525543
0.525403
0.525172
0.524452
0.521565
0.525041
0.525651
0.525774
0.525756
0.525654
0.525475
0.525233
0.524908
0.524179
0.521543
0.526051
0.526727
0.526928
0.526933
0.526774
0.526466
0.52604
0.525544
0.524829
0.522605
0.527341
0.528143
0.528447
0.528483
0.52826
0.527795
0.527129
0.52635
0.525447
0.523419
0.528271
0.52925
0.529688
0.52976
0.529462
0.52881
0.527843
0.526675
0.525378
0.523253
0.529761
0.530948
0.531522
0.531643
0.531284
0.530455
0.529187
0.527598
0.525815
0.523414
0.530371
0.531713
0.532408
0.532563
0.532145
0.531154
0.5296
0.527608
0.525328
0.522606
0.532371
0.533806
0.534597
0.534808
0.534367
0.533272
0.531509
0.529176
0.52645
0.523603
0.531338
0.532713
0.533578
0.533808
0.533341
0.532159
0.530238
0.527652
0.524595
0.521642
0.524097
0.524384
0.524419
0.524426
0.524414
0.524393
0.524364
0.524333
0.524279
0.523721
0.524009
0.524447
0.524486
0.524457
0.52441
0.524347
0.524268
0.524135
0.52361
0.521141
0.523761
0.524284
0.524366
0.524345
0.524274
0.524161
0.524019
0.523834
0.52333
0.5211
0.524757
0.525323
0.525464
0.52546
0.525348
0.525139
0.524861
0.524552
0.524078
0.522234
0.525833
0.526482
0.526696
0.526711
0.526547
0.526221
0.525767
0.525256
0.524663
0.523027
0.526619
0.527394
0.527708
0.527746
0.527519
0.527045
0.526362
0.525565
0.524694
0.523031
0.527986
0.528919
0.529337
0.529409
0.529126
0.528507
0.527589
0.526476
0.52526
0.523436
0.528354
0.529399
0.52991
0.530004
0.529666
0.528908
0.527761
0.526342
0.524774
0.522766
0.530349
0.53146
0.532043
0.532178
0.531814
0.530963
0.529645
0.527961
0.526077
0.524069
0.529285
0.53031
0.530956
0.531105
0.530717
0.529794
0.528346
0.526469
0.52435
0.522426
0.523019
0.52329
0.523318
0.523324
0.523317
0.523303
0.523284
0.523263
0.523216
0.522667
0.522825
0.523233
0.523266
0.52324
0.523205
0.523166
0.523123
0.523055
0.522685
0.52062
0.522477
0.522941
0.523001
0.52298
0.52293
0.522859
0.522779
0.522684
0.522346
0.520492
0.523519
0.524012
0.524116
0.524108
0.52403
0.523891
0.523712
0.523522
0.523208
0.521674
0.524407
0.524945
0.525095
0.525098
0.52498
0.524757
0.524456
0.524128
0.523737
0.522388
0.525088
0.525708
0.525928
0.525945
0.525779
0.525445
0.524977
0.524446
0.523861
0.522517
0.526366
0.527096
0.527392
0.527432
0.527219
0.526774
0.526132
0.525373
0.524553
0.523118
0.526488
0.52729
0.527654
0.527706
0.527445
0.526888
0.526071
0.525092
0.524029
0.522502
0.52852
0.529362
0.529779
0.529862
0.529577
0.528942
0.527992
0.526815
0.525542
0.524092
0.527373
0.528107
0.528574
0.528666
0.528361
0.527668
0.526616
0.525298
0.523865
0.522642
0.521858
0.522118
0.522141
0.522147
0.522143
0.522133
0.522119
0.522104
0.522061
0.521529
0.521635
0.522028
0.522063
0.522042
0.522015
0.521989
0.521966
0.521937
0.521685
0.520004
0.521159
0.521585
0.521635
0.521616
0.52158
0.521535
0.521491
0.521449
0.521231
0.519724
0.52231
0.522756
0.522837
0.52283
0.522775
0.522683
0.522568
0.522452
0.522237
0.520963
0.523029
0.523489
0.523594
0.523591
0.523509
0.52336
0.523165
0.522958
0.522692
0.521558
0.523644
0.524148
0.5243
0.524306
0.524187
0.523959
0.523648
0.523301
0.522903
0.521781
0.524862
0.525433
0.525637
0.525657
0.525503
0.525194
0.52476
0.524259
0.523708
0.522536
0.524733
0.525341
0.525594
0.52562
0.525428
0.525033
0.52447
0.523815
0.523103
0.5219
0.526859
0.527487
0.527776
0.527825
0.527612
0.527157
0.526497
0.525699
0.524859
0.523775
0.525552
0.526058
0.526385
0.52644
0.526211
0.525711
0.524972
0.524077
0.523131
0.522375
0.520567
0.520811
0.52083
0.520835
0.520832
0.520825
0.520815
0.520803
0.520765
0.520264
0.520446
0.520833
0.520875
0.52086
0.52084
0.520819
0.520805
0.520794
0.520625
0.519298
0.519787
0.520187
0.520235
0.52022
0.520194
0.520163
0.520138
0.520123
0.519984
0.518792
0.521111
0.521523
0.521591
0.521585
0.521547
0.521486
0.521411
0.521336
0.521179
0.520119
0.521679
0.522079
0.522157
0.522152
0.522095
0.521998
0.521873
0.521742
0.52155
0.52058
0.522262
0.522679
0.522786
0.522786
0.522705
0.522553
0.52235
0.522126
0.521848
0.520884
0.523437
0.523884
0.524023
0.524032
0.523925
0.523717
0.523433
0.52311
0.522742
0.521756
0.523054
0.523515
0.523687
0.5237
0.523564
0.523293
0.522916
0.522488
0.522013
0.521035
0.525347
0.525812
0.526007
0.526036
0.525884
0.52557
0.525125
0.5246
0.524058
0.523217
0.523763
0.524099
0.524325
0.524357
0.524193
0.523845
0.523341
0.52275
0.522138
0.521685
0.519071
0.519278
0.519293
0.519297
0.519296
0.519291
0.519283
0.519273
0.519241
0.518794
0.519293
0.519677
0.51973
0.519723
0.519706
0.519688
0.519674
0.519663
0.519544
0.518524
0.518359
0.518738
0.518789
0.518781
0.518762
0.51874
0.518721
0.51871
0.518612
0.517691
0.519908
0.520287
0.520348
0.520346
0.52032
0.520278
0.520226
0.520171
0.520042
0.519158
0.520346
0.520699
0.520763
0.520762
0.520725
0.52066
0.520577
0.520487
0.520334
0.519491
0.52093
0.521279
0.52136
0.521363
0.52131
0.52121
0.521075
0.520926
0.520718
0.519876
0.522063
0.522414
0.522511
0.522517
0.522446
0.522309
0.522125
0.521917
0.521667
0.520827
0.521443
0.521795
0.521917
0.521928
0.521836
0.521654
0.521402
0.521121
0.520796
0.519987
0.523985
0.524331
0.524465
0.524483
0.52438
0.52417
0.523876
0.523535
0.523187
0.522516
0.521904
0.522125
0.522281
0.522303
0.522192
0.521956
0.521618
0.521234
0.520836
0.520573
0.517166
0.517331
0.517343
0.517348
0.517348
0.517344
0.517338
0.517329
0.517305
0.51694
0.518275
0.518654
0.518716
0.518719
0.518708
0.518691
0.518672
0.518649
0.518545
0.517766
0.516927
0.517284
0.517347
0.517353
0.517343
0.517324
0.517301
0.517275
0.51718
0.516465
0.518694
0.519034
0.519094
0.519101
0.519086
0.519056
0.519014
0.518962
0.518841
0.5181
0.519037
0.519348
0.519412
0.519422
0.519402
0.519357
0.519293
0.519216
0.519074
0.518338
0.519644
0.519941
0.520015
0.520027
0.519996
0.519928
0.519831
0.519715
0.519541
0.518807
0.520722
0.521001
0.521078
0.521089
0.521046
0.520954
0.520828
0.520683
0.520499
0.519794
0.519958
0.52024
0.520339
0.520356
0.520298
0.520175
0.519999
0.519797
0.519548
0.518878
0.522829
0.523089
0.523187
0.523204
0.523138
0.522997
0.522802
0.522574
0.522341
0.521799
0.519775
0.519928
0.520044
0.520064
0.519991
0.519834
0.519606
0.519349
0.519073
0.518915
0.514564
0.514674
0.51469
0.514698
0.514701
0.514697
0.514687
0.514672
0.514648
0.514385
0.517623
0.517969
0.518035
0.518048
0.518045
0.518032
0.518011
0.517978
0.517875
0.517268
0.515651
0.515984
0.51607
0.516099
0.516104
0.516089
0.516054
0.515998
0.515874
0.515289
0.517474
0.517763
0.51783
0.517852
0.517851
0.517829
0.517789
0.517729
0.517604
0.516993
0.517758
0.518029
0.518107
0.518135
0.518131
0.518098
0.518038
0.517952
0.517801
0.517176
0.518386
0.518642
0.518723
0.518752
0.518739
0.518689
0.518607
0.518495
0.518323
0.517707
0.519387
0.519616
0.519693
0.519716
0.519693
0.519629
0.51953
0.519404
0.519237
0.518672
0.518738
0.518983
0.519081
0.519109
0.519077
0.518989
0.518853
0.51868
0.518448
0.517888
0.521993
0.52219
0.52227
0.522289
0.522248
0.522152
0.522013
0.521846
0.521671
0.521248
0.517053
0.517177
0.517272
0.517294
0.517249
0.51714
0.516979
0.516791
0.516571
0.516449
0.511191
0.51128
0.511312
0.511331
0.511337
0.51133
0.51131
0.511276
0.511228
0.511056
0.517494
0.517716
0.517756
0.517767
0.517771
0.517771
0.517765
0.517752
0.517698
0.517311
0.514654
0.514935
0.51504
0.515094
0.515114
0.515104
0.515065
0.514989
0.514845
0.514386
0.516194
0.516411
0.516486
0.516523
0.516533
0.51652
0.516482
0.516417
0.516299
0.515873
0.516423
0.516649
0.51674
0.516784
0.516792
0.516766
0.516708
0.516612
0.516454
0.515995
0.517018
0.517236
0.517329
0.51737
0.517369
0.51733
0.517254
0.517137
0.516956
0.516498
0.517904
0.518099
0.518185
0.518219
0.518208
0.518157
0.518069
0.517944
0.517767
0.517351
0.517689
0.517915
0.518017
0.518054
0.518035
0.517966
0.517851
0.517687
0.517446
0.516975
0.521352
0.521497
0.521567
0.521587
0.521558
0.521485
0.521375
0.521239
0.52109
0.520809
0.513619
0.513739
0.513821
0.513843
0.51381
0.513727
0.513602
0.513448
0.513258
0.513119
0.393139
0.372908
0.379099
0.418638
0.347974
0.323885
0.332858
0.389217
0.311659
0.283537
0.29746
0.37386
0.280795
0.249619
0.269951
0.359875
0.255289
0.222062
0.249246
0.350575
0.232769
0.198263
0.232613
0.34298
0.214194
0.179775
0.221437
0.338912
0.196588
0.16383
0.213148
0.335584
0.181299
0.152853
0.209718
0.336357
0.16347
0.141373
0.204826
0.331103
0.448223
0.437474
0.437459
0.447053
0.41839
0.404015
0.403478
0.414788
0.392977
0.374515
0.374442
0.390017
0.370223
0.34732
0.346982
0.366753
0.351076
0.323296
0.322208
0.346144
0.333926
0.300707
0.298207
0.326291
0.320139
0.281325
0.277056
0.309334
0.30761
0.26333
0.256994
0.293434
0.29821
0.249345
0.240975
0.281176
0.286662
0.234618
0.222711
0.265027
0.507681
0.504585
0.504002
0.505774
0.483834
0.478527
0.477253
0.479818
0.468953
0.4615
0.459871
0.463941
0.453397
0.443588
0.441665
0.447634
0.438032
0.425644
0.423376
0.431444
0.421626
0.406366
0.403632
0.413891
0.406519
0.388226
0.38494
0.397448
0.391434
0.370149
0.366257
0.380904
0.379135
0.35571
0.351277
0.367255
0.364019
0.340407
0.335
0.349808
0.517964
0.515927
0.515549
0.516723
0.499604
0.496456
0.495513
0.496621
0.491881
0.487749
0.486451
0.487739
0.483257
0.477905
0.476306
0.478061
0.473963
0.467159
0.465254
0.46772
0.462511
0.454022
0.451774
0.455176
0.451185
0.44087
0.438267
0.442827
0.438907
0.426786
0.42385
0.429683
0.42848
0.415246
0.412068
0.418731
0.414501
0.402029
0.398366
0.403982
0.523372
0.521833
0.52161
0.52265
0.507614
0.505428
0.504835
0.505744
0.503262
0.500646
0.499774
0.500547
0.498827
0.495617
0.494458
0.495197
0.493762
0.489745
0.488264
0.489081
0.486302
0.481257
0.479425
0.480467
0.478544
0.472327
0.47016
0.471604
0.469481
0.462084
0.459638
0.461636
0.462025
0.453988
0.451386
0.453758
0.451029
0.444092
0.441169
0.442487
0.524992
0.523594
0.523434
0.524465
0.51144
0.509615
0.509196
0.510104
0.508782
0.506758
0.506168
0.506936
0.506588
0.504295
0.503519
0.504173
0.504052
0.501355
0.500334
0.500871
0.49928
0.496006
0.494683
0.495149
0.49418
0.490194
0.488558
0.489049
0.487782
0.483045
0.481138
0.481769
0.483077
0.478004
0.475956
0.476654
0.474843
0.470989
0.468687
0.468266
0.52537
0.524048
0.523915
0.524928
0.513674
0.512053
0.511728
0.512622
0.51213
0.510432
0.510008
0.510789
0.511218
0.509405
0.508879
0.509569
0.510082
0.508074
0.507393
0.507963
0.506943
0.504621
0.503727
0.504168
0.503596
0.500861
0.499723
0.500069
0.499119
0.495932
0.494568
0.494881
0.496676
0.493355
0.491862
0.492066
0.490617
0.488583
0.486899
0.485919
0.525082
0.523806
0.523685
0.524675
0.514914
0.513417
0.513142
0.514012
0.514147
0.512638
0.512308
0.513088
0.514095
0.512552
0.512175
0.512899
0.513822
0.512191
0.511729
0.512372
0.511729
0.509929
0.509332
0.509875
0.509554
0.507519
0.506757
0.507197
0.506432
0.504143
0.503217
0.503573
0.505669
0.503386
0.502352
0.502502
0.501202
0.50027
0.499117
0.498061
0.524489
0.523248
0.52313
0.524093
0.515622
0.51422
0.513976
0.514817
0.515377
0.513997
0.513724
0.514488
0.515897
0.514524
0.514237
0.514973
0.516184
0.51478
0.514454
0.515151
0.51483
0.513336
0.512934
0.51357
0.513501
0.511877
0.511371
0.51193
0.511344
0.509588
0.508974
0.509446
0.51169
0.510027
0.509328
0.509559
0.508439
0.50817
0.507416
0.506453
0.523744
0.522533
0.522415
0.523349
0.516007
0.51469
0.51447
0.515277
0.516091
0.514814
0.51458
0.515321
0.516974
0.515723
0.515495
0.516229
0.51761
0.516354
0.516116
0.516842
0.516793
0.515492
0.515216
0.515913
0.516103
0.514733
0.514395
0.51504
0.514635
0.513207
0.5128
0.513371
0.515699
0.514404
0.513937
0.51427
0.513412
0.513535
0.513057
0.512226
0.522925
0.52174
0.52162
0.522522
0.516202
0.51497
0.514772
0.515542
0.516464
0.515281
0.515078
0.51579
0.517557
0.516405
0.51622
0.516941
0.518379
0.517234
0.517057
0.517792
0.51795
0.516782
0.516588
0.517316
0.517745
0.516542
0.516311
0.517006
0.516754
0.515535
0.515262
0.515895
0.518284
0.517211
0.516896
0.517315
0.51678
0.517124
0.516829
0.516123
0.522058
0.520898
0.520774
0.521645
0.51628
0.515137
0.514963
0.515691
0.516598
0.51551
0.515336
0.516013
0.517793
0.516732
0.516582
0.517282
0.518677
0.517626
0.517492
0.518219
0.518519
0.517454
0.517315
0.518047
0.518679
0.517597
0.517436
0.518146
0.517994
0.516916
0.516729
0.517389
0.519823
0.518884
0.518667
0.519148
0.518959
0.519418
0.519241
0.518641
0.521148
0.520011
0.519884
0.520723
0.516281
0.515236
0.515086
0.515768
0.516557
0.515566
0.515421
0.51606
0.517782
0.516812
0.516692
0.517361
0.518633
0.517668
0.517566
0.51827
0.518654
0.517678
0.517576
0.51829
0.519082
0.518096
0.51798
0.51868
0.518556
0.517582
0.517448
0.518109
0.520578
0.519719
0.519565
0.52009
0.520231
0.520737
0.520635
0.520124
0.520183
0.51907
0.51894
0.519748
0.516225
0.515287
0.515164
0.515793
0.516372
0.515486
0.51537
0.515964
0.517594
0.516716
0.516622
0.517251
0.518337
0.517457
0.51738
0.518043
0.518468
0.517575
0.517496
0.518172
0.519084
0.51818
0.51809
0.51876
0.51859
0.517696
0.517594
0.518238
0.520752
0.51994
0.519825
0.520381
0.520801
0.52131
0.521254
0.520819
0.519143
0.518058
0.517927
0.518705
0.516118
0.5153
0.515204
0.515769
0.516057
0.515283
0.515198
0.515738
0.517272
0.51649
0.516419
0.516993
0.517853
0.517059
0.516999
0.517606
0.518041
0.517226
0.517161
0.517783
0.518778
0.517947
0.517872
0.518497
0.518214
0.517381
0.517297
0.517916
0.52051
0.519723
0.519634
0.520213
0.520818
0.521296
0.521267
0.520901
0.518002
0.51695
0.516822
0.51757
0.515965
0.515279
0.515211
0.515697
0.515611
0.514957
0.5149
0.515372
0.516839
0.516159
0.516105
0.516608
0.517222
0.516516
0.516464
0.516999
0.517432
0.51669
0.516629
0.517188
0.518235
0.517466
0.517398
0.517976
0.517523
0.516737
0.516663
0.517254
0.520001
0.519228
0.519154
0.51975
0.520378
0.520803
0.520788
0.520486
0.516698
0.515691
0.515572
0.516287
0.515782
0.515236
0.515192
0.515582
0.515024
0.514497
0.514461
0.514845
0.516302
0.515726
0.515681
0.516096
0.516471
0.515848
0.515797
0.51625
0.516685
0.516009
0.515947
0.51644
0.517517
0.516802
0.516736
0.517269
0.516624
0.515873
0.515803
0.516371
0.519372
0.518612
0.518548
0.519152
0.519504
0.519856
0.519847
0.519607
0.515077
0.514141
0.514038
0.514708
0.515624
0.515223
0.515193
0.515465
0.51431
0.513908
0.51388
0.514154
0.515655
0.515179
0.515133
0.515449
0.515627
0.515078
0.515021
0.515392
0.515857
0.515236
0.51517
0.515604
0.516702
0.516032
0.515967
0.516462
0.515682
0.514959
0.51489
0.515435
0.518815
0.518076
0.518019
0.518614
0.518084
0.518344
0.518335
0.518157
0.512865
0.51205
0.511972
0.51256
0.515663
0.515388
0.515358
0.515504
0.513562
0.513259
0.513218
0.513373
0.51491
0.514515
0.514461
0.514685
0.514755
0.514265
0.514198
0.514499
0.515036
0.514464
0.514393
0.514776
0.515897
0.515276
0.515212
0.515665
0.514965
0.514279
0.514209
0.514717
0.518621
0.517939
0.517886
0.518433
0.515831
0.515972
0.515957
0.51585
0.510033
0.509468
0.509423
0.509823
0.516138
0.515948
0.515912
0.515973
0.512968
0.512712
0.512645
0.512716
0.514192
0.513857
0.513792
0.513954
0.514021
0.513596
0.513522
0.51376
0.514362
0.513872
0.513799
0.514107
0.515206
0.514688
0.514624
0.514981
0.514635
0.514046
0.513974
0.514381
0.518956
0.518427
0.518383
0.518789
0.512628
0.512606
0.512587
0.512587
0.533602
0.541216
0.545581
0.54834
0.55126
0.553879
0.556025
0.557766
0.559223
0.560719
0.524545
0.528279
0.536417
0.541266
0.5457
0.549179
0.552022
0.554403
0.556504
0.558766
0.527379
0.524781
0.535776
0.540877
0.545615
0.548858
0.55143
0.553551
0.555466
0.557606
0.530181
0.521499
0.53543
0.540655
0.545852
0.549083
0.551727
0.553921
0.555934
0.558135
0.532873
0.518875
0.535554
0.540653
0.546454
0.549824
0.552741
0.555172
0.557402
0.559752
0.533135
0.51465
0.533983
0.538938
0.545551
0.549237
0.55262
0.555437
0.558051
0.560727
0.533805
0.511413
0.533138
0.537846
0.545271
0.549235
0.553075
0.556248
0.559181
0.562095
0.532403
0.506902
0.53093
0.535409
0.543693
0.547932
0.552274
0.555852
0.559226
0.562554
0.532236
0.504792
0.530731
0.534428
0.543085
0.547154
0.551844
0.555681
0.55932
0.562928
0.516486
0.49029
0.518084
0.522575
0.532896
0.538445
0.544652
0.549728
0.554402
0.558846
0.483159
0.503502
0.518259
0.528564
0.535608
0.540592
0.544253
0.547043
0.549258
0.551291
0.460204
0.489954
0.510899
0.523535
0.531758
0.537541
0.541886
0.545279
0.548046
0.550653
0.45155
0.487181
0.511381
0.524471
0.53277
0.53834
0.542412
0.545554
0.548148
0.550667
0.445927
0.485676
0.512115
0.525485
0.53402
0.539588
0.543672
0.546842
0.549492
0.552037
0.442539
0.485119
0.513294
0.526715
0.535602
0.541293
0.545554
0.548893
0.5517
0.55435
0.438898
0.483179
0.512844
0.526236
0.535645
0.541602
0.546205
0.549848
0.552961
0.555869
0.43704
0.482063
0.513027
0.526255
0.536199
0.542385
0.547322
0.55125
0.554625
0.557738
0.43466
0.479718
0.511919
0.524893
0.535389
0.541776
0.547082
0.551341
0.555083
0.558545
0.434167
0.479308
0.512606
0.524758
0.535346
0.541566
0.547134
0.551641
0.555629
0.559356
0.424342
0.469366
0.50336
0.515439
0.527074
0.534322
0.541018
0.54648
0.551284
0.555589
0.511748
0.517737
0.523051
0.527709
0.531714
0.535101
0.537944
0.54033
0.542374
0.544319
0.490005
0.501805
0.511725
0.519648
0.526047
0.531206
0.535367
0.538739
0.541552
0.544194
0.479438
0.495628
0.50875
0.518453
0.52582
0.531405
0.535721
0.539147
0.542009
0.544717
0.47038
0.490934
0.507127
0.518366
0.5266
0.532611
0.537178
0.540778
0.543773
0.546549
0.46292
0.487541
0.50656
0.519058
0.528085
0.534519
0.539389
0.543218
0.546398
0.549282
0.455153
0.483303
0.50491
0.518464
0.528284
0.535172
0.540425
0.544571
0.548037
0.551149
0.449231
0.480281
0.504194
0.518542
0.529059
0.536313
0.541906
0.546331
0.550048
0.553348
0.443376
0.476662
0.50264
0.517518
0.528627
0.53616
0.542085
0.546818
0.550854
0.554446
0.440039
0.475234
0.502944
0.517752
0.529023
0.536547
0.542707
0.547675
0.551936
0.55574
0.429956
0.466377
0.495275
0.510307
0.52237
0.530675
0.537668
0.543374
0.548267
0.552452
0.520137
0.522844
0.525337
0.52784
0.530233
0.532428
0.534398
0.536148
0.537727
0.539334
0.5015
0.50811
0.514192
0.519571
0.524234
0.528211
0.531564
0.534379
0.536809
0.539187
0.49365
0.502384
0.510522
0.517388
0.52305
0.527663
0.531432
0.534554
0.537247
0.539853
0.485998
0.49753
0.508045
0.516474
0.523173
0.528463
0.532704
0.53617
0.539115
0.541869
0.478651
0.493411
0.506463
0.516441
0.524181
0.530149
0.534869
0.538683
0.541886
0.544792
0.470041
0.488204
0.503853
0.51532
0.524098
0.530742
0.535968
0.540174
0.543698
0.546841
0.462518
0.484052
0.502215
0.514988
0.52469
0.531899
0.537557
0.542097
0.545896
0.549232
0.454852
0.479497
0.499996
0.513813
0.524282
0.53193
0.537971
0.54284
0.546946
0.550539
0.449668
0.477141
0.499649
0.513983
0.524847
0.532687
0.539
0.544111
0.548426
0.552188
0.439366
0.46906
0.49296
0.507827
0.519406
0.527881
0.53483
0.540515
0.545322
0.549313
0.525317
0.526655
0.527651
0.528783
0.530001
0.531226
0.53241
0.53353
0.534608
0.535827
0.50949
0.513973
0.517771
0.521168
0.52424
0.52699
0.52941
0.531523
0.533433
0.535429
0.504215
0.509394
0.514219
0.518586
0.522465
0.525856
0.528793
0.531347
0.533649
0.535981
0.499174
0.505524
0.51172
0.517261
0.522091
0.526226
0.529745
0.532752
0.535396
0.537951
0.493805
0.501842
0.509777
0.516694
0.522594
0.527528
0.531647
0.535102
0.53808
0.540843
0.486489
0.49667
0.506643
0.515057
0.52209
0.527842
0.53258
0.536514
0.539868
0.542901
0.479559
0.492191
0.504339
0.514212
0.522309
0.528786
0.534064
0.538406
0.542083
0.545334
0.472101
0.487261
0.501551
0.512709
0.521722
0.528793
0.534534
0.539254