/*--------------------------------*- C++ -*----------------------------------*\
| =========                 |                                                 |
| \\      /  F ield         | foam-extend: Open Source CFD                    |
|  \\    /   O peration     | Version:     4.0                                |
|   \\  /    A nd           | Web:         http://www.foam-extend.org         |
|    \\/     M anipulation  |                                                 |
\*---------------------------------------------------------------------------*/
FoamFile
{
    version     2.0;
    format      ascii;
    class       surfaceScalarField;
    location    "300";
    object      phi;
}
// * * * * * * * * * * * * * * * * * * * * * * * * * * * * * * * * * * * * * //

dimensions      [1 0 -1 0 0 0 0];

internalField   nonuniform List<scalar> 
97302
(
-0.000106665
1.10906e-06
-0.000789461
0.000796734
-0.000114962
1.4197e-06
-0.000791288
0.000798166
-0.000123652
1.6271e-06
-0.000792642
0.000799705
-0.000133294
1.73956e-06
-0.000793548
0.00080145
-0.00014471
1.74426e-06
-0.000793927
0.000803599
-0.000159332
1.6222e-06
-0.00079371
0.00080671
-0.000180095
1.33068e-06
-0.000792355
0.000811787
-0.000213464
8.20332e-07
-0.000788058
0.000820605
-0.000259417
-5.08707e-08
-0.000779762
0.000825795
-2.58366e-06
-0.000753101
-0.000336044
0.000832312
-0.000146434
2.32868e-06
-0.00105306
0.00106014
-0.000154726
2.97678e-06
-0.00105685
0.00106359
-0.000163459
3.38365e-06
-0.00105931
0.00106628
-0.000173119
3.60025e-06
-0.00106103
0.00106883
-0.000184537
3.60784e-06
-0.00106179
0.00107135
-0.000199382
3.3766e-06
-0.0010613
0.00107439
-0.000221096
2.82495e-06
-0.00105889
0.00107911
-0.000258358
1.85204e-06
-0.00105228
0.00108851
-0.000311496
1.1027e-07
-0.00103833
0.00109133
-4.29031e-06
-0.000997401
-0.000410743
0.00109835
-0.000185884
3.58582e-06
-0.00131613
0.00132298
-0.000193963
4.53723e-06
-0.00132148
0.001328
-0.000202479
5.10361e-06
-0.00132518
0.00133198
-0.000211968
5.38595e-06
-0.00132796
0.00133567
-0.000223465
5.37437e-06
-0.00132969
0.00133942
-0.000238998
5.06379e-06
-0.0013303
0.00134415
-0.000262455
4.37954e-06
-0.0013295
0.0013514
-0.000304196
3.20943e-06
-0.00132496
0.00136534
-0.000363975
9.8459e-07
-0.00131166
0.00137057
-4.8472e-06
-0.00126273
-0.000478084
0.0013774
-0.000225646
4.86319e-06
-0.00158518
0.00159235
-0.000234085
6.09314e-06
-0.00159165
0.00159854
-0.000243003
6.80911e-06
-0.00159651
0.00160372
-0.000252945
7.15766e-06
-0.00160052
0.00160869
-0.000264985
7.12265e-06
-0.00160347
0.00161377
-0.000281331
6.7265e-06
-0.0016054
0.00162008
-0.000306329
5.90373e-06
-0.00160624
0.00162971
-0.000351821
4.55779e-06
-0.00160426
0.00164841
-0.00041707
1.92531e-06
-0.00159347
0.00165778
-5.26184e-06
-0.00153736
-0.000541633
0.00166233
-0.000265853
5.93813e-06
-0.00186032
0.00186808
-0.000274647
7.3536e-06
-0.0018681
0.00187563
-0.000283926
8.17252e-06
-0.00187427
0.00188219
-0.000294227
8.56291e-06
-0.00187955
0.00188845
-0.000306649
8.5037e-06
-0.00188375
0.00189479
-0.000323533
8.036e-06
-0.00188696
0.00190253
-0.000349697
7.10707e-06
-0.00188937
0.00191433
-0.000398272
5.65301e-06
-0.00189008
0.00193756
-0.000468285
2.75688e-06
-0.0018829
0.00195208
-5.6443e-06
-0.00181926
-0.000600215
0.00195157
-0.000306844
6.39249e-06
-0.00213761
0.00214636
-0.000315988
7.9303e-06
-0.00214693
0.0021555
-0.000325588
8.8016e-06
-0.00215443
0.0021634
-0.000336166
9.19269e-06
-0.00216087
0.00217082
-0.000348819
9.08174e-06
-0.0021661
0.00217817
-0.000365984
8.52692e-06
-0.00217038
0.00218705
-0.000392906
7.49025e-06
-0.00217418
0.00220072
-0.000443795
5.94568e-06
-0.00217738
0.00222798
-0.000517731
2.93291e-06
-0.00217446
0.00224822
-6.4514e-06
-0.00210251
-0.000654631
0.00224021
-0.000348117
6.05371e-06
-0.00241711
0.00242683
-0.000357387
7.58382e-06
-0.00242822
0.00243784
-0.000367099
8.44832e-06
-0.00243726
0.00244732
-0.000377734
8.78236e-06
-0.00244483
0.00245587
-0.000390393
8.57277e-06
-0.00245092
0.00246409
-0.000407557
7.87587e-06
-0.00245602
0.00247384
-0.000434845
6.71687e-06
-0.00246098
0.00248904
-0.000487301
5.14176e-06
-0.00246658
0.00251984
-0.000564395
2.38645e-06
-0.00246852
0.00254616
-7.31335e-06
-0.00238756
-0.000704346
0.00252837
-0.000390619
4.5973e-06
-0.00269839
0.00270938
-0.000400055
5.95019e-06
-0.00271168
0.00272274
-0.000409931
6.67185e-06
-0.00272231
0.00273396
-0.000420684
6.83914e-06
-0.00273082
0.00274351
-0.000433331
6.43935e-06
-0.00273722
0.002752
-0.00045028
5.51161e-06
-0.00274239
0.00276171
-0.000477347
4.16613e-06
-0.00274764
0.00277725
-0.000530099
2.55636e-06
-0.00275452
0.00280986
-0.000608866
6.08274e-07
-0.00276092
0.00284146
-8.01959e-06
-0.00267193
-0.000750104
0.00281388
-0.000432441
2.31714e-06
-0.00297762
0.00298892
-0.000441563
3.02837e-06
-0.0029943
0.00300635
-0.000451267
3.25324e-06
-0.00300813
0.00302125
-0.00046201
2.92404e-06
-0.00301915
0.00303381
-0.000474806
2.10652e-06
-0.00302733
0.00304446
-0.000491895
8.29682e-07
-0.00303382
0.00305559
-0.000519006
-6.75329e-07
-0.00304008
0.00307203
-0.000571465
-2.07781e-06
-0.00304801
0.0031051
-0.000650241
-2.60949e-06
-0.00305611
0.00313811
-7.74652e-06
-0.00295856
-0.000789965
0.00309801
-0.000475057
-0.00323317
0.00324476
-0.000484681
-0.00325257
0.00326522
-0.000494921
-0.00326697
0.00328046
-0.000506264
-0.00327594
0.00329021
-0.000519586
-0.00327939
0.00329482
-0.000536835
-0.00327895
0.00329703
-0.000563194
-0.00327682
0.00330251
-0.000612872
-0.00327711
0.00332471
-0.000685588
-0.00328442
0.00335453
-0.00319841
-0.000818321
0.0033234
1.67047e-05
1.09672e-06
-0.000782846
8.9246e-06
1.43518e-06
-0.000784943
8.06227e-07
1.65377e-06
-0.000786177
-7.85327e-06
1.75953e-06
-0.000786648
-1.72711e-05
1.73776e-06
-0.000786247
-2.77214e-05
1.56228e-06
-0.000784822
-3.94546e-05
1.18275e-06
-0.000781804
-5.20172e-05
5.12665e-07
-0.000776008
-6.47468e-05
-6.64093e-07
-0.000766368
-2.23952e-06
-0.000749974
-6.56317e-05
1.90098e-05
2.3324e-06
-0.00104617
1.07585e-05
3.03097e-06
-0.0010502
2.06667e-06
3.46219e-06
-0.00105242
-7.3231e-06
3.68069e-06
-0.00105357
-1.76503e-05
3.66343e-06
-0.00105339
-2.93409e-05
3.3701e-06
-0.00105141
-4.32801e-05
2.70675e-06
-0.00104647
-6.03736e-05
1.54303e-06
-0.00103621
-8.20596e-05
-5.69346e-07
-0.00101673
-3.61464e-06
-0.000982879
-9.52031e-05
2.14807e-05
3.63755e-06
-0.00130908
1.30494e-05
4.67057e-06
-0.00131469
4.14214e-06
5.28282e-06
-0.00131809
-5.53013e-06
5.58274e-06
-0.00132019
-1.63478e-05
5.54975e-06
-0.00132076
-2.9143e-05
5.15922e-06
-0.0013193
-4.56472e-05
4.30901e-06
-0.00131459
-6.83828e-05
2.87387e-06
-0.00130355
-0.000101561
1.46864e-07
-0.00127919
-4.09654e-06
-0.00123233
-0.000131478
2.4155e-05
4.94243e-06
-0.00157751
1.51306e-05
6.2846e-06
-0.00158424
5.58147e-06
7.06917e-06
-0.00158875
-4.84686e-06
7.45615e-06
-0.00159196
-1.66313e-05
7.41228e-06
-0.00159355
-3.07926e-05
6.9316e-06
-0.00159301
-4.96624e-05
5.89725e-06
-0.00158896
-7.74103e-05
4.21948e-06
-0.00157786
-0.00012187
9.65156e-07
-0.00154983
-4.37453e-06
-0.00148957
-0.00016938
2.66312e-05
6.02115e-06
-0.00185174
1.70242e-05
7.56764e-06
-0.00185978
6.88686e-06
8.4725e-06
-0.00186554
-4.18279e-06
8.91951e-06
-0.00186995
-1.67637e-05
8.86448e-06
-0.00187262
-3.20039e-05
8.3135e-06
-0.0018731
-5.27562e-05
7.13469e-06
-0.00186986
-8.47996e-05
5.28712e-06
-0.00185911
-0.000140183
1.66994e-06
-0.00182822
-4.59281e-06
-0.00175384
-0.000205388
2.87466e-05
6.48485e-06
-0.00212772
1.85296e-05
8.16554e-06
-0.00213731
7.81953e-06
9.13755e-06
-0.00214439
-3.81604e-06
9.60477e-06
-0.00214992
-1.70362e-05
9.51564e-06
-0.00215353
-3.30949e-05
8.89172e-06
-0.0021549
-5.53121e-05
7.59801e-06
-0.00215243
-9.08918e-05
5.6295e-06
-0.00214214
-0.000156512
1.82691e-06
-0.00210899
-5.1692e-06
-0.0020198
-0.000238642
3.03315e-05
6.10964e-06
-0.00240587
1.97062e-05
7.77713e-06
-0.00241721
8.60557e-06
8.75059e-06
-0.00242577
-3.38674e-06
9.18428e-06
-0.00243241
-1.70097e-05
9.04247e-06
-0.00243682
-3.35821e-05
8.33181e-06
-0.00243889
-5.68209e-05
6.94061e-06
-0.00243709
-9.51534e-05
4.88445e-06
-0.0024275
-0.000170054
1.22652e-06
-0.00239302
-6.09688e-06
-0.00228871
-0.000267977
3.13046e-05
4.63992e-06
-0.00268558
2.02804e-05
6.11506e-06
-0.00269899
8.82216e-06
6.96345e-06
-0.00270906
-3.48098e-06
7.27873e-06
-0.00271661
-1.73735e-05
7.03564e-06
-0.00272132
-3.41904e-05
6.22015e-06
-0.00272347
-5.79163e-05
4.78372e-06
-0.00272175
-9.78563e-05
2.72633e-06
-0.00271242
-0.000180497
-2.18568e-07
-0.00267683
-7.13879e-06
-0.00255821
-0.000293181
3.22324e-05
2.30385e-06
-0.00296405
2.12885e-05
3.09397e-06
-0.00298034
9.83218e-06
3.4562e-06
-0.00299317
-2.52773e-06
3.29613e-06
-0.00300281
-1.66381e-05
2.69083e-06
-0.00300887
-3.39162e-05
1.63164e-06
-0.00301196
-5.84876e-05
1.94014e-07
-0.00301092
-9.98854e-05
-1.55784e-06
-0.00300233
-0.000188584
-3.13512e-06
-0.0029645
-7.09211e-06
-0.00283014
-0.000317056
3.16024e-05
-0.00321942
2.02787e-05
-0.00323815
8.56037e-06
-0.00325179
-3.9868e-06
-0.0032601
-1.80595e-05
-0.00326263
-3.50093e-05
-0.00326037
-5.88024e-05
-0.00325284
-9.9018e-05
-0.00323845
-0.00018921
-0.00319737
-0.0030588
-0.000335916
1.39237e-05
1.06924e-06
-0.000777741
7.30576e-06
1.42056e-06
-0.000779746
2.72068e-07
1.63699e-06
-0.00078078
-7.11344e-06
1.7216e-06
-0.000780984
-1.47394e-05
1.66218e-06
-0.000780284
-2.24053e-05
1.43443e-06
-0.00077859
-2.96137e-05
1.00024e-06
-0.000775596
-3.51233e-05
3.06461e-07
-0.000770804
-3.71309e-05
-7.70798e-07
-0.00076359
-2.02663e-06
-0.000753422
-3.1656e-05
1.70715e-05
2.34924e-06
-0.00104028
9.43747e-06
3.06504e-06
-0.00104421
1.30114e-06
3.49028e-06
-0.00104614
-7.40251e-06
3.67907e-06
-0.00104682
-1.66527e-05
3.61119e-06
-0.00104609
-2.63204e-05
3.24311e-06
-0.00104355
-3.6044e-05
2.48518e-06
-0.00103824
-4.47382e-05
1.23434e-06
-0.00102845
-5.01655e-05
-8.10758e-07
-0.00101127
-3.38677e-06
-0.000984767
-4.69179e-05
2.01336e-05
3.73876e-06
-0.00130265
1.19142e-05
4.79659e-06
-0.0013082
3.13137e-06
5.40854e-06
-0.00131123
-6.36154e-06
5.68555e-06
-0.00131271
-1.66632e-05
5.60566e-06
-0.00131245
-2.79389e-05
5.12366e-06
-0.0013099
-4.04111e-05
4.1197e-06
-0.00130376
-5.37064e-05
2.47557e-06
-0.0012915
-6.56872e-05
-3.60567e-07
-0.00126766
-4.16672e-06
-0.00122899
-6.82516e-05
2.31557e-05
5.10737e-06
-0.00157018
1.414e-05
6.48356e-06
-0.00157691
4.50522e-06
7.27661e-06
-0.00158098
-6.0094e-06
7.65015e-06
-0.00158341
-1.76431e-05
7.56709e-06
-0.00158388
-3.079e-05
6.98782e-06
-0.00158173
-4.61405e-05
5.75333e-06
-0.00157524
-6.41903e-05
3.74943e-06
-0.00156108
-8.37678e-05
1.64373e-07
-0.00153078
-4.8286e-06
-0.00147859
-9.408e-05
2.58989e-05
6.21896e-06
-0.00184331
1.61691e-05
7.80513e-06
-0.00185137
5.81641e-06
8.72743e-06
-0.00185664
-5.51528e-06
9.17144e-06
-0.00186014
-1.8224e-05
9.08785e-06
-0.00186143
-3.29175e-05
8.44095e-06
-0.00185986
-5.07708e-05
7.03227e-06
-0.00185328
-7.33212e-05
4.75758e-06
-0.00183757
-0.000101221
5.66307e-07
-0.00180072
-5.48527e-06
-0.0017333
-0.000121106
2.82552e-05
6.70782e-06
-0.00211785
1.7821e-05
8.42937e-06
-0.0021275
6.80121e-06
9.4244e-06
-0.00213406
-5.23094e-06
9.89956e-06
-0.00213862
-1.88042e-05
9.79427e-06
-0.00214066
-3.47275e-05
9.08497e-06
-0.00213962
-5.46829e-05
7.5551e-06
-0.00213299
-8.13033e-05
5.10465e-06
-0.00211587
-0.000117816
5.23092e-07
-0.00207244
-6.41393e-06
-0.0019882
-0.000148488
2.99992e-05
6.33506e-06
-0.00239453
1.91008e-05
8.03518e-06
-0.00240592
7.64335e-06
9.03206e-06
-0.00241392
-4.82069e-06
9.48576e-06
-0.00241954
-1.89466e-05
9.3565e-06
-0.00242226
-3.57047e-05
8.61119e-06
-0.00242166
-5.72688e-05
7.03561e-06
-0.002415
-8.73571e-05
4.49688e-06
-0.00239681
-0.000132343
-1.44505e-07
-0.00234737
-7.68953e-06
-0.00224547
-0.000174305
3.10251e-05
4.86648e-06
-0.00267265
1.97353e-05
6.35572e-06
-0.00268602
7.94365e-06
7.22693e-06
-0.00269547
-4.82208e-06
7.58341e-06
-0.00270194
-1.9272e-05
7.39503e-06
-0.00270491
-3.65071e-05
6.62519e-06
-0.00270425
-5.91313e-05
5.131e-06
-0.00269723
-9.17902e-05
2.72777e-06
-0.00267799
-0.000144503
-1.22153e-06
-0.00262304
-8.82858e-06
-0.00250367
-0.000197899
3.16931e-05
2.46771e-06
-0.00295025
2.05078e-05
3.26047e-06
-0.00296606
8.78011e-06
3.67927e-06
-0.00297789
-3.93179e-06
3.61518e-06
-0.00298613
-1.84543e-05
3.14501e-06
-0.0029901
-3.6117e-05
2.25115e-06
-0.00298992
-5.9991e-05
9.49304e-07
-0.00298286
-9.5292e-05
-8.60678e-07
-0.00296344
-0.000154537
-3.26577e-06
-0.00290321
-8.46865e-06
-0.00276522
-0.000219816
3.10006e-05
-0.0032055
1.95908e-05
-0.00322348
7.77227e-06
-0.00323629
-4.95763e-06
-0.00324375
-1.92796e-05
-0.00324516
-3.65017e-05
-0.0032409
-5.97482e-05
-0.00322864
-9.50154e-05
-0.00320405
-0.000157094
-0.00313855
-0.00298835
-0.000236012
1.09092e-05
9.91297e-07
-0.000774209
5.71804e-06
1.34351e-06
-0.000775898
8.43112e-08
1.55262e-06
-0.000776699
-5.74168e-06
1.61731e-06
-0.000776775
-1.14604e-05
1.53001e-06
-0.000776095
-1.66737e-05
1.27193e-06
-0.000774649
-2.07527e-05
8.21075e-07
-0.000772338
-2.26496e-05
1.58493e-07
-0.000769066
-2.07149e-05
-7.57775e-07
-0.000764767
-1.73642e-06
-0.000759245
-1.31553e-05
1.45975e-05
2.2844e-06
-0.00103569
7.97179e-06
3.0025e-06
-0.00103924
8.09206e-07
3.41316e-06
-0.00104084
-6.75129e-06
3.56835e-06
-0.00104121
-1.4488e-05
3.45368e-06
-0.00104028
-2.20145e-05
3.03299e-06
-0.00103779
-2.85287e-05
2.24054e-06
-0.00103314
-3.24804e-05
1.01432e-06
-0.00102535
-3.10799e-05
-8.06943e-07
-0.00101262
-2.9149e-06
-0.000993171
-2.14974e-05
1.81084e-05
3.74831e-06
-0.0012972
1.05197e-05
4.80715e-06
-0.00130241
2.32211e-06
5.4012e-06
-0.00130502
-6.45866e-06
5.6391e-06
-0.001306
-1.57137e-05
5.50214e-06
-0.00130524
-2.52025e-05
4.94374e-06
-0.00130232
-3.43112e-05
3.85596e-06
-0.00129626
-4.15087e-05
2.15297e-06
-0.00128544
-4.29068e-05
-5.19503e-07
-0.00126655
-3.79106e-06
-0.00123802
-3.3005e-05
2.14184e-05
5.17299e-06
-0.00156361
1.28061e-05
6.55406e-06
-0.00157005
3.5139e-06
7.33259e-06
-0.00157362
-6.56556e-06
7.66794e-06
-0.00157536
-1.74659e-05
7.52386e-06
-0.001575
-2.91433e-05
6.85066e-06
-0.00157196
-4.12191e-05
5.48568e-06
-0.00156479
-5.23267e-05
3.32366e-06
-0.00155115
-5.78548e-05
-2.27655e-07
-0.00152554
-4.70265e-06
-0.00148638
-4.91574e-05
2.44147e-05
6.31e-06
-0.00183542
1.49175e-05
7.90602e-06
-0.00184322
4.7294e-06
8.82087e-06
-0.00184794
-6.38005e-06
9.23202e-06
-0.00185059
-1.86203e-05
9.08842e-06
-0.00185075
-3.21877e-05
8.33815e-06
-0.00184778
-4.70504e-05
6.76303e-06
-0.0018397
-6.22368e-05
4.23298e-06
-0.00182329
-7.30568e-05
-1.06212e-07
-0.00179002
-5.73149e-06
-0.00173778
-6.7541e-05
2.70122e-05
6.82596e-06
-0.00210839
1.66815e-05
8.55925e-06
-0.00211782
5.68934e-06
9.55209e-06
-0.0021238
-6.29733e-06
1.00038e-05
-0.0021274
-1.96428e-05
9.84786e-06
-0.00212808
-3.47915e-05
9.04008e-06
-0.00212517
-5.21454e-05
7.32685e-06
-0.0021162
-7.13101e-05
4.5475e-06
-0.00209702
-8.82186e-05
-3.70556e-07
-0.00205526
-7.01997e-06
-0.00198749
-8.7637e-05
2.89358e-05
6.4737e-06
-0.00238348
1.80508e-05
8.18036e-06
-0.00239465
6.533e-06
9.1752e-06
-0.00240202
-6.00486e-06
9.61398e-06
-0.00240661
-2.00811e-05
9.44987e-06
-0.00240779
-3.63661e-05
8.63417e-06
-0.00240497
-5.57431e-05
6.90428e-06
-0.0023952
-7.85266e-05
4.02704e-06
-0.0023735
-0.00010195
-1.13637e-06
-0.00232318
-8.63876e-06
-0.00223823
-0.00010757
3.00623e-05
5.02912e-06
-0.00265997
1.87606e-05
6.51414e-06
-0.00267305
6.88881e-06
7.38365e-06
-0.0026818
-5.99293e-06
7.74583e-06
-0.00268719
-2.04836e-05
7.55798e-06
-0.00268853
-3.7459e-05
6.77625e-06
-0.00268541
-5.83066e-05
5.20477e-06
-0.00267468
-8.40995e-05
2.53234e-06
-0.00265071
-0.000114038
-2.01512e-06
-0.00259222
-9.91203e-06
-0.00248958
-0.000126862
3.06437e-05
2.59319e-06
-0.00293654
1.94365e-05
3.38036e-06
-0.00295171
7.63447e-06
3.83753e-06
-0.00296254
-5.17411e-06
3.84052e-06
-0.00296941
-1.96916e-05
3.45975e-06
-0.00297148
-3.70223e-05
2.66289e-06
-0.00296848
-5.91666e-05
1.42002e-06
-0.00295693
-8.81973e-05
-4.64642e-07
-0.00293141
-0.000124424
-3.33603e-06
-0.00286566
-9.23097e-06
-0.00274444
-0.000145886
2.99948e-05
-0.0031917
1.86797e-05
-0.00320878
6.91458e-06
-0.00322069
-5.79885e-06
-0.0032272
-2.00487e-05
-0.00322745
-3.69449e-05
-0.00322134
-5.85957e-05
-0.00320557
-8.81751e-05
-0.00317493
-0.000127752
-0.00310231
-0.00296493
-0.000160398
8.18044e-06
8.94782e-07
-0.000771947
4.32525e-06
1.23209e-06
-0.000773275
5.55876e-08
1.42744e-06
-0.000773857
-4.31283e-06
1.47571e-06
-0.000773882
-8.43383e-06
1.37477e-06
-0.000773349
-1.19066e-05
1.11344e-06
-0.000772289
-1.42218e-05
6.85594e-07
-0.000770709
-1.47292e-05
9.48589e-08
-0.000768653
-1.26339e-05
-6.57315e-07
-0.000766205
-1.44041e-06
-0.000763023
-7.41574e-06
1.20161e-05
2.16573e-06
-0.00103235
6.53821e-06
2.86498e-06
-0.0010354
5.25783e-07
3.25163e-06
-0.00103665
-5.74813e-06
3.37457e-06
-0.00103684
-1.19413e-05
3.22702e-06
-0.00103594
-1.75814e-05
2.78544e-06
-0.00103382
-2.18945e-05
2.01443e-06
-0.00103016
-2.36609e-05
8.96206e-07
-0.00102439
-2.10822e-05
-6.31414e-07
-0.00101522
-2.33846e-06
-0.00100011
-1.32444e-05
1.5739e-05
3.66969e-06
-0.00129289
9.04686e-06
4.70347e-06
-0.00129756
1.732e-06
5.26598e-06
-0.00129972
-6.01892e-06
5.45961e-06
-0.00130033
-1.39326e-05
5.27153e-06
-0.00129938
-2.15634e-05
4.66422e-06
-0.00129657
-2.80449e-05
3.56102e-06
-0.00129133
-3.17898e-05
1.92623e-06
-0.00128273
-2.97877e-05
-4.19532e-07
-0.00126877
-3.12624e-06
-0.00124726
-1.97553e-05
1.92082e-05
5.12337e-06
-0.00155802
1.13087e-05
6.48215e-06
-0.00156393
2.69238e-06
7.23005e-06
-0.00156697
-6.56979e-06
7.51627e-06
-0.00156816
-1.63087e-05
7.30815e-06
-0.0015673
-2.61885e-05
6.55865e-06
-0.00156397
-3.53441e-05
5.13229e-06
-0.00155721
-4.18987e-05
2.96766e-06
-0.00154563
-4.14849e-05
-2.90815e-07
-0.00152608
-4.10724e-06
-0.00149727
-2.9618e-05
2.23971e-05
6.2674e-06
-0.00182835
1.34473e-05
7.84772e-06
-0.00183564
3.75441e-06
8.73837e-06
-0.00183975
-6.73793e-06
9.1017e-06
-0.00184168
-1.80162e-05
8.88677e-06
-0.00184106
-2.99394e-05
8.03749e-06
-0.00183733
-4.18037e-05
6.35538e-06
-0.00182906
-5.16485e-05
3.73844e-06
-0.00181421
-5.3959e-05
-4.0339e-07
-0.0017876
-5.35782e-06
-0.00174905
-4.14379e-05
2.5209e-05
6.80338e-06
-0.00209964
1.52882e-05
8.52657e-06
-0.00210858
4.63824e-06
9.50148e-06
-0.00211392
-6.917e-06
9.91305e-06
-0.00211666
-1.9516e-05
9.69014e-06
-0.00211628
-3.32503e-05
8.77776e-06
-0.00211218
-4.77034e-05
6.92788e-06
-0.00210232
-6.10387e-05
3.98502e-06
-0.00208393
-6.7018e-05
-8.70216e-07
-0.00204882
-6.90803e-06
-0.00199772
-5.52424e-05
2.73135e-05
6.48136e-06
-0.00237304
1.67313e-05
8.17889e-06
-0.00238372
5.44364e-06
9.1589e-06
-0.00239039
-6.80593e-06
9.56673e-06
-0.00239401
-2.03194e-05
9.34702e-06
-0.00239393
-3.5426e-05
8.43913e-06
-0.00238952
-5.20945e-05
6.57449e-06
-0.00237818
-6.88048e-05
3.50671e-06
-0.00235631
-7.91359e-05
-1.732e-06
-0.00231199
-8.76231e-06
-0.00224612
-6.93932e-05
2.85719e-05
5.07611e-06
-0.00264784
1.75229e-05
6.5509e-06
-0.00266038
5.82913e-06
7.40892e-06
-0.00266836
-6.84647e-06
7.76189e-06
-0.00267271
-2.09028e-05
7.55285e-06
-0.00267268
-3.68945e-05
6.72757e-06
-0.00266771
-5.52632e-05
5.06611e-06
-0.0026548
-7.50025e-05
2.21969e-06
-0.00262968
-9.01713e-05
-2.52809e-06
-0.00257626
-1.01566e-05
-0.00249454
-8.38157e-05
2.91438e-05
2.64982e-06
-0.00292324
1.81527e-05
3.42981e-06
-0.0029376
6.50016e-06
3.91588e-06
-0.0029474
-6.13383e-06
3.96841e-06
-0.00295299
-2.02615e-05
3.65111e-06
-0.00295345
-3.6637e-05
2.91565e-06
-0.00294829
-5.6211e-05
1.69347e-06
-0.00293399
-7.90927e-05
-2.57443e-07
-0.00290605
-9.95726e-05
-3.32111e-06
-0.00284439
-9.21471e-06
-0.00274605
-9.88968e-05
2.85809e-05
-0.00317832
1.75555e-05
-0.00319433
6.02375e-06
-0.00320524
-6.44998e-06
-0.00321076
-2.03038e-05
-0.00320994
-3.63486e-05
-0.00320238
-5.56768e-05
-0.00318455
-7.93011e-05
-0.00315157
-0.000102741
-0.00308219
-0.00296693
-0.000109962
5.95999e-06
8.02228e-07
-0.000770612
3.2022e-06
1.11175e-06
-0.000771629
8.99212e-08
1.28835e-06
-0.000772033
-3.07331e-06
1.32447e-06
-0.000772044
-5.97199e-06
1.22317e-06
-0.000771673
-8.27435e-06
9.80057e-07
-0.000770967
-9.62098e-06
6.00219e-07
-0.000769962
-9.63924e-06
9.87571e-08
-0.000768734
-7.97108e-06
-5.08771e-07
-0.000767364
-1.14627e-06
-0.000765353
-4.49527e-06
9.60488e-06
2.02138e-06
-0.00103008
5.23908e-06
2.68057e-06
-0.0010326
3.78747e-07
3.03475e-06
-0.00103354
-4.64807e-06
3.12998e-06
-0.00103361
-9.46522e-06
2.96748e-06
-0.00103287
-1.36162e-05
2.53647e-06
-0.00103123
-1.64723e-05
1.82728e-06
-0.00102853
-1.72011e-05
8.52547e-07
-0.00102441
-1.47675e-05
-3.99229e-07
-0.00101777
-1.79538e-06
-0.00100545
-8.77914e-06
1.3281e-05
3.52538e-06
-0.00128967
7.59988e-06
4.50601e-06
-0.0012937
1.31679e-06
5.02452e-06
-0.00129542
-5.27101e-06
5.17507e-06
-0.00129579
-1.17935e-05
4.95225e-06
-0.00129484
-1.77381e-05
4.33228e-06
-0.00129242
-2.22786e-05
3.27454e-06
-0.00128823
-2.41629e-05
1.78787e-06
-0.00128178
-2.14671e-05
-1.92142e-07
-0.00127167
-2.41333e-06
-0.00125487
-1.32358e-05
1.67296e-05
4.97249e-06
-0.00155351
9.74353e-06
6.27891e-06
-0.00155871
2.03456e-06
6.98135e-06
-0.00156122
-6.17142e-06
7.21542e-06
-0.00156199
-1.45474e-05
6.95487e-06
-0.00156093
-2.25947e-05
6.16325e-06
-0.00155776
-2.93351e-05
4.74775e-06
-0.00155194
-3.30613e-05
2.69881e-06
-0.00154282
-3.05773e-05
-1.51286e-07
-0.00152861
-3.33509e-06
-0.00150707
-1.98528e-05
1.99993e-05
6.09886e-06
-0.00182227
1.1843e-05
7.63412e-06
-0.00182884
2.91532e-06
8.48462e-06
-0.00183233
-6.6645e-06
8.79336e-06
-0.00183368
-1.66777e-05
8.51258e-06
-0.0018326
-2.67354e-05
7.59103e-06
-0.0018287
-3.58485e-05
5.87415e-06
-0.00182107
-4.19855e-05
3.31265e-06
-0.00180869
-4.05375e-05
-4.33841e-07
-0.00178876
-4.66408e-06
-0.00176055
-2.77128e-05
2.29591e-05
6.64163e-06
-0.00209183
1.37145e-05
8.32924e-06
-0.00210003
3.69054e-06
9.27105e-06
-0.00210468
-7.11066e-06
9.63299e-06
-0.0021067
-1.85948e-05
9.34268e-06
-0.00210563
-3.05428e-05
8.34303e-06
-0.00210098
-4.20803e-05
6.42182e-06
-0.00209133
-5.10181e-05
3.46832e-06
-0.00207515
-5.14503e-05
-1.05452e-06
-0.00204776
-6.33911e-06
-0.00201021
-3.72823e-05
2.52139e-05
6.3548e-06
-0.00236347
1.52049e-05
8.02471e-06
-0.00237341
4.42756e-06
8.9778e-06
-0.00237932
-7.20737e-06
9.34503e-06
-0.00238209
-1.97585e-05
9.06524e-06
-0.0023811
-3.32106e-05
8.07175e-06
-0.0023758
-4.69248e-05
6.11979e-06
-0.00236416
-5.87425e-05
3.00365e-06
-0.00234403
-6.17575e-05
-1.98338e-06
-0.00230804
-8.27166e-06
-0.00225881
-4.71386e-05
2.66123e-05
5.00059e-06
-0.00263653
1.6073e-05
6.4567e-06
-0.00264827
4.81823e-06
7.29402e-06
-0.00265542
-7.34327e-06
7.62677e-06
-0.00265883
-2.05737e-05
7.38619e-06
-0.00265777
-3.50651e-05
6.51225e-06
-0.00265166
-5.05318e-05
4.78805e-06
-0.002638
-6.50921e-05
1.88588e-06
-0.002614
-7.13964e-05
-2.74153e-06
-0.0025692
-9.68968e-06
-0.00250693
-5.75831e-05
2.72198e-05
2.63228e-06
-0.00291066
1.66831e-05
3.4013e-06
-0.00292401
5.41671e-06
3.90605e-06
-0.00293274
-6.7631e-06
3.99144e-06
-0.00293717
-2.01477e-05
3.71553e-06
-0.0029364
-3.51106e-05
3.01737e-06
-0.00292983
-5.17174e-05
1.80522e-06
-0.0029144
-6.89301e-05
-1.60743e-07
-0.00288679
-7.91985e-05
-3.2079e-06
-0.00283365
-8.57814e-06
-0.00275774
-6.8622e-05
2.67769e-05
-0.00316564
1.6239e-05
-0.00318039
5.13478e-06
-0.00319023
-6.86378e-06
-0.00319477
-2.00109e-05
-0.00319308
-3.47792e-05
-0.0031846
-5.14156e-05
-0.00316611
-6.94859e-05
-0.00313366
-8.20943e-05
-0.00307279
-0.00298161
-7.59941e-05
4.28785e-06
7.265e-07
-0.000769905
2.35256e-06
1.00088e-06
-0.000770695
1.32384e-07
1.15612e-06
-0.000770969
-2.11754e-06
1.18378e-06
-0.000770977
-4.14273e-06
1.09138e-06
-0.000770739
-5.6935e-06
8.79255e-07
-0.000770295
-6.53086e-06
5.58641e-07
-0.000769683
-6.44588e-06
1.48106e-07
-0.000768967
-5.27705e-06
-3.37348e-07
-0.000768196
-8.62253e-07
-0.000766771
-2.99692e-06
7.52403e-06
1.87264e-06
-0.00102863
4.12762e-06
2.47497e-06
-0.00103068
3.03104e-07
2.7905e-06
-0.00103135
-3.62726e-06
2.86354e-06
-0.00103136
-7.31255e-06
2.70264e-06
-0.00103079
-1.03634e-05
2.30757e-06
-0.0010296
-1.23077e-05
1.68622e-06
-0.00102771
-1.25959e-05
8.66563e-07
-0.00102484
-1.06295e-05
-1.4561e-07
-0.00101992
-1.29707e-06
-0.00100947
-6.17859e-06
1.09316e-05
3.33924e-06
-0.0012874
6.25226e-06
4.2406e-06
-0.00129079
1.0239e-06
4.70447e-06
-0.00129211
-4.40667e-06
4.81655e-06
-0.00129231
-9.63936e-06
4.57905e-06
-0.00129148
-1.41795e-05
3.98219e-06
-0.00128956
-1.73443e-05
3.0164e-06
-0.0012864
-1.82491e-05
1.72082e-06
-0.00128173
-1.57525e-05
9.16958e-08
-0.0012744
-1.72861e-06
-0.00126082
-9.37847e-06
1.41679e-05
4.7427e-06
-0.00155003
8.18767e-06
5.9662e-06
-0.00155446
1.51249e-06
6.60947e-06
-0.00155645
-5.52776e-06
6.7935e-06
-0.00155693
-1.25135e-05
6.5002e-06
-0.00155586
-1.88878e-05
5.7075e-06
-0.00155311
-2.3753e-05
4.36703e-06
-0.00154843
-2.57875e-05
2.51432e-06
-0.00154158
-2.29259e-05
1.05058e-07
-0.00153148
-2.52292e-06
-0.00151497
-1.42276e-05
1.73773e-05
5.82404e-06
-0.00181724
1.01769e-05
7.28205e-06
-0.00182295
2.2081e-06
8.07675e-06
-0.00182583
-6.26798e-06
8.3298e-06
-0.00182674
-1.48814e-05
7.99984e-06
-0.00182549
-2.30968e-05
7.04691e-06
-0.00182183
-2.98886e-05
5.36968e-06
-0.00181528
-3.35434e-05
2.97595e-06
-0.0018055
-3.07905e-05
-2.7953e-07
-0.00179113
-3.82225e-06
-0.00177028
-1.97645e-05
2.03864e-05
6.35633e-06
-0.00208507
1.20243e-05
7.97868e-06
-0.00209237
2.85955e-06
8.87169e-06
-0.00209631
-6.94192e-06
9.17967e-06
-0.00209775
-1.70906e-05
8.83331e-06
-0.00209631
-2.71402e-05
7.78164e-06
-0.00209167
-3.60319e-05
5.86525e-06
-0.00208294
-4.17515e-05
3.03521e-06
-0.00206949
-3.97215e-05
-9.92505e-07
-0.00204908
-5.49326e-06
-0.00202161
-2.66467e-05
2.27306e-05
6.10544e-06
-0.00235495
1.3525e-05
7.72442e-06
-0.00236395
3.50838e-06
8.6373e-06
-0.00236907
-7.23772e-06
8.95816e-06
-0.00237112
-1.85484e-05
8.62453e-06
-0.00236958
-3.01207e-05
7.57158e-06
-0.00236402
-4.09766e-05
5.59871e-06
-0.00235304
-4.89475e-05
2.56978e-06
-0.0023356
-4.82168e-05
-1.94764e-06
-0.00230782
-7.35198e-06
-0.0022716
-3.35659e-05
2.42537e-05
4.80918e-06
-0.00262627
1.44546e-05
6.23328e-06
-0.00263698
3.88442e-06
7.03946e-06
-0.00264325
-7.48674e-06
7.34354e-06
-0.00264584
-1.95908e-05
7.069e-06
-0.00264411
-3.2292e-05
6.15667e-06
-0.00263754
-4.48165e-05
4.41512e-06
-0.00262429
-5.50518e-05
1.58195e-06
-0.00260278
-5.63524e-05
-2.67753e-06
-0.00256717
-8.66977e-06
-0.00252087
-4.11019e-05
2.49202e-05
2.54331e-06
-0.00289906
1.50601e-05
3.29416e-06
-0.00291121
4.41078e-06
3.80655e-06
-0.00291886
-7.05159e-06
3.90986e-06
-0.00292227
-1.93979e-05
3.65858e-06
-0.00292064
-3.26531e-05
2.98478e-06
-0.0029134
-4.62605e-05
1.78917e-06
-0.00289816
-5.85728e-05
-1.29536e-07
-0.00287277
-6.24661e-05
-2.99852e-06
-0.00282944
-7.56184e-06
-0.00277271
-4.86132e-05
2.46226e-05
-0.00315392
1.47598e-05
-0.00316723
4.27784e-06
-0.00317594
-7.01778e-06
-0.00317956
-1.91889e-05
-0.00317725
-3.23817e-05
-0.00316842
-4.62309e-05
-0.00315047
-5.94561e-05
-0.00312056
-6.51512e-05
-0.0030701
-0.00300104
-5.32841e-05
3.09112e-06
6.71165e-07
-0.00076961
1.73814e-06
9.08643e-07
-0.00077025
1.63956e-07
1.04232e-06
-0.000770437
-1.43104e-06
1.06414e-06
-0.000770447
-2.85457e-06
9.85121e-07
-0.000770301
-3.92659e-06
8.08288e-07
-0.000770032
-4.48937e-06
5.46913e-07
-0.000769668
-4.4205e-06
2.18223e-07
-0.000769254
-3.6347e-06
-1.69419e-07
-0.000768812
-6.092e-07
-0.000767689
-2.10681e-06
5.82491e-06
1.73111e-06
-0.00102775
3.21532e-06
2.26664e-06
-0.00102943
2.5498e-07
2.54056e-06
-0.00102988
-2.77404e-06
2.5965e-06
-0.00102987
-5.5755e-06
2.44908e-06
-0.00102945
-7.84149e-06
2.10542e-06
-0.00102863
-9.23141e-06
1.58305e-06
-0.00102736
-9.37689e-06
9.14357e-07
-0.00102539
-7.8893e-06
1.03904e-07
-0.00102169
-8.52938e-07
-0.00101256
-4.54685e-06
8.82151e-06
3.13035e-06
-0.00128589
5.05244e-06
3.93216e-06
-0.00128869
8.11542e-07
4.33387e-06
-0.00128966
-3.55721e-06
4.41345e-06
-0.00128976
-7.67469e-06
4.17962e-06
-0.00128909
-1.11086e-05
3.63421e-06
-0.00128765
-1.33311e-05
2.78958e-06
-0.00128538
-1.37381e-05
1.70047e-06
-0.00128211
-1.16497e-05
3.86628e-07
-0.00127677
-1.10263e-06
-0.00126545
-6.76457e-06
1.16826e-05
4.45764e-06
-0.00154744
6.70831e-06
5.57116e-06
-0.00155112
1.09872e-06
6.14409e-06
-0.00155265
-4.76979e-06
6.28323e-06
-0.00155293
-1.04493e-05
5.97911e-06
-0.00155198
-1.53985e-05
5.22415e-06
-0.00154975
-1.88708e-05
4.00737e-06
-0.00154617
-1.99163e-05
2.39569e-06
-0.00154123
-1.72715e-05
4.12776e-07
-0.00153415
-1.73697e-06
-0.00152117
-1.04358e-05
1.46908e-05
5.46803e-06
-0.00181319
8.52257e-06
6.81751e-06
-0.00181803
1.62273e-06
7.54217e-06
-0.00182032
-5.65698e-06
7.74253e-06
-0.00182092
-1.28625e-05
7.38575e-06
-0.00181969
-1.94044e-05
6.44657e-06
-0.00181651
-2.4353e-05
4.87445e-06
-0.0018112
-2.63992e-05
2.72523e-06
-0.00180378
-2.34344e-05
-1.40302e-08
-0.00179367
-2.93126e-06
-0.00177802
-1.44984e-05
1.76356e-05
5.97173e-06
-0.00207939
1.02894e-05
7.49756e-06
-0.0020857
2.14991e-06
8.32637e-06
-0.00208895
-6.49087e-06
8.58025e-06
-0.00208994
-1.52094e-05
8.19687e-06
-0.0020884
-2.34304e-05
7.13755e-06
-0.00208414
-3.00947e-05
5.30025e-06
-0.0020767
-3.35522e-05
2.69719e-06
-0.002066
-3.0657e-05
-7.59598e-07
-0.00205123
-4.49908e-06
-0.00203105
-1.96501e-05
1.99856e-05
5.75445e-06
-0.00234759
1.17556e-05
7.29573e-06
-0.00235552
2.70057e-06
8.15434e-06
-0.00235984
-6.9499e-06
8.42647e-06
-0.00236132
-1.68571e-05
8.05303e-06
-0.00235953
-2.65209e-05
6.97852e-06
-0.00235419
-3.48421e-05
5.05648e-06
-0.00234448
-3.9918e-05
2.2276e-06
-0.00233005
-3.74817e-05
-1.70273e-06
-0.00230931
-6.18293e-06
-0.00228281
-2.45892e-05
2.15974e-05
4.51842e-06
-0.00261717
1.27241e-05
5.89252e-06
-0.0026267
3.04826e-06
6.65609e-06
-0.00263208
-7.30716e-06
6.92581e-06
-0.00263399
-1.80808e-05
6.62208e-06
-0.0026319
-2.88888e-05
5.69348e-06
-0.00262545
-3.87069e-05
3.9882e-06
-0.00261341
-4.55165e-05
1.32714e-06
-0.00259507
-4.41845e-05
-2.41634e-06
-0.00256779
-7.34064e-06
-0.0025338
-3.00921e-05
2.2324e-05
2.39275e-06
-0.00288863
1.33285e-05
3.11477e-06
-0.00289944
3.50327e-06
3.62314e-06
-0.002906
-7.01527e-06
3.73187e-06
-0.00290856
-1.81029e-05
3.49455e-06
-0.00290643
-2.95059e-05
2.84251e-06
-0.00289915
-4.03114e-05
1.68233e-06