/*--------------------------------*- C++ -*----------------------------------*\
| =========                 |                                                 |
| \\      /  F ield         | foam-extend: Open Source CFD                    |
|  \\    /   O peration     | Version:     4.0                                |
|   \\  /    A nd           | Web:         http://www.foam-extend.org         |
|    \\/     M anipulation  |                                                 |
\*---------------------------------------------------------------------------*/
FoamFile
{
    version     2.0;
    format      ascii;
    class       volScalarField;
    location    "300";
    object      T;
}
// * * * * * * * * * * * * * * * * * * * * * * * * * * * * * * * * * * * * * //

dimensions      [0 0 0 1 0 0 0];

internalField   nonuniform List<scalar> 
34480
(
282.591
282.457
282.343
282.244
282.158
282.076
281.995
281.95
282.048
281.855
282.335
282.143
281.992
281.859
281.749
281.657
281.581
281.534
281.684
281.091
282.447
282.222
282.034
281.863
281.706
281.548
281.378
281.178
281.179
280.129
282.48
282.223
281.996
281.779
281.568
281.344
281.087
280.735
280.537
279.02
282.449
282.153
281.882
281.618
281.356
281.07
280.733
280.235
279.813
277.838
282.452
282.111
281.794
281.486
281.178
280.836
280.427
279.796
279.141
276.71
282.43
282.041
281.676
281.322
280.97
280.577
280.101
279.35
278.456
275.585
282.456
282.016
281.604
281.211
280.827
280.404
279.889
279.057
277.952
274.636
282.507
282.007
281.528
281.07
280.625
280.149
279.583
278.682
277.397
273.704
283.243
282.699
282.21
281.776
281.396
281.026
280.594
279.836
278.538
274.417
283.011
282.901
282.835
282.808
282.829
282.908
283.079
283.416
283.928
284.643
282.636
282.482
282.392
282.345
282.35
282.427
282.617
283.012
283.722
284.681
282.628
282.456
282.344
282.271
282.248
282.288
282.429
282.76
283.461
284.399
282.551
282.367
282.234
282.135
282.081
282.084
282.182
282.45
283.111
283.99
282.414
282.211
282.056
281.931
281.848
281.817
281.876
282.084
282.692
283.5
282.314
282.09
281.912
281.764
281.658
281.598
281.623
281.777
282.326
283.053
282.195
281.944
281.742
281.57
281.442
281.357
281.352
281.456
281.937
282.584
282.134
281.858
281.632
281.444
281.305
281.21
281.19
281.261
281.677
282.215
282.089
281.776
281.51
281.285
281.113
280.992
280.948
280.99
281.357
281.791
282.739
282.412
282.151
281.959
281.849
281.814
281.866
281.993
282.34
282.488
283.418
283.312
283.256
283.244
283.282
283.374
283.54
283.809
284.221
284.784
283.013
282.862
282.784
282.754
282.781
282.882
283.094
283.481
284.158
285.13
282.97
282.797
282.696
282.642
282.645
282.723
282.918
283.306
284.075
285.226
282.863
282.677
282.556
282.479
282.457
282.507
282.679
283.055
283.89
285.192
282.702
282.499
282.356
282.255
282.207
282.23
282.377
282.733
283.613
285.045
282.582
282.358
282.194
282.071
282.002
282
282.124
282.456
283.366
284.902
282.444
282.197
282.009
281.864
281.775
281.751
281.852
282.157
283.075
284.692
282.367
282.097
281.888
281.727
281.628
281.593
281.681
281.962
282.872
284.527
282.295
281.996
281.755
281.564
281.44
281.385
281.451
281.705
282.599
284.295
282.907
282.597
282.357
282.19
282.111
282.118
282.252
282.553
283.413
285.007
283.721
283.632
283.589
283.585
283.624
283.707
283.84
284.033
284.29
284.612
283.319
283.183
283.118
283.103
283.141
283.243
283.434
283.751
284.258
284.972
283.259
283.097
283.011
282.976
282.999
283.093
283.292
283.644
284.257
285.124
283.137
282.961
282.855
282.8
282.805
282.887
283.085
283.46
284.173
285.198
282.962
282.768
282.643
282.567
282.553
282.618
282.81
283.199
284.003
285.194
282.831
282.617
282.471
282.375
282.344
282.392
282.577
282.973
283.861
285.213
282.681
282.445
282.278
282.162
282.114
282.146
282.32
282.716
283.668
285.167
282.593
282.336
282.15
282.02
281.963
281.987
282.155
282.545
283.539
285.147
282.502
282.223
282.01
281.855
281.779
281.788
281.946
282.324
283.333
285.044
283.08
282.792
282.577
282.437
282.389
282.44
282.643
283.057
284.049
285.768
283.939
283.871
283.84
283.839
283.87
283.931
284.023
284.144
284.288
284.46
283.56
283.445
283.394
283.386
283.423
283.511
283.662
283.896
284.252
284.776
283.499
283.356
283.284
283.262
283.293
283.385
283.559
283.842
284.291
284.919
283.375
283.215
283.126
283.088
283.109
283.201
283.391
283.715
284.262
285.007
283.199
283.021
282.913
282.858
282.866
282.952
283.153
283.512
284.163
285.051
283.065
282.866
282.738
282.666
282.662
282.741
282.95
283.34
284.098
285.146
282.913
282.692
282.545
282.455
282.438
282.508
282.719
283.131
283.982
285.192
282.819
282.579
282.414
282.311
282.287
282.353
282.567
282.992
283.916
285.265
282.715
282.457
282.27
282.147
282.108
282.164
282.376
282.807
283.775
285.258
283.259
282.994
282.803
282.688
282.667
282.751
282.994
283.456
284.432
285.99
284.097
284.047
284.026
284.026
284.047
284.088
284.147
284.219
284.299
284.401
283.747
283.653
283.615
283.611
283.643
283.711
283.823
283.988
284.238
284.646
283.695
283.572
283.516
283.502
283.533
283.613
283.753
283.965
284.284
284.754
283.577
283.438
283.365
283.34
283.368
283.456
283.621
283.879
284.276
284.815
283.409
283.251
283.16
283.121
283.142
283.235
283.422
283.725
284.215
284.855
283.28
283.101
282.991
282.938
282.952
283.046
283.253
283.601
284.196
284.965
283.131
282.93
282.802
282.734
282.74
282.832
283.052
283.436
284.132
285.044
283.036
282.817
282.673
282.594
282.594
282.687
282.918
283.331
284.112
285.158
282.924
282.69
282.528
282.433
282.422
282.509
282.746
283.179
284.02
285.198
283.436
283.197
283.029
282.938
282.939
283.044
283.302
283.765
284.632
285.908
284.212
284.176
284.162
284.162
284.176
284.201
284.237
284.278
284.322
284.389
283.891
283.817
283.79
283.789
283.812
283.862
283.94
284.054
284.233
284.567
283.851
283.751
283.707
283.699
283.727
283.791
283.896
284.049
284.275
284.64
283.746
283.629
283.571
283.555
283.583
283.661
283.794
283.989
284.269
284.668
283.591
283.455
283.381
283.354
283.382
283.469
283.63
283.871
284.225
284.688
283.473
283.316
283.224
283.186
283.211
283.307
283.494
283.785
284.231
284.787
283.331
283.153
283.045
282.994
283.015
283.115
283.324
283.659
284.199
284.868
283.241
283.045
282.922
282.862
282.879
282.984
283.211
283.583
284.207
284.989
283.125
282.917
282.778
282.706
282.716
282.819
283.056
283.457
284.147
285.04
283.607
283.395
283.25
283.179
283.196
283.311
283.566
283.995
284.72
285.706
284.299
284.272
284.263
284.263
284.272
284.287
284.308
284.332
284.356
284.405
284.006
283.947
283.928
283.929
283.946
283.98
284.033
284.11
284.241
284.525
283.978
283.897
283.865
283.86
283.882
283.931
284.007
284.114
284.274
284.568
283.885
283.79
283.746
283.736
283.762
283.825
283.927
284.068
284.263
284.566
283.748
283.635
283.576
283.558
283.586
283.663
283.793
283.977
284.225
284.563
283.643
283.509
283.435
283.408
283.437
283.526
283.686
283.918
284.241
284.643
283.513
283.359
283.269
283.233
283.26
283.358
283.543
283.821
284.225
284.71
283.429
283.259
283.156
283.112
283.139
283.245
283.451
283.769
284.248
284.821
283.314
283.132
283.016
282.963
282.986
283.093
283.313
283.663
284.205
284.861
283.767
283.583
283.461
283.407
283.433
283.55
283.785
284.162
284.742
285.472
284.368
284.347
284.341
284.341
284.346
284.355
284.367
284.38
284.394
284.434
284.099
284.053
284.041
284.041
284.053
284.076
284.11
284.162
284.26
284.507
284.082
284.017
283.995
283.993
284.009
284.044
284.096
284.169
284.284
284.528
284.002
283.926
283.893
283.888
283.909
283.957
284.033
284.132
284.265
284.502
283.882
283.79
283.745
283.734
283.759
283.822
283.923
284.058
284.229
284.48
283.792
283.682
283.622
283.605
283.633
283.71
283.84
284.018
284.247
284.539
283.674
283.544
283.472
283.447
283.477
283.565
283.72
283.941
284.235
284.586
283.601
283.457
283.372
283.341
283.372
283.47
283.648
283.908
284.265
284.68
283.488
283.333
283.238
283.2
283.229
283.331
283.524
283.816
284.228
284.698
283.914
283.758
283.657
283.617
283.649
283.759
283.966
284.281
284.728
285.253
284.426
284.407
284.403
284.402
284.405
284.411
284.418
284.425
284.434
284.468
284.18
284.142
284.134
284.135
284.143
284.158
284.18
284.214
284.288
284.505
284.171
284.12
284.104
284.103
284.115
284.139
284.174
284.222
284.304
284.511
284.102
284.041
284.018
284.015
284.032
284.067
284.12
284.187
284.278
284.468
283.999
283.926
283.892
283.885
283.906
283.955
284.031
284.126
284.243
284.432
283.922
283.833
283.788
283.776
283.802
283.865
283.966
284.098
284.257
284.471
283.817
283.711
283.653
283.636
283.665
283.74
283.865
284.034
284.244
284.497
283.756
283.636
283.569
283.548
283.579
283.664
283.811
284.015
284.275
284.572
283.646
283.518
283.441
283.414
283.445
283.536
283.699
283.931
284.236
284.567
284.045
283.918
283.835
283.807
283.84
283.938
284.112
284.366
284.7
285.067
284.476
284.457
284.454
284.454
284.456
284.459
284.463
284.467
284.473
284.505
284.253
284.221
284.216
284.217
284.223
284.232
284.245
284.267
284.323
284.513
284.251
284.209
284.198
284.199
284.207
284.223
284.245
284.276
284.335
284.511
284.189
284.141
284.124
284.123
284.135
284.161
284.197
284.241
284.303
284.457
284.101
284.044
284.019
284.015
284.032
284.069
284.123
284.189
284.267
284.413
284.038
283.967
283.933
283.926
283.947
283.997
284.072
284.167
284.276
284.435
283.944
283.858
283.814
283.803
283.828
283.889
283.986
284.111
284.258
284.442
283.896
283.799
283.746
283.732
283.76
283.832
283.948
284.102
284.287
284.501
283.788
283.684
283.625
283.606
283.635
283.713
283.843
284.022
284.242
284.474
284.162
284.06
283.996
283.976
284.007
284.09
284.231
284.427
284.671
284.921
284.522
284.502
284.5
284.5
284.501
284.503
284.505
284.508
284.512
284.543
284.321
284.293
284.29
284.292
284.295
284.301
284.309
284.323
284.364
284.53
284.325
284.29
284.283
284.284
284.29
284.3
284.314
284.332
284.374
284.525
284.267
284.229
284.217
284.217
284.226
284.243
284.267
284.296
284.337
284.464
284.194
284.148
284.131
284.129
284.141
284.168
284.206
284.25
284.301
284.417
284.141
284.085
284.06
284.056
284.073
284.11
284.165
284.231
284.305
284.426
284.056
283.988
283.956
283.949
283.969
284.016
284.089
284.179
284.28
284.417
284.022
283.945
283.905
283.897
283.92
283.977
284.066
284.179
284.308
284.463
283.916
283.834
283.789
283.777
283.802
283.865
283.966
284.099
284.254
284.415
284.265
284.187
284.137
284.124
284.151
284.218
284.328
284.475
284.648
284.815
284.565
284.545
284.543
284.543
284.543
284.545
284.546
284.548
284.551
284.582
284.387
284.362
284.36
284.362
284.364
284.368
284.373
284.38
284.411
284.552
284.397
284.367
284.362
284.364
284.368
284.374
284.382
284.393
284.422
284.549
284.34
284.308
284.3
284.3
284.307
284.318
284.334
284.352
284.379
284.484
284.279
284.242
284.23
284.229
284.239
284.257
284.283
284.312
284.346
284.439
284.235
284.191
284.173
284.171
284.184
284.211
284.249
284.294
284.344
284.438
284.157
284.104
284.08
284.076
284.092
284.128
284.18
284.243
284.312
284.415
284.137
284.077
284.048
284.043
284.062
284.105
284.17
284.251
284.34
284.453
284.031
283.968
283.934
283.926
283.947
283.996
284.071
284.167
284.274
284.388
284.356
284.298
284.261
284.252
284.274
284.327
284.409
284.516
284.636
284.744
284.607
284.588
284.587
284.586
284.587
284.588
284.589
284.59
284.592
284.623
284.453
284.43
284.428
284.43
284.432
284.434
284.436
284.44
284.462
284.58
284.469
284.443
284.439
284.441
284.443
284.447
284.452
284.457
284.477
284.583
284.41
284.382
284.376
284.377
284.381
284.389
284.399
284.41
284.428
284.515
284.36
284.33
284.321
284.321
284.328
284.34
284.357
284.376
284.398
284.475
284.322
284.287
284.274
284.273
284.283
284.301
284.328
284.358
284.391
284.467
284.249
284.208
284.191
284.189
284.201
284.226
284.263
284.306
284.352
284.433
284.243
284.197
284.177
284.174
284.188
284.22
284.266
284.322
284.382
284.468
284.134
284.086
284.063
284.058
284.074
284.11
284.164
284.231
284.303
284.385
284.437
284.395
284.369
284.363
284.381
284.42
284.48
284.554
284.636
284.704
284.65
284.635
284.633
284.633
284.633
284.634
284.635
284.635
284.638
284.668
284.52
284.497
284.495
284.497
284.498
284.5
284.501
284.503
284.517
284.613
284.543
284.519
284.516
284.517
284.519
284.522
284.525
284.527
284.54
284.625
284.478
284.453
284.449
284.449
284.452
284.457
284.464
284.47
284.483
284.555
284.438
284.412
284.406
284.406
284.411
284.419
284.43
284.442
284.457
284.521
284.403
284.375
284.367
284.366
284.373
284.386
284.403
284.423
284.445
284.509
284.335
284.303
284.291
284.29
284.299
284.316
284.341
284.369
284.4
284.466
284.342
284.308
284.294
284.292
284.303
284.326
284.357
284.394
284.434
284.502
284.228
284.192
284.176
284.173
284.185
284.211
284.249
284.294
284.341
284.402
284.511
284.482
284.463
284.46
284.473
284.502
284.543
284.594
284.647
284.69
284.701
284.687
284.686
284.686
284.686
284.686
284.687
284.688
284.69
284.718
284.586
284.564
284.562
284.563
284.564
284.565
284.566
284.567
284.576
284.652
284.62
284.598
284.595
284.596
284.598
284.599
284.601
284.602
284.61
284.677
284.546
284.523
284.519
284.52
284.522
284.525
284.529
284.534
284.543
284.602
284.514
284.492
284.488
284.488
284.491
284.497
284.504
284.511
284.522
284.576
284.482
284.459
284.453
284.453
284.457
284.466
284.477
284.49
284.505
284.559
284.416
284.391
284.383
284.382
284.388
284.4
284.416
284.434
284.455
284.51
284.438
284.412
284.402
284.401
284.409
284.424
284.446
284.47
284.496
284.551
284.313
284.287
284.276
284.274
284.283
284.301
284.326
284.355
284.386
284.433
284.581
284.562
284.549
284.547
284.556
284.576
284.604
284.638
284.672
284.698
284.765
284.751
284.75
284.75
284.75
284.75
284.751
284.751
284.753
284.778
284.65
284.629
284.626
284.626
284.627
284.628
284.629
284.63
284.636
284.694
284.701
284.68
284.677
284.677
284.678
284.68
284.681
284.681
284.687
284.739
284.614
284.593
284.59
284.59
284.591
284.594
284.597
284.6
284.607
284.656
284.59
284.57
284.567
284.567
284.569
284.573
284.577
284.582
284.591
284.638
284.557
284.538
284.533
284.533
284.536
284.542
284.549
284.558
284.569
284.616
284.494
284.474
284.469
284.469
284.473
284.48
284.491
284.502
284.516
284.563
284.529
284.509
284.502
284.502
284.507
284.517
284.531
284.547
284.565
284.61
284.39
284.37
284.363
284.362
284.367
284.379
284.396
284.415
284.435
284.472
284.652
284.64
284.631
284.63
284.636
284.649
284.668
284.69
284.712
284.727
284.849
284.837
284.836
284.836
284.836
284.836
284.836
284.837
284.838
284.859
284.707
284.686
284.683
284.682
284.683
284.684
284.685
284.686
284.692
284.736
284.781
284.761
284.758
284.758
284.758
284.759
284.761
284.762
284.767
284.807
284.683
284.664
284.661
284.66
284.661
284.663
284.665
284.668
284.675
284.716
284.664
284.647
284.643
284.643
284.644
284.646
284.65
284.654
284.662
284.703
284.63
284.614
284.61
284.609
284.611
284.615
284.62
284.626
284.636
284.677
284.57
284.555
284.55
284.55
284.552
284.557
284.564
284.572
284.583
284.622
284.613
284.597
284.592
284.591
284.594
284.601
284.611
284.622
284.636
284.673
284.454
284.44
284.434
284.433
284.437
284.445
284.456
284.469
284.482
284.512
284.737
284.729
284.722
284.721
284.725
284.734
284.747
284.761
284.777
284.785
284.971
284.96
284.959
284.959
284.959
284.959
284.96
284.96
284.962
284.976
284.743
284.724
284.721
284.72
284.72
284.721
284.722
284.724
284.73
284.763
284.853
284.835
284.83
284.829
284.828
284.829
284.831
284.834
284.841
284.873
284.752
284.736
284.732
284.731
284.731
284.732
284.734
284.738
284.745
284.778
284.736
284.721
284.717
284.715
284.716
284.718
284.721
284.726
284.734
284.768
284.701
284.687
284.683
284.681
284.682
284.685
284.689
284.696
284.705
284.739
284.646
284.633
284.629
284.627
284.629
284.632
284.638
284.645
284.654
284.685
284.682
284.669
284.663
284.662
284.663
284.668
284.676
284.686
284.698
284.729
284.501
284.49
284.486
284.485
284.487
284.492
284.5
284.509
284.519
284.543
284.853
284.846
284.84
284.839
284.842
284.848
284.857
284.867
284.88
284.886
285.126
285.122
285.121
285.12
285.119
285.12
285.121
285.123
285.125
285.135
284.751
284.739
284.737
284.736
284.736
284.736
284.736
284.737
284.74
284.761
284.91
284.894
284.888
284.885
284.884
284.885
284.887
284.891
284.899
284.924
284.824
284.812
284.808
284.806
284.805
284.806
284.808
284.812
284.818
284.842
284.812
284.799
284.794
284.792
284.791
284.793
284.796
284.801
284.81
284.835
284.779
284.767
284.762
284.759
284.759
284.761
284.766
284.772
284.782
284.807
284.729
284.719
284.714
284.712
284.713
284.715
284.72
284.727
284.737
284.76
284.742
284.729
284.723
284.721
284.723
284.726
284.733
284.742
284.755
284.781
284.537
284.529
284.525
284.524
284.525
284.53
284.536
284.543
284.552
284.567
285.005
284.998
284.994
284.992
284.994
284.999
285.006
285.014
285.025
285.033
291.095
292.703
292.972
291.553
292.148
294.15
294.608
293.089
293.367
295.818
296.419
294.709
294.27
297.143
297.9
296.332
294.932
298.215
299.17
297.855
295.478
299.159
300.35
299.367
295.892
299.96
301.406
300.779
296.259
300.681
302.389
302.13
296.438
301.2
303.17
303.287
296.965
301.953
304.207
304.781
288.726
289.268
289.272
288.8
289.963
290.637
290.661
290.133
291.166
291.983
291.982
291.288
292.203
293.156
293.159
292.322
293.051
294.137
294.159
293.202
293.8
295.02
295.08
294.024
294.392
295.741
295.847
294.703
294.904
296.366
296.522
295.308
295.193
296.74
296.951
295.692
295.802
297.367
297.682
296.476
285.583
285.758
285.793
285.695
286.62
286.905
286.973
286.835
287.406
287.795
287.878
287.664
288.216
288.713
288.805
288.5
289.002
289.607
289.709
289.31
289.823
290.539
290.655
290.167
290.563
291.386
291.519
290.948
291.276
292.197
292.348
291.708
291.816
292.793
292.963
292.296
292.794
293.735
293.946
293.372
285.02
285.135
285.157
285.091
285.768
285.94
285.991
285.931
286.182
286.403
286.472
286.403
286.645
286.928
287.012
286.918
287.141
287.494
287.591
287.461
287.744
288.175
288.285
288.11
288.332
288.842
288.966
288.737
288.956
289.539
289.674
289.39
289.472
290.093
290.237
289.923
290.515
291.082
291.248
290.996
284.709
284.796
284.808
284.75
285.324
285.445
285.477
285.427
285.556
285.699
285.746
285.704
285.798
285.972
286.034
285.994
286.074
286.29
286.369
286.324
286.479
286.746
286.841
286.785
286.895
287.219
287.33
287.254
287.376
287.755
287.877
287.773
287.771
288.177
288.306
288.186
288.723
289.065
289.209
289.145
284.608
284.687
284.696
284.637
285.109
285.211
285.234
285.183
285.248
285.36
285.392
285.349
285.367
285.493
285.536
285.499
285.507
285.654
285.709
285.68
285.769
285.946
286.017
285.991
286.047
286.261
286.348
286.321
286.394
286.645
286.745
286.711
286.657
286.924
287.031
286.994
287.484
287.684
287.803
287.825
284.575
284.65
284.657
284.6
284.983
285.073
285.091
285.041
285.06
285.154
285.177
285.134
285.108
285.209
285.237
285.199
285.17
285.281
285.318
285.287
285.343
285.471
285.52
285.495
285.528
285.677
285.739
285.72
285.774
285.947
286.02
286.003
285.92
286.099
286.179
286.168
286.63
286.738
286.828
286.881
284.58
284.652
284.659
284.603
284.911
284.995
285.01
284.962
284.945
285.03
285.048
285.004
284.946
285.032
285.053
285.012
284.96
285.051
285.076
285.04
285.076
285.176
285.209
285.178
285.196
285.308
285.35
285.326
285.37
285.495
285.546
285.526
285.424
285.549
285.606
285.597
286.038
286.089
286.151
286.209
284.6
284.67
284.677
284.623
284.87
284.948
284.962
284.915
284.875
284.952
284.968
284.925
284.844
284.921
284.937
284.895
284.827
284.905
284.923
284.884
284.902
284.985
285.007
284.972
284.975
285.066
285.094
285.062
285.096
285.193
285.227
285.201
285.089
285.181
285.219
285.207
285.621
285.635
285.677
285.73
284.628
284.697
284.703
284.651
284.846
284.92
284.933
284.887
284.834
284.906
284.919
284.877
284.783
284.853
284.865
284.824
284.746
284.816
284.829
284.789
284.791
284.864
284.879
284.84
284.829
284.906
284.924
284.888
284.912
284.992
285.014
284.982
284.864
284.935
284.961
284.943
285.323
285.316
285.343
285.389
284.66
284.726
284.733
284.682
284.834
284.903
284.914
284.871
284.812
284.879
284.89
284.85
284.749
284.814
284.824
284.784
284.702
284.766
284.776
284.735
284.726
284.791
284.802
284.761
284.737
284.804
284.817
284.778
284.793
284.861
284.876
284.841
284.717
284.777
284.794
284.771
285.112
285.093
285.109
285.149
284.692
284.758
284.765
284.716
284.828
284.892
284.902
284.861
284.804
284.865
284.875
284.837
284.735
284.795
284.803
284.764
284.685
284.744
284.751
284.71
284.693
284.753
284.761
284.72
284.684
284.745
284.754
284.714
284.723
284.783
284.794
284.757
284.629
284.681
284.693
284.666
284.965
284.939
284.949
284.983
284.726
284.79
284.797
284.75
284.826
284.884
284.893
284.855
284.805
284.861
284.869
284.833
284.735
284.789
284.796
284.759
284.687
284.741
284.747
284.707
284.685
284.74
284.746
284.706
284.661
284.716
284.723
284.683
284.691
284.746
284.753
284.716
284.585
284.633
284.641
284.612
284.868
284.839
284.844
284.873
284.762
284.825
284.832
284.786
284.827
284.88
284.887
284.852
284.815
284.864
284.871
284.838
284.745
284.794
284.799
284.764
284.703
284.752
284.757
284.719
284.695
284.745
284.75
284.712
284.661
284.711
284.716
284.679
284.689
284.739
284.744
284.708
284.574
284.619
284.625
284.594
284.808
284.779
284.782
284.807
284.801
284.862
284.869
284.825
284.832
284.878
284.883
284.851
284.831
284.875
284.88
284.849
284.763
284.806
284.81
284.778
284.73
284.774
284.778
284.743
284.719
284.765
284.768
284.733
284.677
284.724
284.728
284.693
284.709
284.756
284.761
284.726
284.586
284.63
284.635
284.602
284.777
284.75
284.751
284.772
284.844
284.903
284.91
284.868
284.839
284.877
284.881
284.854
284.856
284.892
284.896
284.869
284.786
284.824
284.827
284.799
284.765
284.804
284.807
284.777
284.753
284.794
284.798
284.766
284.708
284.751
284.754
284.722
284.748
284.792
284.796
284.763
284.613
284.656
284.66
284.627
284.771
284.746
284.747
284.764
284.895
284.951
284.957
284.918
284.848
284.878
284.881
284.859
284.888
284.917
284.919
284.898
284.816
284.848
284.851
284.827
284.807
284.841
284.844
284.819
284.794
284.832
284.835
284.808
284.748
284.788
284.791
284.762
284.798
284.84
284.844
284.812
284.648
284.69
284.693
284.66
284.787
284.767
284.767
284.781
284.962
285.014
285.019
284.982
284.855
284.878
284.879
284.864
284.927
284.95
284.951
284.936
284.852
284.878
284.881
284.863
284.854
284.884
284.887
284.866
284.841
284.875
284.879
284.855
284.794
284.831
284.834
284.807
284.851
284.891
284.894
284.864
284.678
284.719
284.722
284.69
284.831
284.817
284.817
284.827
285.06
285.105
285.109
285.077
284.852
284.868
284.869
284.861
284.969
284.985
284.988
284.979
284.893
284.915
284.918
284.906
284.902
284.929
284.933
284.916
284.887
284.918
284.922
284.901
284.839
284.873
284.877
284.852
284.891
284.929
284.933
284.905
284.689
284.727
284.73
284.699
284.921
284.912
284.913
284.92
285.191
285.222
285.224
285.203
284.825
284.836
284.838
284.834
285.002
285.016
285.019
285.016
284.934
284.952
284.956
284.947
284.944
284.967
284.971
284.958
284.925
284.952
284.956
284.939
284.878
284.907
284.91
284.891
284.91
284.943
284.947
284.925
284.67
284.7
284.702
284.68
285.06
285.061
285.062
285.062
285.469
284.429
283.985
283.711
283.459
283.251
283.084
282.95
282.836
282.722
286.231
285.153
284.417
283.954
283.585
283.307
283.085
282.901
282.739
282.572
286.752
285.609
284.646
284.108
283.699
283.416
283.197
283.018
282.859
282.691
287.242
286.072
284.876
284.28
283.824
283.523
283.286
283.091
282.916
282.734
287.724
286.505
285.094
284.457
283.945
283.615
283.348
283.125
282.924
282.721
288.316
287.028
285.42
284.742
284.164
283.795
283.485
283.225
282.989
282.751
288.863
287.498
285.71
284.995
284.351
283.942
283.59
283.293
283.023
282.758
289.47
288.028
286.075
285.323
284.613
284.167
283.771
283.435
283.124
282.817
289.937
288.434
286.329
285.575
284.828
284.367
283.935
283.569
283.229
282.892
291.464
289.933
287.731
286.913
286.068
285.503
284.972
284.516
284.101
283.691
286.946
285.841
285.025
284.444
284.043
283.757
283.546
283.385
283.256
283.137
287.886
286.301
285.15
284.437
283.965
283.63
283.376
283.177
283.015
282.862
288.33
286.445
285.117
284.376
283.898
283.574
283.336
283.152
282.999
282.851
288.617
286.524
285.074
284.315
283.823
283.499
283.26
283.074
282.918
282.768
288.792
286.555
285.008
284.244
283.731
283.399
283.149
282.953
282.788
282.632
288.985
286.662
285.033
284.271
283.727
283.38
283.11
282.896
282.713
282.542
289.091
286.725
285.024
284.27
283.694
283.333
283.044
282.813
282.614
282.43
289.217
286.852
285.087
284.348
283.741
283.369
283.059
282.809
282.589
282.385
289.235
286.883
285.063
284.372
283.763
283.401
283.075
282.809
282.574
282.353
290.085
287.828
286.017
285.352
284.699
284.287
283.902
283.584
283.303
283.048
285.372
285.042
284.746
284.485
284.258
284.065
283.903
283.767
283.649
283.536
286.292
285.65
285.102
284.655
284.291
283.994
283.753
283.557
283.394
283.24
286.853
285.983
285.262
284.717
284.297
283.976
283.726
283.527
283.36
283.202
287.331
286.237
285.351
284.721
284.252
283.906
283.641
283.432
283.257
283.094
287.723
286.42
285.383
284.682
284.168
283.797
283.514
283.29
283.104
282.934
288.13
286.65
285.476
284.717
284.157
283.76
283.454
283.212
283.008
282.825
288.439
286.815
285.517
284.714
284.114
283.694
283.368
283.109
282.89
282.695
288.741
287.008
285.604
284.772
284.139
283.704
283.359
283.082
282.844
282.632
288.91
287.092
285.596
284.769
284.128
283.694
283.335
283.044
282.793
282.568
289.796
287.973
286.446
285.625
284.952
284.482
284.081
283.751
283.465
283.219
284.901
284.749
284.609
284.468
284.333
284.209
284.098
283.999
283.909
283.816
285.665
285.299
284.958
284.654
284.389
284.161
283.969
283.806
283.666
283.528
286.085
285.607
285.156
284.77
284.449
284.186
283.97
283.79
283.634
283.483
286.496
285.872
285.293
284.821
284.442
284.14
283.896
283.696
283.525
283.366
286.887
286.096
285.38
284.823
284.385
284.044
283.772
283.552
283.365
283.196
287.342
286.378
285.526
284.887
284.391
284.011
283.71
283.466
283.261
283.077
287.736
286.603
285.617
284.907
284.358
283.945
283.619
283.355
283.133
282.937
288.132
286.847
285.74
284.974
284.383
283.945
283.596
283.313
283.073
282.862
288.401
286.981
285.77
284.975
284.362
283.913
283.548
283.25
282.997
282.776
289.313
287.818
286.556
285.747
285.103
284.625
284.229
283.901
283.622
283.388
284.599
284.524
284.468
284.405
284.337
284.268
284.202
284.139
284.078
284.008
285.22
284.968
284.754
284.561
284.385
284.228
284.089
283.968
283.858
283.744
285.502
285.215
284.945
284.698
284.478
284.285
284.118
283.971
283.839
283.705
285.777
285.427
285.083
284.772
284.499
284.264
284.063
283.89
283.738
283.591
286.069
285.629
285.191
284.804
284.471
284.19
283.955
283.756
283.584
283.424
286.464
285.913
285.365
284.896
284.5
284.173
283.902
283.675
283.481
283.305
286.835
286.157
285.493
284.945
284.489
284.12
283.817
283.566
283.353
283.163
287.229
286.424
285.648
285.03
284.523
284.121
283.791
283.519
283.287
283.082
287.505
286.582
285.707
285.041
284.5
284.077
283.728
283.439
283.194
282.982
288.386
287.381
286.446
285.749
285.177
284.727
284.353
284.04
283.774
283.555
284.494
284.441
284.415
284.385
284.349
284.311
284.273
284.235
284.195
284.144
284.989
284.781
284.623
284.489
284.37
284.262
284.165
284.078
283.997
283.904
285.17
284.955
284.774
284.613
284.465
284.329
284.207
284.095
283.99
283.876
285.328
285.095
284.88
284.678
284.491
284.32
284.165
284.028
283.901
283.772
285.51
285.241
284.973
284.717
284.479
284.264
284.074
283.908
283.76
283.616
285.812
285.486
285.144
284.821
284.525
284.263
284.036
283.839
283.666
283.505
286.112
285.71
285.282
284.886
284.532
284.225
283.963
283.739
283.544
283.368
286.453
285.966
285.448
284.985
284.578
284.233
283.941
283.692
283.478
283.287
286.682
286.117
285.52
285.003
284.556
284.184
283.869
283.603
283.375
283.177
287.498
286.871
286.215
285.659
285.18
284.783
284.445
284.159
283.914
283.713
284.463
284.418
284.406
284.391
284.373
284.353
284.331
284.309
284.284
284.245
284.857
284.672
284.544
284.445
284.361
284.286
284.22
284.159
284.1
284.025
284.965
284.787
284.655
284.544
284.444
284.351
284.265
284.184
284.103
284.009
285.04
284.862
284.719
284.588
284.462
284.342
284.23
284.125
284.025
283.917
285.138
284.95
284.781
284.615
284.452
284.297
284.152
284.021
283.899
283.776
285.353
285.143
284.93
284.715
284.505
284.307
284.126
283.964
283.818
283.676
285.575
285.326
285.057
284.785
284.522
284.282
284.066
283.875
283.706
283.549
285.846
285.549
285.216
284.887
284.576
284.297
284.05
283.834
283.644
283.472
286.004
285.673
285.284
284.905
284.555
284.246
283.975
283.74
283.537
283.358
286.739
286.371
285.933
285.515
285.133
284.8
284.509
284.257
284.038
283.859
284.47
284.43
284.424
284.417
284.407
284.396
284.384
284.371
284.355
284.324
284.786
284.615
284.506
284.427
284.365
284.312
284.266
284.225
284.182
284.122
284.843
284.686
284.581
284.502
284.433
284.369
284.309
284.251
284.19
284.114
284.859
284.709
284.606
284.519
284.436
284.354
284.274
284.198
284.122
284.033
284.895
284.748
284.636
284.529
284.421
284.311
284.206
284.107
284.011
283.909
285.042
284.889
284.754
284.615
284.47
284.326
284.188
284.061
283.942
283.822
285.195
285.026
284.857
284.676
284.489
284.308
284.138
283.983
283.842
283.707
285.397
285.208
284.998
284.772
284.545
284.328
284.129
283.949
283.788
283.637
285.488
285.297
285.051
284.784
284.521
284.275
284.052
283.854
283.679
283.522
286.139
285.932
285.648
285.347
285.056
284.789
284.548
284.334
284.145
283.991
284.495
284.458
284.455
284.452
284.447
284.441
284.434
284.426
284.415
284.388
284.747
284.588
284.492
284.429
284.381
284.343
284.311
284.283
284.251
284.202
284.771
284.628
284.541
284.481
284.433
284.389
284.347
284.307
284.263
284.2
284.747
284.614
284.536
284.476
284.42
284.365
284.311
284.257
284.201
284.129
284.74
284.616
284.538
284.469
284.397
284.323
284.248
284.176
284.104
284.02
284.834
284.713
284.625
284.536
284.438
284.336
284.235
284.139
284.046
283.947
284.931
284.807
284.7
284.582
284.452
284.32
284.191
284.07
283.957
283.844
285.077
284.948
284.817
284.666
284.504
284.342
284.187
284.044
283.911
283.784
285.113
285
284.847
284.665
284.473
284.286
284.109
283.948
283.803
283.67