/*--------------------------------*- C++ -*----------------------------------*\
| =========                 |                                                 |
| \\      /  F ield         | foam-extend: Open Source CFD                    |
|  \\    /   O peration     | Version:     4.0                                |
|   \\  /    A nd           | Web:         http://www.foam-extend.org         |
|    \\/     M anipulation  |                                                 |
\*---------------------------------------------------------------------------*/
FoamFile
{
    version     2.0;
    format      ascii;
    class       volVectorField;
    location    "300";
    object      Urel;
}
// * * * * * * * * * * * * * * * * * * * * * * * * * * * * * * * * * * * * * //

dimensions      [0 1 -1 0 0 0 0];

internalField   nonuniform List<vector> 
34480
(
(189.686 -9.58326 -18.6933)
(190.213 -8.90967 -20.8616)
(190.608 -8.04904 -23.0374)
(190.89 -7.02447 -25.2721)
(191.051 -5.86066 -27.6941)
(191.09 -4.55385 -30.4886)
(190.95 -3.07953 -34.0443)
(190.352 -1.31771 -38.6685)
(188.234 0.941681 -46.3821)
(181.484 5.08133 -72.6261)
(189.466 -12.2309 -26.3551)
(190.227 -10.8045 -28.7675)
(190.745 -9.28 -31.1068)
(191.126 -7.65154 -33.443)
(191.333 -5.94759 -35.8856)
(191.33 -4.19913 -38.6663)
(191.034 -2.4296 -42.2076)
(190.175 -0.579121 -47.1918)
(187.238 1.47636 -55.5451)
(179.344 5.38108 -85.7427)
(189.087 -15.9888 -33.3489)
(189.966 -14.0198 -35.9692)
(190.614 -11.9888 -38.4851)
(191.137 -9.86127 -40.9466)
(191.516 -7.67531 -43.5069)
(191.749 -5.45321 -46.4493)
(191.771 -3.20171 -50.235)
(191.359 -0.848922 -55.8351)
(188.622 1.70311 -65.0965)
(180.345 6.2259 -98.3526)
(189.23 -18.9023 -40.7006)
(190.183 -16.3876 -43.6226)
(190.946 -13.8418 -46.3764)
(191.608 -11.2136 -49.0435)
(192.148 -8.5362 -51.7833)
(192.578 -5.81725 -54.905)
(192.845 -3.04822 -58.8764)
(192.834 -0.145744 -64.9383)
(190.452 2.97151 -74.9783)
(181.904 8.09688 -110.373)
(189.765 -22.9503 -47.4997)
(190.832 -20.0376 -50.7325)
(191.72 -17.0692 -53.8039)
(192.517 -13.9877 -56.7514)
(193.199 -10.8435 -59.7481)
(193.796 -7.63921 -63.1134)
(194.268 -4.35697 -67.3218)
(194.596 -0.897977 -73.8472)
(192.61 2.85122 -84.7211)
(183.813 8.70321 -121.848)
(190.131 -26.1053 -54.848)
(191.321 -22.7397 -58.3761)
(192.33 -19.3054 -61.6962)
(193.239 -15.737 -64.8623)
(194.031 -12.0799 -68.0356)
(194.76 -8.33882 -71.5532)
(195.403 -4.49244 -75.8841)
(196.014 -0.434004 -82.7002)
(194.447 3.97865 -94.2257)
(185.472 10.4873 -132.704)
(190.639 -30.8459 -61.4812)
(191.987 -27.1315 -65.3105)
(193.132 -23.313 -68.963)
(194.16 -19.3276 -72.4157)
(195.057 -15.2336 -75.8486)
(195.898 -11.0348 -79.5962)
(196.684 -6.69361 -84.1372)
(197.528 -2.08894 -91.2819)
(196.373 3.0286 -103.509)
(187.215 10.3951 -143.143)
(190.878 -34.3312 -68.8952)
(192.374 -30.2029 -72.997)
(193.642 -25.9264 -76.8894)
(194.747 -21.4562 -80.567)
(195.676 -16.8346 -84.1677)
(196.526 -12.0823 -88.0228)
(197.34 -7.15043 -92.5918)
(198.286 -1.90681 -99.7722)
(197.511 4.04345 -112.291)
(188.389 12.3183 -152.584)
(191.093 -39.7706 -75.2744)
(192.829 -35.3688 -79.6114)
(194.339 -30.797 -83.7989)
(195.661 -26.0239 -87.7693)
(196.754 -21.0951 -91.6816)
(197.701 -16.0186 -95.8258)
(198.555 -10.7057 -100.679)
(199.51 -4.98597 -108.098)
(198.919 1.87122 -121.006)
(189.684 11.6908 -161.424)
(190.237 -43.367 -82.8963)
(192.055 -38.7327 -87.4908)
(193.486 -33.7999 -91.9126)
(194.531 -28.6004 -96.1445)
(195.147 -23.121 -100.277)
(195.423 -17.375 -104.549)
(195.475 -11.2675 -109.356)
(195.632 -4.60165 -116.362)
(194.892 3.36263 -128.464)
(186.882 14.7158 -167.152)
(186.814 2.07135 3.24888)
(187.439 1.41526 2.02636)
(187.812 0.85143 0.677078)
(187.956 0.391885 -0.780333)
(187.829 0.0284123 -2.39225)
(187.372 -0.233844 -4.1915)
(186.391 -0.391435 -6.2417)
(184.46 -0.445319 -8.54735)
(181.523 -0.460211 -10.7317)
(177.33 -0.206093 -14.3489)
(187.031 3.38434 3.07451)
(187.883 2.94237 1.74902)
(188.381 2.51257 0.368104)
(188.642 2.11616 -1.125)
(188.607 1.74894 -2.77053)
(188.17 1.3977 -4.63859)
(187.101 1.03377 -6.83102)
(184.868 0.623421 -9.63628)
(180.84 0.0245109 -12.6349)
(175.088 -0.167609 -20.1032)
(187 3.58744 3.49038)
(187.958 3.17323 2.13431)
(188.579 2.73298 0.7184)
(188.981 2.31599 -0.800973)
(189.108 1.91032 -2.4963)
(188.877 1.50926 -4.47932)
(188.075 1.08816 -6.94347)
(186.159 0.640267 -10.4678)
(182.112 0.0118481 -14.7242)
(176.014 0.0263278 -26.1449)
(187.381 4.62705 3.54832)
(188.404 4.26932 2.11012)
(189.137 3.84396 0.647416)
(189.68 3.41621 -0.925055)
(189.971 2.97715 -2.69557)
(189.938 2.5348 -4.81615)
(189.361 2.0802 -7.50003)
(187.753 1.64003 -11.5896)
(183.842 1.06008 -16.9288)
(177.43 1.35737 -32.0802)
(188.105 4.52069 4.15763)
(189.228 4.07374 2.64092)
(190.083 3.57364 1.0604)
(190.764 3.09319 -0.629932)
(191.206 2.60574 -2.54471)
(191.352 2.12334 -4.86025)
(190.977 1.64199 -7.79348)
(189.661 1.21549 -12.4198)
(185.946 0.731629 -18.8353)
(179.18 1.45579 -37.6084)
(188.614 5.33157 4.2135)
(189.853 4.84967 2.63666)
(190.829 4.31492 1.01403)
(191.63 3.80704 -0.725373)
(192.193 3.30285 -2.69161)
(192.486 2.81613 -5.09829)
(192.287 2.35478 -8.15347)
(191.237 1.99196 -13.1385)
(187.761 1.66139 -20.4003)
(180.663 2.76337 -42.5191)
(189.251 4.55054 4.97201)
(190.633 3.93162 3.33479)
(191.74 3.28728 1.58683)
(192.664 2.6963 -0.266958)
(193.339 2.12507 -2.36525)
(193.757 1.58718 -4.93097)
(193.711 1.10158 -8.17717)
(192.907 0.749543 -13.534)
(189.709 0.578227 -21.6527)
(182.289 2.18839 -46.8981)
(189.574 5.05829 4.92858)
(191.094 4.36904 3.26819)
(192.321 3.68585 1.50777)
(193.327 3.07085 -0.379206)
(194.055 2.50891 -2.49786)
(194.517 1.99726 -5.0908)
(194.542 1.57114 -8.35435)
(193.9 1.30799 -13.823)
(191.002 1.42565 -22.4057)
(183.476 3.46148 -50.2453)
(189.903 3.56287 5.88573)
(191.616 2.67153 4.24178)
(193.053 1.81225 2.40955)
(194.249 1.03389 0.440179)
(195.134 0.317419 -1.81411)
(195.722 -0.328513 -4.58712)
(195.852 -0.831398 -8.1186)
(195.333 -1.11351 -13.9254)
(192.632 -0.651294 -23.1413)
(184.918 2.17962 -52.9596)
(189.116 3.98523 5.59853)
(190.918 2.86173 3.97143)
(192.332 1.88414 2.16542)
(193.356 1.02108 0.164557)
(193.922 0.318838 -2.10482)
(194.061 -0.220489 -4.85547)
(193.676 -0.506316 -8.30331)
(192.702 -0.417094 -13.8471)
(190.025 0.607635 -22.8443)
(183.216 4.60716 -53.0967)
(184.567 1.58792 2.50381)
(185.167 1.10916 1.55324)
(185.484 0.672212 0.465028)
(185.549 0.304253 -0.698311)
(185.336 0.00405503 -1.94329)
(184.809 -0.221849 -3.23338)
(183.869 -0.375874 -4.52301)
(182.346 -0.476636 -5.68428)
(180.015 -0.609143 -6.35687)
(176.802 -0.723916 -6.72792)
(185.001 2.95295 2.48949)
(185.838 2.62629 1.355)
(186.276 2.27586 0.162622)
(186.436 1.93021 -1.11987)
(186.281 1.59555 -2.49631)
(185.717 1.26213 -3.97874)
(184.531 0.906311 -5.5283)
(182.373 0.486656 -7.11547)
(178.591 -0.142228 -8.16969)
(173.03 -0.772544 -9.87732)
(185.181 3.20996 2.99608)
(186.138 2.87016 1.7729)
(186.698 2.4825 0.48366)
(186.99 2.09974 -0.902567)
(186.97 1.71942 -2.42096)
(186.533 1.33474 -4.1077)
(185.44 0.918199 -5.98725)
(183.257 0.439862 -8.21149)
(178.924 -0.287515 -10.1173)
(172.226 -0.96524 -13.5989)
(185.731 4.2807 3.0862)
(186.757 3.97809 1.75668)
(187.425 3.59518 0.396195)
(187.846 3.19684 -1.07494)
(187.963 2.78208 -2.7115)
(187.672 2.35253 -4.59276)
(186.696 1.8878 -6.7701)
(184.556 1.38388 -9.58221)
(179.819 0.627209 -12.3309)
(172.082 0.00929903 -17.7803)
(186.596 4.17207 3.7265)
(187.718 3.7722 2.30052)
(188.501 3.3123 0.806578)
(189.052 2.86117 -0.802678)
(189.302 2.40014 -2.6139)
(189.157 1.93365 -4.73943)
(188.31 1.44164 -7.24918)
(186.255 0.939647 -10.6726)
(181.221 0.218674 -14.3666)
(172.485 -0.160758 -22.0658)
(187.22 5.00405 3.79929)
(188.452 4.56196 2.30379)
(189.353 4.06464 0.760076)
(190.019 3.58469 -0.910252)
(190.381 3.10481 -2.79485)
(190.363 2.63041 -5.05166)
(189.637 2.15035 -7.75944)
(187.689 1.69743 -11.6425)
(182.446 1.08479 -16.1466)
(172.798 0.953211 -26.1724)
(187.96 4.23117 4.57091)
(189.323 3.65043 3.00626)
(190.346 3.04661 1.33248)
(191.13 2.48957 -0.459858)
(191.596 1.95194 -2.49157)
(191.691 1.44076 -4.93902)
(191.082 0.954834 -7.90183)
(189.261 0.531066 -12.263)
(183.917 0.0510238 -17.6397)
(173.441 0.307134 -30.089)
(188.37 4.7852 4.50418)
(189.855 4.13475 2.92059)
(190.989 3.49325 1.24518)
(191.851 2.91474 -0.57009)
(192.37 2.38897 -2.61864)
(192.515 1.91103 -5.10857)
(191.973 1.49391 -8.14393)
(190.264 1.16567 -12.7446)
(184.927 0.948609 -18.6999)
(173.845 1.52441 -33.3327)
(188.834 3.2721 5.41341)
(190.472 2.42713 3.83905)
(191.778 1.62925 2.0906)
(192.794 0.917812 0.200031)
(193.434 0.277317 -1.96659)
(193.679 -0.283075 -4.61396)
(193.235 -0.71003 -7.92461)
(191.654 -0.968442 -12.9689)
(186.355 -0.79525 -19.7326)
(174.633 0.382238 -36.1306)
(188.157 3.74589 5.08188)
(189.867 2.69714 3.54664)
(191.169 1.80601 1.85581)
(192.066 1.02648 -0.0293105)
(192.475 0.405528 -2.17425)
(192.39 -0.0539183 -4.77132)
(191.584 -0.274966 -7.99345)
(189.727 -0.168366 -12.8675)
(184.486 0.585099 -19.7594)
(172.815 2.86331 -36.7821)
(182.857 1.12134 1.81519)
(183.361 0.807074 1.13473)
(183.607 0.495971 0.320943)
(183.629 0.22239 -0.536441)
(183.411 -0.0119127 -1.42623)
(182.944 -0.199644 -2.27988)
(182.189 -0.347513 -3.03005)
(181.103 -0.473562 -3.55547)
(179.652 -0.637461 -3.61584)
(177.825 -0.854899 -3.01244)
(183.333 2.47675 1.8943)
(184.09 2.27321 0.981144)
(184.452 2.01423 0.0137375)
(184.539 1.73364 -1.01729)
(184.325 1.44602 -2.08843)
(183.751 1.14533 -3.17756)
(182.687 0.814344 -4.20228)
(180.926 0.417352 -5.04398)
(178.104 -0.152848 -5.22722)
(174.092 -0.847505 -4.83671)
(183.612 2.76252 2.45503)
(184.508 2.51307 1.40853)
(184.988 2.19362 0.296005)
(185.18 1.85971 -0.894645)
(185.052 1.5162 -2.16999)
(184.523 1.15873 -3.52281)
(183.414 0.765145 -4.89332)
(181.446 0.30366 -6.22676)
(178.015 -0.381397 -6.87735)
(173.105 -1.22298 -7.08681)
(184.255 3.85818 2.55973)
(185.229 3.6273 1.38577)
(185.812 3.30107 0.1774)
(186.112 2.94468 -1.12836)
(186.08 2.56439 -2.55594)
(185.622 2.16016 -4.13525)
(184.511 1.7095 -5.82441)
(182.401 1.19553 -7.66819)
(178.403 0.424103 -8.84777)
(172.552 -0.50041 -9.87198)
(185.201 3.74608 3.22403)
(186.272 3.41015 1.93341)
(186.963 3.00327 0.571949)
(187.378 2.59119 -0.895722)
(187.447 2.163 -2.52597)
(187.078 1.72069 -4.38166)
(185.995 1.23899 -6.44227)
(183.795 0.713278 -8.87878)
(179.259 -0.0730561 -10.7616)
(172.391 -0.915407 -12.9404)
(185.895 4.59907 3.3085)
(187.075 4.21455 1.9367)
(187.879 3.76718 0.513473)
(188.398 3.32493 -1.03191)
(188.558 2.87708 -2.75953)
(188.274 2.42565 -4.77812)
(187.228 1.94927 -7.08331)
(184.972 1.45212 -9.99598)
(179.946 0.714849 -12.5212)
(172.055 -0.0239492 -16.0228)
(186.702 3.83962 4.09161)
(188.004 3.31474 2.63872)
(188.921 2.76254 1.07656)
(189.548 2.2467 -0.603206)
(189.797 1.74624 -2.49598)
(189.596 1.26602 -4.73233)
(188.602 0.792666 -7.33812)
(186.332 0.333642 -10.7676)
(180.915 -0.303176 -14.0539)
(172.044 -0.798696 -19.1149)
(187.175 4.45112 4.00422)
(188.587 3.85766 2.53327)
(189.604 3.2678 0.97413)
(190.304 2.73181 -0.725932)
(190.601 2.24342 -2.63899)
(190.438 1.79963 -4.93148)
(189.474 1.39923 -7.64684)
(187.22 1.035 -11.3772)
(181.547 0.613243 -15.2242)
(171.873 0.307802 -21.7958)
(187.739 2.9359 4.89633)
(189.271 2.1558 3.42514)
(190.431 1.42431 1.78521)
(191.259 0.778425 0.00567264)
(191.654 0.205247 -2.02552)
(191.565 -0.284467 -4.46598)
(190.647 -0.65415 -7.43367)
(188.445 -0.899659 -11.6113)
(182.65 -0.919608 -16.3339)
(172.178 -0.778238 -24.2447)
(187.161 3.48393 4.53231)
(188.751 2.52488 3.11615)
(189.925 1.72187 1.5556)
(190.679 1.0238 -0.192832)
(190.922 0.478025 -2.18053)
(190.611 0.0878544 -4.56254)
(189.448 -0.0844316 -7.45118)
(187.026 0.0233304 -11.5086)
(181.202 0.569073 -16.5078)
(170.346 1.71113 -24.9211)
(181.591 0.738715 1.26697)
(181.981 0.546678 0.804803)
(182.16 0.337613 0.226358)
(182.166 0.144168 -0.372052)
(181.993 -0.0326185 -0.980198)
(181.648 -0.184534 -1.52686)
(181.129 -0.317994 -1.95986)
(180.446 -0.445189 -2.19852)
(179.626 -0.597881 -2.12396)
(178.644 -0.78396 -1.65896)
(182.009 2.03005 1.36294)
(182.651 1.93 0.660361)
(182.937 1.75552 -0.0856667)
(182.981 1.54049 -0.8732)
(182.773 1.30493 -1.66556)
(182.281 1.04739 -2.42605)
(181.437 0.758056 -3.07444)
(180.138 0.412864 -3.50528)
(178.162 -0.0556288 -3.44064)
(175.227 -0.643476 -2.85391)
(182.293 2.29977 1.93505)
(183.091 2.13687 1.0793)
(183.49 1.88799 0.161482)
(183.612 1.60865 -0.813683)
(183.441 1.30947 -1.83107)
(182.924 0.989565 -2.859)
(181.953 0.634576 -3.81386)
(180.377 0.22231 -4.58357)
(177.867 -0.352129 -4.7282)
(174.332 -1.08763 -4.19969)
(182.955 3.3986 2.03126)
(183.842 3.24368 1.03715)
(184.338 2.98047 0.0072347)
(184.546 2.67345 -1.10167)
(184.428 2.3356 -2.28603)
(183.914 1.96786 -3.53949)
(182.849 1.55116 -4.77981)
(181.034 1.06894 -5.926)
(177.976 0.38058 -6.33447)
(173.774 -0.493724 -5.97615)
(183.917 3.27408 2.70572)
(184.906 3.01087 1.57905)
(185.505 2.6649 0.37929)
(185.809 2.29918 -0.910998)
(185.757 1.91039 -2.31624)
(185.273 1.50033 -3.85541)
(184.145 1.04534 -5.4585)
(182.124 0.535223 -7.11033)
(178.471 -0.202415 -7.98227)
(173.436 -1.0845 -8.07946)
(184.631 4.14292 2.79346)
(185.732 3.82788 1.57521)
(186.439 3.43946 0.301806)
(186.835 3.04249 -1.08175)
(186.848 2.63318 -2.60376)
(186.398 2.21262 -4.32283)
(185.226 1.75653 -6.18073)
(183.026 1.25505 -8.26011)
(178.768 0.514747 -9.57507)
(172.789 -0.37145 -10.2705)
(185.462 3.39827 3.58288)
(186.682 2.94321 2.27166)
(187.494 2.45175 0.849234)
(187.986 1.98379 -0.682081)
(188.069 1.52494 -2.38627)
(187.666 1.07912 -4.34195)
(186.475 0.627188 -6.51984)
(184.145 0.161565 -9.09723)
(179.339 -0.511033 -11.0116)
(172.385 -1.27112 -12.5599)
(185.97 4.07273 3.47561)
(187.291 3.55167 2.14449)
(188.196 3.02295 0.725839)
(188.754 2.53636 -0.827586)
(188.877 2.08981 -2.56011)
(188.493 1.68195 -4.58555)
(187.285 1.30312 -6.89224)
(184.872 0.9271 -9.77528)
(179.648 0.416812 -12.1527)
(171.822 -0.268789 -14.5857)
(186.605 2.56284 4.36206)
(188.024 1.86306 3.01967)
(189.047 1.20412 1.50942)
(189.709 0.625393 -0.131901)
(189.909 0.116682 -1.99132)
(189.578 -0.310522 -4.17115)
(188.376 -0.634294 -6.71896)
(185.919 -0.871293 -9.99415)
(180.425 -1.00752 -13.1665)
(171.738 -1.36259 -16.4919)
(186.119 3.20565 3.9642)
(187.583 2.3474 2.68672)
(188.631 1.63484 1.2703)
(189.252 1.01745 -0.322637)
(189.353 0.543018 -2.1257)
(188.873 0.215403 -4.24904)
(187.502 0.0819636 -6.74023)
(184.854 0.18119 -9.94473)
(179.223 0.567081 -13.3749)
(169.903 1.07636 -16.9619)
(180.651 0.45296 0.867564)
(180.94 0.341212 0.565449)
(181.063 0.205485 0.167101)
(181.064 0.0732324 -0.235062)
(180.943 -0.0570137 -0.639835)
(180.711 -0.176568 -0.984892)
(180.379 -0.289964 -1.23837)
(179.969 -0.403517 -1.35294)
(179.511 -0.533133 -1.27026)
(178.925 -0.681903 -0.971994)
(180.975 1.6502 0.925906)
(181.497 1.6254 0.40288)
(181.712 1.51975 -0.14851)
(181.731 1.36351 -0.724679)
(181.556 1.17908 -1.28765)
(181.173 0.968545 -1.80053)
(180.55 0.728296 -2.1992)
(179.63 0.443922 -2.40999)
(178.243 0.0726532 -2.28106)
(175.962 -0.40651 -1.78288)
(181.216 1.86219 1.4745)
(181.897 1.7694 0.800232)
(182.215 1.58434 0.0718103)
(182.289 1.35908 -0.695804)
(182.116 1.10752 -1.47584)
(181.667 0.832075 -2.22698)
(180.886 0.525671 -2.87079)
(179.701 0.176251 -3.30528)
(177.919 -0.282165 -3.26655)
(175.278 -0.878015 -2.67909)
(181.847 2.93768 1.53758)
(182.622 2.8515 0.726832)
(183.029 2.65035 -0.117454)
(183.167 2.39554 -1.02211)
(183.011 2.10509 -1.96392)
(182.515 1.78221 -2.91417)
(181.592 1.41409 -3.78294)
(180.149 0.989094 -4.46097)
(177.934 0.415743 -4.52085)
(174.9 -0.320952 -3.8349)
(182.774 2.78676 2.20363)
(183.655 2.5952 1.25269)
(184.159 2.31248 0.229352)
(184.374 1.99764 -0.86686)
(184.251 1.6538 -2.03405)
(183.734 1.28394 -3.25796)
(182.687 0.869869 -4.44842)
(180.984 0.402688 -5.51672)
(178.24 -0.236632 -5.86241)
(174.632 -1.01576 -5.27645)
(183.466 3.66127 2.28225)
(184.463 3.41934 1.23399)
(185.07 3.09447 0.12886)
(185.362 2.74812 -1.07074)
(185.277 2.38292 -2.36461)
(184.748 2.00059 -3.76815)
(183.592 1.57953 -5.19271)
(181.637 1.10504 -6.59995)
(178.3 0.430742 -7.21969)
(173.952 -0.409956 -6.81297)
(184.286 2.92852 3.069)
(185.4 2.55041 1.91858)
(186.107 2.12548 0.655938)
(186.48 1.71068 -0.702342)
(186.442 1.29799 -2.18995)
(185.922 0.891323 -3.8368)
(184.688 0.470628 -5.57465)
(182.522 0.021996 -7.41815)
(178.605 -0.613631 -8.48516)
(173.425 -1.39815 -8.47691)
(184.8 3.66691 2.93934)
(186.011 3.22774 1.76638)
(186.803 2.767 0.506489)
(187.236 2.33544 -0.876975)
(187.226 1.93524 -2.40056)
(186.703 1.5669 -4.12636)
(185.405 1.21727 -5.99624)
(183.079 0.851631 -8.10816)
(178.678 0.334659 -9.51558)
(172.705 -0.448572 -9.94974)
(185.48 2.16482 3.82549)
(186.772 1.55541 2.62999)
(187.663 0.973388 1.26644)
(188.18 0.46287 -0.21491)
(188.228 0.0164908 -1.87598)
(187.735 -0.353662 -3.76642)
(186.409 -0.637017 -5.87635)
(183.965 -0.861431 -8.32508)
(179.21 -1.05437 -10.361)
(172.442 -1.58188 -11.3275)
(185.071 2.9197 3.39036)
(186.398 2.16929 2.26514)
(187.319 1.54843 1.00416)
(187.818 1.01062 -0.41792)
(187.805 0.60386 -2.01562)
(187.211 0.332407 -3.8544)
(185.761 0.230055 -5.92597)
(183.139 0.317113 -8.34843)
(178.176 0.583155 -10.5764)
(170.73 0.77217 -11.6178)
(179.934 0.252857 0.595538)
(180.148 0.188458 0.402901)
(180.23 0.100604 0.131453)
(180.231 0.0114511 -0.133517)
(180.152 -0.0834411 -0.40139)
(180.007 -0.175411 -0.620958)
(179.804 -0.267245 -0.77655)
(179.567 -0.360987 -0.841677)
(179.312 -0.46446 -0.785659)
(178.929 -0.578856 -0.613278)
(180.168 1.34946 0.588481)
(180.581 1.37288 0.206994)
(180.735 1.31804 -0.186952)
(180.741 1.21011 -0.593874)
(180.608 1.07168 -0.981233)
(180.33 0.906955 -1.31888)
(179.892 0.716497 -1.56062)
(179.259 0.492063 -1.66035)
(178.266 0.203672 -1.53283)
(176.404 -0.181842 -1.16693)
(180.345 1.4737 1.0922)
(180.908 1.42988 0.576325)
(181.152 1.29688 0.016722)
(181.194 1.12071 -0.567976)
(181.042 0.916204 -1.14803)
(180.682 0.688063 -1.68269)
(180.09 0.434759 -2.10842)
(179.235 0.151498 -2.35086)
(177.975 -0.203531 -2.25812)
(175.927 -0.672159 -1.78927)
(180.918 2.50276 1.10193)
(181.569 2.47124 0.462903)
(181.893 2.32567 -0.203836)
(181.981 2.12182 -0.914509)
(181.82 1.88039 -1.63588)
(181.387 1.60693 -2.32964)
(180.639 1.29519 -2.91479)
(179.55 0.939356 -3.29591)
(177.988 0.482693 -3.21156)
(175.746 -0.107714 -2.571)
(181.774 2.31101 1.74108)
(182.532 2.18259 0.963427)
(182.945 1.96038 0.117893)
(183.092 1.69765 -0.783598)
(182.938 1.40214 -1.72157)
(182.447 1.0785 -2.66207)
(181.546 0.715354 -3.51437)
(180.192 0.308069 -4.17742)
(178.212 -0.218281 -4.26066)
(175.611 -0.857968 -3.5772)
(182.415 3.17841 1.79686)
(183.289 3.00589 0.9226)
(183.799 2.74459 -0.00694641)
(184.007 2.45145 -1.01419)
(183.867 2.1342 -2.07781)
(183.329 1.796 -3.18267)
(182.279 1.42094 -4.23002)
(180.647 0.995747 -5.13403)
(178.15 0.420986 -5.36169)
(175.016 -0.300502 -4.6479)
(183.196 2.45182 2.56971)
(184.187 2.15097 1.58843)
(184.788 1.79446 0.496679)
(185.065 1.43585 -0.675327)
(184.949 1.07275 -1.9363)
(184.387 0.70974 -3.27852)
(183.217 0.329228 -4.6135)
(181.332 -0.0829384 -5.87218)
(178.298 -0.64264 -6.41799)
(174.515 -1.34286 -5.8446)
(183.691 3.25145 2.41288)
(184.775 2.89729 1.40736)
(185.456 2.50787 0.317432)
(185.782 2.13479 -0.881729)
(185.682 1.78413 -2.18259)
(185.096 1.45828 -3.60482)
(183.828 1.14416 -5.06104)
(181.736 0.80762 -6.52995)
(178.225 0.336922 -7.29336)
(173.79 -0.390983 -6.88352)
(184.391 1.75548 3.30118)
(185.546 1.24058 2.26259)
(186.309 0.737323 1.05712)
(186.703 0.294807 -0.249858)
(186.643 -0.0915749 -1.69759)
(186.065 -0.40932 -3.29195)
(184.743 -0.65569 -4.98447)
(182.488 -0.861676 -6.74548)
(178.601 -1.06689 -7.97185)
(173.52 -1.58865 -7.83285)
(184.045 2.63603 2.82417)
(185.224 1.99601 1.85809)
(186.022 1.46651 0.760036)
(186.412 1.00645 -0.481008)
(186.315 0.663538 -1.86139)
(185.666 0.442149 -3.40787)
(184.244 0.36454 -5.07082)
(181.82 0.438171 -6.82836)
(177.693 0.616513 -8.18024)
(172.011 0.66194 -8.01834)
(179.366 0.116426 0.418672)
(179.531 0.077634 0.298218)
(179.585 0.0187675 0.111413)
(179.586 -0.0417456 -0.0626249)
(179.537 -0.111059 -0.242235)
(179.449 -0.180893 -0.385516)
(179.329 -0.253087 -0.487382)
(179.193 -0.32737 -0.532617)
(179.05 -0.408019 -0.502428)
(178.768 -0.496129 -0.407633)
(179.524 1.12273 0.33933)
(179.85 1.17364 0.0638023)
(179.956 1.15358 -0.210264)
(179.955 1.08282 -0.489365)
(179.859 0.982924 -0.748873)
(179.666 0.859016 -0.967056)
(179.372 0.713881 -1.11257)
(178.942 0.542633 -1.15835)
(178.216 0.32115 -1.05228)
(176.632 0.00953717 -0.789482)
(179.638 1.14338 0.792257)
(180.092 1.12861 0.406121)
(180.272 1.03457 -0.0127364)
(180.295 0.899984 -0.446539)
(180.172 0.738719 -0.868194)
(179.901 0.556559 -1.24293)
(179.474 0.355497 -1.52304)
(178.875 0.134963 -1.65936)
(177.979 -0.133623 -1.56244)
(176.329 -0.498681 -1.21611)
(180.142 2.11143 0.736638)
(180.674 2.11822 0.248452)
(180.922 2.01865 -0.259252)
(180.975 1.86137 -0.797486)
(180.83 1.66747 -1.33098)
(180.477 1.44408 -1.82109)
(179.903 1.19026 -2.20182)
(179.112 0.905057 -2.40238)
(178.026 0.553203 -2.26737)
(176.325 0.0909664 -1.74947)
(180.909 1.86804 1.33449)
(181.541 1.79002 0.716952)
(181.868 1.62182 0.0395822)
(181.966 1.40927 -0.678968)
(181.809 1.16279 -1.41028)
(181.381 0.88846 -2.11268)
(180.649 0.581185 -2.70574)
(179.618 0.241022 -3.10281)
(178.224 -0.176193 -3.06326)
(176.326 -0.682068 -2.46949)
(181.481 2.71572 1.3554)
(182.224 2.60353 0.64841)
(182.64 2.4018 -0.10867)
(182.785 2.1615 -0.92736)
(182.623 1.89377 -1.77357)
(182.125 1.60335 -2.61502)
(181.229 1.2807 -3.35725)
(179.927 0.916897 -3.90898)
(178.117 0.451086 -3.9235)
(175.857 -0.133116 -3.21868)
(182.204 1.98869 2.10273)
(183.062 1.75963 1.28876)
(183.562 1.46959 0.369811)
(183.761 1.16759 -0.613739)
(183.605 0.855701 -1.65272)
(183.057 0.539487 -2.7153)
(182.02 0.20558 -3.70904)
(180.459 -0.156877 -4.53489)
(178.19 -0.624619 -4.7671)
(175.452 -1.20235 -4.07839)
(182.66 2.84424 1.91288)
(183.607 2.57224 1.07511)
(184.18 2.25379 0.15856)
(184.419 1.94011 -0.851469)
(184.267 1.6404 -1.92914)
(183.677 1.35881 -3.0642)
(182.522 1.08443 -4.1576)
(180.736 0.788386 -5.1319)
(178.042 0.390452 -5.47654)
(174.805 -0.213917 -4.79404)
(183.362 1.34913 2.80375)
(184.371 0.927148 1.92386)
(185.013 0.501604 0.881311)
(185.306 0.125303 -0.245144)
(185.178 -0.203936 -1.47622)
(184.579 -0.473427 -2.78589)
(183.35 -0.685114 -4.10507)
(181.386 -0.86836 -5.33053)
(178.337 -1.05978 -6.01268)
(174.625 -1.50059 -5.43949)
(183.063 2.36525 2.27906)
(184.088 1.83375 1.47231)
(184.766 1.39321 0.539756)
(185.062 1.00794 -0.516297)
(184.912 0.724654 -1.67682)
(184.259 0.547478 -2.93907)
(182.944 0.489516 -4.22792)
(180.822 0.550028 -5.45225)
(177.534 0.665021 -6.19704)
(173.352 0.653703 -5.55796)
(178.895 0.0218042 0.308379)
(179.029 -0.00439315 0.234562)
(179.065 -0.0469283 0.102035)
(179.067 -0.0892921 -0.0139459)
(179.038 -0.140868 -0.138283)
(178.986 -0.193925 -0.235864)
(178.916 -0.250026 -0.307899)
(178.838 -0.308006 -0.344954)
(178.756 -0.37078 -0.333661)
(178.527 -0.439971 -0.285547)
(178.993 0.957302 0.160425)
(179.253 1.02179 -0.0384265)
(179.323 1.02409 -0.225118)
(179.317 0.980537 -0.411646)
(179.251 0.911174 -0.581284)
(179.123 0.821191 -0.719784)
(178.93 0.71415 -0.806735)
(178.644 0.586706 -0.827099)
(178.101 0.417491 -0.745715)
(176.723 0.163717 -0.557443)
(179.052 0.869771 0.568486)
(179.415 0.868329 0.283663)
(179.543 0.801355 -0.0239883)
(179.553 0.700067 -0.339733)
(179.46 0.57622 -0.641739)
(179.266 0.435587 -0.903088)
(178.97 0.281901 -1.08973)
(178.563 0.116614 -1.17142)
(177.921 -0.081819 -1.09223)
(176.553 -0.36367 -0.849034)
(179.49 1.77184 0.444238)
(179.915 1.8019 0.0821298)
(180.098 1.73794 -0.290656)
(180.129 1.62092 -0.683622)
(180.009 1.47059 -1.06474)
(179.737 1.2947 -1.40016)
(179.315 1.09579 -1.63969)
(178.76 0.876138 -1.73577)
(178.013 0.612892 -1.5959)
(176.686 0.257303 -1.2007)
(180.162 1.472 0.99259)
(180.674 1.43066 0.515313)
(180.927 1.30784 -0.0113981)
(180.989 1.14111 -0.567211)
(180.847 0.941738 -1.12153)
(180.495 0.716692 -1.63327)
(179.927 0.465658 -2.03677)
(179.17 0.192362 -2.26775)
(178.207 -0.128223 -2.18083)
(176.8 -0.517616 -1.71672)
(180.657 2.28963 0.970586)
(181.272 2.22577 0.416132)
(181.603 2.07667 -0.18029)
(181.7 1.88619 -0.823952)
(181.54 1.66715 -1.4755)
(181.109 1.42556 -2.09625)
(180.381 1.1575 -2.60412)
(179.382 0.858629 -2.92234)
(178.098 0.495563 -2.83093)
(176.46 0.0418695 -2.23631)
(181.314 1.55679 1.68212)
(182.037 1.39003 1.02518)
(182.443 1.1613 0.272452)
(182.582 0.913763 -0.530276)
(182.415 0.652639 -1.36304)
(181.92 0.384409 -2.18209)
(181.046 0.100319 -2.90204)
(179.805 -0.206037 -3.42571)
(178.151 -0.581724 -3.48018)
(176.177 -1.03412 -2.85277)
(181.715 2.46151 1.45373)
(182.521 2.26403 0.776042)
(182.993 2.01277 0.02857)
(183.163 1.75687 -0.796621)
(182.989 1.50764 -1.66184)
(182.44 1.27059 -2.53912)
(181.442 1.03795 -3.33101)
(179.984 0.787311 -3.94706)
(177.976 0.467186 -4.03499)
(175.64 -0.00141306 -3.33811)
(182.406 0.959257 2.3464)
(183.268 0.623652 1.6195)
(183.797 0.271914 0.737878)
(184.009 -0.0416832 -0.210227)
(183.847 -0.317377 -1.23195)
(183.275 -0.542606 -2.28149)
(182.194 -0.721535 -3.28348)
(180.561 -0.879488 -4.11205)
(178.245 -1.04505 -4.45093)
(175.589 -1.39018 -3.78494)
(182.14 2.11778 1.76733)
(183.01 1.68889 1.11384)
(183.573 1.33274 0.344008)
(183.792 1.01798 -0.529725)
(183.615 0.78953 -1.47689)
(183 0.650942 -2.47532)
(181.842 0.608515 -3.43862)
(180.066 0.657164 -4.25519)
(177.534 0.727075 -4.6016)
(174.546 0.698954 -3.85095)
(178.488 -0.049122 0.243374)
(178.604 -0.0699388 0.199454)
(178.629 -0.104065 0.100699)
(178.631 -0.135434 0.0207496)
(178.614 -0.175173 -0.0696598)
(178.583 -0.216122 -0.140199)
(178.542 -0.259934 -0.195527)
(178.497 -0.305318 -0.229127)
(178.448 -0.35466 -0.230524)
(178.247 -0.410077 -0.210533)
(178.534 0.838803 0.0329663)
(178.746 0.908544 -0.111229)
(178.791 0.924527 -0.235927)
(178.783 0.900258 -0.357092)
(178.738 0.854096 -0.464767)
(178.655 0.790873 -0.550371)
(178.533 0.71403 -0.601068)
(178.345 0.620787 -0.608977)
(177.935 0.491484 -0.548263)
(176.724 0.283483 -0.410144)
(178.548 0.645502 0.409393)
(178.839 0.646673 0.200835)
(178.927 0.597284 -0.0227329)
(178.929 0.521517 -0.250082)
(178.862 0.428479 -0.465115)
(178.728 0.323177 -0.648454)
(178.532 0.209784 -0.776675)
(178.263 0.0903515 -0.832499)
(177.802 -0.0526994 -0.777757)
(176.643 -0.268156 -0.613683)
(178.932 1.48491 0.220222)
(179.268 1.52647 -0.0406279)
(179.4 1.48853 -0.30416)
(179.416 1.40475 -0.580211)
(179.322 1.29244 -0.84266)
(179.121 1.15915 -1.06441)
(178.823 1.00917 -1.20922)
(178.446 0.846432 -1.24773)
(177.938 0.654946 -1.12384)
(176.877 0.385342 -0.831549)
(179.51 1.1304 0.717062)
(179.919 1.11338 0.357191)
(180.107 1.02679 -0.0408494)
(180.146 0.899916 -0.458635)
(180.027 0.743609 -0.867798)
(179.752 0.56502 -1.23244)
(179.328 0.366903 -1.50202)
(178.79 0.155168 -1.63387)
(178.136 -0.0845885 -1.5397)
(177.071 -0.378008 -1.19878)
(179.93 1.91078 0.64919)
(180.428 1.88264 0.227573)
(180.684 1.77756 -0.226244)
(180.747 1.6318 -0.715149)
(180.603 1.45841 -1.20021)
(180.249 1.26414 -1.64346)
(179.682 1.04922 -1.97832)
(178.941 0.812934 -2.14881)
(178.047 0.538934 -2.01532)
(176.847 0.197074 -1.54999)
(180.521 1.16963 1.31709)
(181.116 1.05368 0.800796)
(181.437 0.878796 0.200817)
(181.531 0.681428 -0.436446)
(181.372 0.468597 -1.0862)
(180.95 0.247374 -1.70197)
(180.246 0.0130769 -2.21117)
(179.294 -0.236538 -2.53343)
(178.114 -0.529114 -2.49827)
(176.688 -0.87107 -1.98794)
(180.857 2.11637 1.04623)
(181.527 1.98254 0.514729)
(181.905 1.79196 -0.0747795)
(182.022 1.58994 -0.727258)
(181.849 1.38885 -1.39922)
(181.368 1.19505 -2.05499)
(180.545 1.00401 -2.60693)
(179.399 0.799286 -2.97526)
(177.937 0.550854 -2.91936)
(176.262 0.200865 -2.31278)
(181.531 0.597228 1.93975)
(182.249 0.337768 1.35391)
(182.675 0.0534072 0.62486)
(182.825 -0.202637 -0.154608)
(182.653 -0.429233 -0.982938)
(182.141 -0.614304 -1.80509)
(181.233 -0.762584 -2.5494)
(179.928 -0.894366 -3.09623)
(178.216 -1.03009 -3.23466)
(176.346 -1.29002 -2.62827)
(181.286 1.90301 1.29903)
(182.002 1.56759 0.787455)
(182.46 1.28918 0.17234)
(182.617 1.03936 -0.528017)
(182.435 0.860373 -1.27603)
(181.886 0.754984 -2.03943)
(180.909 0.724779 -2.73148)
(179.48 0.763241 -3.24891)
(177.587 0.801519 -3.3498)
(175.506 0.773651 -2.65232)
(178.12 -0.110014 0.209702)
(178.225 -0.129255 0.184804)
(178.243 -0.15974 0.106377)
(178.245 -0.184833 0.0480492)
(178.235 -0.216968 -0.0220123)
(178.217 -0.249535 -0.0770291)
(178.193 -0.284373 -0.1233)
(178.167 -0.320413 -0.155799)
(178.135 -0.359792 -0.16594)
(177.947 -0.404527 -0.163698)
(178.119 0.754774 -0.0591533)
(178.297 0.825275 -0.16422)
(178.325 0.84935 -0.245348)
(178.316 0.838554 -0.320719)
(178.286 0.80955 -0.385773)
(178.233 0.766656 -0.435801)
(178.158 0.712763 -0.463134)
(178.037 0.645261 -0.464037)
(177.729 0.546197 -0.418669)
(176.665 0.375384 -0.313869)
(178.098 0.46111 0.302148)
(178.333 0.458616 0.149314)
(178.393 0.420034 -0.0129837)
(178.39 0.363195 -0.176591)
(178.342 0.294507 -0.330431)
(178.254 0.217828 -0.461386)
(178.128 0.136995 -0.55381)
(177.956 0.0539182 -0.598874)
(177.626 -0.0463259 -0.568021)
(176.636 -0.208623 -0.462992)
(178.441 1.24699 0.0559758)
(178.708 1.29209 -0.126166)
(178.801 1.27225 -0.304769)
(178.808 1.21486 -0.490407)
(178.738 1.13429 -0.663603)
(178.595 1.03733 -0.803971)
(178.39 0.928759 -0.886431)
(178.142 0.812955 -0.89447)
(177.8 0.6777 -0.792929)
(176.936 0.475928 -0.580861)
(178.934 0.845446 0.504114)
(179.257 0.843088 0.238633)
(179.394 0.784123 -0.0541813)
(179.416 0.690452 -0.359826)
(179.322 0.571708 -0.654424)
(179.116 0.434635 -0.909044)
(178.81 0.283519 -1.08649)
(178.438 0.125077 -1.16139)
(178.001 -0.0498568 -1.07847)
(177.178 -0.26738 -0.840949)
(179.285 1.58422 0.392501)
(179.682 1.58025 0.0818448)
(179.874 1.51004 -0.251009)
(179.913 1.40258 -0.609118)
(179.793 1.27005 -0.957602)
(179.515 1.11932 -1.26317)
(179.089 0.953239 -1.47453)
(178.556 0.77343 -1.55547)
(177.943 0.57295 -1.41531)