/*--------------------------------*- C++ -*----------------------------------*\
| =========                 |                                                 |
| \\      /  F ield         | foam-extend: Open Source CFD                    |
|  \\    /   O peration     | Version:     4.0                                |
|   \\  /    A nd           | Web:         http://www.foam-extend.org         |
|    \\/     M anipulation  |                                                 |
\*---------------------------------------------------------------------------*/
FoamFile
{
    version     2.0;
    format      ascii;
    class       volScalarField;
    location    "2800";
    object      divFlux;
}
// * * * * * * * * * * * * * * * * * * * * * * * * * * * * * * * * * * * * * //

dimensions      [1 -3 -1 0 0 0 0];

internalField   nonuniform List<scalar> 
34480
(
4.4124e-05
1.70061e-05
1.62087e-05
1.48682e-05
1.37913e-05
1.28392e-05
1.21548e-05
0.00031133
0.00042211
1.07911e-05
1.13685e-05
5.30885e-06
6.01636e-06
5.89763e-06
5.57999e-06
5.40255e-06
5.50284e-06
5.57386e-06
0.00333994
5.28325e-06
3.71545e-06
3.26609e-06
2.21229e-06
2.47186e-06
1.93481e-06
1.91983e-06
2.4002e-06
2.43525e-06
0.00330994
2.20121e-06
8.48898e-07
8.165e-07
9.62205e-07
9.91912e-07
6.40363e-07
8.60028e-07
1.08702e-06
6.51245e-07
0.000803696
1.11352e-06
6.78371e-08
1.74768e-08
3.90839e-07
4.16039e-07
1.05319e-07
3.11375e-07
5.56508e-07
2.45526e-07
2.72887e-07
4.6631e-07
1.32804e-07
2.29097e-09
1.56187e-07
1.01604e-07
3.26463e-09
2.54412e-07
2.49601e-07
9.75379e-08
1.71765e-07
3.65867e-07
4.60732e-07
1.27785e-08
4.68375e-08
8.03365e-08
6.66926e-09
8.51221e-08
8.68021e-08
1.83277e-09
1.48658e-07
7.18345e-08
2.07143e-07
2.3322e-08
5.15467e-08
4.58193e-10
1.93357e-08
1.19497e-07
2.16267e-08
2.87745e-08
5.13176e-08
3.66096e-08
8.12512e-08
2.57421e-08
5.37336e-09
5.78989e-09
6.13146e-08
2.69084e-08
5.53164e-08
3.59473e-08
8.13918e-08
1.28294e-08
1.76042e-07
1.14548e-10
9.58387e-09
2.08096e-08
4.46738e-09
1.71822e-09
3.10044e-08
3.46699e-08
7.33109e-09
1.91296e-08
5.64879e-05
1.95573e-05
1.96378e-05
1.83622e-05
1.73016e-05
1.64195e-05
1.58404e-05
1.56551e-05
1.56405e-05
0.00103583
1.90795e-05
1.03345e-05
9.50593e-06
8.81855e-06
8.41363e-06
8.1958e-06
8.13612e-06
8.39707e-06
8.6356e-06
0.00342268
4.16878e-06
3.5832e-06
3.2602e-06
3.13437e-06
3.25142e-06
3.41865e-06
3.36907e-06
3.7457e-06
4.18409e-06
0.00430163
2.27291e-06
1.83057e-06
1.66629e-06
1.37948e-06
1.57755e-06
1.56474e-06
1.55391e-06
1.81818e-06
1.82311e-06
0.00150206
1.14671e-06
9.5176e-07
1.00847e-06
3.48612e-07
7.94158e-07
8.35658e-07
6.39294e-07
7.69209e-07
9.75796e-07
7.71792e-07
3.59409e-07
3.18932e-07
5.99262e-07
4.00395e-08
4.91123e-07
4.7089e-07
9.58393e-09
4.93998e-07
6.21252e-07
2.51938e-07
8.19811e-08
1.33228e-07
8.11723e-07
3.62817e-07
2.14869e-07
3.1866e-07
2.46579e-08
2.8482e-07
1.29916e-07
1.90211e-07
1.10973e-07
1.37029e-07
3.89491e-07
2.61109e-07
3.44255e-07
1.52363e-07
1.94234e-07
1.59988e-07
2.22347e-07
7.18262e-08
3.52527e-07
1.60003e-07
2.93404e-07
2.77644e-08
4.97203e-08
7.52387e-08
9.82401e-08
3.19038e-07
2.4047e-08
5.32925e-08
1.07312e-07
3.42182e-08
5.72196e-08
7.53581e-08
1.71197e-07
1.59342e-07
6.19406e-08
5.8675e-08
5.3812e-08
7.32683e-08
5.39006e-05
1.49867e-05
1.53947e-05
1.44706e-05
1.3625e-05
1.30281e-05
1.26896e-05
1.26467e-05
4.19177e-05
0.000848756
1.72401e-05
7.31767e-06
7.1224e-06
6.56971e-06
6.08721e-06
5.85061e-06
5.76696e-06
5.87833e-06
7.56148e-05
0.00133986
4.54627e-06
1.95397e-06
1.958e-06
2.0073e-06
1.79957e-06
1.80872e-06
2.01431e-06
2.30928e-06
0.000119093
0.0012723
4.09278e-07
1.50704e-07
2.81377e-07
6.78876e-07
6.21161e-07
5.56287e-07
9.67182e-07
9.23756e-07
9.01582e-07
1.34511e-06
2.39898e-07
3.04283e-07
1.76381e-07
6.53311e-07
4.12612e-07
7.47837e-08
5.17264e-07
5.38873e-07
3.0482e-07
5.21294e-07
3.13736e-07
3.05598e-07
2.28629e-07
4.53695e-07
5.67242e-08
1.08895e-08
5.84764e-07
1.24882e-07
1.39336e-07
3.57911e-07
1.25334e-07
1.28606e-07
2.77626e-08
3.60474e-07
6.93846e-08
7.36084e-08
2.42164e-07
1.05155e-08
1.17694e-07
2.25731e-07
5.48334e-08
1.90071e-09
1.29208e-07
1.87299e-07
2.38261e-07
7.29396e-08
3.11122e-07
5.85259e-08
7.06429e-08
5.65188e-08
7.35882e-09
3.21824e-08
3.87701e-08
1.04395e-08
1.29234e-08
1.85427e-07
8.186e-08
2.17861e-07
1.34993e-07
1.63261e-07
1.88194e-08
1.16484e-08
5.90341e-08
6.26309e-08
1.11271e-07
1.9403e-08
9.81702e-08
7.55663e-08
4.40528e-08
8.79407e-09
5.27621e-05
1.39597e-05
1.42703e-05
1.34487e-05
1.2721e-05
1.21708e-05
1.18985e-05
1.19208e-05
2.25298e-05
0.000360093
1.58466e-05
6.17581e-06
6.17982e-06
5.83512e-06
5.53023e-06
5.28874e-06
5.1865e-06
5.30908e-06
3.09891e-05
0.0011354
5.89065e-06
3.16625e-06
2.9011e-06
2.60605e-06
2.39652e-06
2.18437e-06
1.95489e-06
2.22078e-06
0.000121486
0.00229212
2.05598e-06
1.16356e-06
8.46609e-07
7.92373e-07
8.38602e-07
6.46813e-07
7.44456e-07
8.76733e-07
0.000116045
0.00212145
1.40169e-07
3.5618e-07
5.25882e-11
1.463e-07
4.41583e-07
2.28075e-07
1.83743e-07
4.17182e-07
4.77092e-05
0.00159471
5.08448e-08
2.23447e-07
2.29613e-08
1.78307e-07
2.91411e-07
1.05098e-07
1.7435e-07
3.65034e-07
1.2006e-05
0.00101492
2.20819e-08
2.58787e-07
1.0794e-07
8.72847e-08
2.60423e-07
4.87551e-08
1.11867e-07
8.30309e-08
4.8796e-08
0.000433377
4.21989e-08
6.32426e-08
6.36475e-08
2.233e-07
4.73399e-08
1.40879e-07
1.33001e-07
1.26669e-07
2.28233e-09
0.000166324
3.53215e-08
6.98085e-08
1.13782e-09
3.94555e-08
2.61363e-08
7.44936e-08
1.15254e-07
8.23914e-08
5.3444e-08
1.43679e-07
4.37811e-09
1.10128e-08
2.64124e-08
1.1292e-07
1.9817e-08
4.67816e-08
4.17507e-08
4.11065e-08
2.76702e-08
5.11913e-08
5.00886e-05
1.23713e-05
1.2606e-05
1.18175e-05
1.11673e-05
1.06849e-05
1.04228e-05
1.04567e-05
2.59799e-05
0.000135501
1.54212e-05
5.8147e-06
5.86758e-06
5.51933e-06
5.22798e-06
5.0238e-06
4.8876e-06
4.89881e-06
6.1058e-06
0.00057657
3.91387e-06
1.94676e-06
2.15164e-06
2.09713e-06
2.00264e-06
1.99669e-06
1.87684e-06
2.00627e-06
7.74326e-05
0.00134044
2.6943e-06
1.50908e-06
1.36005e-06
1.16558e-06
1.02029e-06
8.95406e-07
8.58931e-07
8.26848e-07
8.29732e-05
0.00143651
8.79336e-07
5.66806e-07
4.67221e-07
3.6309e-07
3.60157e-07
3.7013e-07
3.18749e-07
3.78196e-07
5.79622e-05
0.00130523
8.38727e-08
1.50917e-07
8.92753e-08
6.25826e-08
2.06869e-07
7.04535e-08
1.07156e-07
2.22354e-07
4.64965e-05
0.00104929
3.70495e-09
1.69244e-07
1.53617e-08
2.12554e-08
1.36772e-07
2.69209e-08
5.50206e-08
7.19412e-08
7.15952e-06
0.000699912
4.59295e-08
1.00235e-07
2.97043e-08
5.29064e-08
1.10193e-07
4.35298e-08
2.66243e-08
8.67173e-08
1.1118e-05
0.00053466
2.82055e-08
1.00642e-07
4.54213e-09
2.89016e-08
2.83105e-08
8.18205e-09
8.32205e-08
9.11536e-09
5.95454e-08
0.000331705
8.65742e-09
5.18741e-08
3.85562e-08
7.27777e-08
2.19588e-08
2.9459e-08
1.65404e-08
4.00962e-08
2.04759e-08
0.000439636
4.62086e-05
1.08994e-05
1.11156e-05
1.04093e-05
9.85363e-06
9.46269e-06
9.23122e-06
9.17891e-06
9.31775e-06
1.97574e-05
1.52125e-05
5.34781e-06
5.38114e-06
5.05712e-06
4.78483e-06
4.57773e-06
4.44327e-06
4.44359e-06
1.70417e-05
0.000222502
4.06829e-06
1.67555e-06
1.70848e-06
1.66423e-06
1.64291e-06
1.62268e-06
1.58705e-06
1.71634e-06
3.65914e-05
0.000724427
1.05621e-06
6.48015e-07
7.53424e-07
8.23281e-07
7.86801e-07
7.45311e-07
7.6257e-07
7.35688e-07
4.61605e-05
0.000861615
1.10168e-06
5.81142e-07
5.19742e-07
5.19151e-07
4.2262e-07
3.72309e-07
3.46813e-07
3.93397e-07
4.30307e-05
0.000884973
4.09334e-07
2.40311e-07
2.19792e-07
1.87421e-07
1.98596e-07
1.33776e-07
1.73901e-07
1.89489e-07
4.40406e-05
0.000809869
5.20814e-08
9.84805e-08
6.17536e-08
4.58468e-08
8.16193e-08
5.47546e-08
5.85722e-08
6.30615e-08
2.54741e-05
0.000627406
2.63602e-08
5.10607e-08
2.99365e-08
5.63099e-09
5.9364e-08
1.20573e-08
2.45282e-08
5.34467e-08
3.5611e-05
0.000564324
4.54612e-08
9.06396e-08
3.7887e-09
7.66417e-09
4.5233e-08
5.23477e-09
4.56669e-08
2.5393e-08
1.29043e-05
0.000486235
2.73787e-08
5.86959e-08
1.06575e-08
3.41465e-08
2.65643e-08
5.24923e-09
7.37013e-09
3.32982e-08
3.46293e-05
0.000572107
4.20838e-05
9.56092e-06
9.83185e-06
9.18813e-06
8.65304e-06
8.27951e-06
8.07254e-06
7.99463e-06
8.0142e-06
5.57244e-06
1.40387e-05
4.52604e-06
4.57159e-06
4.2717e-06
4.0399e-06
3.87262e-06
3.76822e-06
3.84094e-06
1.16893e-05
7.10248e-05
4.99013e-06
2.16359e-06
2.09261e-06
1.86163e-06
1.75383e-06
1.62151e-06
1.53935e-06
1.59246e-06
1.47114e-05
0.000382636
1.24246e-06
5.54358e-07
5.59386e-07
6.01629e-07
5.97217e-07
5.99189e-07
6.26891e-07
6.14223e-07
2.04024e-05
0.000500565
4.37928e-07
2.52866e-07
2.54429e-07
3.1641e-07
3.08594e-07
2.76399e-07
2.6195e-07
3.32254e-07
2.32269e-05
0.000558893
4.25249e-07
2.29132e-07
1.99779e-07
2.03365e-07
1.87247e-07
1.24178e-07
1.77339e-07
1.6037e-07
2.91389e-05
0.000560306
1.69853e-07
1.16e-07
7.75193e-08
1.02724e-07
9.19124e-08
7.17686e-08
6.38491e-08
6.49992e-08
2.34806e-05
0.00046876
5.74468e-08
2.50796e-08
5.30279e-08
2.80371e-08
3.79151e-08
1.92829e-08
4.19965e-08
4.92423e-08
3.73836e-05
0.00046822
5.0067e-08
6.91248e-08
6.8829e-09
4.27493e-09
4.05984e-08
1.2771e-08
3.79635e-08
1.85516e-08
2.69439e-05
0.000445636
3.67613e-08
4.12324e-08
1.53543e-08
1.54036e-08
1.91991e-08
6.16145e-09
7.98524e-09
2.41529e-08
4.47692e-05
0.000512431
3.76862e-05
7.82273e-06
8.26717e-06
7.81121e-06
7.35073e-06
6.99235e-06
6.77819e-06
6.731e-06
6.79719e-06
7.11984e-06
1.26982e-05
3.90445e-06
4.05439e-06
3.82647e-06
3.63387e-06
3.47791e-06
3.36536e-06
3.37612e-06
4.45852e-06
1.42875e-05
4.05282e-06
1.6468e-06
1.72904e-06
1.58665e-06
1.55088e-06
1.43562e-06
1.38721e-06
1.4323e-06
5.37655e-06
0.000183283
2.08302e-06
9.5184e-07
8.46378e-07
7.72603e-07
6.88219e-07
6.5447e-07
6.2677e-07
5.85323e-07
7.86033e-06
0.000273571
4.99592e-07
2.45874e-07
2.33581e-07
2.48663e-07
2.60682e-07
2.40768e-07
2.28475e-07
3.0098e-07
9.88611e-06
0.00033251
2.0349e-07
1.15543e-07
9.99061e-08
1.27812e-07
1.29118e-07
8.77744e-08
1.42419e-07
1.23379e-07
1.53731e-05
0.000367032
1.8335e-07
9.88865e-08
6.17086e-08
9.03634e-08
8.18708e-08
6.8521e-08
5.288e-08
5.35521e-08
1.54538e-05
0.000322569
1.06785e-07
2.83188e-08
5.37506e-08
4.39353e-08
4.25331e-08
1.32796e-08
4.43752e-08
4.79769e-08
3.01154e-05
0.000352989
2.77576e-08
6.04867e-08
8.02323e-09
1.18474e-08
3.54422e-08
1.45718e-08
4.35404e-08
1.11475e-08
2.58729e-05
0.000339727
2.85611e-08
2.36906e-08
2.66004e-08
1.15016e-08
1.46176e-08
6.34652e-09
1.13413e-08
1.93603e-08
4.18008e-05
0.000400229
3.52848e-05
5.93362e-06
6.52027e-06
6.33379e-06
6.05929e-06
5.82312e-06
5.66486e-06
5.62889e-06
5.69456e-06
6.22009e-06
1.18591e-05
3.2722e-06
3.45994e-06
3.26636e-06
3.09546e-06
2.95079e-06
2.84252e-06
2.7675e-06
2.86581e-06
8.9938e-07
3.47666e-06
1.29031e-06
1.39367e-06
1.28369e-06
1.28814e-06
1.19099e-06
1.1871e-06
1.24753e-06
1.49006e-06
8.07288e-05
1.38255e-06
6.80624e-07
6.87482e-07
6.68845e-07
6.11166e-07
5.99771e-07
5.60069e-07
5.03732e-07
2.9435e-06
0.000139419
8.0092e-07
3.84705e-07
3.5491e-07
3.18798e-07
3.10254e-07
2.67789e-07
2.44384e-07
2.98935e-07
3.42272e-06
0.00018326
2.23731e-07
1.24889e-07
1.00193e-07
1.18883e-07
1.14282e-07
9.3004e-08
1.36487e-07
1.16968e-05
6.72281e-06
0.000225853
1.25897e-07
5.68837e-08
3.8765e-08
5.94113e-08
5.96669e-08
5.95533e-08
4.453e-08
4.50412e-08
8.21511e-06
0.000202993
1.15717e-07
2.67095e-08
4.11505e-08
3.89013e-08
4.32464e-08
5.44414e-09
3.49907e-08
9.08001e-06
2.12103e-05
0.000246417
5.5341e-09
5.48364e-08
9.24783e-09
1.71015e-08
3.24371e-08
9.99138e-09
4.6913e-08
8.50429e-09
1.97862e-05
0.000232904
1.35258e-08
1.13526e-08
2.96914e-08
8.43458e-09
1.75294e-08
2.93932e-09
1.29501e-08
4.00881e-06
3.37132e-05
0.000287806
3.64107e-05
4.79427e-06
5.26786e-06
5.11419e-06
4.88725e-06
4.69251e-06
4.5602e-06
4.51106e-06
4.51967e-06
4.96576e-06
1.0636e-05
2.49534e-06
2.77227e-06
2.64839e-06
2.52646e-06
2.42013e-06
2.35016e-06
2.2759e-06
2.334e-06
2.07267e-06
3.3635e-06
1.15924e-06
1.25158e-06
1.13518e-06
1.1285e-06
1.0149e-06
1.01744e-06
1.06308e-06
2.73464e-07
3.19054e-05
1.15788e-06
4.82563e-07
4.91691e-07
4.88444e-07
4.54644e-07
4.77613e-07
4.49496e-07
3.91084e-07
1.04164e-06
6.61376e-05
5.47782e-07
2.74099e-07
2.89204e-07
2.64119e-07
2.69991e-07
2.21383e-07
1.97555e-07
2.39645e-07
8.31393e-07
9.44514e-05
2.95541e-07
1.67217e-07
1.35437e-07
1.41763e-07
1.20408e-07
1.1034e-07
1.36684e-07
1.67743e-05
2.14163e-06
0.000132233
1.21334e-07
5.23795e-08
4.61225e-08
5.25115e-08
5.5046e-08
5.89797e-08
5.08218e-08
5.05314e-08
3.55777e-06
0.00011642
9.54619e-08
2.31431e-08
2.78002e-08
2.89645e-08
3.79936e-08
1.04548e-09
2.66122e-08
1.70827e-05
1.38763e-05
0.00016256
1.12307e-09
4.47568e-08
9.95796e-09
1.85551e-08
2.78002e-08
6.26423e-09
4.19703e-08
8.1435e-09
1.30221e-05
0.000147838
8.60279e-09
1.44545e-09
2.6434e-08
5.64321e-09
2.22956e-08
1.58406e-10
1.26725e-08
8.59506e-06
2.48217e-05
0.000195396
3.2446e-05
3.97257e-06
4.35496e-06
4.19092e-06
3.98205e-06
3.80944e-06
3.68782e-06
3.63455e-06
3.62921e-06
3.813e-06
9.74091e-06
1.81624e-06
2.21773e-06
2.16623e-06
2.07669e-06
1.99049e-06
1.94021e-06
1.90672e-06
1.76874e-06
2.00761e-06
3.08259e-06
9.26543e-07
1.04169e-06
9.50045e-07
9.42668e-07
8.21664e-07
8.21775e-07
8.68559e-07
8.50424e-07
1.07754e-05
1.14805e-06
4.6534e-07
4.67476e-07
4.45884e-07
4.07633e-07
4.39275e-07
4.19211e-07
3.66124e-07
1.38792e-07
2.80404e-05
4.18078e-07
1.73335e-07
1.95897e-07
1.78952e-07
2.04544e-07
1.58062e-07
1.32691e-07
1.56358e-07
8.07824e-09
4.56823e-05
2.18481e-07
1.27343e-07
1.09754e-07
1.19584e-07
9.41817e-08
9.31325e-08
1.05309e-07
1.61054e-05
5.83424e-08
7.51777e-05
1.28758e-07
5.6155e-08
5.71367e-08
5.0461e-08
5.52714e-08
5.72594e-08
5.81675e-08
5.84375e-08
1.07846e-06
6.04922e-05
7.86563e-08
2.92237e-08
2.19785e-08
2.73903e-08
3.41495e-08
3.18081e-09
8.91753e-07
1.91847e-05
8.61062e-06
0.00010393
9.80981e-10
3.34748e-08
1.06228e-08
1.65868e-08
2.25106e-08
6.74717e-09
3.37559e-08
1.27513e-08
7.28963e-06
8.62721e-05
3.68605e-08
3.44219e-09
2.15367e-08
2.19049e-09
2.35431e-08
1.84074e-09
8.59628e-09
9.66562e-06
1.70802e-05
0.000126898
2.36993e-05
2.76954e-06
3.11504e-06
3.00073e-06
2.82932e-06
2.66932e-06
2.53432e-06
2.4536e-06
2.39066e-06
2.18705e-06
9.59799e-06
1.14201e-06
1.66857e-06
1.69778e-06
1.63636e-06
1.56731e-06
1.53825e-06
1.5344e-06
1.32723e-06
1.42951e-06
2.61165e-06
6.47807e-07
8.01509e-07
7.56189e-07
7.56949e-07
6.38032e-07
6.23617e-07
6.47273e-07
6.91197e-07
3.18003e-06
1.04454e-06
3.96918e-07
4.1006e-07
3.81431e-07
3.40892e-07
3.79412e-07
3.79566e-07
3.62043e-07
2.94724e-07
9.02249e-06
4.32514e-07
1.75835e-07
1.8754e-07
1.66155e-07
1.92292e-07
1.49962e-07
1.23149e-07
1.26112e-07
1.94229e-07
2.04554e-05
1.59661e-07
8.53472e-08
7.67483e-08
8.85557e-08
6.50949e-08
6.78927e-08
1.22009e-06
1.3691e-05
1.00078e-06
4.1971e-05
1.05196e-07
4.28718e-08
5.18158e-08
3.92212e-08
4.72525e-08
4.27349e-08
5.13823e-08
5.20896e-08
9.02384e-08
2.70535e-05
5.68148e-08
3.66133e-08
1.91794e-08
2.85842e-08
3.12538e-08
6.79697e-09
1.58422e-05
1.85918e-05
5.06615e-06
6.5613e-05
4.43756e-09
2.0404e-08
1.13501e-08
1.6017e-08
1.80145e-08
1.06407e-08
2.5239e-08
1.94519e-08
3.10344e-06
4.45956e-05
6.13004e-08
3.79891e-09
1.33304e-08
7.7005e-10
2.01411e-08
1.02673e-10
6.24596e-09
8.9259e-06
1.11332e-05
7.95338e-05
2.4856e-05
3.44828e-06
3.84816e-06
3.84386e-06
3.7704e-06
3.70063e-06
3.65096e-06
3.68392e-06
3.81178e-06
3.95318e-06
9.63456e-06
3.63898e-07
1.06867e-06
1.26398e-06
1.2756e-06
1.24098e-06
1.24312e-06
1.26312e-06
1.17015e-06
9.09674e-07
2.42015e-06
4.102e-07
5.89778e-07
6.00143e-07
6.2181e-07
5.16626e-07
4.84956e-07
4.58402e-07
2.08746e-07
2.09432e-06
8.01495e-07
2.69197e-07
3.02445e-07
2.75147e-07
2.36124e-07
2.6872e-07
2.75958e-07
2.76674e-07
2.49137e-07
1.29245e-08
3.8263e-07
1.543e-07
1.61963e-07
1.45927e-07
1.72353e-07
1.45927e-07
1.31283e-07
1.24874e-07
1.80453e-07
8.50125e-06
1.54751e-07
7.36387e-08
6.87947e-08
7.53329e-08
5.76033e-08
5.89634e-08
8.75596e-06
1.12755e-05
1.36773e-06
2.33015e-05
8.57987e-08
2.92285e-08
4.11066e-08
2.5856e-08
3.50191e-08
2.49015e-08
3.62281e-08
4.04066e-08
3.24526e-08
8.53102e-06
2.89798e-06
3.90958e-08
1.53291e-08
2.7012e-08
2.71456e-08
1.54441e-05
2.34544e-05
1.71124e-05
2.7574e-06
4.16553e-05
3.07903e-10
5.11952e-09
1.14191e-08
1.28248e-08
1.27554e-08
1.12456e-08
1.78576e-08
1.876e-08
4.23237e-07
1.80127e-05
7.43113e-08
3.02254e-09
6.47461e-09
4.58154e-09
1.32515e-08
3.49979e-09
1.88848e-06
7.48511e-06
6.942e-06
4.84592e-05
1.4954e-05
4.25376e-06
4.58274e-06
4.65187e-06
4.69021e-06
4.69782e-06
4.64347e-06
4.42905e-06
4.00124e-06
3.26486e-06
1.26657e-05
4.36564e-08
5.91868e-07
7.73282e-07
7.75389e-07
7.30135e-07
7.29093e-07
7.81822e-07
8.84951e-07
7.54705e-07
5.99878e-05
6.75201e-06
9.53267e-06
7.31706e-06
6.08723e-06
5.06693e-06
3.872e-06
1.62386e-06
1.66081e-06
3.86921e-06
6.76481e-07
1.89e-07
2.36605e-07
2.10045e-07
1.70766e-07
1.80585e-07
1.70204e-07
1.6241e-07
1.65738e-07
1.09967e-07
2.85425e-07
1.08735e-07
1.12259e-07
1.02727e-07
1.22527e-07
1.1198e-07
1.04223e-07
9.45128e-08
1.28561e-07
3.63104e-06
9.80715e-06
6.0693e-08
6.12476e-08
6.34437e-08
5.50807e-08
7.34836e-06
1.17844e-05
9.35562e-06
1.50912e-06
1.3112e-05
7.48704e-08
2.32085e-08
3.26733e-08
1.91859e-08
2.68169e-08
1.4769e-08
2.42338e-08
2.89465e-08
3.11353e-08
2.34647e-08
5.06515e-05
4.54489e-05
4.09004e-05
3.62901e-05
3.4421e-05
3.18657e-05
2.68829e-05
1.56574e-05
1.23858e-06
2.71921e-05
2.71533e-08
7.5826e-09
9.85737e-09
6.06608e-09
5.59821e-09
6.69527e-09
7.37286e-09
9.37338e-09
9.03458e-09
2.14169e-06
6.44799e-08
1.47148e-08
1.99648e-09
1.2038e-08
8.42959e-09
4.89508e-09
4.93344e-06
5.88844e-06
4.13139e-06
2.87646e-05
0.000169419
2.52621e-05
2.63889e-05
2.57279e-05
2.47631e-05
2.3052e-05
2.04833e-05
1.73436e-05
1.3826e-05
1.01159e-05
7.46508e-06
9.55139e-07
1.82795e-07
2.97001e-07
5.3327e-07
5.92497e-07
5.69524e-07
5.36198e-07
6.12521e-07
7.44478e-07
0.000202439
0.000127727
6.97388e-05
3.98939e-05
2.25702e-05
1.27257e-05
6.61066e-06
1.68317e-06
3.68187e-06
6.98121e-06
5.77839e-07
1.191e-07
1.7654e-07
1.61692e-07
1.41331e-07
1.44809e-07
1.43132e-07
1.37303e-07
1.44081e-07
1.09738e-07
2.16581e-07
7.7516e-08
7.45699e-08
6.98799e-08
7.65497e-08
7.03277e-08
6.6486e-08
1.95593e-07
1.59251e-07
2.11973e-06
3.93608e-05
2.99937e-05
1.96576e-05
1.57267e-05
1.5008e-05
1.42509e-05
1.22652e-05
7.83665e-06
1.56215e-06
7.57288e-06
6.32984e-08
2.15571e-08
2.6928e-08
1.94857e-08
2.35735e-08
1.29783e-08
1.2025e-08
1.28683e-08
1.61678e-08
1.57807e-08
0.000219592
4.32154e-05
7.96615e-05
6.98535e-05
5.43438e-05
4.03968e-05
2.82492e-05
1.46781e-05
1.3901e-07
1.87039e-05
6.59742e-08
1.5193e-08
1.07985e-08
2.17471e-09
3.31455e-09
4.97933e-09
7.12404e-09
7.90393e-09
7.454e-09
7.22839e-09
2.42917e-08
1.91374e-08
3.3133e-09
1.35007e-08
8.62009e-09
7.53398e-09
5.17303e-06
4.17277e-06
2.24231e-06
1.61848e-05
0.000592651
6.92116e-05
7.87877e-05
7.56196e-05
6.56675e-05
5.3001e-05
4.01837e-05
2.82323e-05
1.72492e-05
6.74504e-06
2.55005e-05
3.29287e-06
2.22914e-06
1.68683e-06
1.50338e-06
1.34905e-06
1.08221e-06
5.97488e-07
1.90484e-07
1.3424e-06
0.000342439
0.000241631
0.00011741
6.1278e-05
3.09784e-05
1.51804e-05
6.35931e-06
1.87141e-07
6.4956e-06
1.10618e-05
4.70655e-07
7.15211e-08
1.20893e-07
1.06809e-07
1.06949e-07
1.08521e-07
1.10336e-07
1.04419e-07
1.00597e-07
8.88261e-08
1.84314e-05
5.74039e-08
5.26713e-08
2.25891e-07
1.62063e-06
2.44624e-06
2.50581e-06
1.67551e-06
2.7968e-07
1.80709e-06
3.98823e-05
4.50583e-05
3.52433e-05
2.63453e-05
2.00339e-05
1.51907e-05
1.09702e-05
6.39452e-06
1.56003e-06
4.33843e-06
4.86324e-08
1.88303e-08
1.97676e-08
1.80635e-08
1.91711e-08
1.71603e-08
1.40248e-08
1.27978e-08
1.29512e-08
1.20298e-08
0.000486758
1.64856e-05
8.40371e-05
8.30702e-05
6.35475e-05
4.44541e-05
2.87856e-05
1.43335e-05
8.61597e-07
1.37239e-05
9.90896e-08
1.08195e-08
1.45701e-08
6.46939e-09
5.50735e-09
3.95971e-09
4.09914e-09
4.55925e-09
4.9357e-09
5.37273e-09
1.92227e-08
1.33048e-08
6.18589e-09
2.27498e-09
6.646e-10
3.62079e-08
2.90783e-06
2.17085e-06
9.31232e-07
7.60278e-06
0.00187658
0.000240571
0.000218624
0.00016162
0.000111823
7.37646e-05
4.54605e-05
2.39594e-05
6.38971e-06
9.79978e-06
3.38225e-05
6.25833e-06
6.08845e-06
5.76702e-06
4.70498e-06
3.19503e-06
1.3143e-06
8.74926e-07
3.51772e-06
6.63061e-06
0.000489586
0.000365946
0.000159794
7.54141e-05
3.35021e-05
1.36188e-05
3.7155e-06
2.65532e-06
1.01226e-05
1.62589e-05
3.52428e-07
5.57834e-08
8.17087e-08
6.09994e-08
5.99538e-08
4.71456e-08
4.24999e-08
4.2096e-08
4.47337e-08
5.4096e-08
5.90797e-05
3.54488e-05
2.05168e-05
1.32642e-05
9.03158e-06
6.25558e-06
4.13796e-06
2.21331e-06
4.10338e-07
1.50399e-06
2.94309e-05
3.73164e-05
3.08712e-05
2.30294e-05
1.67719e-05
1.19671e-05
8.13119e-06
4.64872e-06
1.41957e-06
2.14972e-06
2.89118e-08
1.39251e-08
9.96457e-09
1.32914e-08
1.12161e-08
1.24676e-08
1.04557e-08
9.3309e-09
8.60217e-09
7.3442e-09
0.000833648
0.000118659
6.2366e-05
8.03252e-05
6.39026e-05
4.4416e-05
2.81244e-05
1.41688e-05
2.02453e-06
1.01451e-05
8.56388e-08
2.85155e-09
1.02008e-08
6.39006e-09
5.79383e-09
4.40694e-09
3.08486e-09
3.2404e-09
3.6422e-09
2.95608e-09
2.36407e-08
6.36846e-09
1.09309e-09
3.67137e-09
3.71889e-09
2.8159e-09
2.89907e-09
2.78359e-07
1.80931e-07
2.06487e-06
0.00640723
0.000132457
0.000102664
6.06295e-05
3.06817e-05
1.14135e-05
1.33431e-06
1.08289e-05
1.95465e-05
2.91003e-05
3.70302e-05
3.03487e-05
2.24373e-05
1.51847e-05
9.23799e-06
4.30765e-06
9.47365e-08
3.86826e-06
8.14722e-06
1.26987e-05
0.000555181
0.000461432
0.000179806
7.62742e-05
2.92498e-05
9.27116e-06
7.73042e-07
4.00776e-06
1.02164e-05
1.69327e-05
1.34078e-07
6.33123e-08
6.50244e-08
4.04814e-08
3.34897e-08
2.63654e-08
1.34423e-08
1.42486e-09
1.849e-08
4.94224e-08
5.08036e-05
3.44497e-05
1.95392e-05
1.22213e-05
7.91034e-06
5.16959e-06
3.25262e-06
1.7345e-06
4.44972e-07
8.44143e-07
1.68261e-05
2.02541e-05
1.722e-05
1.29298e-05
9.34182e-06
6.56893e-06
4.41125e-06
2.59286e-06
1.02075e-06
6.54992e-07
1.27552e-08
7.06907e-09
1.47272e-11
3.18108e-09
3.06326e-09
3.96162e-09
5.15453e-09
5.21344e-09
4.9778e-09
4.28584e-09
0.0010659
0.000213639
2.24121e-05
5.956e-05
5.16293e-05
3.68239e-05
2.36531e-05
1.26172e-05
3.25591e-06
5.95414e-06
1.74159e-08
9.63963e-09
1.13266e-09
1.03626e-09
2.56655e-09
2.49426e-09
2.22917e-09
2.00022e-09
1.98817e-09
2.31005e-09
1.23762e-06
7.99324e-07
2.35267e-09
8.72588e-10
9.49906e-10
5.156e-07
8.66568e-07
4.53514e-07
3.51134e-08
1.09731e-06
0.00402174
0.000608764
0.000415119
0.000281147
0.000196603
0.000134578
8.50126e-05
4.45828e-05
4.79402e-07
3.6695e-05
1.09931e-05
1.635e-05
8.35614e-06
2.57865e-06
1.02171e-06
3.30119e-06
4.96523e-06
6.50914e-06
8.22443e-06
9.46002e-06
0.000287551
0.000374099
0.000126451
4.7709e-05
1.48037e-05
2.23362e-06
2.40718e-06
4.86706e-06
8.54666e-06
1.34852e-05
2.69047e-08
2.42227e-08
3.79616e-08
4.59913e-08
5.23576e-08
6.16298e-08
6.97827e-08
7.64776e-08
8.01844e-08
7.88478e-08
2.08533e-05
1.547e-05
8.55504e-06
5.23179e-06
3.31366e-06
2.13377e-06
1.35055e-06
7.68197e-07
2.98382e-07
1.88419e-07
6.45006e-06
6.03657e-06
5.14303e-06
3.89059e-06
2.82766e-06
2.00472e-06
1.37575e-06
8.71463e-07
4.63794e-07
2.83331e-08
7.83623e-09
7.99551e-09
5.449e-09
3.7787e-09
3.9293e-09
2.82033e-09
2.68343e-09
2.39592e-09
2.36853e-09
2.1996e-09
0.000711352
0.000175631
5.58593e-06
2.65121e-05
2.61677e-05
1.96867e-05
1.33193e-05
7.95821e-06
3.48918e-06
1.01412e-06
2.70782e-08
1.92669e-09
4.03261e-10
1.18738e-09
5.93689e-10
1.09776e-09
1.14257e-09
1.22098e-09
6.94504e-10
1.02952e-09
9.29754e-05
0.000130969
8.71475e-05
5.22868e-05
3.06402e-05
1.80255e-05
1.04854e-05
5.26522e-06
1.08025e-06
3.75781e-06
0.0066308
0.000678427
0.000510205
0.000387718
0.00029375
0.000219873
0.000160662
0.00011247
7.1986e-05
3.9635e-05
1.8299e-05
3.1166e-05
2.17045e-05
1.44599e-05
9.55908e-06
6.309e-06
4.08002e-06
2.3626e-06
6.80989e-07
1.59394e-06
9.66874e-05
8.46865e-05
2.07885e-05
6.60703e-06
1.33217e-06
1.97298e-07
5.11893e-07
6.52639e-07
1.18079e-06
2.44746e-06
1.7384e-08
1.4309e-08
7.93247e-09
4.96376e-10
5.05922e-09
1.07962e-08
1.786e-08
2.42174e-08
2.94771e-08
3.50613e-08
1.79414e-06
1.86593e-06
1.01221e-06
6.19935e-07
4.00788e-07
2.69794e-07
1.8745e-07
1.30765e-07
9.01004e-08
4.57866e-08
8.64452e-07
5.15095e-07
4.30587e-07
3.30944e-07
2.49987e-07
1.87831e-07
1.41467e-07
1.07919e-07
8.74003e-08
7.00033e-08
9.30676e-09
2.27824e-09
1.51458e-09
1.52731e-09
9.29114e-10
8.78203e-10
9.29114e-10
5.85469e-10
3.94555e-10
4.2001e-10
5.15104e-05
2.6763e-05
9.70499e-07
4.18728e-06
4.46907e-06
3.70518e-06
2.88681e-06
2.192e-06
1.65316e-06
1.06328e-06
5.22126e-08
2.04104e-09
5.62328e-10
4.37366e-10
6.76876e-10
2.18683e-10
5.51914e-10
7.28944e-11
5.62328e-10
3.74885e-10
0.000272169
0.000167734
0.000102592
6.18839e-05
3.81767e-05
2.46076e-05
1.6548e-05
1.1189e-05
6.89795e-06
1.93532e-06
0.520461
0.415212
0.525926
0.912986
0.682344
0.620819
0.73587
1.11092
0.848331
0.790456
0.936689
1.43945
0.617672
0.594078
0.703702
1.10099
0.453299
0.451574
0.535954
0.867315
0.302326
0.298428
0.369924
0.629043
0.203102
0.193492
0.258217
0.46344
0.132744
0.122072
0.174738
0.325091
0.0926559
0.0843737
0.127309
0.240625
0.0702331
0.0646255
0.104314
0.197409
0.0354149
0.00176528
3.06606e-05
0.0188635
0.0780913
0.00648162
2.2728e-05
0.040782
0.13645
0.0151822
1.08609e-05
0.0703463
0.12523
0.0170488
6.42436e-06
0.0604557
0.11102
0.0170893
3.01673e-06
0.049149
0.0865173
0.014414
1.44943e-06
0.0379603
0.0659486
0.0112995
9.7734e-07
0.0310759
0.0481886
0.00862216
7.68313e-07
0.0238837
0.0375175
0.00747329
0.00108541
0.0191968
0.0318378
0.00868902
0.00401808
0.0162779
0.0168944
0.0133137
0.0140028
0.0195288
0.0385307
0.0265557
0.0260826
0.0406858
0.074908
0.0486673
0.0492374
0.079638
0.0712559
0.0431795
0.0447811
0.0751375
0.0655898
0.0373063
0.0397976
0.0703194
0.0527662
0.0284099
0.0310382
0.0572853
0.0414305
0.0211149
0.0236948
0.046011
0.0311158
0.0150513
0.0172224
0.034655
0.0247149
0.0109539
0.0129371
0.027039
0.0212883
0.00897922
0.0111223
0.0225862
0.00188135
0.00136896
0.00131986
0.0019293
0.00606814
0.00415858
0.0038498
0.00629901
0.0162415
0.0110127
0.010481
0.0166013
0.0191231
0.0125995
0.0124306
0.0190173
0.0208991
0.0132685
0.0136912
0.0208487
0.01926
0.0117953
0.0125994
0.0192447
0.0168591
0.00989603
0.0109051
0.0170354
0.0139355
0.00787776
0.00887959
0.0140593
0.0117903
0.00611766
0.00721473
0.0116792
0.0105543
0.00536773
0.006818
0.0105595
0.000586022
0.000559916
0.000590326
0.000807727
0.00226155
0.00210022
0.00236009
0.00339995
0.00610294
0.00575054
0.00641148
0.00890448
0.00733561
0.00658052
0.00708601
0.0096302
0.00846818
0.00719623
0.00768784
0.0104138
0.00828325
0.00665994
0.00713207
0.00962182
0.00766613
0.00581986
0.00630615
0.00856248
0.00676307
0.00486538
0.00533926
0.00724806
0.00615293
0.00406105
0.00464988
0.00627837
0.00593367
0.00389728
0.00479443
0.00609887
9.33864e-05
9.77859e-05
9.80109e-05
0.000157235
0.000764054
0.0007231
0.000846076
0.00123328
0.00246258
0.00249453
0.00299189
0.00411598
0.00304223
0.003073
0.0035609
0.00473653
0.00362851
0.00358505
0.00407006
0.0053486
0.00368642
0.00350592
0.00392106
0.00509414
0.00352678
0.00320871
0.0035657
0.00459949
0.00329204
0.00283943
0.00314282
0.00400568
0.00322091
0.00255705
0.00291066
0.00359977
0.00321464
0.00251292
0.00303676
0.00352102
4.55495e-06
4.05931e-06
5.07744e-07
1.80498e-05
0.00026637
0.000252616
0.000302594
0.000462347
0.0011791
0.00120206
0.00148375
0.00207143
0.00150492
0.00158343
0.00190813
0.00254089
0.00182443
0.00193445
0.00229532
0.00299793
0.00188249
0.00196538
0.00229218
0.00294941
0.00180297
0.00184165
0.00212226
0.00269347
0.00174417
0.00170403
0.00193257
0.0024147
0.00178704
0.0016285
0.00186172
0.00221572
0.00179596
0.00161451
0.00191764
0.00214615
2.39352e-05
9.02374e-06
8.81683e-06
9.20594e-06
6.97424e-05
6.17381e-05
7.49076e-05
0.000130072
0.000539125
0.000531615
0.000661844
0.000949018
0.00076232
0.000801989
0.000978854
0.00131203
0.000969187
0.00104776
0.00126672
0.00165927
0.00104377
0.00112795
0.0013452
0.00173326
0.00100195
0.00108139
0.00127685
0.0016134
0.00100205
0.00104789
0.0012126
0.00150694
0.00101211
0.0010099
0.00115745
0.00135643
0.0010327
0.00102968
0.00120728
0.0013381
1.96192e-05
6.7807e-06
6.56206e-06
6.74867e-06
8.93464e-06
3.84702e-06
3.8301e-06
1.80254e-05
0.000233241
0.0002112
0.000263048
0.0004025
0.000380856
0.000393912
0.000482443
0.000652855
0.000511121
0.000555074
0.000676588
0.000890513
0.000590776
0.000646972
0.000779075
0.00100786
0.000571639
0.000634455
0.000757935
0.000955315
0.000599506
0.000650038
0.000760552
0.000944724
0.000575614
0.000609221
0.000697976
0.000815019
0.000611478
0.000654523
0.00075953
0.000841474
1.61827e-05
4.98287e-06
4.76665e-06
4.89823e-06
3.59019e-06
2.05281e-06
2.26628e-06
2.85164e-06
8.71344e-05
6.04747e-05
7.36572e-05
0.00013862
0.000183838
0.000183487
0.000224056
0.000307471
0.000259942
0.000280089
0.000343025
0.00045536
0.000328724
0.000360457
0.000436263
0.000568528
0.00031682
0.000357792
0.000429932
0.000540221
0.000357971
0.000395429
0.000465473
0.000580241
0.000328523
0.000360364
0.00041272
0.00048259
0.000368124
0.000411596
0.000474095
0.000526311
1.43801e-05
4.50329e-06
4.292e-06
4.41492e-06
3.47765e-06
1.00976e-06
1.01805e-06
1.19894e-06
2.15187e-05
7.05426e-07
7.12127e-07
2.13028e-05
8.4255e-05
7.93331e-05
9.57576e-05
0.000133946
0.000127035
0.000134
0.000164593
0.000221769
0.000180767
0.000196402
0.000238561
0.000314677
0.000168199
0.000192378
0.000232151
0.000290221
0.00021273
0.000236305
0.000279479
0.000351253
0.000185108
0.00020706
0.000237181
0.00027793
0.000222149
0.000254493
0.000292134
0.000324717
6.66502e-06
2.11439e-06
2.09154e-06
2.31938e-06
3.18536e-06
9.17029e-07
8.4743e-07
8.68891e-07
1.23114e-06
4.27605e-07
3.41162e-07
3.51429e-07
3.48479e-05
2.97307e-05
3.49169e-05
5.00139e-05
5.81815e-05
5.90257e-05
7.26132e-05
0.000100354
9.83066e-05
0.000104862
0.000127678
0.00017145
8.35093e-05
9.6883e-05
0.000117366
0.000145079
0.000126344
0.000139599
0.000165876
0.000211439
9.94322e-05
0.00011233
0.000128686
0.000150857
0.000132639
0.000153824
0.000176761
0.000196243
1.5444e-05
4.28107e-06
3.72201e-06
3.5141e-06
2.44619e-06
9.47156e-07
9.63663e-07
1.07932e-06
7.76721e-07
3.36529e-07
3.42084e-07
3.7641e-07
1.16476e-05
7.80053e-06