/*--------------------------------*- C++ -*----------------------------------*\
| =========                 |                                                 |
| \\      /  F ield         | foam-extend: Open Source CFD                    |
|  \\    /   O peration     | Version:     4.0                                |
|   \\  /    A nd           | Web:         http://www.foam-extend.org         |
|    \\/     M anipulation  |                                                 |
\*---------------------------------------------------------------------------*/
FoamFile
{
    version     2.0;
    format      ascii;
    class       volScalarField;
    location    "2800";
    object      epsilon;
}
// * * * * * * * * * * * * * * * * * * * * * * * * * * * * * * * * * * * * * //

dimensions      [0 2 -3 0 0 0 0];

internalField   nonuniform List<scalar> 
34480
(
4930.66
4928.64
4928.53
4930.03
4933.24
4938.4
4951.02
5004.67
5194.52
5725.83
655.449
602.149
601.231
653.204
838.748
1576.06
5099.51
22849.8
103709
382386
618.842
523.18
509.53
569.167
809.967
1829.13
7041.66
35119
172535
699243
524.863
439.451
427.411
485.113
733.832
1883.43
8219.38
44412.5
232219
1.01098e+06
456.702
384.82
377.382
433.148
684.845
1927.57
9177.99
52591.4
289185
1.33362e+06
392.527
332.844
326.609
378.479
628.383
1956.28
10121.4
61045.6
350634
1.6987e+06
353.288
302.792
298.394
346.416
591.492
1962.78
10725.7
67199.7
400352
2.02276e+06
321.378
282.117
277.714
317.507
534.203
1820.5
10350.4
66983.7
412652
2.16764e+06
460.059
435.975
433.366
458.774
597.097
1410.13
6840.92
43696
275988
1.49853e+06
5709.13
5709.36
5714.81
5726.77
5743.59
5763.66
5787.87
5823.82
5890.23
5958.89
4856.09
4853.57
4853.08
4854.57
4858.57
4865.59
4876.72
4902.84
4965.48
5186.01
512.073
479.203
473.567
487.688
532.093
648.536
1002.86
2354.53
11801.2
103648
447.069
383.996
370.296
389.702
458.495
645.771
1229.69
3567.12
21358.1
197643
399.665
338.722
325.262
344.97
416.439
620.188
1294.48
4289.55
30234.6
294758
365.888
311.154
300.615
319.825
390.778
598.92
1321.83
4812.22
38717
396504
326.361
278.977
269.169
286.454
352.236
554.142
1294.12
5180.43
47348.8
508567
302.554
260.857
252.679
267.941
328.935
521.46
1256.18
5361.09
54216.4
607814
283.119
249.97
242.293
253.912
301.566
456.645
1074.65
4827.98
54992.1
652022
432.854
410.964
405.861
413.325
443.445
531.684
848.134
2980.66
36399.7
467546
5591.66
5587.34
5587.85
5594.49
5606.17
5620.75
5640.12
5673.13
5740.79
5913.69
4770.95
4768.55
4767.8
4768.62
4771.24
4775.38
4780.2
4791
4815.06
4870.12
399.892
386.447
383.783
388.542
403.675
439.042
527.091
758.598
1516.82
5758.42
308.151
276.919
270.084
279.262
309.673
379.291
550.408
1030.16
2859.5
14988.3
290.284
256.459
248.785
259.362
294.521
378.441
597.229
1279.8
4409.2
28919.5
280.878
247.917
241.468
252.424
289.535
380.323
629.035
1481.34
6140.44
47809.6
261.35
231.095
224.603
235.002
270.7
361.668
625.234
1625.62
8150.81
73152.7
250.556
222.534
216.942
226.432
260.523
349.186
617.191
1724.54
10165.3
101598
243.078
220.109
214.696
222.322
249.658
322.187
549.945
1594.45
11043.2
122897
402.724
386.382
382.631
388.279
408.713
461.622
607.13
1235.56
7680.92
92096.5
5481.98
5474.89
5472.59
5476.17
5484.97
5496.96
5513.46
5544.24
5616.72
5802.13
4674.93
4673.43
4673
4673.63
4675.43
4677.72
4678.72
4681.53
4688.94
4705.05
328.461
324.34
323.521
324.615
328.696
339.05
365.06
421.603
541.209
940.357
219.317
206.062
203.212
207.254
220.647
248.938
309.074
445.236
772.132
2085.82
214.445
197.724
193.791
199.313
217.27
256.761
345.546
565.536
1169.54
4141.63
217.578
199.54
195.952
202.152
222.756
269.302
379.535
675.977
1611.21
7155.34
210.717
192.77
188.732
195.123
216.351
266.431
392.1
761.675
2117.7
11599.9
208.513
190.73
187.085
193.236
214.633
266.163
401.078
827.411
2633.57
17124
209.985
194.708
190.985
196.278
214.348
258.9
379.798
795.214
2860.9
21851
375.69
363.705
360.871
365.063
380.026
417.001
508.756
782.708
2181.16
16545.4
5359.99
5352.91
5350.35
5353.42
5361.69
5374.06
5391.2
5422.06
5488.87
5632.09
4569.53
4568.84
4568.7
4569.1
4570.07
4570.78
4569.47
4568.34
4568.27
4570.03
285.509
284.769
284.67
284.438
284.433
286.168
293.405
307.378
329.714
375.953
167.905
162.887
161.846
163.265
168.298
178.518
198.301
237.434
308.115
484.226
166.471
158.746
156.786
159.284
167.539
184.774
219.572
294.214
443.137
889.757
173.917
164.609
162.676
165.766
176.215
198.554
246.037
356.471
601.426
1498
173.617
163.425
160.933
164.478
176.213
202.442
261.463
410.92
783.889
2434.98
176.094
165.192
162.821
166.446
179.079
207.883
275.361
457.578
966.537
3640.76
183.354
173.475
170.905
174.285
185.611
212.179
276.683
463.599
1058.69
4746.65
351.36
342.759
340.575
343.464
354.007
379.259
438.184
581.552
1009.51
3814.37
5230.32
5223.39
5220.67
5223.25
5230.87
5242.96
5259.62
5288
5343.69
5446.04
4455.71
4455.65
4455.73
4455.95
4456.32
4455.99
4453.97
4451.88
4450.1
4449.03
259.797
259.88
259.962
259.442
258.449
258.049
259.945
263.299
268.031
275.303
139.444
137.797
137.528
137.913
139.528
142.771
148.674
159.186
175.182
203.046
137.537
134.157
133.233
134.279
137.831
144.899
157.838
182.367
222.507
303.002
145.046
140.513
139.564
140.991
145.961
156.014
175.325
215.179
286.342
458.04
147.361
141.841
140.388
142.252
148.411
161.44
187.868
247.286
364.055
701.811
151.782
145.381
143.934
145.96
153.087
168.451
200.811
278.312
444.176
1014.09
162.27
156.169
154.494
156.572
163.4
178.661
212.137
297.467
500.456
1320.59
329.481
323.585
321.978
323.93
331.27
348.55
387.057
467.617
640.001
1290.6
5092.37
5085.83
5083.13
5085.34
5092.25
5103.54
5119.03
5143.94
5187.01
5254.27
4334.2
4334.56
4334.78
4334.88
4334.86
4333.9
4332.04
4330.03
4328.21
4326.88
243.796
243.751
243.775
243.301
242.372
241.926
242.288
243.018
244.121
245.925
123.984
123.571
123.579
123.617
124.003
124.851
126.394
128.975
132.496
137.195
120.666
119.231
118.808
119.222
120.695
123.517
128.269
136.263
147.554
163.746
126.666
124.563
124.14
124.753
127.006
131.346
138.963
152.943
174.38
210.558
129.507
126.629
125.818
126.751
129.858
136.116
147.661
170.703
209.285
285.811
134.272
130.644
129.807
130.878
134.751
142.687
157.839
190.045
247.845
381.557
146.169
142.568
141.525
142.752
146.713
155.222
172.352
210.935
286.967
489.915
310.149
306.299
305.141
306.434
311.514
323.505
349.142
396.333
480.002
667.553
4945.89
4939.96
4937.42
4939.29
4945.41
4955.45
4969.2
4990.2
5022.66
5066.5
4205.5
4206.11
4206.43
4206.46
4206.21
4205.13
4203.64
4202.05
4200.62
4199.55
232.908
232.483
232.379
232.027
231.434
231.251
231.268
231.416
231.803
232.794
115.601
115.579
115.657
115.607
115.614
115.727
115.999
116.502
117.191
117.984
111.053
110.449
110.256
110.415
111.021
112.154
113.944
116.657
120.073
123.797
115.292
114.364
114.201
114.445
115.431
117.257
120.25
125.186
131.928
140.366
117.754
116.307
115.872
116.323
117.847
120.798
125.852
134.851
148.24
167.559
122.085
120.091
119.632
120.172
122.222
126.25
133.356
146.775
167.939
202.423
134.229
132.21
131.594
132.293
134.516
139.159
147.946
165.501
195.873
252.188
293.168
290.807
289.977
290.833
294.385
302.958
320.354
349.002
394.126
462.635
4790.75
4785.57
4783.29
4784.86
4790.11
4798.62
4810.31
4827.3
4851.17
4880.1
4069.95
4070.7
4071.07
4071.06
4070.69
4069.8
4068.71
4067.55
4066.52
4065.73
224.503
223.703
223.467
223.231
222.984
222.931
222.911
222.974
223.259
224.15
111.006
111.069
111.144
111.088
111.013
110.94
110.888
110.889
110.952
111.059
105.704
105.442
105.35
105.411
105.667
106.137
106.847
107.834
108.975
109.978
108.445
108.057
108.01
108.098
108.518
109.274
110.455
112.241
114.482
116.707
110.262
109.561
109.337
109.548
110.279
111.653
113.89
117.508
122.46
128.095
113.879
112.81
112.573
112.833
113.899
115.929
119.31
125.064
133.3
143.385
125.601
124.541
124.197
124.585
125.796
128.287
132.824
140.975
153.817
171.851
278.195
276.872
276.265
276.848
279.403
285.766
297.755
315.704
341.525
371.321
4626.91
4622.58
4620.64
4621.92
4626.26
4633.16
4642.68
4655.9
4672.99
4691.97
3927.96
3928.61
3929.01
3928.97
3928.61
3927.99
3927.23
3926.43
3925.73
3925.16
216.926
216.031
215.685
215.536
215.482
215.46
215.461
215.538
215.833
216.725
108.393
108.455
108.507
108.465
108.394
108.299
108.2
108.116
108.072
108.077
102.81
102.686
102.638
102.663
102.779
102.988
103.292
103.688
104.115
104.434
104.449
104.294
104.289
104.318
104.495
104.807
105.281
105.948
106.728
107.39
105.648
105.322
105.21
105.308
105.652
106.284
107.281
108.777
110.711
112.634
108.536
107.972
107.856
107.978
108.53
109.556
111.197
113.759
117.161
120.569
119.493
118.986
118.807
119.019
119.662
120.986
123.326
127.18
132.824
139.521
264.784
264.158
263.69
264.111
266.037
270.904
279.255
290.781
306.14
320.302
4454.52
4451.06
4449.49
4450.5
4453.94
4459.28
4466.74
4476.63
4488.52
4500.77
3779.63
3780.14
3780.47
3780.44
3780.21
3779.79
3779.28
3778.75
3778.29
3777.87
209.481
208.599
208.258
208.151
208.116
208.112
208.133
208.227
208.538
209.427
106.793
106.836
106.869
106.84
106.787
106.714
106.636
106.566
106.529
106.536
101.295
101.227
101.2
101.212
101.269
101.371
101.516
101.695
101.88
101.999
102.197
102.134
102.139
102.148
102.225
102.362
102.563
102.829
103.116
103.338
102.916
102.77
102.717
102.761
102.921
103.209
103.654
104.284
105.065
105.813
105.178
104.879
104.824
104.883
105.174
105.704
106.521
107.712
109.189
110.496
115.215
115.009
114.926
115.043
115.377
116.078
117.268
119.1
121.602
124.389
252.452
252.277
251.886
252.219
253.759
257.51
263.348
270.864
280.269
287.088
4273.85
4271.23
4270.02
4270.79
4273.38
4277.37
4282.97
4290.1
4298.14
4305.89
3625.1
3625.52
3625.77
3625.76
3625.62
3625.35
3625.02
3624.67
3624.38
3624.05
201.821
200.966
200.655
200.561
200.535
200.539
200.57
200.67
200.985
201.856
105.699
105.721
105.739
105.721
105.686
105.639
105.589
105.546
105.532
105.552
100.53
100.488
100.472
100.478
100.509
100.563
100.638
100.728
100.821
100.874
100.978
100.947
100.951
100.953
100.993
101.062
101.161
101.283
101.404
101.494
101.368
101.306
101.28
101.301
101.375
101.506
101.704
101.973
102.295
102.62
103.14
102.975
102.95
102.981
103.142
103.429
103.854
104.44
105.118
105.681
112.203
112.15
112.12
112.186
112.359
112.725
113.312
114.17
115.245
116.503
240.735
240.837
240.48
240.767
242.08
244.889
248.948
253.874
259.757
262.812
4085.33
4083.46
4082.59
4083.15
4084.99
4087.87
4091.92
4096.86
4102.13
4106.94
3464.59
3464.93
3465.13
3465.13
3465.05
3464.88
3464.66
3464.44
3464.25
3463.98
193.767
192.947
192.664
192.581
192.559
192.565
192.597
192.695
193.002
193.846
104.848
104.856
104.864
104.852
104.831
104.804
104.776
104.755
104.76
104.79
100.159
100.133
100.124
100.127
100.143
100.172
100.211
100.259
100.311
100.338
100.35
100.328
100.326
100.328
100.353
100.397
100.457
100.528
100.591
100.641
100.535
100.509
100.497
100.507
100.541
100.601
100.69
100.806
100.941
101.098
101.943
101.844
101.832
101.852
101.949
102.115
102.352
102.664
103.001
103.28
110.018
110.035
110.032
110.072
110.165
110.346
110.619
111.003
111.418
112.027
229.21
229.477
229.124
229.39
230.527
232.497
235.279
238.491
242.217
243.257
3889.53
3888.28
3887.71
3888.09
3889.32
3891.36
3894.16
3897.46
3900.79
3903.72
3298.38
3298.67
3298.82
3298.83
3298.78
3298.68
3298.55
3298.41
3298.28
3298.04
185.211
184.43
184.175
184.103
184.082
184.087
184.115
184.204
184.498
185.309
104.114
104.113
104.114
104.107
104.096
104.082
104.07
104.063
104.079
104.114
99.9895
99.9743
99.9703
99.9718
99.9793
99.9922
100.011
100.034
100.064
100.08
100.045
100.025
100.02
100.021
100.04
100.073
100.117
100.167
100.21
100.245
100.114
100.102
100.096
100.101
100.118
100.146
100.187
100.238
100.296
100.382
101.253
101.188
101.181
101.197
101.261
101.366
101.509
101.691
101.876
102.044
108.329
108.384
108.393
108.42
108.468
108.549
108.66
108.813
108.924
109.246
217.324
217.839
217.515
217.774
218.587
219.933
221.794
223.858
226.22
226.179
3687.21
3686.36
3686.02
3686.26
3687.09
3688.47
3690.33
3692.43
3694.44
3696.19
3126.88
3127.13
3127.24
3127.25
3127.23
3127.16
3127.08
3126.99
3126.91
3126.69
176.069
175.332
175.105
175.044
175.023
175.025
175.047
175.125
175.4
176.174
103.439
103.433
103.429
103.425
103.42
103.415
103.412
103.414
103.437
103.475
99.9214
99.9142
99.9137
99.9141
99.9159
99.9192
99.9249
99.9341
99.9505
99.9613
99.9113
99.893
99.8851
99.8866
99.9015
99.9279
99.9624
100
100.034
100.062
99.9195
99.9129
99.9091
99.9115
99.9203
99.9351
99.9549
99.9792
100.004
100.056
100.853
100.807
100.801
100.815
100.86
100.931
101.025
101.14
101.253
101.373
106.922
106.989
107.009
107.025
107.046
107.076
107.108
107.153
107.128
107.32
204.843
205.496
205.299
205.481
206.025
206.909
208.106
209.402
210.877
210.286
3479.12
3478.58
3478.36
3478.52
3479.06
3479.95
3481.12
3482.39
3483.54
3484.57
2950.62
2950.83
2950.91
2950.92
2950.91
2950.87
2950.82
2950.76
2950.7
2950.51
166.262
165.572
165.376
165.327
165.304
165.304
165.319
165.383
165.637
166.37
102.797
102.789
102.782
102.78
102.779
102.779
102.782
102.79
102.815
102.856
99.9046
99.9026
99.9041
99.9038
99.9024
99.9001
99.8984
99.8993
99.9073
99.9166
99.8648
99.8484
99.8401
99.8411
99.8525
99.8729
99.8995
99.9286
99.9548
99.9785
99.845
99.8398
99.8367
99.8378
99.8429
99.8514
99.8622
99.8747
99.8866
99.9198
100.607
100.572
100.567
100.578
100.61
100.66
100.724
100.8
100.875
100.969
105.657
105.722
105.745
105.756
105.764
105.77
105.767
105.765
105.687
105.818
191.595
192.299
192.204
192.326
192.669
193.216
193.937
194.721
195.604
194.784
3266.15
3265.82
3265.69
3265.8
3266.13
3266.66
3267.35
3268.07
3268.68
3269.26
2770.32
2770.49
2770.55
2770.56
2770.56
2770.54
2770.5
2770.46
2770.42
2770.24
155.694
155.055
154.886
154.85
154.833
154.831
154.84
154.888
155.115
155.807
102.185
102.174
102.167
102.165
102.166
102.17
102.176
102.186
102.211
102.254
99.9137
99.914
99.916
99.9154
99.9125
99.908
99.9032
99.9003
99.9033
99.913
99.861
99.8474
99.84
99.8403
99.8484
99.8629
99.882
99.9031
99.923
99.9423
99.8324
99.8276
99.825
99.8252
99.8283
99.8334
99.8395
99.8464
99.8524
99.8736
100.43
100.403
100.399
100.407
100.429
100.463
100.506
100.556
100.606
100.683
104.458
104.51
104.532
104.54
104.542
104.539
104.524
104.506
104.416
104.516
177.436
178.119
178.104
178.182
178.378
178.68
179.06
179.501
179.975
179.134
3049.37
3049.19
3049.12
3049.18
3049.36
3049.66
3050.03
3050.4
3050.69
3051
2586.98
2587.12
2587.16
2587.18
2587.17
2587.16
2587.14
2587.1
2587.06
2586.91
144.231
143.653
143.513
143.489
143.484
143.481
143.484
143.516
143.706
144.352
101.609
101.596
101.588
101.586
101.588
101.593
101.601
101.611
101.633
101.677
99.9327
99.9326
99.934
99.9331
99.9303
99.926
99.9212
99.9177
99.9184
99.929
99.8784
99.868
99.8623
99.8622
99.8672
99.8765
99.8887
99.9026
99.9166
99.9315
99.8521
99.8482
99.8461
99.8459
99.8474
99.85
99.8531
99.8563
99.8592
99.8716
100.273
100.253
100.249
100.254
100.268
100.289
100.315
100.345
100.377
100.436
103.291
103.328
103.345
103.35
103.349
103.343
103.325
103.304
103.224
103.304
162.208
162.816
162.864
162.911
162.998
163.119
163.249
163.454
163.628
162.904
2830.08
2829.99
2829.95
2829.98
2830.07
2830.22
2830.4
2830.56
2830.68
2830.83
2401.73
2401.84
2401.87
2401.88
2401.88
2401.87
2401.85
2401.83
2401.8
2401.68
131.646
131.153
131.061
131.051
131.05
131.046
131.042
131.056
131.188
131.768
101.087
101.072
101.065
101.062
101.064
101.069
101.076
101.085
101.102
101.142
99.9496
99.9477
99.9478
99.9469
99.9449
99.9421
99.9391
99.937
99.9374
99.9479
99.9084
99.9014
99.8978
99.8975
99.9002
99.9053
99.9122
99.9202
99.929
99.9392
99.89
99.8876
99.8863
99.8859
99.8862
99.887
99.8878
99.8885
99.8893
99.8949
100.119
100.106
100.103
100.105
100.112
100.123
100.136
100.151
100.168
100.208
102.169
102.188
102.198
102.2
102.196
102.187
102.17
102.151
102.097
102.156
145.451
145.928
145.962
145.998
146.058
146.138
146.22
146.279
146.211
145.692
2609.71
2609.66
2609.65
2609.66
2609.69
2609.74
2609.79
2609.84
2609.87
2609.94
2215.03
2215.09
2215.1
2215.1
2215.1
2215.1
2215.09
2215.09
2215.09
2215.03
117.389
117.051
117.02
117.025
117.027
117.022
117.012
117.005
117.05
117.478
100.625
100.609
100.602
100.598
100.599
100.602
100.608
100.617
100.63
100.662
99.9659
99.9636
99.963
99.9623
99.9614
99.9603
99.9592
99.9586
99.9593
99.9664
99.9506
99.9469
99.9451
99.9449
99.9461
99.9485
99.9517
99.9556
99.9602
99.9658
99.9405
99.9395
99.9389
99.9386
99.9385
99.9383
99.938
99.9376
99.9373
99.9386
100.009
100.004
100.002
100.003
100.006
100.01
100.014
100.019
100.026
100.045
101.125
101.127
101.129
101.128
101.122
101.113
101.1
101.087
101.069
101.111
125.762
126.044
126.062
126.082
126.115
126.157
126.2
126.223
126.174
125.833
2388.98
2388.96
2388.97
2388.97
2388.97
2388.97
2388.97
2388.97
2388.95
2388.99
7183.98
7294.29
7250.54
7044.08
658917
683865
689429
697311
1.49739e+06
1.5841e+06
1.59161e+06
1.57172e+06
2.52526e+06
2.70356e+06
2.70103e+06
2.61951e+06
3.76096e+06
4.05608e+06
4.02975e+06
3.86819e+06
5.30804e+06
5.75138e+06
5.69984e+06
5.48698e+06
6.86855e+06
7.46752e+06
7.40372e+06
7.20701e+06
7.88296e+06
8.6109e+06
8.55622e+06
8.42819e+06
5.61978e+06
6.17924e+06
6.11518e+06
6.08137e+06
7903.66
8151.41
7989.04
7569.81
5749.33
5802.12
5804.65
5765.51
308553
324674
345348
377328
689324
780869
824933
861816
1.17798e+06
1.40289e+06
1.4661e+06
1.49203e+06
1.76357e+06
2.1776e+06
2.25151e+06
2.26499e+06
2.45885e+06
3.11247e+06
3.21172e+06
3.24761e+06
3.13178e+06
4.04033e+06
4.20111e+06
4.31994e+06
3.57333e+06
4.7041e+06
4.94537e+06
5.18027e+06
2.80681e+06
3.81863e+06
4.00721e+06
4.32037e+06
7126.37
7357.97
7287.01
7066.66
4937.91
4948.86
4948.01
4938.29
21661
25960.4
24597.2
19966.5
61570
73410.1
68679.2
55731.5
128749
152840
140888
114033
228361
270537
246271
199441
372380
441934
401384
326407
545331
648544
591611
485409
702807
839405
769578
636851
584460
696875
629359
524660
6344.36
6431.67
6409.35
6314.02
4716.01
4718.14
4718.69
4717.89
1594.3
1711.29
1679.87
1544.99
4698.15
5172.45
5012.63
4434.62
11230.6
12505.1
11926.4
10213.7
22554.8
25253.9
23699.7
19746.2
41691.6
46923.3
43528.3
35537.4
68295.6
76986
70797.2
57130.1
97160.9
109914
100445
80430.6
83358.6
93766.5
84200.2
67267.1
5904.03
5945.73
5942.84
5904.92
4568.01
4568.92
4569.13
4568.6
423.28
436.211
438.465
431.552
710.108
757.05
761.564
731.377
1595.03
1736.82
1729.32
1610.3
3203.61
3529.31
3458.54
3118.66
6140.12
6823.39
6583.14
5758.28
10498.3
11693.8
11109.3
9472.78
15692.2
17555.8
16464
13724.8
13860.4
15397.4
14114
11586.5
5578.73
5600.76
5602.25
5586.63
4444.97
4445.72
4445.79
4445.17
275.584
278.457
279.169
277.91
226.357
231.457
233.285
232.245
385.581
403.073
407.311
400.544
674.048
717.858
722.111
696.12
1215.16
1316.48
1312.65
1233.52
2023.65
2211.45
2175.77
1991.42
3046.98
3360.51
3261.98
2904.58
2929
3183.34
3023.47
2664.19
5318.18
5328.96
5331.1
5325.54
4322.63
4323.35
4323.4
4322.77
241.774
243.68
244.079
243.022
140.134
140.888
141.241
141.227
175.865
178.564
179.692
179.438
243.199
250.226
252.463
250.763
368.97
386.595
390.324
383.183
549.224
582.688
585.331
565.812
795.526
854.991
852.148
807.139
984.694
1029.74
1010.27
962.508
5095.79
5100.67
5102.52
5101.27
4195.51
4196.21
4196.26
4195.66
228.094
229.812
230.151
229.141
118.189
118.327
118.381
118.358
125.852
126.302
126.527
126.554
146.029
147.259
147.803
147.782
183.405
186.917
188.184
187.623
233.788
240.342
242.098
240.311
314.614
327.188
329.127
323.571
543.034
548.699
546.184
542.493
4893.67
4895.68
4896.97
4897.16
4061.96
4062.62
4062.68
4062.11
219.49
221.144
221.473
220.498
110.888
110.945
110.954
110.915
110.346
110.419
110.457
110.466
117.765
117.975
118.086
118.118
131.711
132.522
132.875
132.843
149.878
151.235
151.776
151.735
187.359
190.301
191.147
190.487
400.187
397.211
396.465
399.124
4698.46
4699.15
4699.92
4700.41
3921.66
3922.28
3922.33
3921.81
212.195
213.794
214.115
213.177
107.868
107.917
107.921
107.881
104.484
104.491
104.494
104.494
107.574
107.596
107.61
107.622
113.656
113.877
113.978
113.969
121.961
122.212
122.351
122.429
144.579
145.283
145.546
145.484
335.331
330.25
329.47
332.885
4503.81
4503.91
4504.34
4504.79
3774.64
3775.2
3775.24
3774.78
205.055
206.595
206.907
206.006
106.338
106.386
106.391
106.353
101.988
101.986
101.984
101.983
103.358
103.35
103.347
103.349
106.198
106.277
106.31
106.297
110.765
110.778
110.805
110.857
126.729
126.86
126.912
126.907
297.591
292.082
291.176
294.491
4307.11
4306.97
4307.2
4307.54
3621.09
3621.59
3621.63
3621.21
197.657
199.135
199.437
198.575
105.37
105.417
105.423
105.388
100.853
100.851
100.849
100.848
101.489
101.481
101.476
101.476
102.817
102.856
102.869
102.856
105.715
105.686
105.684
105.713
117.998
117.976
117.958
117.945
271.428
265.974
265.021
268.135
4107.12
4106.94
4107.05
4107.27
3461.31
3461.74
3461.77
3461.39
189.833
191.247
191.537
190.716
104.624
104.668
104.674
104.641
100.318
100.317
100.316
100.316
100.637
100.632
100.629
100.628
101.224
101.249
101.256
101.244
103.288
103.261
103.254
103.27
113.192
113.133
113.092
113.071
250.82
245.572
244.626
247.549
3903.26
3903.14
3903.19
3903.29
3295.66
3296.03
3296.04
3295.72
181.495
182.841
183.12
182.341
103.966
104.007
104.013
103.983
100.064
100.064
100.064
100.064
100.245
100.243
100.241
100.239
100.469
100.488
100.492
100.482
102.072
102.055
102.049
102.055
110.241
110.18
110.134
110.104
232.985
227.996
227.086
229.831
3695.34
3695.31
3695.33
3695.34
3124.61
3124.91
3124.92
3124.64
172.573
173.852
174.119
173.384
103.349
103.387
103.392
103.365
99.9513
99.9524
99.9525
99.9516
100.065
100.064
100.063
100.061
100.119
100.132
100.135
100.127
101.425
101.42
101.416
101.415
108.201
108.151
108.107
108.067
216.461
211.76
210.903
213.475
3483.46
3483.54
3483.55
3483.47
2948.76
2948.99
2948.97
2948.75
163
164.211
164.468
163.779
102.757
102.792
102.798
102.772
99.9134
99.9155
99.9158
99.9142
99.9828
99.9829
99.9821
99.9809
99.9645
99.9738
99.975
99.9684
101.04
101.044
101.042
101.035
106.605
106.573
106.534
106.484
200.394
196.012
195.223
197.614
3268
3268.19
3268.2
3268.04
2768.85
2769.01
2768.98
2768.8
152.691
153.837
154.086
153.445
102.191
102.224
102.229
102.205
99.9168
99.9199
99.9203
99.918
99.9477
99.9483
99.948
99.9471
99.9035
99.9095
99.9099
99.9049
100.761
100.771
100.771
100.761
105.208
105.199
105.166
105.106
184.224
180.217
179.514
181.7
3049.65
3049.93
3049.94
3049.73
2585.93
2586
2585.96
2585.83
141.542
142.634
142.878
142.281
101.648
101.68
101.685
101.662
99.9387
99.9428
99.9432
99.9401
99.9375
99.9385
99.9386
99.9381
99.889
99.8924
99.8923
99.8891
100.511
100.524
100.525
100.514
103.876
103.891
103.866
103.8
167.523
164.009
163.416
165.336
2829.46
2829.79
2829.81
2829.58
2401.16
2401.14
2401.08
2401.02
129.373
130.425
130.665
130.103
101.141
101.169
101.172
101.151
99.9598
99.9642
99.9645
99.9613
99.9448
99.946
99.9464
99.9463
99.9026
99.9039
99.9038
99.9023
100.268
100.28
100.281
100.272
102.554
102.58
102.565
102.506
149.615
146.67
146.228
147.865
2608.74
2609.11
2609.12
2608.88
2215.02
2214.86
2214.8
2214.85
115.752
116.733
116.939
116.406
100.666
100.683
100.684
100.67
99.9739
99.9765
99.9767
99.9747
99.9697
99.9706
99.9711
99.9712
99.9404
99.9405
99.9404
99.9402
100.077
100.084
100.085
100.08
101.287
101.296
101.288
101.264
128.33
126.309
126.073
127.23
2388.2
2388.59
2388.6
2388.34
6105.83
5442.9
5173.15
5077.02
5022.21
4983.69
4958.09
4943.71
4935.73
4930.98
798396
193285
33403.9
11732.5
5300.85
2836.4
1749.39
1212.56
928.332
765.138
1.42407e+06
247052
44254.6
15129.6
6776.59
3637.53
2200.61
1460.52
1048.32
803.064
1.99549e+06
239540
46768.9
15018.4
6483.38
3391.28
2000.63
1297.56
912.972
688.624
2.45867e+06
252616
48935.7
14561.4
6098.48
3102.35
1792.13
1144.5
795.541
596.742
2.93042e+06
276403
51144.1
13975.1
5638.8
2768.72
1561.62
981.254
677.428
508.311
3.31265e+06
294979
52003.4
13162.9
5158.92
2467.99
1375.86
861.59
595.663
450.429
3.39663e+06
287395
47703
11002.6
4164.43
1946.83
1093.09
700.35
502.966
394.818
2.34169e+06
182159
27372.8
5711.52
2275.32
1237.96
858.047
671.633
568.201
506.591
6016.18
5992.96
5847.19
5822.79
5779.38
5755.09
5735.81
5725.56
5718.64
5712.69
5443.29
5175.2
5045.28
4972.7
4927.15
4897.14
4877.69
4866.14
4859.92
4855.99
180238
44895
13613.5
5322.78
2635.49
1567.22
1065.13
802.493
656.261
572.303
375678
86409.8
23467.4
8290.93
3889.13
2187.83
1383.9
956.231
710.813
565.769
595039
126246
30701.8
9651.72
4228.13
2261.62
1372.64
915.882
661.62
515.516
830510
165015
36428.1
10417.7
4317.68
2220.01
1310.41
857.662
610.426
472.027
1.10981e+06
207214
41754.1
10864.3
4247.28
2091.52
1198.79
768.927
542.108
418.497
1.38892e+06
244457
45356.9
10851.1
4055.95
1939.34
1095.75
699.622
493.253
382.965
1.5643e+06
258688
43999.8
9553.6
3395.94
1585.38
900.77
587.819
429.954
345.829
1.18226e+06
178734
26854
5250.01
1966.89
1091.44
771.682
615.222
526.613
476.299
6252.84
5952.91
5792.78
5733.95
5683.08
5652.31
5630.02
5616.41
5606.83
5598.53
4904.01
4869.18
4841.71
4818.91
4801.09
4788.17
4779.56
4774.4
4771.54
4769.49
9199.51
4175.79
2298.84
1432.77
985.407
735.869
591.224
504.969
452.255
420.444
23997.9
9564.64
4650.21
2546.86
1542.08
1010.26
712.693
538.359
431.126
364.766
45438
15961.9
6938.09
3411.16
1898.35
1159.05
771.549
555.706
428.545
352.751
73594.2
22902.7
9011.85
4056.13
2119.75
1232.38
791.822
556.674
421.554
343.293
112049
31041.9
11040.8
4548.46
2235.32
1237.06
767.211
526.304
393.529
318.998
156048
38869.8
12577.7
4795.19
2251.83
1206.04
734.797
500.607
373.485
303.547
191505
42872
12521.6
4385.71
1974.98
1036.77
636.289
443.074
341.778
286.19
141666
27756.3
7304.57
2547.43
1307.88
842.97
642.729
536.585
473.01
436.302
6018.34
5835.85
5711.23
5637.38
5584.28
5551.16
5528.14
5512.47
5500.88
5490.91
4712.99
4704.63
4695.45
4687.21
4680.96
4676.71
4674.05
4672.7
4672.37
4671.98
1208.04
906.485
708.869
570.476
479.264
420.776
383.195
358.483
341.799
331.525
3028.75
1919.51
1270.4
860.768
612.396
460.958
367.186
307.62
268.175
242.308
6220.99
3481.23
2057.53
1252.19
812.897
564.714
420.259
333.147
278.343
243.989
10747.1
5351.28
2878.33
1610.57
978.86
644.296
460.275
354.612
289.925
250.462
17346.6
7666.85
3761.56
1939.13
1105.25
689.183
472.664
353.787
284.447
243.626
25222.4
9947.92
4496.96
2165.95
1178.91
709.716
476.418
352.878
281.944
240.951
32104.1
11242.5
4659.41
2095.22
1100.71
652.79
441.618
333.009
272.803
238.107
23544.5
7367.34
2961.86
1443.43
906.155
663.599
542.633
472.679
427.919
401.457
5789.07
5660.54
5561.79
5497.89
5453.8
5424.92
5404.21
5389.35
5378.14
5368.66
4567.58
4566.35
4565.11
4564.14
4563.56
4563.32
4563.34
4563.72
4564.63
4565.47
412.728
382.966
356.67
334.886
318.458
306.414
297.565
290.935
285.857
282.609
637.767
512.552
411.731
334.519
279.763
241.962
216.079
198.177
185.239
176.182
1287.3
926.093
666.279
486.305
369.854
294.973
246.642
214.943
193.469
179.269
2276.16
1481.75
973.411
652.898
462.87
348.846
279.643
236.709
208.352
189.98
3814.34
2241.02
1346.92
830.658
548.863
390.264
299.442
245.701
212.123
191.243
5703.74
3044.39
1696.34
978.34
614.798
420.828
314.962
254.784
217.684
194.945
7460.62
3599.89
1861.23
1012.36
616.775
417.077
313.396
255.929
221.79
201.023
5662.38
2637.07
1436.19
904.153
665.896
539.389
466.866
421.215
389.976
371.106
5535.68
5459.63
5394.36
5347.96
5314.04
5289.79
5271.53
5257.82
5247.24
5238.43
4444.79
4444.91
4445.2
4445.68
4446.28
4446.91
4447.57
4448.37
4449.58
4451.02
277.886
274.889
271.417
267.992
264.974
262.414
260.261
258.413
256.79
255.486
225.926
210.878
194.964
180.654
169.147
160.378
153.853
148.965
145.037
142.076
373.14
321.834
273.241
233.345
203.639
182.284
167.102
156.245
148.28
142.754
613.201
488.041
382.075
302.912
248.82
212.621
188.488
172.251
160.537
152.457
1013.14
737.755
529.289
386.6
296.647
240.223
204.683
181.852
166.427
156.307
1522.14
1022.71
681.31
465.943
339.924
265.201
220.361
192.772
174.284
162.241
2045.51
1267
790.208
514.302
364.937
280.922
232.64
203.528
184.883
172.96
1814.4
1182.38
824.913
628.736
519.811
452.695
409.128
379.521
357.939
344.659
5303.34
5261.69
5221.85
5189.96
5164.53
5144.8
5129.22
5117.07
5107.46
5099.58
4322.52
4322.79
4323.24
4323.84
4324.53
4325.22
4325.87
4326.63
4327.77
4329.22
244.175
244.014
243.667
243.198
242.683
242.149
241.601
241.016
240.374
239.617
140.671
138.603
136.041
133.465
131.202
129.349
127.884
126.701
125.585
124.654
176.557
168.272
158.71
149.715
142.178
136.161
131.445
127.754
124.826
122.728
241.579
220.117
197.594
178.253
163.323
152.234
144.105
138.162
133.436
129.973
355.627
303.667
254.575
215.797
187.999
168.571
155.052
145.574
138.636
133.883
503.853
404.347
318.117
255.351
213.453
185.773
167.408
155.119
146.113
139.901
681.128
513.4
382.534
294.842
240.144
205.646
183.59
169.092
159.112
152.472
826.666
675.201
559.134
481.2
428.731
391.951
365.447
346.195
331.331
322.027
5091.78
5069.9
5046.1
5024.51
5005.81
4990.28
4977.47
4967.12
4958.74
4951.97
4195.42
4195.63
4195.97
4196.42
4196.94
4197.44
4197.91
4198.47
4199.4
4200.66
230.441
230.669
230.774
230.786
230.728
230.604
230.41
230.124
229.721
229.084
118.339
118.071
117.707
117.305
116.937
116.634
116.405
116.208
115.927
115.638
126.158
124.612
122.561
120.39
118.365
116.582
115.051
113.751
112.652
111.858
146.602
142.549
137.535
132.672
128.478
125.038
122.287
120.124
118.22
116.742
183.562
172.777
160.744
149.914
141.153
134.337
129.116
125.144
122.024
119.833
231.573
210.503
188.327
169.881
155.901
145.594
138.049
132.589
128.225
125.06
302.86
263.978
227.247
198.861
178.536
164.159
153.998
146.779
141.495
137.891
515.49
472.596
430.215
396.141
369.329
348.454
332.07
319.47
309.235
302.745
4892.53
4880.77
4866.39
4851.94
4838.52
4826.71
4816.58
4808.13
4801.1
4795.51
4061.88
4062.02
4062.23
4062.53
4062.87
4063.19
4063.46
4063.81
4064.51
4065.56
221.791
222.057
222.205
222.275
222.282
222.224
222.094
221.864
221.499
220.867
110.951
110.94
110.928
110.913
110.91
110.929
110.97
111.005
110.952
110.856
110.388
110.046
109.543
108.952
108.349
107.773
107.239
106.755
106.327
106.022
117.934
117.077
115.871
114.565
113.325
112.221
111.277
110.492
109.72
109.08
132.022
129.423
126.187
122.906
119.953
117.43
115.336
113.634
112.222
111.225
150.422
145.53
139.433
133.686
128.788
124.801