/*--------------------------------*- C++ -*----------------------------------*\
| =========                 |                                                 |
| \\      /  F ield         | foam-extend: Open Source CFD                    |
|  \\    /   O peration     | Version:     4.0                                |
|   \\  /    A nd           | Web:         http://www.foam-extend.org         |
|    \\/     M anipulation  |                                                 |
\*---------------------------------------------------------------------------*/
FoamFile
{
    version     2.0;
    format      ascii;
    class       surfaceScalarField;
    location    "2800";
    object      phi;
}
// * * * * * * * * * * * * * * * * * * * * * * * * * * * * * * * * * * * * * //

dimensions      [1 0 -1 0 0 0 0];

internalField   nonuniform List<scalar> 
97302
(
-0.000109786
9.51721e-07
-0.000869496
0.000878772
-0.0001196
1.14105e-06
-0.000870499
0.000879172
-0.000129523
1.20017e-06
-0.000871024
0.000879747
-0.000140125
1.1382e-06
-0.000871063
0.000880527
-0.000152232
9.46095e-07
-0.000870611
0.000881772
-0.000167325
6.13726e-07
-0.000869444
0.000883923
-0.000188496
1.14616e-07
-0.000866957
0.000888013
-0.000222747
-5.95542e-07
-0.00086133
0.000896177
-0.000271325
-1.63912e-06
-0.000851542
0.000901759
-4.39603e-06
-0.000824042
-0.000352996
0.000910109
-0.000150901
1.60326e-06
-0.00116596
0.00117606
-0.000161173
1.96553e-06
-0.00116691
0.00117636
-0.000171518
2.08406e-06
-0.0011675
0.00117697
-0.000182473
1.99209e-06
-0.00116753
0.00117763
-0.000194834
1.67463e-06
-0.00116673
0.00117836
-0.000210314
1.12041e-06
-0.00116472
0.0011797
-0.000232766
2.71849e-07
-0.00116113
0.00118342
-0.000271568
-9.66221e-07
-0.00115433
0.00119351
-0.00032835
-2.89676e-06
-0.00114203
0.00120007
-7.45964e-06
-0.00110414
-0.000432769
0.00121162
-0.000191208
1.89677e-06
-0.00146133
0.00147218
-0.000201778
2.39296e-06
-0.00146234
0.00147248
-0.000212297
2.57448e-06
-0.00146296
0.00147299
-0.000223274
2.49804e-06
-0.00146276
0.00147323
-0.000235634
2.14555e-06
-0.00146141
0.0014733
-0.000251511
1.50641e-06
-0.00145874
0.00147423
-0.000275388
5.01406e-07
-0.00145486
0.00147851
-0.000318359
-9.67908e-07
-0.00144829
0.00149126
-0.000381693
-3.3533e-06
-0.00143513
0.00149892
-9.13492e-06
-0.00138641
-0.000500693
0.00150709
-0.000231437
2.08631e-06
-0.00175271
0.00176398
-0.000242301
2.72221e-06
-0.00175394
0.00176448
-0.000253115
2.98248e-06
-0.00175482
0.00176522
-0.000264406
2.94691e-06
-0.00175482
0.00176566
-0.000277164
2.58675e-06
-0.00175364
0.00176596
-0.000293713
1.89323e-06
-0.00175121
0.00176737
-0.000318864
7.64055e-07
-0.00174765
0.00177253
-0.00036497
-8.92372e-07
-0.00174142
0.00178745
-0.000432991
-3.6797e-06
-0.00172781
0.00179616
-1.06289e-05
-0.00166796
-0.000560755
0.00179722
-0.000271569
2.31902e-06
-0.00204524
0.00205669
-0.000282602
3.02424e-06
-0.00204685
0.00205758
-0.000293586
3.32227e-06
-0.00204823
0.00205887
-0.000305071
3.30296e-06
-0.0020487
0.00205983
-0.000318118
2.93531e-06
-0.00204805
0.00206075
-0.000335169
2.2102e-06
-0.00204624
0.00206298
-0.000361326
1.01107e-06
-0.00204332
0.00206924
-0.000409968
-7.45987e-07
-0.00203779
0.00208628
-0.000481932
-3.81463e-06
-0.00202453
0.00209663
-1.18635e-05
-0.00195288
-0.000615169
0.00208735
-0.000312271
2.4047e-06
-0.00233637
0.00234812
-0.000323408
3.13549e-06
-0.00233843
0.00234946
-0.000334459
3.42137e-06
-0.0023402
0.00235116
-0.000346003
3.37438e-06
-0.00234109
0.00235256
-0.00035915
2.97247e-06
-0.00234096
0.00235407
-0.000376428
2.21537e-06
-0.00233991
0.00235718
-0.000403211
9.85224e-07
-0.00233791
0.00236472
-0.000453747
-7.84196e-07
-0.00233348
0.00238406
-0.000529016
-3.91229e-06
-0.00232173
0.0023971
-1.28331e-05
-0.00223797
-0.000665773
0.0023757
-0.000352796
2.38397e-06
-0.00262733
0.0026392
-0.000363875
3.02251e-06
-0.00262998
0.00264118
-0.00037485
3.23754e-06
-0.00263232
0.00264348
-0.000386304
3.10462e-06
-0.00263367
0.0026454
-0.000399399
2.6286e-06
-0.00263412
0.00264756
-0.000416696
1.8021e-06
-0.00263388
0.00265159
-0.000443818
5.61278e-07
-0.00263302
0.00266057
-0.000495694
-1.10945e-06
-0.00263019
0.00268239
-0.000573748
-3.86111e-06
-0.0026211
0.0026991
-1.29895e-05
-0.002525
-0.00071251
0.00266392
-0.000394592
2.02496e-06
-0.00291886
0.00293116
-0.000405723
2.47427e-06
-0.00292211
0.00293379
-0.000416697
2.5029e-06
-0.00292456
0.00293627
-0.000428101
2.16412e-06
-0.00292585
0.0029382
-0.000441062
1.49404e-06
-0.0029262
0.00294029
-0.000458083
4.90754e-07
-0.00292612
0.00294445
-0.000484931
-8.17505e-07
-0.00292596
0.00295419
-0.000536998
-2.35994e-06
-0.00292457
0.00297789
-0.000616519
-4.14943e-06
-0.00291883
0.00299864
-1.21412e-05
-0.00281223
-0.00075568
0.00295055
-0.000435788
1.06844e-06
-0.00320674
0.00321918
-0.000446493
1.13589e-06
-0.00321085
0.00322289
-0.000457073
8.44962e-07
-0.00321391
0.00322615
-0.000468174
1.11372e-07
-0.00321582
0.00322898
-0.000480963
-9.48087e-07
-0.00321696
0.00323219
-0.000497828
-2.30816e-06
-0.00321788
0.00323755
-0.00052453
-3.7832e-06
-0.00321914
0.0032488
-0.000576323
-5.09812e-06
-0.00322004
0.00327457
-0.000655776
-5.50567e-06
-0.00321668
0.00329749
-1.01951e-05
-0.00309932
-0.000792426
0.00323402
-0.0004772
-0.00347532
0.00348833
-0.000488545
-0.00347892
0.0034914
-0.000499734
-0.00347963
0.00349166
-0.000511446
-0.00347707
0.00348889
-0.000524721
-0.00347191
0.00348424
-0.000541688
-0.00346522
0.00347987
-0.00056758
-0.00345815
0.00348026
-0.000616584
-0.00345221
0.00349612
-0.000689675
-0.0034486
0.00351618
-0.00333961
-0.000818674
0.00345842
1.43957e-05
8.89058e-07
-0.00086104
5.31245e-06
1.11369e-06
-0.000862529
-3.79159e-06
1.19442e-06
-0.000863115
-1.31001e-05
1.13674e-06
-0.000862891
-2.28123e-05
9.30741e-07
-0.000861829
-3.31464e-05
5.58067e-07
-0.000859668
-4.42495e-05
-1.54258e-08
-0.000855838
-5.55406e-05
-8.68529e-07
-0.000849171
-6.62354e-05
-2.19714e-06
-0.00083865
-3.96815e-06
-0.000822397
-6.39128e-05
1.54089e-05
1.514e-06
-0.00115611
5.39052e-06
1.93023e-06
-0.00115771
-4.61743e-06
2.08392e-06
-0.00115839
-1.49323e-05
2.00469e-06
-0.00115808
-2.58193e-05
1.67065e-06
-0.00115658
-3.76409e-05
1.05953e-06
-0.0011534
-5.12338e-05
1.09557e-07
-0.00114766
-6.76412e-05
-1.29543e-06
-0.0011375
-8.82616e-05
-3.54252e-06
-0.00112007
-6.6086e-06
-0.00109112
-9.86423e-05
1.67379e-05
1.82496e-06
-0.00145028
6.00706e-06
2.38896e-06
-0.00145207
-4.6311e-06
2.61247e-06
-0.00145285
-1.55085e-05
2.5502e-06
-0.00145242
-2.6963e-05
2.16904e-06
-0.00145045
-3.97283e-05
1.44536e-06
-0.00144636
-5.55499e-05
2.87188e-07
-0.00143922
-7.71568e-05
-1.42742e-06
-0.00142655
-0.000108636
-4.2833e-06
-0.00140291
-8.39565e-06
-0.00135938
-0.000133882
1.79544e-05
2.03326e-06
-0.00174097
6.73995e-06
2.75457e-06
-0.00174309
-4.38352e-06
3.06555e-06
-0.00174415
-1.58115e-05
3.04943e-06
-0.00174389
-2.79997e-05
2.65882e-06
-0.00174194
-4.19398e-05
1.87214e-06
-0.0017377
-5.99425e-05
5.56748e-07
-0.00172991
-8.61301e-05
-1.40097e-06
-0.00171526
-0.000128053
-4.79423e-06
-0.00168538
-9.90554e-06
-0.00162551
-0.000168998
1.90693e-05
2.27955e-06
-0.0020331
7.56848e-06
3.07954e-06
-0.00203567
-3.83548e-06
3.43437e-06
-0.00203719
-1.5599e-05
3.44052e-06
-0.00203733
-2.83157e-05
3.04654e-06
-0.00203572
-4.31631e-05
2.23031e-06
-0.00203175
-6.29174e-05
8.20113e-07
-0.00202383
-9.29969e-05
-1.28797e-06
-0.00200782
-0.000144892
-5.07589e-06
-0.00197236
-1.10637e-05
-0.00189522
-0.000201392
1.97735e-05
2.39791e-06
-0.00232381
8.09546e-06
3.23255e-06
-0.0023269
-3.43919e-06
3.58292e-06
-0.00232882
-1.53454e-05
3.57173e-06
-0.00232932
-2.83369e-05
3.15456e-06
-0.00232808
-4.37547e-05
2.31922e-06
-0.00232458
-6.48032e-05
8.74085e-07
-0.00231692
-9.80695e-05
-1.27473e-06
-0.00230023
-0.000159356
-5.20845e-06
-0.00226031
-1.18827e-05
-0.00216571
-0.000230799
2.01859e-05
2.36895e-06
-0.0026145
8.5306e-06
3.10978e-06
-0.00261821
-2.95379e-06
3.3946e-06
-0.00262065
-1.4799e-05
3.31023e-06
-0.00262157
-2.78485e-05
2.8517e-06
-0.00262077
-4.3554e-05
1.98966e-06
-0.00261785
-6.54984e-05
5.48642e-07
-0.00261075
-0.000101308
-1.56509e-06
-0.00259409
-0.000171275
-5.24578e-06
-0.00255109
-1.22483e-05
-0.00243911
-0.000256801
1.99276e-05
2.03402e-06
-0.00290561
8.27062e-06
2.58934e-06
-0.00290993
-3.10725e-06
2.71812e-06
-0.0029125
-1.47855e-05
2.48062e-06
-0.00291335
-2.76628e-05
1.90771e-06
-0.00291238
-4.32647e-05
9.66411e-07
-0.0029095
-6.5474e-05
-4.35603e-07
-0.00290277
-0.000102751
-2.40735e-06
-0.00288645
-0.000180119
-5.22058e-06
-0.00284148
-1.18989e-05
-0.00271328
-0.000279418
1.93973e-05
1.07398e-06
-0.00319322
8.21026e-06
1.21887e-06
-0.00319829
-2.66302e-06
1.05884e-06
-0.00320138
-1.38331e-05
4.74255e-07
-0.00320265
-2.63531e-05
-4.03916e-07
-0.00320212
-4.18591e-05
-1.58501e-06
-0.00319983
-6.44382e-05
-3.01061e-06
-0.00319398
-0.00010304
-4.67519e-06
-0.00317917
-0.000186368
-6.14895e-06
-0.00313242
-1.00752e-05
-0.00298565
-0.00030186
1.82419e-05
-0.00346152
6.80341e-06
-0.00346626
-4.11905e-06
-0.00346765
-1.52138e-05
-0.0034655
-2.7421e-05
-0.00346011
-4.23451e-05
-0.00345188
-6.39064e-05
-0.0034396
-0.000101289
-0.00341951
-0.000186016
-0.00337002
-0.0032157
-0.000320006
1.20259e-05
7.777e-07
-0.000854369
4.42318e-06
1.01774e-06
-0.000855944
-3.29474e-06
1.10575e-06
-0.000856502
-1.10378e-05
1.04129e-06
-0.00085619
-1.86828e-05
8.17796e-07
-0.000855002
-2.59847e-05
4.19468e-07
-0.000852786
-3.23915e-05
-1.75709e-07
-0.000849256
-3.65994e-05
-1.00565e-06
-0.000843957
-3.67275e-05
-2.1541e-06
-0.000836367
-3.4323e-06
-0.000826722
-2.89702e-05
1.3878e-05
1.36221e-06
-0.0011476
4.85241e-06
1.80235e-06
-0.00114947
-4.23419e-06
1.9654e-06
-0.00115016
-1.34727e-05
1.87474e-06
-0.00114968
-2.28693e-05
1.50885e-06
-0.00114788
-3.2273e-05
8.43174e-07
-0.00114442
-4.12831e-05
-1.75723e-07
-0.00113865
-4.87474e-05
-1.62035e-06
-0.00112942
-5.22014e-05
-3.70577e-06
-0.00111506
-6.12788e-06
-0.00109587
-4.47546e-05
1.59824e-05
1.70849e-06
-0.00144012
5.78021e-06
2.30357e-06
-0.00144237
-4.41649e-06
2.53713e-06
-0.00144323
-1.4803e-05
2.45689e-06
-0.00144262
-2.54748e-05
2.02486e-06
-0.0014403
-3.64948e-05
1.20583e-06
-0.0014357
-4.7977e-05
-9.50659e-08
-0.00142782
-5.94529e-05
-1.97564e-06
-0.00141472
-6.8512e-05
-4.84576e-06
-0.00139271
-8.36565e-06
-0.00136071
-6.49449e-05
1.76322e-05
1.96739e-06
-0.00172977
6.6408e-06
2.73087e-06
-0.00173253
-4.34197e-06
3.054e-06
-0.00173368
-1.5627e-05
3.01531e-06
-0.00173316
-2.74601e-05
2.56072e-06
-0.00173064
-4.01708e-05
1.65255e-06
-0.00172543
-5.43203e-05
1.42796e-07
-0.001716
-7.01001e-05
-2.08918e-06
-0.00169937
-8.5801e-05
-5.70584e-06
-0.00166882
-1.03345e-05
-0.00162111
-8.8232e-05
1.90373e-05
2.2589e-06
-0.00202122
7.53703e-06
3.10786e-06
-0.00202455
-3.93403e-06
3.47885e-06
-0.00202615
-1.57947e-05
3.46363e-06
-0.00202591
-2.84701e-05
3.00329e-06
-0.00202349
-4.25424e-05
2.05591e-06
-0.00201808
-5.90246e-05
4.18346e-07
-0.00200763
-7.8906e-05
-2.05824e-06
-0.00198797
-0.000101936
-6.3016e-06
-0.00194873
-1.19699e-05
-0.0018834
-0.000112116
1.99752e-05
2.42626e-06
-0.00231133
8.13818e-06
3.31426e-06
-0.00231527
-3.61591e-06
3.68539e-06
-0.00231727
-1.57999e-05
3.66027e-06
-0.00231733
-2.89967e-05
3.18247e-06
-0.00231506
-4.40384e-05
2.21862e-06
-0.0023097
-6.24245e-05
5.35462e-07
-0.00229865
-8.6049e-05
-2.03924e-06
-0.00227662
-0.000116871
-6.63807e-06
-0.00222916
-1.31799e-05
-0.00214515
-0.000136227
2.05272e-05
2.42068e-06
-0.00260159
8.60964e-06
3.21477e-06
-0.00260619
-3.18683e-06
3.52629e-06
-0.00260869
-1.54208e-05
3.44135e-06
-0.00260911
-2.88415e-05
2.94674e-06
-0.00260711
-4.4491e-05
1.99629e-06
-0.00260197
-6.43532e-05
3.54433e-07
-0.00259071
-9.12584e-05
-2.20155e-06
-0.00256702
-0.000129976
-6.766e-06
-0.00251225
-1.3949e-05
-0.00240905
-0.000159273
2.0351e-05
2.09701e-06
-0.00289221
8.40309e-06
2.70181e-06
-0.00289747
-3.3098e-06
2.87401e-06
-0.00290014
-1.54092e-05
2.6769e-06
-0.00290048
-2.87392e-05
2.12632e-06
-0.00289823
-4.4531e-05
1.1756e-06
-0.00289288
-6.52373e-05
-3.27178e-07
-0.00288138
-9.45837e-05
-2.64743e-06
-0.00285666
-0.000140685
-6.40214e-06
-0.00279575
-1.3738e-05
-0.0026736
-0.000180578
1.97379e-05
1.15079e-06
-0.0031795
8.24277e-06
1.32814e-06
-0.00318542
-2.96993e-06
1.24797e-06
-0.00318854
-1.45265e-05
7.72697e-07
-0.00318919
-2.74287e-05
2.58801e-08
-0.00318712
-4.31508e-05
-1.01347e-06
-0.00318191
-6.46506e-05
-2.33681e-06
-0.00317047
-9.64406e-05
-4.09053e-06
-0.00314594
-0.000148897
-6.37115e-06
-0.00308
-1.15129e-05
-0.00293619
-0.000200578
1.85758e-05
-0.00344765
6.99864e-06
-0.00345336
-4.10586e-06
-0.00345529
-1.54476e-05
-0.00345339
-2.79187e-05
-0.00344761
-4.30036e-05
-0.00343781
-6.37008e-05
-0.00342124
-9.54115e-05
-0.00339189
-0.00015068
-0.00332112
-0.00316254
-0.000215349
9.33368e-06
6.08792e-07
-0.000849538
3.46345e-06
8.5232e-07
-0.000850926
-2.58789e-06
9.44436e-07
-0.000851396
-8.54703e-06
8.78363e-07
-0.000851109
-1.41072e-05
6.52702e-07
-0.000850095
-1.88456e-05
2.58568e-07
-0.000848306
-2.21201e-05
-3.10979e-07
-0.00084567
-2.28923e-05
-1.05812e-06
-0.000842127
-1.95793e-05
-1.97933e-06
-0.000837701
-2.86299e-06
-0.000832856
-1.05823e-05
1.17248e-05
1.11611e-06
-0.00114077
4.10692e-06
1.56649e-06
-0.00114257
-3.63963e-06
1.73475e-06
-0.0011432
-1.13772e-05
1.63663e-06
-0.0011427
-1.88896e-05
1.25495e-06
-0.00114097
-2.57879e-05
5.71696e-07
-0.00113784
-3.13125e-05
-4.44622e-07
-0.00113299
-3.39459e-05
-1.81616e-06
-0.00112603
-3.08494e-05
-3.60296e-06
-0.00111654
-5.418e-06
-0.00110601
-1.81518e-05
1.44341e-05
1.48734e-06
-0.00143135
5.25738e-06
2.09886e-06
-0.00143372
-3.98595e-06
2.33528e-06
-0.00143459
-1.32964e-05
2.23449e-06
-0.00143391
-2.25677e-05
1.76019e-06
-0.00143153
-3.15048e-05
8.77712e-07
-0.00142707
-3.94303e-05
-4.90401e-07
-0.00141985
-4.47344e-05
-2.39692e-06
-0.00140883
-4.3491e-05
-5.03592e-06
-0.00139252
-7.89309e-06
-0.00137302
-2.87078e-05
1.65211e-05
1.79881e-06
-0.00171967
6.22573e-06
2.59135e-06
-0.00172273
-4.13286e-06
2.91827e-06
-0.00172391
-1.4692e-05
2.84908e-06
-0.00172322
-2.54968e-05
2.33016e-06
-0.00172041
-3.64584e-05
1.31955e-06
-0.00171491
-4.71094e-05
-3.18813e-07
-0.00170552
-5.58656e-05
-2.6773e-06
-0.00169033
-5.78753e-05
-6.1781e-06
-0.00166566
-1.01733e-05
-0.00163382
-4.28842e-05
1.82718e-05
2.14135e-06
-0.00201014
7.19072e-06
3.02867e-06
-0.0020139
-3.92256e-06
3.4073e-06
-0.00201552
-1.53443e-05
3.35874e-06
-0.002015
-2.73116e-05
2.82251e-06
-0.00201201
-3.99858e-05
1.74734e-06
-0.00200584
-5.32041e-05
-6.74883e-08
-0.00199466
-6.55998e-05
-2.76783e-06
-0.00197548
-7.19266e-05
-7.05467e-06
-0.00194153
-1.21922e-05
-0.00189468
-5.86281e-05
1.95043e-05
2.3689e-06
-0.0022994
7.8731e-06
3.30136e-06
-0.00230392
-3.73282e-06
3.68494e-06
-0.00230594
-1.57157e-05
3.63251e-06
-0.00230562
-2.84893e-05
3.08118e-06
-0.00230255
-4.24905e-05
1.98328e-06
-0.00229593
-5.7959e-05
9.4512e-08
-0.00228334
-7.39575e-05
-2.78319e-06
-0.00226061
-8.55259e-05
-7.607e-06
-0.00221704
-1.37665e-05
-0.0021533
-7.58002e-05
2.02608e-05
2.40737e-06
-0.00258903
8.39406e-06
3.24747e-06
-0.00259427
-3.40147e-06
3.57679e-06
-0.00259679
-1.56064e-05
3.4757e-06
-0.00259675
-2.88218e-05
2.92175e-06
-0.00259374
-4.37449e-05
1.85715e-06
-0.00258692
-6.1076e-05
2.21389e-08
-0.0025733
-8.04485e-05
-2.86668e-06
-0.00254757
-9.78695e-05
-7.85514e-06
-0.00249458
-1.48965e-05
-0.00241266
-9.31304e-05
2.02409e-05
2.112e-06
-0.00287906
8.27138e-06
2.75949e-06
-0.00288501
-3.51531e-06
2.96185e-06
-0.00288774
-1.56848e-05
2.78391e-06
-0.00288762
-2.89512e-05
2.22365e-06
-0.00288426
-4.42604e-05
1.22638e-06
-0.00287694
-6.284e-05
-4.01336e-07
-0.00286237
-8.50382e-05
-3.02063e-06
-0.00283431
-0.000108507
-7.33059e-06
-0.0027728
-1.48306e-05
-0.00267209
-0.00011009
1.96932e-05
1.19973e-06
-0.00316593
8.11841e-06
1.40488e-06
-0.00317249
-3.22946e-06
1.38963e-06
-0.00317562
-1.49166e-05
9.99339e-07
-0.00317571
-2.77959e-05
3.45905e-07
-0.00317236
-4.30467e-05
-6.07571e-07
-0.00316483
-6.25185e-05
-1.89513e-06
-0.00314951
-8.76699e-05
-3.75198e-06
-0.00312006
-0.000117051
-6.49576e-06
-0.00305145
-1.22158e-05
-0.00292921
-0.000126645
1.86059e-05
-0.00343398
7.07054e-06
-0.00344042
-4.05823e-06
-0.00344278
-1.54505e-05
-0.00344099
-2.78757e-05
-0.00343484
-4.25532e-05
-0.00342374
-6.14333e-05
-0.00340425
-8.70674e-05
-0.00337
-0.000119681
-0.003295
-0.00315504
-0.000139403
6.84917e-06
4.23774e-07
-0.000846192
2.5747e-06
6.54357e-07
-0.000847306
-1.89888e-06
7.45046e-07
-0.000847667
-6.24116e-06
6.8271e-07
-0.000847449
-1.01075e-05
4.7088e-07
-0.000846699
-1.30929e-05
1.08656e-07
-0.000845429
-1.47038e-05
-3.95544e-07
-0.000843664
-1.43362e-05
-1.02042e-06
-0.000841474
-1.13196e-05
-1.72027e-06
-0.000838997
-2.32863e-06
-0.000836483
-5.36403e-06
9.38713e-06
8.21757e-07
-0.00113556
3.29719e-06
1.26141e-06
-0.00113708
-2.96879e-06
1.42809e-06
-0.00113762
-9.13087e-06
1.32896e-06
-0.00113718
-1.48465e-05
9.52616e-07
-0.00113573
-1.96462e-05
2.92372e-07
-0.00113322
-2.28143e-05
-6.56839e-07
-0.00112956
-2.32474e-05
-1.87316e-06
-0.00112474
-1.92824e-05
-3.31348e-06
-0.00111891
-4.63231e-06
-0.00111323
-9.76443e-06
1.24559e-05
1.18763e-06
-0.00142418
4.59114e-06
1.79574e-06
-0.00142639
-3.40658e-06
2.0287e-06
-0.00142719
-1.13544e-05
1.91236e-06
-0.00142654
-1.89771e-05
1.41572e-06
-0.00142437
-2.58026e-05
5.14253e-07
-0.00142047
-3.09546e-05
-8.38368e-07
-0.00141451
-3.28544e-05
-2.6444e-06
-0.00140616
-2.86145e-05
-4.92395e-06
-0.00139515
-7.1403e-06
-0.00138374
-1.53859e-05
1.48905e-05
1.53345e-06
-0.00171098
5.6389e-06
2.33894e-06
-0.00171402
-3.75176e-06
2.66416e-06
-0.00171515
-1.32152e-05
2.56662e-06
-0.00171441
-2.25873e-05
1.99764e-06
-0.00171162
-3.15024e-05
9.21738e-07
-0.0017064
-3.90682e-05
-7.63693e-07
-0.00169803
-4.33522e-05
-3.1008e-06
-0.00168559
-4.00334e-05
-6.26956e-06
-0.00166764
-9.53693e-06
-0.00164761
-2.38428e-05
1.69727e-05
1.91899e-06
-0.00200021
6.6664e-06
2.83259e-06
-0.00200409
-3.74496e-06
3.214e-06
-0.00200566
-1.43387e-05
3.13083e-06
-0.00200497
-2.5121e-05
2.52526e-06
-0.00200176
-3.59145e-05
1.34656e-06
-0.00199547
-4.59411e-05
-5.7607e-07
-0.00198482
-5.30691e-05
-3.34553e-06
-0.00196811
-5.16608e-05
-7.37598e-06
-0.00194183
-1.17701e-05
-0.00191047
-3.36386e-05
1.85158e-05
2.20704e-06
-0.00228843
7.42994e-06
3.17596e-06
-0.00229317
-3.70344e-06
3.56788e-06
-0.00229516
-1.51055e-05
3.48429e-06
-0.00229457
-2.69533e-05
2.85988e-06
-0.00229103
-3.93133e-05
1.64064e-06
-0.00228387
-5.1659e-05
-3.98914e-07
-0.00227118
-6.18719e-05
-3.43153e-06
-0.00225031
-6.3368e-05
-8.12158e-06
-0.00221479
-1.35877e-05
-0.00216984
-4.50066e-05
1.95093e-05
2.30269e-06
-0.00257721
8.00637e-06
3.18501e-06
-0.00258277
-3.49325e-06
3.52936e-06
-0.00258525
-1.53157e-05
3.40771e-06
-0.00258485
-2.78318e-05
2.78988e-06
-0.00258115
-4.13655e-05
1.60933e-06
-0.00257336
-5.57438e-05
-3.88919e-07
-0.00255894
-6.90373e-05
-3.47931e-06
-0.00253423
-7.42164e-05
-8.48641e-06
-0.00248903
-1.49511e-05
-0.00242865
-5.68547e-05
1.96921e-05
2.04664e-06
-0.00286651
7.98119e-06
2.73762e-06
-0.00287285
-3.61884e-06
2.96586e-06
-0.00287557
-1.55464e-05
2.79874e-06
-0.00287509
-2.8298e-05
2.21752e-06
-0.00287094
-4.2452e-05
1.15896e-06
-0.00286234
-5.83085e-05
-5.88926e-07
-0.00284632
-7.43919e-05
-3.40829e-06
-0.0028183
-8.38711e-05
-7.91059e-06
-0.0027639
-1.50074e-05
-0.00268686
-6.90449e-05
1.92696e-05
1.19974e-06
-0.00315284
7.86636e-06
1.43347e-06
-0.00315978
-3.38707e-06
1.47509e-06
-0.00316288
-1.49379e-05
1.15385e-06
-0.00316252
-2.74304e-05
5.70666e-07
-0.00315822
-4.16494e-05
-3.27205e-07
-0.00314912
-5.8393e-05
-1.60663e-06
-0.00313174
-7.72892e-05
-3.53823e-06
-0.00310103
-9.15603e-05
-6.47533e-06
-0.00303862
-1.2078e-05
-0.00294222
-8.14821e-05
1.82913e-05
-0.00342081
7.00144e-06
-0.00342769
-3.96655e-06
-0.00343033
-1.51895e-05
-0.00342862
-2.72614e-05
-0.0034222
-4.10524e-05
-0.00341027
-5.75076e-05
-0.00338941
-7.70925e-05
-0.00335396
-9.41522e-05
-0.00328442
-0.00317041
-9.08523e-05
4.81643e-06
2.50801e-07
-0.000843933
1.84256e-06
4.55477e-07
-0.000844788
-1.31467e-06
5.39828e-07
-0.00084505
-4.34629e-06
4.85292e-07
-0.000844903
-6.94564e-06
2.99276e-07
-0.000844399
-8.79005e-06
-1.32217e-08
-0.000843571
-9.55037e-06
-4.33907e-07
-0.00084247
-8.91207e-06
-9.30806e-07
-0.000841182
-6.64593e-06
-1.44751e-06
-0.000839816
-1.866e-06
-0.000838417
-2.84597e-06
7.16924e-06
5.20574e-07
-0.00113173
2.51916e-06
9.28796e-07
-0.00113291
-2.32272e-06
1.0868e-06
-0.00113332
-7.02499e-06
9.93548e-07
-0.00113299
-1.1215e-05
6.43209e-07
-0.00113189
-1.44513e-05
4.02844e-08
-0.00113004
-1.61746e-05
-7.98686e-07
-0.00112747
-1.57043e-05
-1.82536e-06
-0.00112432
-1.22592e-05
-2.95134e-06
-0.00112085
-3.90757e-06
-0.00111779
-5.65211e-06
1.03344e-05
8.48351e-07
-0.00141854
3.86883e-06
1.42947e-06
-0.00142043
-2.77481e-06
1.65163e-06
-0.00142111
-9.29145e-06
1.52811e-06
-0.00142056
-1.53073e-05
1.03478e-06
-0.00141875
-2.03022e-05
1.61551e-07
-0.0014156
-2.34788e-05
-1.1037e-06
-0.00141103
-2.36622e-05
-2.72141e-06
-0.00140508
-1.91471e-05
-4.61231e-06
-0.001398
-6.3128e-06
-0.00139139
-9.09064e-06
1.29532e-05
1.1998e-06
-0.00170381
4.94835e-06
1.99598e-06
-0.00170658
-3.26106e-06
2.31285e-06
-0.0017076
-1.14352e-05
2.19445e-06
-0.0017069
-1.92469e-05
1.60032e-06
-0.00170437
-2.61813e-05
5.08868e-07
-0.00169982
-3.12794e-05
-1.13836e-06
-0.0016929
-3.28877e-05
-3.33042e-06
-0.00168337
-2.80244e-05
-6.07358e-06
-0.00167104
-8.68511e-06
-0.00165872
-1.45454e-05
1.52828e-05
1.60967e-06
-0.00199166
6.01545e-06
2.53026e-06
-0.00199536
-3.42936e-06
2.90833e-06
-0.00199681
-1.2932e-05
2.79547e-06
-0.00199607
-2.22881e-05
2.14067e-06
-0.00199294
-3.10799e-05
9.02815e-07
-0.00198707
-3.82934e-05
-1.0413e-06
-0.0019777
-4.18768e-05
-3.73475e-06
-0.00196412
-3.7398e-05
-7.345e-06
-0.00194504
-1.09849e-05
-0.0019247
-2.08734e-05
1.71001e-05
1.94816e-06
-0.00227867
6.84773e-06
2.93872e-06
-0.00228333
-3.5306e-06
3.3337e-06
-0.00228521
-1.40554e-05
3.2207e-06
-0.00228447
-2.46645e-05
2.5368e-06
-0.00228082
-3.51117e-05
1.23116e-06
-0.00227375
-4.44662e-05
-8.7937e-07
-0.00226198
-5.04416e-05
-3.91214e-06
-0.00224416
-4.72131e-05
-8.2379e-06
-0.00221713
-1.29079e-05
-0.00218662
-2.85173e-05
1.83246e-05
2.10614e-06
-0.00256643
7.47597e-06
3.02138e-06
-0.00257201
-3.44806e-06
3.37707e-06
-0.00257437
-1.45843e-05
3.23514e-06
-0.00257373
-2.60514e-05
2.56167e-06
-0.00256971
-3.78169e-05
1.28906e-06
-0.00256165
-4.91489e-05
-8.0816e-07
-0.00254768
-5.76869e-05
-3.95129e-06
-0.00252565
-5.64448e-05
-8.68909e-06
-0.00248982
-1.43506e-05
-0.00244717
-3.64852e-05
1.87297e-05
1.89541e-06
-0.00285486
7.55171e-06
2.6267e-06
-0.00286128
-3.59982e-06
2.87626e-06
-0.00286392
-1.49954e-05
2.71474e-06
-0.00286317
-2.68835e-05
2.11032e-06
-0.0028586
-3.94579e-05
9.98137e-07
-0.00284947
-5.23275e-05
-8.26814e-07
-0.00283343
-6.33401e-05
-3.71002e-06
-0.00280752
-6.48618e-05
-8.098e-06
-0.00276297
-1.44351e-05
-0.00270666
-4.49759e-05
1.84646e-05
1.14403e-06
-0.00314055
7.4891e-06
1.40476e-06
-0.00314759
-3.42723e-06
1.49474e-06
-0.00315058
-1.45709e-05
1.22798e-06
-0.00314989
-2.63524e-05
6.96215e-07
-0.00314503
-3.91569e-05
-1.64445e-07
-0.00313516
-5.29371e-05
-1.4383e-06
-0.00311735
-6.63028e-05
-3.37878e-06
-0.003088
-7.12608e-05
-6.28894e-06
-0.00303547
-1.12878e-05
-0.00296302
-5.36122e-05
1.76238e-05
-0.00340842
6.79104e-06
-0.00341546
-3.81545e-06
-0.00341823
-1.46391e-05
-0.00341657
-2.60689e-05
-0.00341007
-3.86065e-05
-0.0033979
-5.23918e-05
-0.00337706
-6.65667e-05
-0.00334316
-7.36967e-05
-0.00328358
-0.00319582
-5.95779e-05
3.29099e-06
1.06902e-07
-0.000842409
1.28804e-06
2.78653e-07
-0.000843064
-8.66486e-07
3.535e-07
-0.000843249
-2.92019e-06
3.08816e-07
-0.000843158
-4.63259e-06
1.54634e-07
-0.000842841
-5.77056e-06
-1.01016e-07
-0.000842332
-6.12985e-06
-4.35541e-07
-0.000841675
-5.55921e-06
-8.15651e-07
-0.000840937
-4.01132e-06
-1.18932e-06
-0.000840175
-1.47563e-06
-0.000839307
-1.64567e-06
5.24902e-06
2.44469e-07
-0.00112897
1.83115e-06
6.05667e-07
-0.00112982
-1.76731e-06
7.49163e-07
-0.00113012
-5.22961e-06
6.67137e-07
-0.00112988
-8.21497e-06
3.58227e-07
-0.00112911
-1.03601e-05
-1.64758e-07
-0.00112783
-1.12714e-05
-8.71741e-07
-0.00112613
-1.05667e-05
-1.70305e-06
-0.00112414
-7.94657e-06
-2.56197e-06
-0.0011221
-3.25267e-06
-0.00112043
-3.53708e-06
8.28503e-06
5.07093e-07
-0.00141424
3.15585e-06
1.03865e-06
-0.00141573
-2.1683e-06
1.24263e-06
-0.00141628
-7.33239e-06
1.12068e-06
-0.00141585
-1.19358e-05
6.5537e-07
-0.00141444
-1.5492e-05
-1.49421e-07
-0.00141206
-1.73729e-05
-1.27776e-06
-0.00140874
-1.68205e-05
-2.66162e-06
-0.00140468
-1.29825e-05
-4.17781e-06
-0.00140023
-5.46953e-06
-0.00139638
-5.77699e-06
1.09001e-05
8.33081e-07
-0.00169809
4.20946e-06
1.59456e-06
-0.00170045
-2.72866e-06
1.89524e-06
-0.00170132
-9.56161e-06
1.76581e-06
-0.00170071
-1.58696e-05
1.17548e-06
-0.00169858
-2.10948e-05
1.1946e-07
-0.00169486
-2.4388e-05
-1.41737e-06
-0.00168947
-2.4546e-05
-3.3791e-06
-0.0016825
-1.98144e-05
-5.66777e-06
-0.00167428
-7.72307e-06
-0.00166674
-9.5404e-06
1.33485e-05
1.24209e-06
-0.00198454
5.27992e-06
2.1444e-06
-0.00198784
-3.02422e-06
2.51115e-06
-0.00198912
-1.12884e-05
2.37728e-06
-0.00198842
-1.91567e-05
1.70145e-06
-0.0019856
-2.60807e-05
4.58477e-07
-0.00198049
-3.1047e-05
-1.4214e-06
-0.00197273
-3.24057e-05
-3.92087e-06
-0.00196222
-2.72132e-05
-7.02982e-06
-0.00194887
-9.98177e-06
-0.00193583
-1.38201e-05
1.53598e-05
1.61252e-06
-0.00227027
6.15669e-06
2.60263e-06
-0.00227458
-3.24375e-06
2.99322e-06
-0.00227629
-1.26809e-05
2.8566e-06
-0.00227551
-2.18964e-05
2.13653e-06
-0.00227204
-3.04299e-05
7.93952e-07
-0.00226555
-3.72138e-05
-1.29852e-06
-0.00225532
-4.02436e-05
-4.19094e-06
-0.00224086
-3.52499e-05
-8.01257e-06
-0.00222114
-1.18944e-05
-0.0022008
-1.91549e-05
1.67724e-05
1.82947e-06
-0.00255692
6.82291e-06
2.76098e-06
-0.00256222
-3.28021e-06
3.12201e-06
-0.0025644
-1.34849e-05
2.96325e-06
-0.00256363
-2.36837e-05
2.2515e-06
-0.00255963
-3.35638e-05
9.26971e-07
-0.0025519
-4.21058e-05
-1.18828e-06
-0.00253924
-4.70694e-05
-4.23727e-06
-0.00252064
-4.28698e-05
-8.50857e-06
-0.00249353
-1.32799e-05
-0.00246409
-2.45661e-05
1.73927e-05
1.66349e-06
-0.00284436
6.99491e-06
2.42557e-06
-0.00285055
-3.46366e-06
2.69019e-06
-0.00285303
-1.40728e-05
2.5316e-06
-0.00285213
-2.48457e-05
1.90922e-06
-0.00284748
-3.56491e-05
7.6433e-07
-0.00283851
-4.56548e-05
-1.08008e-06
-0.00282353
-5.2616e-05
-3.88966e-06
-0.00280091
-4.99888e-05
-7.91751e-06
-0.00276619
-1.32843e-05
-0.00272615
-3.04917e-05
1.72974e-05
1.03259e-06
-0.00312932
6.99053e-06
1.31501e-06
-0.00313617
-3.35209e-06
1.44415e-06
-0.00313899
-1.38373e-05
1.21944e-06
-0.00313809
-2.46464e-05
7.26153e-07
-0.00313304
-3.58165e-05
-1.042e-07
-0.00312312
-4.67385e-05
-1.35906e-06
-0.00310615
-5.55503e-05
-3.2393e-06
-0.00307983
-5.51161e-05
-5.9553e-06
-0.00303786
-1.01072e-05
-0.00298517
-3.61374e-05
1.66148e-05
-0.00339708
6.44327e-06
-0.00340397
-3.60042e-06
-0.00340674
-1.38042e-05
-0.00340514
-2.4348e-05
-0.0033988
-3.53958e-05
-0.00338695
-4.65287e-05
-0.00336728
-5.61806e-05
-0.00333675
-5.73758e-05
-0.00328834
-0.00322362
-3.96873e-05
2.21187e-06
-1.59355e-09
-0.000841366
8.93557e-07
1.36235e-07
-0.000841882
-5.42975e-07
2.00466e-07
-0.000842013
-1.90623e-06
1.65865e-07
-0.000841961
-3.02093e-06
4.40627e-08
-0.000841771
-3.72702e-06
-1.56256e-07
-0.00084147
-3.90064e-06
-4.12425e-07
-0.000841089
-3.47112e-06
-6.94915e-07
-0.000840671
-2.44937e-06
-9.61253e-07
-0.000840235
-1.15652e-06
-0.00083963
-9.69412e-07
3.69414e-06
1.27478e-08
-0.00112699
1.26089e-06
3.18883e-07
-0.00112757
-1.32606e-06
4.4437e-07
-0.00112778
-3.79932e-06
3.76565e-07
-0.00112762
-5.87774e-06
1.17194e-07
-0.0011271
-7.28497e-06
-3.16506e-07
-0.00112626
-7.75928e-06
-8.88836e-07
-0.00112518
-7.09731e-06
-1.53965e-06
-0.00112395
-5.21296e-06
-2.18131e-06
-0.00112276
-2.67459e-06
-0.00112183
-2.29043e-06
6.44964e-06
1.93464e-07
-0.00141101
2.50228e-06
6.58201e-07
-0.00141212
-1.63128e-06
8.3797e-07
-0.00141254
-5.60409e-06
7.24762e-07
-0.00141223
-9.04155e-06
3.06433e-07
-0.00141119
-1.15315e-05
-4.02868e-07
-0.00140948
-1.26146e-05
-1.36869e-06
-0.00140718
-1.18349e-05
-2.51009e-06
-0.00140449
-8.82528e-06
-3.69443e-06
-0.00140172
-4.66006e-06
-0.00139947
-3.7468e-06
8.89271e-06
4.67374e-07
-0.00169366
3.47484e-06
1.17013e-06
-0.00169554
-2.20628e-06
1.44683e-06
-0.00169625
-7.74966e-06
1.31616e-06
-0.00169576
-1.27103e-05
7.56773e-07
-0.00169407
-1.65609e-05
-2.20546e-07
-0.00169119
-1.86212e-05
-1.59689e-06
-0.00168718
-1.80877e-05
-3.28604e-06
-0.00168226
-1.40467e-05
-5.13986e-06
-0.00167688
-6.72586e-06
-0.00167227
-6.45172e-06
1.13191e-05
8.48772e-07
-0.00197877
4.50701e-06
1.70534e-06
-0.00198156
-2.57555e-06
2.05185e-06
-0.00198264
-9.55504e-06
1.90725e-06
-0.00198203
-1.59937e-05
1.24099e-06
-0.00197965
-2.13085e-05
4.59987e-08
-0.00197544
-2.46097e-05
-1.69876e-06
-0.00196933
-2.46919e-05
-3.92661e-06
-0.0019615
-1.98184e-05
-6.5174e-06
-0.00195236
-8.85835e-06
-0.00194406
-9.45595e-06
1.34188e-05
1.2277e-06
-0.00226326
5.39572e-06
2.19038e-06
-0.00226705
-2.87792e-06
2.5675e-06
-0.00226853
-1.11043e-05
2.41569e-06
-0.0022678
-1.88931e-05
1.68822e-06
-0.0022647
-2.56755e-05
3.63144e-07
-0.00225909
-3.04246e-05
-1.6292e-06
-0.00225064
-3.15583e-05
-4.27486e-06
-0.00223938
-2.63096e-05
-7.52981e-06
-0.00222538
-1.06711e-05
-0.00221196
-1.33376e-05
1.49473e-05
1.49254e-06
-0.00254878
6.07683e-06
2.41753e-06
-0.00255357
-3.01361e-06
2.7758e-06
-0.00255551
-1.21107e-05
2.60614e-06
-0.00255473
-2.0934e-05
1.8798e-06
-0.00255099
-2.89926e-05
5.51925e-07
-0.00254403
-3.5195e-05
-1.50024e-06
-0.00253317
-3.76503e-05
-4.33572e-06
-0.00251812
-3.24408e-05
-8.03348e-06
-0.00249823
-1.19118e-05
-0.00247821
-1.70762e-05
1.57521e-05
1.36374e-06
-0.00283514
6.33312e-06
2.14095e-06
-0.00284085
-3.22557e-06
2.41283e-06
-0.00284311
-1.28463e-05
2.25708e-06
-0.00284216
-2.23471e-05
1.62874e-06
-0.00283773
-3.13616e-05
4.81993e-07
-0.00282942
-3.88667e-05
-1.31974e-06
-0.00281621
-4.28114e-05
-3.94711e-06
-0.00279735
-3.83389e-05
-7.47127e-06
-0.00277122
-1.17999e-05
-0.00274329
-2.13094e-05
1.58174e-05
8.70994e-07
-0.00311936