/*--------------------------------*- C++ -*----------------------------------*\
| =========                 |                                                 |
| \\      /  F ield         | foam-extend: Open Source CFD                    |
|  \\    /   O peration     | Version:     4.0                                |
|   \\  /    A nd           | Web:         http://www.foam-extend.org         |
|    \\/     M anipulation  |                                                 |
\*---------------------------------------------------------------------------*/
FoamFile
{
    version     2.0;
    format      ascii;
    class       volVectorField;
    location    "2800";
    object      Urel;
}
// * * * * * * * * * * * * * * * * * * * * * * * * * * * * * * * * * * * * * //

dimensions      [0 1 -1 0 0 0 0];

internalField   nonuniform List<vector> 
34480
(
(209.006 -9.79386 -19.0913)
(209.326 -9.29355 -21.5539)
(209.483 -8.56822 -23.9805)
(209.489 -7.64373 -26.414)
(209.34 -6.55889 -28.9928)
(208.998 -5.3165 -31.8924)
(208.382 -3.89685 -35.513)
(207.216 -2.18374 -40.1992)
(204.545 0.0514796 -48.1214)
(197.607 4.2558 -75.292)
(209.939 -12.8025 -26.8101)
(210.198 -11.6753 -29.5941)
(210.325 -10.3936 -32.2539)
(210.298 -8.9716 -34.8571)
(210.063 -7.44586 -37.5207)
(209.56 -5.83621 -40.4523)
(208.752 -4.16161 -44.1115)
(207.46 -2.36806 -49.2403)
(204.324 -0.294112 -58.0613)
(196.165 3.65912 -88.6315)
(210.628 -17.0999 -33.7471)
(210.862 -15.5487 -36.8324)
(210.956 -13.8203 -39.7795)
(210.886 -11.9088 -42.6023)
(210.59 -9.87004 -45.4281)
(210.063 -7.73809 -48.5136)
(209.311 -5.54048 -52.3873)
(208.167 -3.20753 -58.078)
(204.866 -0.572321 -67.7765)
(195.656 4.13227 -101.291)
(210.635 -20.4951 -41.1594)
(210.87 -18.4131 -44.5391)
(210.979 -16.1555 -47.7258)
(210.942 -13.7039 -50.7507)
(210.708 -11.1151 -53.7484)
(210.293 -8.42632 -57.005)
(209.677 -5.67004 -61.0515)
(208.697 -2.76741 -67.1365)
(205.371 0.454524 -77.4584)
(195.357 5.84599 -112.879)
(210.794 -24.972 -48.0212)
(211.059 -22.4804 -51.6783)
(211.206 -19.7753 -55.1516)
(211.23 -16.8383 -58.4263)
(211.088 -13.7452 -61.6621)
(210.809 -10.5333 -65.1568)
(210.341 -7.22953 -69.4384)
(209.544 -3.74426 -75.9425)
(206.317 0.102511 -86.932)
(195.66 6.19706 -123.872)
(210.68 -28.2267 -55.6175)
(210.955 -25.235 -59.5115)
(211.122 -22.0155 -63.1532)
(211.181 -18.5473 -66.5715)
(211.106 -14.8975 -69.9185)
(210.943 -11.1092 -73.5164)
(210.628 -7.21093 -77.8771)
(210.047 -3.11583 -84.6084)
(207.066 1.37636 -96.0829)
(196.01 8.10828 -134.171)
(210.761 -33.0088 -62.4757)
(211.077 -29.628 -66.6098)
(211.273 -25.984 -70.5012)
(211.37 -22.0659 -74.1262)
(211.354 -17.9487 -77.666)
(211.288 -13.6689 -81.4439)
(211.114 -9.23122 -85.9759)
(210.749 -4.53233 -92.9912)
(208.099 0.698983 -105.044)
(196.748 8.26176 -144.125)
(210.589 -36.1792 -70.3228)
(210.909 -32.3265 -74.664)
(211.084 -28.1646 -78.6834)
(211.14 -23.7085 -82.4175)
(211.083 -19.0116 -86.0105)
(211 -14.1313 -89.7905)
(210.871 -9.06506 -94.257)
(210.662 -3.70525 -101.229)
(208.421 2.37079 -113.47)
(197.104 10.8377 -153.055)
(210.534 -41.4427 -77.152)
(210.898 -37.2229 -81.6793)
(211.104 -32.6856 -85.8818)
(211.198 -27.8697 -89.767)
(211.192 -22.8305 -93.5202)
(211.153 -17.5978 -97.4459)
(211.093 -12.1154 -102.078)
(211.024 -6.23071 -109.204)
(209.112 0.774885 -121.818)
(197.68 10.7323 -161.342)
(209.569 -44.6439 -85.1139)
(209.843 -40.0419 -89.9224)
(209.79 -35.0029 -94.3273)
(209.431 -29.6475 -98.3967)
(208.813 -23.9894 -102.257)
(208.027 -18.0692 -106.189)
(207.158 -11.8217 -110.662)
(206.371 -5.05623 -117.278)
(204.433 2.95958 -129.041)
(194.247 14.3052 -166.631)
(205.891 1.91222 3.00056)
(206.369 1.10969 1.5439)
(206.556 0.426589 -0.00997678)
(206.473 -0.117365 -1.61008)
(206.095 -0.54648 -3.31983)
(205.333 -0.861287 -5.1516)
(203.985 -1.06589 -7.15911)
(201.62 -1.17176 -9.31733)
(198.154 -1.25685 -11.245)
(193.579 -1.15901 -14.3934)
(207.19 2.86861 2.79791)
(207.621 2.16428 1.16178)
(207.793 1.51943 -0.492273)
(207.704 0.943917 -2.18913)
(207.292 0.416544 -3.99635)
(206.437 -0.0687438 -5.97184)
(204.943 -0.527063 -8.20874)
(202.358 -0.99334 -10.9582)
(198.189 -1.58377 -14.0068)
(192.505 -1.82405 -20.5815)
(208.139 2.57764 3.30711)
(208.548 1.77158 1.54472)
(208.705 1.04491 -0.256791)
(208.606 0.422757 -2.09025)
(208.169 -0.133447 -4.02986)
(207.295 -0.63623 -6.15937)
(205.811 -1.1149 -8.66773)
(203.233 -1.58616 -12.0868)
(198.689 -2.15703 -16.3332)
(192.07 -2.07109 -26.7166)
(208.382 3.17804 3.30354)
(208.797 2.40351 1.45614)
(208.976 1.69448 -0.403429)
(208.918 1.08831 -2.29705)
(208.545 0.546488 -4.31008)
(207.773 0.0573081 -6.56894)
(206.401 -0.412347 -9.29946)
(203.916 -0.855332 -13.2587)
(199.143 -1.36348 -18.4766)
(191.71 -0.933487 -32.4541)
(208.735 2.66847 3.83838)
(209.178 1.80906 1.93577)
(209.396 1.0422 -0.020383)
(209.403 0.408637 -2.00869)
(209.121 -0.146869 -4.14619)
(208.485 -0.635609 -6.58672)
(207.264 -1.09246 -9.57247)
(204.941 -1.48859 -14.063)
(200.089 -1.90222 -20.2308)
(191.949 -1.07293 -37.6931)
(208.771 3.39312 3.6343)
(209.228 2.54124 1.71993)
(209.472 1.78363 -0.206809)
(209.521 1.16375 -2.17562)
(209.313 0.634934 -4.29774)
(208.805 0.18274 -6.7731)
(207.75 -0.22408 -9.8435)
(205.648 -0.547971 -14.6623)
(200.884 -0.830081 -21.5476)
(192.218 0.364692 -42.21)
(208.976 2.56687 4.16006)
(209.469 1.61609 2.23756)
(209.743 0.786428 0.259102)
(209.839 0.114231 -1.74957)
(209.699 -0.450683 -3.93586)
(209.306 -0.919907 -6.51578)
(208.412 -1.30996 -9.74447)
(206.556 -1.56821 -14.9178)
(201.998 -1.65619 -22.5677)
(192.908 0.00110859 -46.245)
(208.891 3.37383 3.69575)
(209.392 2.40957 1.80352)
(209.656 1.59813 -0.088211)
(209.725 0.950792 -2.02437)
(209.569 0.441195 -4.1204)
(209.197 0.0372536 -6.62283)
(208.398 -0.263958 -9.78132)
(206.762 -0.418392 -15.0053)
(202.533 -0.208109 -23.0527)
(193.316 1.83444 -49.2174)
(208.903 2.05541 4.24514)
(209.436 0.977349 2.40199)
(209.728 0.0661259 0.525991)
(209.834 -0.688947 -1.3777)
(209.735 -1.31843 -3.4807)
(209.437 -1.83476 -6.03048)
(208.759 -2.19006 -9.33541)
(207.35 -2.32163 -14.7937)
(203.46 -1.74187 -23.4885)
(193.992 1.00291 -51.498)
(207.981 2.86377 3.63694)
(208.458 1.69308 1.78958)
(208.575 0.796299 -0.0346883)
(208.362 0.0677821 -1.90547)
(207.834 -0.474204 -3.92989)
(207.026 -0.855636 -6.35387)
(205.826 -1.0133 -9.46977)
(204.024 -0.832116 -14.5641)
(200.282 0.222239 -23.038)
(191.635 4.03739 -51.3446)
(203.517 1.42792 2.33437)
(204.02 0.833582 1.21629)
(204.201 0.30255 -0.0132753)
(204.097 -0.131731 -1.26342)
(203.696 -0.482336 -2.55463)
(202.95 -0.746689 -3.83245)
(201.764 -0.934567 -5.04906)
(199.988 -1.07149 -6.0548)
(197.434 -1.24286 -6.4985)
(194.217 -1.43222 -6.5169)
(204.912 2.41431 2.31324)
(205.407 1.87198 0.946123)
(205.587 1.34569 -0.448811)
(205.464 0.855046 -1.86579)
(205 0.389957 -3.33137)
(204.111 -0.0549228 -4.84816)
(202.638 -0.492907 -6.37975)
(200.31 -0.955627 -7.86299)
(196.687 -1.55447 -8.80245)
(191.847 -2.13654 -9.81071)
(205.947 2.21208 2.94807)
(206.447 1.52889 1.39542)
(206.627 0.890681 -0.208777)
(206.502 0.327225 -1.83809)
(206.014 -0.193528 -3.53885)
(205.061 -0.6815 -5.32777)
(203.445 -1.16145 -7.21466)
(200.8 -1.66354 -9.29203)
(196.299 -2.33211 -11.0028)
(189.857 -2.91114 -13.584)
(206.344 2.89699 2.9942)
(206.866 2.22036 1.31809)
(207.072 1.57959 -0.380886)
(206.982 1.0145 -2.11238)
(206.531 0.491581 -3.94035)
(205.615 0.00108442 -5.92309)
(203.983 -0.488883 -8.10652)
(201.17 -0.995752 -10.7406)
(195.931 -1.68087 -13.2006)
(187.995 -2.16619 -17.5586)
(206.846 2.42645 3.56882)
(207.4 1.65001 1.80546)
(207.643 0.940775 -0.0195785)
(207.609 0.340574 -1.87745)
(207.228 -0.201061 -3.86954)
(206.401 -0.692628 -6.08635)
(204.828 -1.16961 -8.60264)
(201.97 -1.63804 -11.8317)
(196.184 -2.28607 -15.1301)
(186.926 -2.57765 -21.5717)
(207.012 3.20021 3.38975)
(207.585 2.41741 1.59386)
(207.855 1.70784 -0.222499)
(207.863 1.11494 -2.08444)
(207.544 0.594145 -4.0923)
(206.815 0.133116 -6.38756)
(205.342 -0.30359 -9.06306)
(202.542 -0.715529 -12.7147)
(196.409 -1.27657 -16.715)
(186.061 -1.33998 -25.3329)
(207.33 2.3905 3.93881)
(207.935 1.5029 2.11666)
(208.234 0.720203 0.231282)
(208.288 0.0785861 -1.68948)
(208.032 -0.470367 -3.78537)
(207.402 -0.934962 -6.22109)
(206.047 -1.33764 -9.12172)
(203.367 -1.66921 -13.2321)
(197.06 -2.06863 -18.0275)
(185.783 -1.7992 -28.9562)
(207.337 3.23554 3.47886)
(207.95 2.33245 1.68354)
(208.243 1.56581 -0.117619)
(208.28 0.948632 -1.97012)
(208.017 0.454352 -3.98473)
(207.414 0.0566811 -6.36734)
(206.145 -0.257212 -9.26058)
(203.617 -0.487857 -13.5544)
(197.326 -0.620551 -18.8722)
(185.387 -0.0696585 -31.8725)
(207.429 1.90357 4.03278)
(208.061 0.887436 2.27501)
(208.376 0.0349066 0.472691)
(208.441 -0.660683 -1.3616)
(208.22 -1.23123 -3.38785)
(207.68 -1.68698 -5.81521)
(206.521 -1.99263 -8.87653)
(204.188 -2.12669 -13.515)
(198.029 -1.86073 -19.6421)
(185.306 -0.799291 -34.2637)
(206.573 2.76958 3.39226)
(207.153 1.67667 1.66374)
(207.338 0.850636 -0.0526585)
(207.166 0.187344 -1.82458)
(206.629 -0.293663 -3.74855)
(205.717 -0.61538 -6.03824)
(204.201 -0.726514 -8.92242)
(201.63 -0.547161 -13.3058)
(195.609 0.217592 -19.5469)
(182.828 2.30022 -34.6944)
(201.781 0.949123 1.70179)
(202.218 0.547721 0.911408)
(202.369 0.165655 0.00789847)
(202.27 -0.157852 -0.896418)
(201.922 -0.428573 -1.80008)
(201.306 -0.641149 -2.62149)
(200.395 -0.807804 -3.29566)
(199.161 -0.952049 -3.68718)
(197.602 -1.12928 -3.58049)
(195.871 -1.36486 -2.75287)
(203.103 1.90751 1.79139)
(203.57 1.53204 0.71812)
(203.733 1.13487 -0.387728)
(203.602 0.741845 -1.49712)
(203.154 0.354164 -2.60171)
(202.344 -0.0309601 -3.67095)
(201.095 -0.424185 -4.62883)
(199.303 -0.847976 -5.34701)
(196.838 -1.37053 -5.40303)
(194.04 -1.93786 -4.6197)
(204.092 1.75992 2.50353)
(204.602 1.22005 1.20605)
(204.778 0.690229 -0.150843)
(204.636 0.20467 -1.51801)
(204.136 -0.260104 -2.91218)
(203.208 -0.712417 -4.31343)
(201.717 -1.17169 -5.65532)
(199.468 -1.66419 -6.84636)
(196.113 -2.29563 -7.29998)
(192.034 -2.99147 -6.92402)
(204.551 2.5266 2.5871)
(205.108 1.97221 1.13177)
(205.313 1.42084 -0.354589)
(205.19 0.916148 -1.86121)
(204.69 0.432918 -3.42374)
(203.723 -0.0381507 -5.0564)
(202.095 -0.526135 -6.71337)
(199.508 -1.05348 -8.37936)
(195.292 -1.7593 -9.2935)
(189.827 -2.52563 -9.54028)
(205.137 2.10103 3.20275)
(205.738 1.43201 1.62534)
(205.978 0.800264 -0.0199857)
(205.897 0.249963 -1.68743)
(205.432 -0.261406 -3.45169)
(204.489 -0.741782 -5.35628)
(202.811 -1.22413 -7.38188)
(200.008 -1.7277 -9.61125)
(195.04 -2.44201 -11.1401)
(188.235 -3.18118 -12.3679)
(205.394 2.92938 3.05269)
(206.023 2.23932 1.41838)
(206.29 1.59626 -0.243841)
(206.243 1.04568 -1.94384)
(205.817 0.548792 -3.75867)
(204.923 0.0931063 -5.7801)
(203.254 -0.359065 -8.01117)
(200.343 -0.826323 -10.6685)
(194.77 -1.50677 -12.7413)
(186.758 -2.16648 -15.1349)
(205.797 2.14608 3.63087)
(206.458 1.3432 1.94757)
(206.753 0.623375 0.194407)
(206.746 0.0242496 -1.589)
(206.368 -0.49818 -3.52107)
(205.538 -0.951706 -5.71768)
(203.916 -1.36286 -8.22171)
(200.976 -1.74466 -11.3675)
(194.945 -2.30043 -14.1235)
(185.843 -2.774 -17.9493)
(205.884 3.04183 3.18185)
(206.553 2.21935 1.51795)
(206.846 1.5109 -0.159349)
(206.828 0.933856 -1.88665)
(206.444 0.463308 -3.75591)
(205.631 0.0770077 -5.92617)
(204.048 -0.246995 -8.4676)
(201.147 -0.535973 -11.8565)
(194.857 -0.880714 -15.1101)
(184.869 -1.1939 -20.3181)
(206.044 1.7084 3.76451)
(206.724 0.77087 2.12355)
(207.034 -0.0164505 0.423867)
(207.039 -0.652876 -1.308)
(206.689 -1.16974 -3.21031)
(205.919 -1.57418 -5.43811)
(204.393 -1.84575 -8.14337)
(201.582 -1.99542 -11.8892)
(195.221 -1.94754 -15.9862)
(184.257 -1.89923 -22.3804)
(205.256 2.64801 3.10258)
(205.889 1.6452 1.51469)
(206.107 0.893047 -0.0759308)
(205.943 0.293625 -1.72676)
(205.373 -0.131745 -3.51646)
(204.349 -0.403139 -5.61281)
(202.583 -0.481757 -8.16709)
(199.582 -0.316637 -11.7257)
(193.24 0.228207 -16.0578)
(181.785 1.20164 -22.863)
(200.571 0.551131 1.19394)
(200.913 0.294928 0.666104)
(201.028 0.0340675 0.0357567)
(200.953 -0.195269 -0.583092)
(200.694 -0.396644 -1.18743)
(200.256 -0.562384 -1.69752)
(199.643 -0.702052 -2.06662)
(198.881 -0.830785 -2.20479)
(198.016 -0.975063 -2.02032)
(197.164 -1.14157 -1.42912)
(201.727 1.43454 1.31135)
(202.121 1.20005 0.510241)
(202.258 0.920766 -0.321249)
(202.144 0.622198 -1.14562)
(201.771 0.313549 -1.93592)
(201.123 -0.00392911 -2.64897)
(200.178 -0.33475 -3.21066)
(198.934 -0.688719 -3.5126)
(197.411 -1.0941 -3.32757)
(195.914 -1.51125 -2.51764)
(202.577 1.29273 2.05042)
(203.048 0.890638 1.01563)
(203.209 0.470833 -0.0833083)
(203.076 0.0690199 -1.18039)
(202.623 -0.329575 -2.26759)
(201.814 -0.72959 -3.30343)
(200.583 -1.14424 -4.20336)
(198.865 -1.59103 -4.83741)
(196.582 -2.12523 -4.81326)
(194.193 -2.69417 -3.92696)
(203.017 2.11736 2.14835)
(203.559 1.69112 0.935469)
(203.755 1.23758 -0.315495)
(203.626 0.803282 -1.57421)
(203.135 0.372932 -2.8471)
(202.225 -0.0599944 -4.11447)
(200.775 -0.519631 -5.29415)
(198.642 -1.02518 -6.27061)
(195.552 -1.66458 -6.46641)
(192.083 -2.36901 -5.60752)
(203.616 1.72877 2.79423)
(204.221 1.17897 1.43093)
(204.453 0.635803 -0.00658241)
(204.349 0.145961 -1.45389)
(203.858 -0.322845 -2.95357)
(202.908 -0.77658 -4.50654)
(201.317 -1.24376 -6.04465)
(198.86 -1.7467 -7.49225)
(194.996 -2.42628 -8.08611)
(190.379 -3.19378 -7.53433)
(203.913 2.60715 2.66957)
(204.561 2.02456 1.22685)
(204.822 1.46016 -0.251875)
(204.742 0.962274 -1.75774)
(204.264 0.500817 -3.33669)
(203.308 0.0646253 -5.02976)
(201.637 -0.383688 -6.78409)
(198.952 -0.870406 -8.60571)
(194.393 -1.55921 -9.55976)
(188.652 -2.35303 -9.45944)
(204.362 1.85339 3.2756)
(205.05 1.1511 1.76108)
(205.338 0.505823 0.169055)
(205.29 -0.0419236 -1.44486)
(204.84 -0.529019 -3.16834)
(203.907 -0.96242 -5.06306)
(202.205 -1.37093 -7.11183)
(199.37 -1.77955 -9.39675)
(194.214 -2.37966 -10.8781)
(187.39 -3.09952 -11.5021)
(204.504 2.80596 2.83928)
(205.204 2.07977 1.33389)
(205.495 1.44068 -0.193561)
(205.439 0.912184 -1.76646)
(204.98 0.473538 -3.44903)
(204.044 0.106141 -5.34441)
(202.327 -0.218587 -7.4584)
(199.42 -0.54314 -9.99069)
(193.839 -0.991205 -11.8663)
(186.055 -1.65652 -13.2454)
(204.717 1.47464 3.45727)
(205.425 0.630493 1.9586)
(205.729 -0.0843211 0.386392)
(205.692 -0.659596 -1.21512)
(205.257 -1.12417 -2.95751)
(204.348 -1.48264 -4.93718)
(202.645 -1.72717 -7.22514)
(199.715 -1.89029 -10.0745)
(193.889 -1.98182 -12.6837)
(185.057 -2.39471 -14.8184)
(203.991 2.50146 2.7747)
(204.656 1.59932 1.34466)
(204.897 0.925128 -0.103773)
(204.741 0.389857 -1.61327)
(204.154 0.0174491 -3.24031)
(203.069 -0.209339 -5.10203)
(201.2 -0.264031 -7.27269)
(198.102 -0.118996 -10.0005)
(192.174 0.260006 -12.811)
(182.634 0.640324 -15.1308)
(199.739 0.251696 0.824876)
(199.993 0.0931422 0.488404)
(200.075 -0.0795371 0.0635979)
(200.023 -0.236477 -0.342714)
(199.848 -0.382064 -0.735397)
(199.56 -0.50731 -1.0465)
(199.175 -0.61846 -1.25087)
(198.723 -0.722991 -1.29412)
(198.247 -0.831631 -1.14383)
(197.791 -0.943182 -0.777497)
(200.717 1.04046 0.910856)
(201.019 0.9111 0.336721)
(201.126 0.728247 -0.260159)
(201.038 0.512501 -0.845175)
(200.754 0.277274 -1.38649)
(200.276 0.0267923 -1.84332)
(199.612 -0.237697 -2.15829)
(198.793 -0.516761 -2.25868)
(197.885 -0.815324 -2.03778)
(197.078 -1.10362 -1.43094)
(201.39 0.861594 1.63602)
(201.788 0.575062 0.842227)
(201.926 0.25484 -0.0152832)
(201.813 -0.066027 -0.863786)
(201.436 -0.395719 -1.68089)
(200.784 -0.734726 -2.41796)
(199.839 -1.08963 -2.99864)
(198.61 -1.46911 -3.31459)
(197.136 -1.89522 -3.14387)
(195.749 -2.32523 -2.34647)
(201.758 1.71208 1.72038)
(202.246 1.40391 0.746215)
(202.423 1.04629 -0.26926)
(202.301 0.685506 -1.28318)
(201.86 0.315211 -2.28034)
(201.068 -0.0669634 -3.22109)
(199.87 -0.477683 -4.01849)
(198.23 -0.929434 -4.5453)
(196.096 -1.46847 -4.43724)
(193.954 -2.04068 -3.43905)
(202.316 1.34316 2.37749)
(202.884 0.910927 1.23663)
(203.097 0.459487 0.0179691)
(202.986 0.0360359 -1.2002)
(202.514 -0.381481 -2.43267)
(201.634 -0.79569 -3.64945)
(200.239 -1.22833 -4.76371)
(198.235 -1.69891 -5.64697)
(195.416 -2.29711 -5.7744)
(192.408 -2.962 -4.76565)
(202.61 2.25829 2.26783)
(203.236 1.7873 1.03185)
(203.482 1.30766 -0.246586)
(203.383 0.869479 -1.54193)
(202.897 0.452107 -2.87083)
(201.964 0.0473457 -4.23245)
(200.423 -0.377608 -5.54365)
(198.122 -0.849197 -6.712)
(194.641 -1.48309 -7.04639)
(190.724 -2.22634 -6.09533)
(203.07 1.53073 2.89453)
(203.747 0.936772 1.56773)
(204.02 0.373386 0.156794)
(203.945 -0.116301 -1.26717)
(203.464 -0.560783 -2.76059)
(202.51 -0.965102 -4.33686)
(200.874 -1.35693 -5.93765)
(198.341 -1.76593 -7.50452)
(194.246 -2.34314 -8.22477)
(189.396 -3.07466 -7.55855)
(203.24 2.54059 2.46826)
(203.937 1.92023 1.14018)
(204.218 1.35844 -0.217936)
(204.135 0.885186 -1.61531)
(203.639 0.485209 -3.08705)
(202.659 0.144012 -4.68431)
(200.957 -0.168882 -6.36136)
(198.267 -0.501225 -8.14045)
(193.685 -0.973317 -9.13444)
(187.954 -1.71692 -8.79333)
(203.488 1.21048 3.12311)
(204.196 0.469754 1.78553)
(204.487 -0.167021 0.360789)
(204.418 -0.679445 -1.08806)
(203.935 -1.09254 -2.64478)
(202.963 -1.40836 -4.35252)
(201.236 -1.62841 -6.21897)
(198.442 -1.79477 -8.27891)
(193.523 -1.95811 -9.8322)
(186.815 -2.51403 -9.9144)
(202.813 2.33616 2.41846)
(203.482 1.54218 1.15874)
(203.733 0.949059 -0.134033)
(203.582 0.478215 -1.48549)
(202.994 0.156471 -2.92838)
(201.899 -0.0308378 -4.53214)
(200.048 -0.0680763 -6.30676)
(197.093 0.055598 -8.29695)
(191.995 0.313711 -9.98368)
(184.568 0.412593 -10.0824)
(199.165 0.0421392 0.576353)
(199.35 -0.0565623 0.369754)
(199.406 -0.170403 0.0876268)
(199.374 -0.275791 -0.172448)
(199.263 -0.379248 -0.425538)
(199.085 -0.471383 -0.616465)
(198.855 -0.556047 -0.736409)
(198.596 -0.635511 -0.752734)
(198.335 -0.712783 -0.658274)
(198.074 -0.784012 -0.451624)
(199.987 0.740724 0.599016)
(200.205 0.682404 0.200223)
(200.283 0.572095 -0.211222)
(200.22 0.423606 -0.609828)
(200.019 0.251745 -0.966821)
(199.689 0.0622011 -1.2503)
(199.247 -0.139685 -1.42133)
(198.73 -0.349553 -1.43692)
(198.196 -0.562271 -1.25227)
(197.758 -0.754252 -0.850815)
(200.485 0.495538 1.28422)
(200.798 0.296444 0.694322)
(200.909 0.0590978 0.0457385)
(200.82 -0.189314 -0.591082)
(200.528 -0.453044 -1.18891)
(200.034 -0.729362 -1.70221)
(199.348 -1.01953 -2.07147)
(198.506 -1.32476 -2.2226)
(197.579 -1.64852 -2.04286)
(196.775 -1.95759 -1.47322)
(200.757 1.3421 1.33064)
(201.169 1.13258 0.573941)
(201.319 0.861574 -0.222744)
(201.215 0.57188 -1.01235)
(200.845 0.263727 -1.76785)
(200.199 -0.061295 -2.44286)
(199.265 -0.411765 -2.96163)
(198.062 -0.792647 -3.22039)
(196.637 -1.22214 -3.01373)
(195.324 -1.65795 -2.193)
(201.238 0.972707 1.97817)
(201.741 0.646462 1.05177)
(201.928 0.283083 0.0480789)
(201.823 -0.0725314 -0.948055)
(201.401 -0.433686 -1.93193)
(200.638 -0.799292 -2.85721)
(199.486 -1.18345 -3.63817)
(197.931 -1.59945 -4.14865)
(195.952 -2.09687 -4.06603)
(194.019 -2.62779 -3.11848)
(201.497 1.90628 1.86993)
(202.07 1.54177 0.841979)
(202.292 1.14716 -0.231733)
(202.189 0.772195 -1.31393)
(201.731 0.404882 -2.39862)
(200.88 0.0407288 -3.45751)
(199.546 -0.345474 -4.39854)
(197.675 -0.775051 -5.09976)
(195.127 -1.3199 -5.10524)
(192.504 -1.94567 -4.03102)
(201.938 1.19698 2.5064)
(202.573 0.71111 1.37479)
(202.824 0.232248 0.155119)
(202.735 -0.195324 -1.06965)
(202.262 -0.591714 -2.32911)
(201.356 -0.959284 -3.60164)
(199.882 -1.32164 -4.80837)
(197.74 -1.70678 -5.82717)
(194.631 -2.22171 -6.09921)
(191.266 -2.86455 -5.07339)
(202.11 2.25997 2.08453)
(202.774 1.74817 0.943375)
(203.037 1.26777 -0.233656)
(202.94 0.854142 -1.44322)
(202.442 0.497877 -2.69431)
(201.488 0.188616 -3.9975)
(199.91 -0.102006 -5.27598)
(197.561 -0.417625 -6.4533)
(193.978 -0.857823 -6.88314)
(189.88 -1.53911 -5.92329)
(202.378 0.926456 2.77514)
(203.058 0.293492 1.60956)
(203.331 -0.262301 0.345874)
(203.243 -0.71117 -0.935485)
(202.747 -1.07366 -2.29248)
(201.781 -1.34941 -3.72571)
(200.147 -1.54596 -5.20101)
(197.646 -1.70589 -6.629)
(193.705 -1.88953 -7.46374)
(188.791 -2.41859 -6.70006)
(201.741 2.16026 2.04525)
(202.387 1.47794 0.962281)
(202.636 0.967421 -0.165713)
(202.492 0.560753 -1.34766)
(201.924 0.287418 -2.59386)
(200.867 0.13497 -3.93394)
(199.132 0.110294 -5.33125)
(196.475 0.213105 -6.7145)
(192.319 0.384838 -7.61551)
(186.787 0.372407 -6.78108)
(198.759 -0.0984943 0.417772)
(198.896 -0.162718 0.295553)
(198.934 -0.239678 0.107027)
(198.915 -0.310312 -0.0578469)
(198.848 -0.383467 -0.222987)
(198.743 -0.449989 -0.343347)
(198.609 -0.512438 -0.420362)
(198.463 -0.570396 -0.432977)
(198.317 -0.623672 -0.383266)
(198.15 -0.668231 -0.273327)
(199.463 0.530713 0.367246)
(199.611 0.516954 0.0967034)
(199.665 0.457876 -0.176589)
(199.623 0.360822 -0.437994)
(199.489 0.240402 -0.664913)
(199.271 0.102614 -0.835115)
(198.989 -0.0453412 -0.924326)
(198.671 -0.197138 -0.908709)
(198.359 -0.344776 -0.771814)
(198.117 -0.470613 -0.513375)
(199.805 0.204908 1.00204)
(200.038 0.0667324 0.574547)
(200.122 -0.10601 0.0960895)
(200.057 -0.293435 -0.370785)
(199.843 -0.498093 -0.800168)
(199.488 -0.715625 -1.15462)
(199.011 -0.943915 -1.39157)
(198.452 -1.17944 -1.46532)
(197.876 -1.41709 -1.32177)
(197.406 -1.63211 -0.946306)
(199.982 1.02646 0.994555)
(200.311 0.892932 0.424429)
(200.432 0.695128 -0.180684)
(200.349 0.470023 -0.776294)
(200.056 0.221839 -1.33176)
(199.557 -0.0450316 -1.80321)
(198.861 -0.332421 -2.13148)
(198.009 -0.639436 -2.24268)
(197.075 -0.96777 -2.02958)
(196.271 -1.28562 -1.42349)
(200.369 0.639179 1.61501)
(200.791 0.401542 0.88326)
(200.949 0.117565 0.0789753)
(200.858 -0.172775 -0.713872)
(200.502 -0.476207 -1.4795)
(199.876 -0.788476 -2.16742)
(198.969 -1.11699 -2.70374)
(197.809 -1.468 -2.98659)
(196.453 -1.86397 -2.83143)
(195.218 -2.26677 -2.08453)
(200.573 1.57169 1.49514)
(201.072 1.30161 0.664695)
(201.265 0.987254 -0.21106)
(201.168 0.675492 -1.08917)
(200.762 0.361293 -1.94901)
(200.029 0.0436941 -2.74881)
(198.93 -0.294028 -3.40237)
(197.471 -0.666017 -3.79555)
(195.657 -1.10999 -3.64696)
(193.921 -1.60335 -2.7122)
(200.977 0.870673 2.12902)
(201.546 0.485737 1.18914)
(201.769 0.0894726 0.161005)
(201.677 -0.274839 -0.865983)
(201.24 -0.619866 -1.90117)
(200.428 -0.945101 -2.90244)
(199.168 -1.26869 -3.78745)
(197.434 -1.61284 -4.42103)
(195.149 -2.04657 -4.44744)
(192.849 -2.56755 -3.45687)
(201.127 1.97915 1.70435)
(201.734 1.57218 0.750229)
(201.972 1.17318 -0.242408)
(201.87 0.820981 -1.26113)
(201.401 0.511534 -2.29432)
(200.524 0.238302 -3.32552)
(199.138 -0.0225258 -4.26586)
(197.18 -0.305818 -5.00177)
(194.477 -0.683601 -5.08971)
(191.604 -1.24164 -4.02932)
(201.403 0.634425 2.42786)
(202.032 0.10777 1.43665)
(202.28 -0.367109 0.340271)
(202.184 -0.753145 -0.767089)
(201.705 -1.06635 -1.92179)
(200.799 -1.30417 -3.09464)
(199.335 -1.47733 -4.22895)
(197.207 -1.62394 -5.18396)
(194.167 -1.79831 -5.56507)
(190.666 -2.23198 -4.57254)
(200.79 1.98328 1.66779)
(201.391 1.41181 0.761353)
(201.627 0.983323 -0.198148)
(201.493 0.639595 -1.20546)
(200.963 0.412114 -2.2518)
(199.986 0.290281 -3.33739)
(198.433 0.27458 -4.39691)
(196.157 0.358304 -5.31038)
(192.902 0.468958 -5.695)
(188.926 0.424344 -4.59117)
(198.46 -0.191753 0.321273)
(198.567 -0.236978 0.252211)
(198.592 -0.291956 0.122486)
(198.582 -0.340121 0.0170226)
(198.543 -0.392361 -0.094563)
(198.483 -0.440065 -0.174414)
(198.407 -0.485279 -0.229687)
(198.325 -0.526525 -0.245343)
(198.241 -0.562572 -0.226318)
(198.122 -0.589998 -0.173601)
(199.082 0.396312 0.199418)
(199.179 0.408986 0.0190353)
(199.215 0.384402 -0.155807)
(199.189 0.324885 -0.320396)
(199.102 0.244169 -0.458597)
(198.965 0.14792 -0.556191)
(198.789 0.0434047 -0.598978)
(198.598 -0.0628577 -0.574078)
(198.416 -0.163134 -0.477324)
(198.28 -0.244462 -0.311623)
(199.297 -0.0129337 0.785425)
(199.463 -0.111509 0.481363)
(199.523 -0.236454 0.134743)
(199.478 -0.37511 -0.202083)
(199.328 -0.529733 -0.507354)
(199.083 -0.69584 -0.752843)
(198.764 -0.869574 -0.909794)
(198.402 -1.04535 -0.952066)
(198.047 -1.21541 -0.854309)
(197.771 -1.36178 -0.621799)
(199.394 0.772735 0.717073)
(199.644 0.693836 0.299577)
(199.738 0.554553 -0.145925)
(199.675 0.385115 -0.581623)
(199.454 0.191564 -0.978616)
(199.085 -0.0201703 -1.30019)
(198.587 -0.247569 -1.50354)
(198.001 -0.486216 -1.54014)
(197.395 -0.729926 -1.35772)
(196.902 -0.955059 -0.93154)
(199.685 0.356121 1.29886)
(200.023 0.187975 0.73519)
(200.15 -0.0281235 0.10695)
(200.076 -0.258851 -0.508558)
(199.791 -0.506548 -1.09112)
(199.301 -0.764884 -1.59404)
(198.615 -1.0364 -1.95892)
(197.777 -1.32145 -2.11244)
(196.862 -1.62672 -1.95419)
(196.077 -1.92103 -1.41125)
(199.825 1.2698 1.15767)
(200.241 1.07824 0.505672)
(200.402 0.835639 -0.187861)
(200.318 0.583907 -0.879837)
(199.977 0.322934 -1.54232)
(199.375 0.0545068 -2.13057)
(198.507 -0.230267 -2.57195)
(197.408 -0.539144 -2.77556)
(196.142 -0.88669 -2.57469)
(195.003 -1.25722 -1.84128)
(200.182 0.567749 1.77724)
(200.672 0.27172 1.01654)
(200.862 -0.0476962 0.171311)
(200.777 -0.350454 -0.668495)
(200.394 -0.64326 -1.49885)
(199.702 -0.923054 -2.2693)
(198.671 -1.20265 -2.90499)
(197.318 -1.49698 -3.28526)
(195.677 -1.847 -3.19659)
(194.125 -2.24538 -2.37602)
(200.294 1.7122 1.34259)
(200.826 1.40098 0.567039)
(201.034 1.07965 -0.24612)
(200.937 0.78804 -1.07972)
(200.516 0.526442 -1.90799)
(199.749 0.291547 -2.69978)
(198.585 0.0652505 -3.36782)
(197.018 -0.178073 -3.80028)
(195.032 -0.485335 -3.70296)
(193.052 -0.910354 -2.75644)
(200.569 0.346112 2.0953)
(201.13 -0.0808684 1.27275)
(201.348 -0.477958 0.342408)
(201.253 -0.803551 -0.592758)
(200.815 -1.06952 -1.55273)
(200.007 -1.27151 -2.49086)
(198.754 -1.42126 -3.34288)
(197.018 -1.55009 -3.96244)
(194.741 -1.70149 -4.08202)
(192.304 -2.03016 -3.14716)
(199.969 1.81517 1.29871)
(200.506 1.34963 0.562046)
(200.721 1.00025 -0.231134)
(200.6 0.716967 -1.06539)
(200.123 0.532284 -1.91751)
(199.258 0.437127 -2.76897)
(197.924 0.427791 -3.54128)
(196.053 0.494876 -4.10949)
(193.583 0.562946 -4.17923)
(190.809 0.519248 -3.11543)
(198.232 -0.255799 0.265839)
(198.319 -0.290738 0.229538)
(198.337 -0.333191 0.135467)
(198.332 -0.367323 0.0657984)
(198.31 -0.405648 -0.0140078)
(198.276 -0.440134 -0.0711392)
(198.233 -0.472746 -0.11548)
(198.187 -0.501779 -0.135259)
(198.137 -0.525869 -0.13599)
(198.043 -0.542313 -0.116915)
(198.8 0.320932 0.0782125)
(198.862 0.348771 -0.0403055)
(198.886 0.346678 -0.147108)
(198.87 0.313628 -0.245252)
(198.816 0.262387 -0.324159)
(198.731 0.197936 -0.375332)
(198.625 0.126642 -0.390986)
(198.511 0.0543484 -0.363989)
(198.405 -0.012594 -0.29527)
(198.326 -0.064642 -0.185937)
(198.916 -0.167978 0.624917)
(199.028 -0.242229 0.411067)
(199.07 -0.333247 0.162485)
(199.04 -0.434566 -0.078748)
(198.939 -0.548825 -0.29561)
(198.777 -0.672395 -0.468025)
(198.569 -0.800827 -0.577344)
(198.34 -0.928349 -0.609501)
(198.123 -1.04745 -0.552197)
(197.96 -1.14552 -0.417668)
(198.954 0.579848 0.495806)
(199.137 0.537834 0.198404)
(199.207 0.443195 -0.119652)
(199.161 0.319594 -0.428804)
(199.002 0.173371 -0.704644)
(198.739 0.0109995 -0.918878)
(198.393 -0.163018 -1.04216)
(198 -0.342738 -1.04428)
(197.611 -0.519491 -0.902053)
(197.308 -0.676233 -0.609703)
(199.156 0.129443 1.03352)
(199.416 0.0128682 0.608893)
(199.515 -0.147792 0.12948)
(199.457 -0.326535 -0.337741)
(199.239 -0.523119 -0.772496)
(198.87 -0.730458 -1.13574)
(198.37 -0.94785 -1.38416)
(197.781 -1.17189 -1.46911)
(197.172 -1.40163 -1.33823)
(196.674 -1.61137 -0.963663)
(199.235 1.00976 0.866126)
(199.568 0.879703 0.368462)
(199.697 0.698202 -0.16466)
(199.627 0.500856 -0.694168)
(199.353 0.290553 -1.19043)
(198.88 0.070891 -1.61234)
(198.22 -0.160909 -1.90292)
(197.417 -0.408002 -1.99706)
(196.547 -0.671572 -1.79857)
(195.805 -0.940688 -1.25424)
(199.543 0.300172 1.46163)
(199.948 0.0784921 0.861083)
(200.106 -0.17254 0.183104)
(200.031 -0.41791 -0.487087)
(199.711 -0.659994 -1.13802)
(199.147 -0.893828 -1.71956)
(198.335 -1.12797 -2.16946)
(197.314 -1.37036 -2.3923)
(196.156 -1.64414 -2.2674)
(195.12 -1.93652 -1.63858)
(199.605 1.47062 1.01132)
(200.053 1.24248 0.399038)
(200.228 0.992045 -0.246688)
(200.141 0.757758 -0.908247)
(199.781 0.54299 -1.55198)
(199.139 0.346868 -2.14158)
(198.2 0.15725 -2.59941)
(196.989 -0.043818 -2.83415)
(195.562 -0.284667 -2.65421)
(194.219 -0.59479 -1.88852)
(199.876 0.0717174 1.78968)
(200.359 -0.266192 1.12321)
(200.545 -0.591332 0.350728)
(200.458 -0.860553 -0.4215)
(200.075 -1.08224 -1.20235)
(199.386 -1.25077 -1.93801)
(198.356 -1.37755 -2.56668)
(196.99 -1.48632 -2.95999)
(195.327 -1.60995 -2.94808)
(193.664 -1.84764 -2.17772)
(199.279 1.66538 0.949163)
(199.741 1.29739 0.369853)
(199.929 1.02194 -0.264852)
(199.823 0.795287 -0.933944)
(199.41 0.649786 -1.60485)
(198.672 0.57764 -2.24967)
(197.57 0.572808 -2.78836)
(196.088 0.625863 -3.1146)
(194.265 0.664536 -3.01089)
(192.377 0.633192 -2.10692)
(198.051 -0.304374 0.237548)
(198.126 -0.333751 0.220993)
(198.139 -0.369447 0.147724)
(198.137 -0.395146 0.0987478)
(198.125 -0.424539 0.0372707)
(198.105 -0.450107 -0.00769745)
(198.081 -0.473909 -0.0468948)
(198.055 -0.494355 -0.0705257)
(198.024 -0.510285 -0.0839962)
(197.945 -0.519621 -0.0851082)
(198.587 0.289424 -0.0112746)
(198.626 0.326112 -0.0878382)
(198.642 0.338394 -0.148359)
(198.632 0.323631 -0.20147)
(198.6 0.293656 -0.240955)
(198.549 0.252597 -0.262)
(198.485 0.205685 -0.260764)
(198.418 0.157765 -0.23298)
(198.355 0.113652 -0.181739)
(198.308 0.0805486 -0.10515)
(198.624 -0.273114 0.509447)
(198.699 -0.333063 0.359339)
(198.726 -0.400721 0.181142)
(198.707 -0.474521 0.00779695)
(198.641 -0.5577 -0.147803)
(198.536 -0.647615 -0.272107)
(198.404 -0.740175 -0.353212)
(198.262 -0.830343 -0.384051)
(198.131 -0.911974 -0.357696)
(198.035 -0.976475 -0.288265)
(198.63 0.441148 0.323997)
(198.758 0.422572 0.118183)
(198.808 0.360658 -0.101766)
(198.777 0.273337 -0.314206)
(198.666 0.166408 -0.500176)
(198.485 0.046024 -0.638975)
(198.252 -0.0829102 -0.71138)
(197.993 -0.214325 -0.699085)
(197.746 -0.33981 -0.593722)
(197.559 -0.4476 -0.395092)