/*--------------------------------*- C++ -*----------------------------------*\
| =========                 |                                                 |
| \\      /  F ield         | foam-extend: Open Source CFD                    |
|  \\    /   O peration     | Version:     4.0                                |
|   \\  /    A nd           | Web:         http://www.foam-extend.org         |
|    \\/     M anipulation  |                                                 |
\*---------------------------------------------------------------------------*/
FoamFile
{
    version     2.0;
    format      ascii;
    class       volScalarField;
    location    "2000";
    object      epsilon;
}
// * * * * * * * * * * * * * * * * * * * * * * * * * * * * * * * * * * * * * //

dimensions      [0 2 -3 0 0 0 0];

internalField   nonuniform List<scalar> 
34480
(
4930.68
4928.65
4928.55
4930.04
4933.25
4938.41
4951.03
5004.67
5194.51
5725.8
655.361
602.075
601.162
653.134
838.675
1576
5099.58
22850.5
103712
382391
618.751
523.105
509.462
569.099
809.892
1829.06
7041.71
35119.7
172538
699248
524.801
439.405
427.373
485.075
733.789
1883.38
8219.34
44412.5
232218
1.01097e+06
456.664
384.797
377.366
433.134
684.829
1927.54
9177.88
52590.6
289179
1.33359e+06
392.506
332.835
326.607
378.48
628.386
1956.27
10121.2
61044.3
350625
1.69865e+06
353.279
302.793
298.402
346.428
591.51
1962.79
10725.6
67198.1
400341
2.0227e+06
321.377
282.124
277.726
317.524
534.226
1820.53
10350.3
66982.5
412643
2.16759e+06
460.067
435.987
433.38
458.792
597.118
1410.16
6840.92
43695.5
275983
1.4985e+06
5709.08
5709.32
5714.77
5726.73
5743.55
5763.62
5787.82
5823.77
5890.17
5958.83
4856.09
4853.58
4853.09
4854.58
4858.58
4865.59
4876.72
4902.84
4965.48
5185.99
512.023
479.16
473.528
487.65
532.053
648.49
1002.81
2354.52
11801.7
103650
447.017
383.951
370.256
389.663
458.452
645.719
1229.63
3567.11
21358.9
197649
399.627
338.694
325.24
344.948
416.413
620.151
1294.42
4289.48
30235
294762
365.864
311.14
300.607
319.818
390.769
598.905
1321.8
4812.1
38716.7
396502
326.347
278.972
269.169
286.457
352.24
554.146
1294.11
5180.29
47347.6
508557
302.549
260.86
252.686
267.952
328.949
521.479
1256.19
5360.96
54214.6
607797
283.119
249.977
242.303
253.925
301.583
456.67
1074.68
4827.89
54990.2
652003
432.863
410.976
405.875
413.341
443.463
531.703
848.154
2980.62
36398.4
467531
5591.61
5587.3
5587.81
5594.45
5606.13
5620.71
5640.07
5673.08
5740.74
5913.62
4770.95
4768.55
4767.8
4768.62
4771.24
4775.38
4780.2
4790.99
4815.06
4870.11
399.869
386.426
383.764
388.524
403.658
439.024
527.073
758.598
1516.89
5758.62
308.125
276.897
270.064
279.243
309.653
379.268
550.384
1030.15
2859.64
14989.2
290.265
256.445
248.774
259.351
294.508
378.424
597.203
1279.77
4409.29
28920.8
280.866
247.911
241.465
252.422
289.532
380.316
629.018
1481.3
6140.43
47810.6
261.344
231.094
224.606
235.006
270.704
361.672
625.229
1625.57
8150.65
73152.7
250.555
222.538
216.949
226.441
260.534
349.199
617.201
1724.5
10165
101596
243.081
220.116
214.706
222.333
249.672
322.204
549.963
1594.43
11042.8
122893
402.734
386.394
382.645
388.294
408.73
461.638
607.146
1235.55
7680.56
92092.2
5481.94
5474.84
5472.55
5476.13
5484.92
5496.91
5513.42
5544.19
5616.67
5802.07
4674.93
4673.42
4673
4673.63
4675.43
4677.72
4678.72
4681.53
4688.93
4705.04
328.452
324.333
323.513
324.609
328.691
339.045
365.055
421.607
541.235
940.392
219.305
206.052
203.203
207.246
220.638
248.929
309.067
445.241
772.18
2085.97
214.437
197.718
193.786
199.309
217.265
256.754
345.537
565.527
1169.57
4141.89
217.574
199.538
195.953
202.153
222.756
269.301
379.528
675.958
1611.21
7155.64
210.716
192.772
188.736
195.128
216.356
266.435
392.099
761.653
2117.65
11600.1
208.515
190.735
187.092
193.245
214.642
266.173
401.085
827.393
2633.47
17123.9
209.989
194.715
190.994
196.288
214.36
258.913
379.809
795.202
2860.76
21850.4
375.701
363.717
360.884
365.077
380.041
417.014
508.767
782.705
2181.05
16544.5
5359.95
5352.87
5350.31
5353.37
5361.64
5374.02
5391.15
5422.01
5488.82
5632.02
4569.52
4568.84
4568.69
4569.09
4570.06
4570.77
4569.46
4568.33
4568.27
4570.03
285.507
284.768
284.669
284.438
284.434
286.168
293.404
307.383
329.728
375.968
167.9
162.883
161.843
163.262
168.295
178.516
198.299
237.438
308.136
484.265
166.468
158.744
156.785
159.283
167.538
184.772
219.569
294.211
443.15
889.823
173.917
164.609
162.678
165.769
176.217
198.555
246.035
356.464
601.422
1498.08
173.618
163.428
160.937
164.482
176.218
202.445
261.463
410.909
783.865
2435.05
176.097
165.197
162.827
166.453
179.087
207.89
275.365
457.568
966.494
3640.77
183.359
173.481
170.913
174.294
185.62
212.188
276.69
463.591
1058.63
4746.52
351.37
342.77
340.587
343.476
354.02
379.27
438.192
581.55
1009.47
3814.14
5230.28
5223.35
5220.63
5223.21
5230.83
5242.91
5259.57
5287.96
5343.64
5445.98
4455.7
4455.64
4455.72
4455.94
4456.31
4455.98
4453.96
4451.87
4450.09
4449.02
259.799
259.882
259.965
259.445
258.452
258.049
259.946
263.302
268.038
275.311
139.442
137.796
137.528
137.913
139.528
142.771
148.674
159.188
175.191
203.059
137.537
134.157
133.233
134.28
137.832
144.899
157.837
182.366
222.513
303.023
145.047
140.515
139.566
140.994
145.963
156.016
175.325
215.175
286.339
458.066
147.363
141.844
140.392
142.256
148.415
161.443
187.868
247.28
364.043
701.835
151.785
145.386
143.939
145.966
153.092
168.456
200.813
278.306
444.154
1014.1
162.275
156.175
154.5
156.579
163.407
178.667
212.141
297.461
500.425
1320.56
329.491
323.595
321.989
323.941
331.282
348.559
387.063
467.616
639.978
1290.53
5092.32
5085.79
5083.09
5085.3
5092.21
5103.49
5118.98
5143.9
5186.96
5254.22
4334.19
4334.54
4334.77
4334.87
4334.85
4333.89
4332.02
4330.02
4328.2
4326.86
243.798
243.754
243.779
243.305
242.375
241.928
242.29
243.02
244.125
245.93
123.984
123.572
123.579
123.618
124.004
124.852
126.394
128.977
132.5
137.201
120.667
119.232
118.809
119.223
120.696
123.518
128.269
136.262
147.556
163.754
126.668
124.565
124.143
124.756
127.009
131.347
138.963
152.94
174.378
210.567
129.509
126.632
125.821
126.755
129.861
136.118
147.662
170.7
209.278
285.819
134.276
130.648
129.811
130.883
134.756
142.691
157.841
190.041
247.833
381.558
146.173
142.573
141.531
142.757
146.719
155.227
172.355
210.931
286.951
489.901
310.158
306.309
305.151
306.443
311.524
323.511
349.147
396.332
479.987
667.523
4945.85
4939.92
4937.38
4939.25
4945.37
4955.41
4969.16
4990.15
5022.61
5066.46
4205.49
4206.09
4206.42
4206.44
4206.2
4205.12
4203.63
4202.03
4200.6
4199.53
232.909
232.487
232.383
232.031
231.437
231.252
231.269
231.418
231.806
232.798
115.602
115.58
115.659
115.609
115.616
115.728
116
116.503
117.193
117.987
111.054
110.45
110.257
110.416
111.022
112.154
113.944
116.656
120.074
123.801
115.294
114.366
114.203
114.447
115.433
117.259
120.25
125.184
131.927
140.37
117.756
116.309
115.875
116.326
117.849
120.799
125.852
134.849
148.236
167.561
122.088
120.094
119.636
120.175
122.225
126.253
133.356
146.773
167.932
202.422
134.232
132.214
131.599
132.298
134.521
139.162
147.947
165.498
195.863
252.181
293.176
290.815
289.985
290.841
294.393
302.963
320.357
349
394.116
462.619
4790.71
4785.53
4783.25
4784.82
4790.07
4798.59
4810.27
4827.26
4851.13
4880.05
4069.93
4070.69
4071.06
4071.04
4070.67
4069.79
4068.69
4067.53
4066.51
4065.72
224.505
223.705
223.471
223.234
222.985
222.933
222.912
222.975
223.26
224.153
111.007
111.07
111.146
111.09
111.015
110.941
110.889
110.889
110.953
111.061
105.705
105.443
105.351
105.412
105.668
106.138
106.846
107.833
108.975
109.98
108.447
108.059
108.012
108.1
108.52
109.275
110.455
112.24
114.481
116.709
110.264
109.563
109.339
109.55
110.281
111.654
113.89
117.506
122.457
128.096
113.881
112.813
112.575
112.836
113.902
115.931
119.311
125.062
133.295
143.384
125.604
124.544
124.201
124.589
125.799
128.29
132.825
140.974
153.811
171.847
278.201
276.879
276.272
276.854
279.409
285.77
297.758
315.703
341.519
371.312
4626.87
4622.55
4620.6
4621.88
4626.22
4633.12
4642.64
4655.86
4672.95
4691.92
3927.94
3928.59
3928.99
3928.95
3928.6
3927.98
3927.21
3926.42
3925.72
3925.15
216.927
216.033
215.688
215.538
215.484
215.462
215.463
215.539
215.835
216.727
108.394
108.456
108.508
108.466
108.395
108.3
108.201
108.117
108.073
108.078
102.811
102.686
102.639
102.664
102.779
102.988
103.292
103.687
104.115
104.435
104.45
104.295
104.291
104.319
104.496
104.808
105.281
105.947
106.727
107.391
105.65
105.324
105.212
105.309
105.653
106.285
107.281
108.776
110.709
112.634
108.538
107.974
107.858
107.98
108.532
109.558
111.197
113.758
117.158
120.568
119.495
118.988
118.81
119.022
119.664
120.988
123.326
127.179
132.821
139.518
264.789
264.163
263.695
264.117
266.042
270.907
279.257
290.78
306.136
320.297
4454.48
4451.03
4449.45
4450.47
4453.9
4459.25
4466.7
4476.59
4488.49
4500.73
3779.61
3780.13
3780.45
3780.43
3780.19
3779.78
3779.27
3778.74
3778.28
3777.85
209.482
208.6
208.259
208.152
208.117
208.113
208.134
208.228
208.54
209.428
106.794
106.837
106.87
106.841
106.788
106.715
106.636
106.566
106.53
106.536
101.296
101.228
101.2
101.212
101.269
101.371
101.516
101.694
101.88
101.999
102.198
102.135
102.14
102.148
102.226
102.363
102.563
102.828
103.115
103.339
102.917
102.772
102.718
102.762
102.922
103.21
103.654
104.284
105.064
105.813
105.179
104.88
104.826
104.884
105.175
105.704
106.521
107.711
109.187
110.495
115.217
115.011
114.928
115.045
115.379
116.08
117.269
119.099
121.599
124.387
252.456
252.28
251.89
252.223
253.762
257.512
263.349
270.863
280.266
287.085
4273.81
4271.2
4269.99
4270.76
4273.35
4277.33
4282.94
4290.06
4298.11
4305.86
3625.08
3625.5
3625.76
3625.75
3625.6
3625.33
3625
3624.66
3624.36
3624.03
201.822
200.967
200.656
200.561
200.536
200.54
200.571
200.671
200.986
201.858
105.699
105.722
105.74
105.722
105.686
105.64
105.589
105.546
105.533
105.553
100.53
100.489
100.472
100.478
100.509
100.563
100.638
100.728
100.821
100.874
100.979
100.948
100.951
100.954
100.993
101.062
101.161
101.283
101.403
101.494
101.369
101.306
101.281
101.302
101.375
101.506
101.704
101.973
102.294
102.619
103.141
102.976
102.951
102.982
103.143
103.429
103.854
104.439
105.117
105.68
112.205
112.151
112.121
112.187
112.361
112.726
113.313
114.17
115.244
116.501
240.737
240.839
240.483
240.77
242.082
244.89
248.948
253.873
259.755
262.81
4085.3
4083.43
4082.56
4083.12
4084.96
4087.84
4091.89
4096.83
4102.1
4106.91
3464.57
3464.92
3465.12
3465.12
3465.03
3464.86
3464.65
3464.43
3464.24
3463.97
193.768
192.948
192.665
192.582
192.56
192.566
192.598
192.696
193.003
193.848
104.849
104.857
104.864
104.853
104.832
104.805
104.777
104.756
104.76
104.79
100.159
100.133
100.124
100.127
100.143
100.172
100.211
100.258
100.31
100.338
100.35
100.328
100.327
100.328
100.353
100.397
100.457
100.527
100.591
100.641
100.535
100.509
100.497
100.507
100.541
100.601
100.69
100.806
100.94
101.098
101.943
101.844
101.832
101.853
101.949
102.115
102.352
102.663
102.999
103.28
110.019
110.036
110.033
110.073
110.166
110.347
110.619
111.002
111.417
112.026
229.211
229.478
229.126
229.392
230.528
232.497
235.279
238.49
242.215
243.256
3889.51
3888.25
3887.68
3888.06
3889.29
3891.33
3894.13
3897.43
3900.76
3903.69
3298.37
3298.66
3298.81
3298.82
3298.77
3298.66
3298.53
3298.39
3298.27
3298.03
185.212
184.431
184.176
184.103
184.082
184.087
184.116
184.205
184.498
185.309
104.115
104.114
104.115
104.108
104.096
104.083
104.07
104.063
104.079
104.114
99.9895
99.9742
99.9702
99.9718
99.9792
99.992
100.011
100.034
100.064
100.08
100.045
100.026
100.02
100.022
100.04
100.073
100.117
100.166
100.209
100.245
100.114
100.102
100.096
100.101
100.118
100.146
100.187
100.238
100.295
100.381
101.253
101.188
101.181
101.197
101.261
101.366
101.509
101.69
101.875
102.043
108.33
108.385
108.394
108.42
108.468
108.549
108.66
108.813
108.923
109.245
217.325
217.839
217.515
217.775
218.587
219.932
221.793
223.857
226.219
226.178
3687.19
3686.34
3685.99
3686.23
3687.07
3688.45
3690.3
3692.4
3694.42
3696.17
3126.87
3127.12
3127.23
3127.24
3127.21
3127.15
3127.07
3126.98
3126.89
3126.68
176.07
175.332
175.106
175.045
175.023
175.026
175.048
175.125
175.401
176.175
103.439
103.433
103.43
103.426
103.42
103.416
103.413
103.415
103.437
103.476
99.9213
99.914
99.9135
99.914
99.9158
99.919
99.9246
99.9338
99.9502
99.9611
99.9114
99.8931
99.8852
99.8867
99.9015
99.9278
99.9623
100
100.033
100.062
99.9195
99.913
99.9091
99.9116
99.9203
99.935
99.9547
99.9789
100.004
100.056
100.853
100.807
100.801
100.815
100.86
100.931
101.024
101.139
101.252
101.372
106.922
106.99
107.01
107.026
107.047
107.077
107.108
107.153
107.127
107.32
204.843
205.496
205.299
205.481
206.024
206.909
208.106
209.401
210.876
210.285
3479.1
3478.56
3478.34
3478.5
3479.04
3479.93
3481.1
3482.37
3483.52
3484.55
2950.61
2950.82
2950.9
2950.91
2950.9
2950.86
2950.81
2950.75
2950.69
2950.5
166.263
165.572
165.376
165.327
165.304
165.304
165.32
165.383
165.637
166.371
102.798
102.789
102.783
102.78
102.779
102.78
102.783
102.79
102.816
102.856
99.9045
99.9024
99.9039
99.9037
99.9022
99.8999
99.8982
99.8991
99.907
99.9165
99.8648
99.8484
99.84
99.841
99.8524
99.8728
99.8993
99.9284
99.9546
99.9784
99.845
99.8397
99.8367
99.8378
99.8428
99.8513
99.862
99.8745
99.8863
99.9195
100.607
100.572
100.567
100.578
100.61
100.66
100.724
100.8
100.874
100.969
105.658
105.722
105.745
105.756
105.764
105.77
105.767
105.765
105.687
105.818
191.594
192.298
192.203
192.326
192.669
193.216
193.937
194.72
195.602
194.783
3266.14
3265.81
3265.68
3265.78
3266.11
3266.64
3267.34
3268.05
3268.66
3269.25
2770.31
2770.48
2770.54
2770.55
2770.55
2770.53
2770.5
2770.46
2770.41
2770.23
155.694
155.055
154.886
154.85
154.833
154.831
154.84
154.889
155.115
155.807
102.185
102.175
102.167
102.165
102.166
102.17
102.176
102.186
102.211
102.254
99.9136
99.9138
99.9158
99.9152
99.9124
99.9078
99.903
99.9001
99.9031
99.9128
99.8609
99.8473
99.8399
99.8402
99.8483
99.8628
99.8818
99.9029
99.9228
99.9422
99.8323
99.8275
99.8249
99.8251
99.8281
99.8332
99.8393
99.8462
99.8521
99.8735
100.43
100.403
100.398
100.406
100.429
100.463
100.506
100.556
100.606
100.682
104.458
104.511
104.532
104.54
104.542
104.539
104.524
104.506
104.416
104.516
177.435
178.119
178.103
178.182
178.378
178.679
179.059
179.5
179.974
179.133
3049.36
3049.17
3049.1
3049.16
3049.35
3049.64
3050.02
3050.39
3050.67
3050.99
2586.97
2587.11
2587.16
2587.17
2587.17
2587.15
2587.13
2587.1
2587.06
2586.9
144.231
143.653
143.513
143.489
143.484
143.482
143.484
143.516
143.706
144.352
101.609
101.596
101.588
101.586
101.588
101.593
101.601
101.611
101.633
101.677
99.9326
99.9324
99.9338
99.933
99.9302
99.9258
99.921
99.9175
99.9182
99.9289
99.8783
99.8679
99.8622
99.8621
99.8671
99.8763
99.8886
99.9025
99.9165
99.9314
99.852
99.8481
99.846
99.8458
99.8473
99.8499
99.8529
99.8562
99.859
99.8714
100.273
100.253
100.249
100.254
100.267
100.289
100.315
100.345
100.377
100.436
103.291
103.328
103.345
103.35
103.35
103.343
103.325
103.304
103.224
103.304
162.208
162.816
162.863
162.91
162.998
163.118
163.248
163.453
163.627
162.903
2830.07
2829.98
2829.94
2829.97
2830.06
2830.21
2830.39
2830.55
2830.67
2830.82
2401.72
2401.84
2401.86
2401.87
2401.87
2401.86
2401.85
2401.83
2401.8
2401.67
131.646
131.153
131.061
131.051
131.05
131.046
131.042
131.056
131.188
131.768
101.087
101.072
101.065
101.062
101.064
101.069
101.076
101.085
101.102
101.142
99.9495
99.9476
99.9477
99.9468
99.9448
99.942
99.939
99.9369
99.9373
99.9478
99.9083
99.9013
99.8977
99.8974
99.9001
99.9052
99.9121
99.9201
99.9289
99.9392
99.8899
99.8875
99.8862
99.8858
99.8861
99.8869
99.8877
99.8884
99.8892
99.8949
100.119
100.106
100.103
100.105
100.112
100.123
100.136
100.151
100.168
100.208
102.169
102.188
102.199
102.2
102.196
102.187
102.17
102.151
102.097
102.157
145.451
145.927
145.961
145.997
146.057
146.137
146.219
146.279
146.211
145.692
2609.7
2609.66
2609.65
2609.66
2609.69
2609.73
2609.78
2609.83
2609.86
2609.94
2215.02
2215.09
2215.1
2215.1
2215.1
2215.1
2215.09
2215.09
2215.09
2215.03
117.388
117.051
117.02
117.025
117.027
117.022
117.012
117.005
117.05
117.478
100.625
100.609
100.602
100.598
100.599
100.602
100.608
100.617
100.63
100.662
99.9659
99.9636
99.963
99.9623
99.9613
99.9602
99.9591
99.9586
99.9593
99.9663
99.9506
99.9469
99.945
99.9448
99.9461
99.9485
99.9517
99.9556
99.9601
99.9657
99.9405
99.9395
99.9389
99.9385
99.9384
99.9383
99.938
99.9375
99.9372
99.9386
100.009
100.004
100.002
100.003
100.006
100.01
100.014
100.019
100.026
100.045
101.125
101.127
101.129
101.128
101.122
101.113
101.1
101.087
101.069
101.111
125.761
126.044
126.061
126.082
126.114
126.157
126.199
126.223
126.173
125.832
2388.98
2388.96
2388.96
2388.97
2388.97
2388.97
2388.97
2388.96
2388.95
2388.99
7183.9
7294.2
7250.44
7043.98
658925
683870
689431
697306
1.49738e+06
1.58408e+06
1.59159e+06
1.57169e+06
2.5252e+06
2.70348e+06
2.70094e+06
2.61943e+06
3.76083e+06
4.05592e+06
4.02959e+06
3.86804e+06
5.30784e+06
5.75114e+06
5.6996e+06
5.48678e+06
6.86831e+06
7.46724e+06
7.40344e+06
7.20678e+06
7.88276e+06
8.61066e+06
8.55598e+06
8.428e+06
5.61967e+06
6.1791e+06
6.11502e+06
6.08123e+06
7903.57
8151.31
7988.94
7569.71
5749.31
5802.09
5804.61
5765.47
308553
324672
345343
377315
689320
780855
824912
861784
1.17795e+06
1.40285e+06
1.46605e+06
1.49197e+06
1.76351e+06
2.17751e+06
2.25142e+06
2.26489e+06
2.45877e+06
3.11234e+06
3.21159e+06
3.2475e+06
3.13167e+06
4.04017e+06
4.20096e+06
4.31982e+06
3.57323e+06
4.70395e+06
4.94524e+06
5.18017e+06
2.80673e+06
3.81853e+06
4.0071e+06
4.32029e+06
7126.28
7357.86
7286.89
7066.55
4937.9
4948.85
4948
4938.28
21661.6
25961.1
24597.7
19966.6
61571.3
73411
68679.6
55731.3
128749
152839
140886
114031
228358
270530
246264
199435
372370
441918
401369
326397
545312
648517
591586
485392
702782
839371
769546
636830
584436
696845
629329
524639
6344.28
6431.58
6409.26
6313.94
4716
4718.13
4718.68
4717.88
1594.36
1711.36
1679.94
1545.05
4698.34
5172.64
5012.78
4434.74
11230.8
12505.2
11926.5
10213.7
22554.8
25253.5
23699.2
19745.8
41690.9
46921.7
43526.7
35536.3
68293.5
76982.5
70793.8
57127.8
97157
109909
100439
80427
83354
93760.7
84194.7
67263.2
5903.96
5945.66
5942.77
5904.85
4568
4568.91
4569.12
4568.58
423.292
436.224
438.478
431.565
710.139
757.076
761.589
731.403
1595.07
1736.85
1729.33
1610.32
3203.64
3529.28
3458.47
3118.62
6140.05
6823.18
6582.89
5758.1
10498
11693.3
11108.7
9472.34
15691.5
17554.7
16462.9
13724
13859.5
15396.2
14112.9
11585.7
5578.67
5600.7
5602.18
5586.57
4444.95
4445.7
4445.78
4445.15
275.589
278.461
279.173
277.915
226.364
231.462
233.289
232.251
385.592
403.078
407.314
400.548
674.057
717.854
722.101
696.115
1215.15
1316.45
1312.6
1233.48
2023.6
2211.35
2175.64
1991.32
3046.85
3360.29
3261.74
2904.38
2928.8
3183.08
3023.2
2663.96
5318.13
5328.91
5331.05
5325.48
4322.61
4323.33
4323.38
4322.75
241.777
243.682
244.082
243.025
140.137
140.889
141.242
141.229
175.869
178.566
179.693
179.439
243.202
250.227
252.461
250.762
368.972
386.59
390.315
383.175
549.217
582.667
585.303
565.785
795.494
854.94
852.087
807.082
984.634
1029.66
1010.19
962.432
5095.74
5100.62
5102.47
5101.22
4195.5
4196.19
4196.25
4195.65
228.096
229.814
230.153
229.143
118.19
118.328
118.382
118.359
125.854
126.303
126.527
126.555
146.031
147.259
147.802
147.781
183.407
186.916
188.182
187.62
233.786
240.337
242.09
240.302
314.604
327.173
329.108
323.55
543.01
548.669
546.151
542.461
4893.63
4895.64
4896.92
4897.11
4061.95
4062.6
4062.66
4062.1
219.492
221.146
221.474
220.5
110.889
110.945
110.954
110.916
110.347
110.42
110.457
110.466
117.766
117.976
118.086
118.118
131.711
132.522
132.874
132.841
149.877
151.233
151.773
151.731
187.354
190.294
191.139
190.477
400.175
397.197
396.45
399.108
4698.42
4699.11
4699.88
4700.37
3921.65
3922.26
3922.31
3921.79
212.197
213.795
214.116
213.178
107.869
107.917
107.921
107.882
104.484
104.492
104.494
104.494
107.574
107.596
107.61
107.622
113.656
113.877
113.977
113.968
121.96
122.211
122.35
122.426
144.577
145.28
145.542
145.48
335.325
330.243
329.462
332.878
4503.78
4503.88
4504.31
4504.76
3774.63
3775.18
3775.23
3774.76
205.056
206.596
206.908
206.008
106.338
106.386
106.391
106.353
101.988
101.986
101.984
101.983
103.358
103.35
103.347
103.349
106.198
106.277
106.309
106.296
110.765
110.777
110.803
110.856
126.727
126.858
126.91
126.904
297.589
292.079
291.173
294.488
4307.07
4306.94
4307.17
4307.51
3621.08
3621.58
3621.61
3621.19
197.658
199.137
199.438
198.576
105.371
105.417
105.423
105.388
100.853
100.851
100.849
100.848
101.489
101.481
101.476
101.476
102.817
102.856
102.869
102.856
105.715
105.685
105.683
105.712
117.997
117.974
117.956
117.944
271.427
265.974
265.02
268.134
4107.09
4106.91
4107.02
4107.24
3461.29
3461.73
3461.76
3461.38
189.835
191.248
191.538
190.717
104.624
104.668
104.674
104.641
100.318
100.317
100.316
100.316
100.637
100.632
100.629
100.627
101.224
101.249
101.256
101.244
103.288
103.261
103.253
103.269
113.191
113.132
113.092
113.07
250.82
245.573
244.627
247.549
3903.24
3903.11
3903.16
3903.27
3295.65
3296.02
3296.03
3295.71
181.496
182.842
183.121
182.342
103.966
104.007
104.013
103.983
100.064
100.064
100.064
100.064
100.245
100.243
100.241
100.239
100.469
100.487
100.492
100.482
102.071
102.055
102.049
102.055
110.24
110.179
110.134
110.103
232.986
227.998
227.088
229.832
3695.32
3695.29
3695.31
3695.31
3124.61
3124.91
3124.91
3124.63
172.574
173.853
174.12
173.385
103.349
103.387
103.392
103.365
99.9512
99.9523
99.9524
99.9515
100.065
100.064
100.063
100.061
100.119
100.132
100.135
100.127
101.425
101.419
101.416
101.414
108.2
108.151
108.106
108.066
216.462
211.761
210.905
213.475
3483.44
3483.52
3483.53
3483.45
2948.75
2948.98
2948.97
2948.74
163.001
164.212
164.469
163.78
102.757
102.793
102.798
102.772
99.9133
99.9154
99.9157
99.9142
99.9828
99.9829
99.9821
99.9809
99.9644
99.9736
99.9749
99.9683
101.04
101.043
101.042
101.035
106.605
106.573
106.533
106.483
200.395
196.013
195.225
197.615
3267.98
3268.17
3268.18
3268.02
2768.85
2769
2768.97
2768.79
152.691
153.837
154.087
153.445
102.191
102.224
102.229
102.205
99.9167
99.9199
99.9203
99.9179
99.9477
99.9483
99.948
99.9471
99.9033
99.9094
99.9098
99.9048
100.761
100.771
100.771
100.761
105.208
105.199
105.166
105.106
184.225
180.218
179.515
181.7
3049.64
3049.92
3049.93
3049.72
2585.92
2586
2585.95
2585.82
141.543
142.634
142.879
142.282
101.648
101.681
101.685
101.662
99.9387
99.9428
99.9432
99.9401
99.9375
99.9386
99.9387
99.9381
99.8889
99.8923
99.8922
99.889
100.511
100.524
100.525
100.514
103.876
103.891
103.866
103.8
167.524
164.01
163.416
165.336
2829.45
2829.78
2829.8
2829.57
2401.16
2401.14
2401.08
2401.01
129.374
130.426
130.666
130.104
101.141
101.169
101.172
101.151
99.9598
99.9642
99.9645
99.9613
99.9448
99.946
99.9465
99.9463
99.9025
99.9039
99.9037
99.9022
100.268
100.28
100.281
100.272
102.554
102.58
102.565
102.506
149.615
146.67
146.228
147.864
2608.73
2609.1
2609.12
2608.88
2215.02
2214.86
2214.8
2214.85
115.752
116.733
116.939
116.407
100.667
100.683
100.684
100.67
99.9738
99.9765
99.9767
99.9747
99.9697
99.9707
99.9711
99.9712
99.9403
99.9405
99.9404
99.9401
100.077
100.084
100.085
100.08
101.287
101.296
101.288
101.264
128.33
126.309
126.073
127.23
2388.2
2388.59
2388.6
2388.34
6105.78
5442.89
5173.15
5077.02
5022.21
4983.69
4958.09
4943.72
4935.74
4931
798356
193266
33401.3
11731.4
5300.24
2836.05
1749.16
1212.4
928.211
765.036
1.424e+06
247026
44251.6
15128.4
6775.93
3637.13
2200.37
1460.36
1048.2
802.964
1.99539e+06
239512
46765.7
15017.1
6482.72
3390.9
2000.4
1297.42
912.874
688.549
2.45854e+06
252600
48932.4
14560.2
6097.86
3102.01
1791.93
1144.38
795.462
596.687
2.93029e+06
276388
51140.7
13973.9
5638.24
2768.42
1561.46
981.156
677.369
508.274
3.31254e+06
294966
52000.2
13161.8
5158.44
2467.74
1375.72
861.515
595.621
450.405
3.39656e+06
287386
47700.4
11001.8
4164.08
1946.66
1093
700.305
502.942
394.807
2.34166e+06
182154
27371.6
5711.22
2275.21
1237.92
858.03
671.628
568.201
506.595
6016.1
5992.88
5847.11
5822.71
5779.31
5755.02
5735.75
5725.5
5718.59
5712.64
5443.26
5175.2
5045.27
4972.7
4927.15
4897.14
4877.69
4866.15
4859.93
4855.99
180228
44893
13613.2
5322.64
2635.38
1567.12
1065.05
802.428
656.204
572.249
375660
86406.3
23466.8
8290.71
3888.96
2187.7
1383.81
956.163
710.758
565.717
595010
126240
30700.5
9651.24
4227.85
2261.44
1372.52
915.806
661.567
515.473
830470
165006
36426.1
10417
4317.33
2219.81
1310.28
857.586
610.378
471.993
1.10977e+06
207205
41751.7
10863.4
4246.89
2091.31
1198.68
768.86
542.068
418.473
1.38888e+06
244448
45354.2
10850.2
4055.57
1939.14
1095.65
699.566
493.222
382.949
1.56427e+06
258681
43997.4
9552.83
3395.63
1585.24
900.699
587.783
429.936
345.821
1.18224e+06
178729
26852.8
5249.69
1966.79
1091.41
771.666
615.217
526.614
476.304
6252.76
5952.83
5792.71
5733.88
5683.01
5652.25
5629.96
5616.36
5606.78
5598.49
4904
4869.18
4841.71
4818.91
4801.08
4788.17
4779.56
4774.4
4771.54
4769.49
9199.49
4175.93
2298.94
1432.81
985.41
735.856
591.205
504.948
452.234
420.421
23998
9564.93
4650.37
2546.91
1542.08
1010.24
712.671
538.339
431.106
364.744
45437.6
15962
6938.09
3411.09
1898.28
1158.99
771.507
555.676
428.523
352.732
73592.8
22902.2
9011.53
4055.91
2119.6
1232.29
791.764
556.638
421.531
343.277
112047
31040.8
11040.2
4548.11
2235.13
1236.95
767.149
526.269
393.509
318.987
156043
38867.9
12576.7
4794.74
2251.61
1205.93
734.737
500.575
373.468
303.54
191499
42869.7
12520.5
4385.27
1974.78
1036.67
636.244
443.053
341.768
286.187
141660
27754.6
7304.01
2547.25
1307.81
842.943
642.719
536.584
473.014
436.31
6018.26
5835.77
5711.16
5637.31
5584.22
5551.1
5528.08
5512.41
5500.83
5490.86
4712.98
4704.62
4695.45
4687.21
4680.96
4676.7
4674.05
4672.7
4672.37
4671.98
1208.08
906.543
708.917
570.504
479.276
420.78
383.193
358.477
341.792
331.517
3028.86
1919.63
1270.48
860.812
612.414
460.962
367.185
307.615
268.169
242.3
6221.12
3481.35
2057.58
1252.19
812.885
564.7
420.247
333.137
278.335
243.981
10747.1
5351.27
2878.26
1610.5
978.807
644.26
460.252
354.597
289.916
250.457
17346.3
7666.59
3761.33
1938.97
1105.16
689.13
472.635
353.771
284.438
243.622
25221.6
9947.34
4496.56
2165.73
1178.79
709.655
476.386
352.862
281.937
240.949
32102.9
11241.7
4658.92
2094.98
1100.59
652.737
441.593
332.998
272.799
238.108
23543.1
7366.71
2961.59
1443.33
906.111
663.582
542.628
472.681
427.924
401.466
5789
5660.47
5561.73
5497.83
5453.74
5424.87
5404.15
5389.3
5378.09
5368.62
4567.57
4566.34
4565.1
4564.13
4563.56
4563.31
4563.34
4563.71
4564.62
4565.47
412.744
382.988
356.691
334.9
318.467
306.418
297.567
290.935
285.855
282.607
637.802
512.595
411.764
334.539
279.773
241.967
216.08
198.176
185.238
176.18
1287.35
926.142
666.305
486.312
369.854
294.97
246.638
214.94
193.467
179.267
2276.19
1481.77
973.394
652.874
462.85
348.832
279.633
236.703
208.349
189.979
3814.3
2240.94
1346.83
830.593
548.822
390.241
299.428
245.694
212.12
191.242
5703.56
3044.18
1696.17
978.235
614.741
420.798
314.947
254.776
217.682
194.946
7460.23
3599.54
1861
1012.24
616.715
417.048
313.382
255.923
221.789
201.026
5661.93
2636.8
1436.06
904.094
665.87
539.379
466.865
421.219
389.982
371.116
5535.62
5459.57
5394.3
5347.9
5313.99
5289.73
5271.48
5257.77
5247.19
5238.38
4444.78
4444.9
4445.19
4445.67
4446.27
4446.9
4447.56
4448.36
4449.57
4451.01
277.894
274.899
271.427
267.999
264.979
262.417
260.262
258.414
256.79
255.486
225.936
210.892
194.976
180.662
169.152
160.38
153.854
148.965
145.037
142.076
373.154
321.85
273.25
233.348
203.639
182.283
167.101
156.244
148.28
142.754
613.21
488.045
382.069
302.902
248.812
212.615
188.484
172.249
160.536
152.457
1013.13
737.727
529.254
386.573
296.629
240.212
204.677
181.849
166.427
156.309
1522.08
1022.62
681.238
465.896
339.897
265.186
220.354
192.769
174.284
162.243
2045.38
1266.86
790.107
514.243
364.906
280.907
232.633
203.526
184.884
172.964
1814.24
1182.26
824.849
628.704
519.796
452.689
409.128
379.525
357.945
344.668
5303.28
5261.63
5221.8
5189.91
5164.48
5144.75
5129.18
5117.02
5107.42
5099.54
4322.5
4322.77
4323.22
4323.83
4324.52
4325.2
4325.86
4326.62
4327.76
4329.21
244.179
244.019
243.672
243.202
242.686
242.151
241.602
241.017
240.375
239.618
140.674
138.608
136.046
133.468
131.204
129.351
127.884
126.701
125.586
124.655
176.561
168.277
158.712
149.715
142.177
136.161
131.444
127.754
124.826
122.728
241.581
220.117
197.59
178.248
163.319
152.231
144.104
138.162
133.437
129.975
355.622
303.655
254.56
215.784
187.991
168.566
155.049
145.573
138.636
133.885
503.831
404.315
318.086
255.329
213.44
185.766
167.405
155.118
146.114
139.904
681.077
513.342
382.489
294.813
240.128
205.638
183.587
169.092
159.114
152.476
826.603
675.149
559.101
481.181
428.723
391.948
365.448
346.199
331.337
322.035
5091.73
5069.85
5046.05
5024.46
5005.77
4990.23
4977.43
4967.08
4958.7
4951.93
4195.41
4195.62
4195.95
4196.41
4196.93
4197.43
4197.9
4198.46
4199.38
4200.65
230.444
230.673
230.777
230.789
230.73
230.606
230.411
230.125
229.722
229.086
118.341
118.073
117.708
117.307
116.938
116.635
116.405
116.208
115.927
115.639
126.16
124.614
122.561
120.39
118.365
116.582
115.05
113.751
112.652
111.859
146.603
142.548
137.533
132.669
128.475
125.036
122.286
120.124
118.22
116.743
183.559
172.771
160.736
149.907
141.148
134.335
129.114
125.144
122.025
119.835
231.563
210.488
188.312
169.87
155.894
145.59
138.047
132.589
128.226
125.062
302.839
263.952
227.225
198.846
178.527
164.155
153.996
146.779
141.496
137.894
515.461
472.57
430.197
396.13
369.324
348.453
332.072
319.474
309.24
302.752
4892.49
4880.73
4866.35
4851.89
4838.47
4826.67
4816.54
4808.08
4801.06
4795.47
4061.86
4062
4062.22
4062.52
4062.86
4063.17
4063.44
4063.79
4064.49
4065.55
221.793
222.059
222.208
222.277
222.283
222.226
222.095
221.866
221.5
220.868
110.951
110.941
110.929
110.914
110.911
110.929
110.97
111.006
110.953
110.857
110.388
110.046
109.542
108.951
108.348
107.772
107.239
106.755
106.327
106.023
117.934
117.076
115.869
114.563
113.323
112.22
111.277
110.493
109.721
109.082
132.02
129.419
126.182
122.902
119.95
117.428
115.336
113.634
112.222
111.227
150.417
145.522
139.425
133.68
128.784
124.799
121.626
119.179
117.058
115.447
186.095