/*--------------------------------*- C++ -*----------------------------------*\
| =========                 |                                                 |
| \\      /  F ield         | foam-extend: Open Source CFD                    |
|  \\    /   O peration     | Version:     4.0                                |
|   \\  /    A nd           | Web:         http://www.foam-extend.org         |
|    \\/     M anipulation  |                                                 |
\*---------------------------------------------------------------------------*/
FoamFile
{
    version     2.0;
    format      ascii;
    class       volScalarField;
    location    "2000";
    object      k;
}
// * * * * * * * * * * * * * * * * * * * * * * * * * * * * * * * * * * * * * //

dimensions      [0 2 -2 0 0 0 0];

internalField   nonuniform List<scalar> 
34480
(
8.76723
8.76482
8.7647
8.76647
8.77028
8.77639
8.79134
8.85472
9.07725
9.68608
9.27907
8.6675
8.57487
8.8545
9.45357
10.3404
11.9392
15.8518
28.7382
67.0247
15.0385
13.5693
13.1234
13.2717
13.8422
14.8752
17.209
22.9053
41.6368
101.409
14.4904
12.9631
12.5131
12.7074
13.418
14.8326
18.0048
25.406
49.2506
127.783
13.4277
12.0121
11.6613
11.9284
12.78
14.4901
18.2595
26.9556
55.27
151.575
12.2192
10.946
10.6337
10.9156
11.8073
13.7008
17.9422
27.9021
61.0597
176.655
11.3265
10.2065
9.95207
10.2272
11.1224
13.0881
17.5899
28.4197
65.5168
198.012
9.83975
9.00363
8.7989
9.01472
9.72737
11.3977
15.4918
26.1245
64.5424
205.59
6.88246
6.61396
6.56534
6.6754
7.00486
7.72947
9.73002
16.2733
43.4102
149.664
9.23844
9.23869
9.24457
9.25746
9.27558
9.29718
9.32319
9.36176
9.43278
9.50593
8.67859
8.67559
8.67501
8.67678
8.68155
8.6899
8.70315
8.7342
8.80843
9.06732
7.9294
7.50962
7.41632
7.57403
8.02101
8.86336
10.3049
12.1075
15.4276
41.1737
12.2344
11.1718
10.8796
11.0829
11.7616
13.0227
15.2205
18.1219
23.7881
66.4153
12.1386
10.9705
10.6518
10.8951
11.7001
13.2506
16.0312
20.0136
28.3904
86.182
11.5983
10.4646
10.1979
10.474
11.3667
13.108
16.2966
21.0747
31.8416
104.296
10.805
9.75478
9.4995
9.77338
10.6717
12.4985
15.968
21.4554
34.8368
123.7
10.2147
9.26273
9.04566
9.29931
10.1728
12.0011
15.6081
21.5518
37.1081
140.95
9.05416
8.33241
8.14836
8.33998
9.01779
10.5155
13.6625
19.2849
35.7029
147.359
6.64491
6.39761
6.34345
6.41765
6.68237
7.26738
8.61421
11.5617
22.4907
102.413
9.11127
9.10658
9.10714
9.11436
9.12703
9.14285
9.16383
9.19956
9.27256
9.4578
8.57685
8.57398
8.57308
8.57405
8.5772
8.58216
8.58794
8.60086
8.62964
8.69528
6.78232
6.57075
6.51673
6.59265
6.82405
7.27105
8.06562
9.35971
11.1354
16.4368
9.69087
9.0708
8.91752
9.08514
9.60481
10.5598
12.1748
14.5696
17.5474
29.1799
9.88861
9.1507
8.96541
9.17932
9.8387
11.0944
13.2868
16.6414
21.1137
40.7623
9.75937
9.0043
8.84156
9.07832
9.81682
11.2604
13.8634
17.9401
23.7776
52.2534
9.3309
8.60359
8.43617
8.67412
9.42849
10.9743
13.8888
18.6183
26.0231
64.9013
9.01601
8.33173
8.18559
8.40826
9.1498
10.7179
13.8026
18.956
27.7467
76.924
8.19532
7.66709
7.5379
7.70834
8.28341
9.56589
12.2715
17.1623
26.6509
82.8757
6.37365
6.18146
6.14165
6.20262
6.41356
6.8763
7.92517
10.3684
16.698
57.1032
8.99174
8.98398
8.98147
8.98539
8.995
9.00811
9.02613
9.05969
9.13847
9.33848
8.46138
8.45956
8.45905
8.45982
8.46198
8.46475
8.46596
8.46934
8.47827
8.49768
6.00846
5.91767
5.89059
5.92144
6.02166
6.21428
6.55103
7.13255
7.99619
9.88107
7.80843
7.4958
7.42296
7.51841
7.8199
8.38275
9.33385
10.821
12.658
17.0742
8.12457
7.70716
7.60346
7.74095
8.16708
8.98935
10.4229
12.7264
15.5983
23.5547
8.24735
7.7888
7.69199
7.84982
8.34806
9.33558
11.1223
14.0843
17.8843
30.1257
8.08389
7.61553
7.50597
7.67295
8.20254
9.30165
11.3875
14.9949
19.8635
37.6358
7.97595
7.51172
7.41231
7.57385
8.11083
9.25646
11.5228
15.5768
21.3669
44.9592
7.44539
7.07517
6.98317
7.11165
7.53558
8.4816
10.48
14.3817
20.6515
48.7669
6.13169
5.98475
5.95487
6.00086
6.15826
6.49624
7.22487
8.98533
12.9801
33.0358
8.85784
8.85004
8.84722
8.8506
8.85971
8.87334
8.89219
8.92609
8.99926
9.15512
8.33371
8.33288
8.3327
8.33319
8.33436
8.33523
8.33364
8.33226
8.33219
8.33433
5.53755
5.50311
5.49003
5.49992
5.5361
5.60487
5.72016
5.91166
6.17879
6.62126
6.56591
6.42823
6.39746
6.43775
6.57412
6.83244
7.27148
7.98212
8.87934
10.357
6.87197
6.65533
6.59874
6.6695
6.89672
7.33934
8.11402
9.4081
11.0454
14.0201
7.10206
6.84236
6.78604
6.87335
7.15885
7.72696
8.75917
10.5597
12.8856
17.7763
7.09736
6.81079
6.73911
6.83962
7.16342
7.83584
9.1155
11.4642
14.6132
22.2341
7.12093
6.81819
6.75013
6.85209
7.197
7.92894
9.37342
12.1311
15.982
26.6475
6.81354
6.56197
6.49592
6.58201
6.86411
7.48538
8.77858
11.4744
15.691
29.0124
5.91851
5.80765
5.78491
5.81674
5.92774
6.16005
6.63035
7.74131
10.1051
19.2383
8.7144
8.7067
8.70368
8.70655
8.71501
8.72843
8.74691
8.77835
8.83986
8.95238
8.19474
8.19467
8.19476
8.19504
8.19549
8.19508
8.19261
8.19004
8.18786
8.18655
5.27032
5.25892
5.25259
5.25485
5.26615
5.28799
5.32347
5.37808
5.44757
5.5374
5.80938
5.75794
5.74825
5.76168
5.81269
5.90954
6.07211
6.33476
6.67439
7.13917
6.04299
5.93931
5.91055
5.94303
6.05125
6.25972
6.61642
7.21165
7.98792
9.10699
6.28235
6.14571
6.11588
6.15953
6.30777
6.59751
7.11202
8.02102
9.23783
11.2033
6.35115
6.1856
6.14142
6.19763
6.38065
6.75312
7.44438
8.74033
10.5394
13.804
6.44225
6.25431
6.21056
6.27071
6.47803
6.90729
7.72907
9.34042
11.6529
16.3938
6.29331
6.13045
6.08567
6.14064
6.31841
6.69933
7.46016
9.07688
11.6569
17.7682
5.73301
5.65187
5.63566
5.65699
5.73324
5.88851
6.18403
6.83616
8.10037
11.8444
8.56048
8.55316
8.55013
8.5526
8.56035
8.57299
8.59033
8.61818
8.66622
8.74097
8.04507
8.04551
8.04579
8.04591
8.04589
8.0447
8.04239
8.03991
8.03766
8.036
5.1266
5.1232
5.11975
5.11968
5.12257
5.12897
5.13907
5.15345
5.16962
5.1857
5.37593
5.361
5.36014
5.36301
5.37803
5.40722
5.45622
5.53391
5.63292
5.75067
5.52656
5.47965
5.46572
5.4795
5.5276
5.61835
5.76705
6.00377
6.3088
6.68054
5.72724
5.65982
5.64555
5.66553
5.73723
5.87333
6.10449
6.499
7.03134
7.75032
5.81513
5.72408
5.69821
5.72781
5.82553
6.01864
6.36061
6.98381
7.86708
9.18706
5.92907
5.81732
5.79075
5.82407
5.94256
6.1801
6.61217
7.43956
8.65404
10.6616
5.88367
5.78323
5.75441
5.78781
5.89444
6.11628
6.53639
7.40167
8.80288
11.4702
5.57819
5.52024
5.50927
5.52302
5.57405
5.67528
5.85873
6.23081
6.89022
8.32488
8.39553
8.38882
8.38594
8.38806
8.39498
8.40634
8.42189
8.44559
8.48217
8.53147
7.88501
7.88577
7.88617
7.8862
7.88589
7.88455
7.88268
7.88069
7.8789
7.87756
5.05199
5.05077
5.04853
5.04801
5.04864
5.05067
5.05363
5.05745
5.06102
5.06343
5.13789
5.13624
5.13828
5.13788
5.14014
5.14559
5.15603
5.17356
5.19608
5.2201
5.21963
5.199
5.19239
5.19799
5.21877
5.25717
5.3172
5.40612
5.51476
5.62689
5.36814
5.33683
5.33084
5.33929
5.37223
5.43291
5.53108
5.68802
5.89266
6.12706
5.44715
5.3993
5.38487
5.39974
5.44983
5.5459
5.70754
5.98368
6.36774
6.85615
5.55781
5.49388
5.47866
5.49612
5.56135
5.68799
5.90594
6.29783
6.86462
7.64806
5.57436
5.51567
5.49818
5.51758
5.57864
5.7024
5.92566
6.3572
7.04543
8.13516
5.45387
5.41329
5.40631
5.41491
5.44849
5.51347
5.62685
5.83774
6.18528
6.75836
8.21903
8.21311
8.2105
8.21229
8.2183
8.22804
8.24139
8.26079
8.288
8.3209
7.71465
7.7156
7.71606
7.71605
7.71558
7.71446
7.71307
7.71161
7.71031
7.70932
5.01365
5.01276
5.01109
5.01066
5.01094
5.01193
5.01317
5.01455
5.01551
5.01566
5.01147
5.01364
5.01612
5.01511
5.01378
5.01246
5.01196
5.01304
5.01556
5.0186
5.04478
5.03556
5.03235
5.03462
5.04372
5.06025
5.085
5.11904
5.15789
5.19179
5.14545
5.13169
5.12964
5.13293
5.14754
5.17377
5.21451
5.27513
5.34993
5.42257
5.20538
5.18127
5.17356
5.18078
5.20567
5.25221
5.32728
5.4463
5.60494
5.77833
5.30069
5.26526
5.25702
5.26573
5.30071
5.36673
5.47511
5.65546
5.90496
6.19336
5.35062
5.31844
5.30851
5.31934
5.35266
5.41885
5.5342
5.74197
6.06209
6.4917
5.35793
5.32985
5.32571
5.33101
5.35299
5.39454
5.46461
5.58458
5.76929
6.02077
8.03056
8.02555
8.0233
8.02478
8.0298
8.03779
8.0488
8.06406
8.08378
8.10566
7.53415
7.53499
7.53549
7.53545
7.53499
7.5342
7.53322
7.5322
7.53131
7.53058
4.99323
4.9924
4.99109
4.99082
4.99116
4.99192
4.99283
4.99375
4.99433
4.99424
4.94619
4.94882
4.95091
4.95009
4.94831
4.94588
4.94334
4.94113
4.93967
4.939
4.9493
4.94485
4.94316
4.94415
4.94836
4.95594
4.96686
4.9809
4.99591
5.00716
5.01299
5.00715
5.00669
5.00788
5.01429
5.02559
5.04258
5.06621
5.09361
5.11684
5.05341
5.04174
5.03776
5.04119
5.0533
5.07545
5.1101
5.16142
5.22685
5.2911
5.13028
5.11101
5.10678
5.111
5.12952
5.16366
5.21764
5.30106
5.41028
5.51823
5.19575
5.17949
5.17434
5.18018
5.1974
5.23115
5.28881
5.38651
5.53142
5.7057
5.28672
5.26733
5.26508
5.26841
5.28296
5.3098
5.35334
5.42227
5.52046
5.64037
7.82983
7.82578
7.82393
7.82512
7.82915
7.83541
7.84414
7.85572
7.86962
7.88394
7.34326
7.34393
7.34436
7.34432
7.34402
7.34348
7.34282
7.34213
7.34154
7.34099
4.98135
4.98063
4.97968
4.97953
4.97987
4.98054
4.98135
4.98215
4.98272
4.98262
4.91318
4.91535
4.91691
4.91639
4.91501
4.91303
4.91084
4.90875
4.90721
4.90636
4.89946
4.89701
4.89604
4.89653
4.89867
4.90247
4.90778
4.91427
4.92087
4.92515
4.9375
4.93495
4.93495
4.93537
4.9383
4.94343
4.95091
4.96065
4.97116
4.97929
4.96221
4.95674
4.95475
4.95638
4.96219
4.97265
4.98861
5.01096
5.03832
5.06423
5.02229
5.01179
5.00969
5.01176
5.02167
5.03954
5.06686
5.10645
5.15527
5.19844
5.0932
5.08596
5.08366
5.08672
5.09505
5.11124
5.13865
5.18309
5.24641
5.32162
5.23576
5.22224
5.22119
5.22342
5.23334
5.25109
5.2785
5.31878
5.37086
5.43174
7.61666
7.61355
7.61211
7.61303
7.61611
7.62084
7.62749
7.63595
7.64549
7.65468
7.14173
7.14227
7.14261
7.1426
7.14241
7.14205
7.14162
7.14116
7.14077
7.14034
4.97347
4.97291
4.97226
4.97218
4.97249
4.97306
4.97376
4.97445
4.975
4.97486
4.89669
4.8983
4.8994
4.89913
4.89823
4.89692
4.89547
4.89408
4.89314
4.89264
4.87472
4.87324
4.87266
4.87292
4.87409
4.87614
4.87896
4.88229
4.88563
4.88753
4.89638
4.89505
4.89506
4.89524
4.89677
4.89944
4.90319
4.90779
4.91233
4.91573
4.9101
4.90759
4.90659
4.90739
4.91019
4.91514
4.92253
4.9324
4.94405
4.95556
4.95691
4.95097
4.94993
4.95105
4.95658
4.96631
4.98067
5.00036
5.02313
5.04212
5.02819
5.0257
5.02501
5.02659
5.03024
5.03732
5.04926
5.06824
5.09388
5.12877
5.20038
5.19077
5.19042
5.19208
5.19917
5.21129
5.22895
5.25306
5.28064
5.3135
7.39101
7.38875
7.3877
7.38838
7.3906
7.39407
7.39895
7.40491
7.41125
7.41705
6.92932
6.92978
6.93005
6.93005
6.92993
6.92971
6.92942
6.92913
6.92887
6.92851
4.96746
4.9671
4.9667
4.96667
4.96692
4.96737
4.96792
4.96848
4.96898
4.96874
4.88844
4.88961
4.89037
4.89026
4.88974
4.88898
4.88815
4.88737
4.88696
4.88675
4.86323
4.86231
4.86197
4.86212
4.86276
4.86388
4.8654
4.86719
4.86906
4.87002
4.87504
4.87414
4.87403
4.87414
4.8751
4.87678
4.87907
4.88171
4.88414
4.88598
4.88186
4.88069
4.88019
4.88059
4.88197
4.88436
4.88782
4.89228
4.89736
4.90304
4.91902
4.91541
4.91486
4.91559
4.91891
4.92458
4.93261
4.94315
4.95457
4.96416
4.98845
4.98823
4.98838
4.9892
4.99055
4.99314
4.99747
5.00455
5.01306
5.03084
5.17623
5.16923
5.16927
5.17066
5.17599
5.18457
5.19631
5.21121
5.22576
5.24491
7.15293
7.15139
7.15069
7.15116
7.15266
7.15517
7.1586
7.16264
7.16672
7.1703
6.7059
6.70629
6.7065
6.70651
6.70644
6.7063
6.70612
6.70593
6.70576
6.70544
4.96235
4.96221
4.96201
4.96202
4.96221
4.96253
4.96292
4.96334
4.96381
4.96345
4.88424
4.88511
4.88561
4.88561
4.88534
4.88497
4.88457
4.88422
4.88419
4.88417
4.85845
4.85791
4.85776
4.85783
4.85815
4.85869
4.85945
4.86037
4.86145
4.86199
4.8646
4.86384
4.86362
4.86371
4.86442
4.86565
4.86728
4.86909
4.8707
4.87197
4.86744
4.86686
4.86658
4.86679
4.8675
4.86871
4.87038
4.87247
4.87476
4.87789
4.89783
4.89543
4.89509
4.89565
4.89783
4.90142
4.90629
4.91245
4.91878
4.92459
4.96449
4.9652
4.96575
4.96619
4.9665
4.96704
4.96787
4.96964
4.97063
4.98097
5.15952
5.15439
5.15465
5.15593
5.16004
5.16638
5.17449
5.18406
5.19159
5.20389
6.90268
6.90162
6.90119
6.90149
6.90253
6.90425
6.90656
6.90918
6.9117
6.91388
6.47139
6.47173
6.47188
6.4719
6.47187
6.47178
6.47166
6.47154
6.47142
6.47113
4.95774
4.95782
4.95778
4.95783
4.95796
4.95816
4.95841
4.9587
4.95916
4.95871
4.882
4.88266
4.88297
4.88302
4.88292
4.8828
4.88269
4.88262
4.88285
4.88298
4.85695
4.8567
4.85666
4.85669
4.8568
4.85698
4.85726
4.85766
4.85826
4.85862
4.85988
4.85922
4.85894
4.85901
4.85955
4.8605
4.86174
4.8631
4.8643
4.8653
4.86061
4.86026
4.86009
4.8602
4.86059
4.86124
4.86211
4.86314
4.86422
4.86611
4.8861
4.88438
4.88413
4.88459
4.88612
4.88856
4.89174
4.89565
4.89954
4.90371
4.94945
4.95039
4.95108
4.95135
4.95126
4.951
4.95043
4.95007
4.94802
4.95502
5.14737
5.14358
5.144
5.14519
5.14847
5.15334
5.15919
5.16559
5.16924
5.178
6.64048
6.63978
6.6395
6.63971
6.6404
6.64152
6.64301
6.64462
6.64609
6.6474
6.22585
6.22614
6.22626
6.22627
6.22626
6.22621
6.22613
6.22605
6.22597
6.22569
4.95346
4.95376
4.95383
4.95392
4.954
4.9541
4.95423
4.95441
4.95491
4.9544
4.88064
4.88114
4.88131
4.88136
4.88137
4.8814
4.88148
4.8816
4.88199
4.88229
4.85702
4.85694
4.85698
4.85698
4.85696
4.85693
4.85693
4.85703
4.85733
4.85763
4.85804
4.85747
4.85718
4.85723
4.85763
4.85835
4.85929
4.86031
4.86123
4.86204
4.85774
4.85749
4.85736
4.85741
4.85764
4.85802
4.8585
4.85905
4.8596
4.86081
4.87922
4.87792
4.87771
4.87809
4.87919
4.8809
4.88307
4.88567
4.88823
4.89154
4.93854
4.93936
4.94006
4.94026
4.94009
4.93964
4.93871
4.9377
4.93471
4.9401
5.13757
5.13479
5.13528
5.13641
5.1391
5.14296
5.14733
5.15178
5.1532
5.15997
6.36664
6.36621
6.36604
6.36618
6.36661
6.3673
6.3682
6.36913
6.36992
6.37068
5.96957
5.96982
5.96991
5.96992
5.96992
5.96989
5.96984
5.96978
5.96972
5.96946
4.94937
4.94988
4.95002
4.95016
4.95021
4.95023
4.95026
4.95034
4.9509
4.95046
4.87957
4.8799
4.87996
4.87999
4.88005
4.88018
4.88036
4.88059
4.88107
4.88157
4.85775
4.85775
4.85781
4.85779
4.85771
4.85759
4.85747
4.85741
4.85754
4.85785
4.85755
4.85709
4.85684
4.85686
4.85714
4.85764
4.8583
4.85903
4.85972
4.86037
4.85686
4.85665
4.85655
4.85657
4.8567
4.85692
4.8572
4.85751
4.85779
4.85857
4.87433
4.87335
4.87316
4.87344
4.8742
4.87537
4.87682
4.87854
4.88025
4.88292
4.92852
4.92907
4.92969
4.92986
4.92974
4.92935
4.92849
4.92749
4.92453
4.92895
5.12813
5.12616
5.12666
5.12773
5.12995
5.13305
5.13641
5.13956
5.13965
5.14508
6.08172
6.08148
6.08138
6.08146
6.08171
6.0821
6.0826
6.08309
6.08347
6.08389
5.7032
5.70341
5.70348
5.70349
5.70349
5.70347
5.70343
5.70339
5.70333
5.7031
4.9452
4.94584
4.94606
4.94624
4.94628
4.94624
4.94618
4.94616
4.94676
4.94657
4.8784
4.87852
4.87849
4.87849
4.87856
4.87873
4.87895
4.87924
4.87971
4.88043
4.85858
4.85857
4.85862
4.85859
4.8585
4.85837
4.85823
4.85814
4.85819
4.85853
4.85768
4.85733
4.85714
4.85714
4.85731
4.85763
4.85805
4.85852
4.859
4.8595
4.85696
4.85681
4.85673
4.85673
4.85679
4.85691
4.85704
4.85719
4.85733
4.85778
4.86969
4.86898
4.86882
4.86899
4.86946
4.87018
4.87106
4.87209
4.87319
4.87523
4.91724
4.91752
4.918
4.91814
4.91805
4.91774
4.91707
4.91625
4.9138
4.91737
5.1163
5.11503
5.11549
5.11646
5.11825
5.1207
5.12324
5.12538
5.12466
5.12889
5.78654
5.78642
5.78637
5.78641
5.78653
5.78673
5.78698
5.7872
5.78735
5.78757
5.42758
5.42775
5.42779
5.42781
5.42781
5.42779
5.42777
5.42774
5.42769
5.42751
4.93953
4.94017
4.94054
4.94077
4.94083
4.94074
4.94056
4.94041
4.94077
4.94108
4.87679
4.87667
4.87656
4.87651
4.87657
4.87672
4.87695
4.87723
4.87765
4.8785
4.8591
4.85904
4.85904
4.85901
4.85895
4.85886
4.85877
4.85871
4.85873
4.85908
4.85814
4.85791
4.85779
4.85778
4.85787
4.85804
4.85827
4.85854
4.85884
4.85918
4.85759
4.8575
4.85745
4.85744
4.85746
4.85749
4.85753
4.85757
4.85762
4.85783
4.86472
4.86427
4.86416
4.86423
4.86447
4.86483
4.86527
4.86577
4.86636
4.86773
4.90353
4.90357
4.90385
4.90391
4.90378
4.90347
4.90293
4.90229
4.90067
4.90331
5.09502
5.09432
5.09471
5.09551
5.09685
5.09862
5.10041
5.10166
5.10051
5.10331
5.48211
5.48205
5.48204
5.48205
5.48209
5.48215
5.48223
5.48229
5.48234
5.48244
5.14253
5.14263
5.14264
5.14264
5.14264
5.14264
5.14263
5.14263
5.14262
5.14253
4.9247
4.92527
4.92589
4.92621
4.9263
4.92618
4.92589
4.92548
4.92508
4.92571
4.87368
4.87333
4.87313
4.87303
4.87304
4.87316
4.87336
4.87364
4.87404
4.87487
4.85937
4.8593
4.85927
4.85925
4.85922
4.85918
4.85915
4.85913
4.85916
4.85939
4.85895
4.85883
4.85877
4.85876
4.8588
4.85888
4.85898
4.85911
4.85927
4.85945
4.85862
4.85859
4.85857
4.85856
4.85855
4.85855
4.85854
4.85853
4.85852
4.85857
4.86083
4.86064
4.86058
4.86061
4.86069
4.86083
4.86098
4.86115
4.86138
4.86201
4.88685
4.88669
4.88674
4.88669
4.88651
4.8862
4.88578
4.88536
4.88479
4.88649
5.04089
5.0406
5.04085
5.04136
5.04215
5.04318
5.0442
5.04476
5.04375
5.04479
5.16848
5.16845
5.16845
5.16846
5.16846
5.16846
5.16846
5.16845
5.16843
5.16849
11.2689
11.384
11.3384
11.1221
82.811
84.8881
85.3477
85.9963
143.137
148.611
149.08
147.835
202.798
212.234
212.101
207.812
264.477
278.137
276.932
269.48
332.769
351.049
348.948
340.207
395.152
417.802
415.419
408.03
433.161
459.432
457.485
452.912
345.676
368.253
365.702
364.354
11.4768
11.7154
11.5593
11.1513
9.71373
9.7731
9.77593
9.73194
76.0789
79.3226
80.0818
80.2021
133.886
144.806
145.906
143.74
192.905
214.533
215.068
209.171
256.137
290.977
290.03
280.08
329.505
380.265
378.49
365.616
399.592
466.61
465.643
452.615
446.077
527.564
528.604
517.416
350.512
422.871
420.96
416.127
10.7114
10.9422
10.8718
10.6515
8.77683
8.7898
8.78879
8.77728
26.5385
28.9555
28.2182
25.7089
49.358
53.7641
52.0999
47.426
74.5836
81.3425
78.2229
70.7076
103.457
112.995
107.817
96.7352
139.44
152.803
145.175
129.283
177.306
194.67
184.511
163.489
207.524
228.699
216.439
190.905
164.722
181.615
170.132
149.297
9.91275
10.0035
9.98032
9.88112
8.51188
8.51444
8.5151
8.51414
11.4731
11.7228
11.6933
11.4961
21.2132
21.9405
21.8771
21.3349
31.9977
33.4843
33.2323
31.9168
44.5108
46.9439
46.2796
43.7578
60.6337
64.4016
63.0818
58.7661
78.0543
83.1664
80.8997
74.4564
92.5729
99.1228
95.8361
87.1449
71.9317
77.0717
73.56
65.9594
9.44862
9.49305
9.48998
9.44957
8.33285
8.33395
8.33421
8.33356
7.04195
7.13352
7.15873
7.12889
11.6781
11.9744
12.0574
11.9714
16.8714
17.4858
17.5862
17.3196
22.8368
23.8565
23.8923
23.2885
30.7129
32.3377
32.2249
31.0363
39.2226
41.457
41.0392
39.0602
46.2602
49.1959
48.3789
45.3991
34.3993
36.6178
35.4276
32.5478
9.09829
9.12222
9.12384
9.10688
8.18253
8.18345
8.18355
8.18278
5.60673
5.62101
5.62624
5.62452
7.45597
7.52588
7.5586
7.55998
9.93754
10.1212
10.1884
10.1634
12.8337
13.1794
13.2657
13.1652
16.7961
17.4124
17.5023
17.2346
21.0454
21.942
21.9653
21.4362
24.4776
25.7293
25.6278
24.6916
17.48
18.3739
18.0195
17.0159
8.81276
8.82466
8.82702
8.82088
8.03169
8.03258
8.03265
8.03187
5.19695
5.20013
5.20101
5.20003
5.82316
5.83895
5.84759
5.84981
6.91433
6.96718
6.99234
6.99346
8.25899
8.37119
8.41549
8.4058
10.2336
10.4612
10.5311
10.4823
12.3585
12.7062
12.7764
12.6573
14.0527
14.5722
14.6189
14.3546
10.2214
10.5575
10.479
10.1878
8.56533
8.5708
8.57287
8.57147
7.87345
7.87432
7.87439
7.87364
5.06323
5.06439
5.0644
5.06347
5.23315
5.23552
5.23696
5.23761
5.68408
5.69643
5.70296
5.70434
6.26562
6.29594
6.31048
6.312
7.19411
7.26968
7.30031
7.2946
8.21556
8.33649
8.3763
8.35762
9.06849
9.26894
9.31347
9.24805
7.33869
7.45139
7.44531
7.37922
8.33732
8.3396
8.34106
8.34128
7.70547
7.7063
7.70637
7.70566
5.0133
5.01422
5.01416
5.01324
5.02034
5.02045
5.0205
5.02055
5.20444
5.20676
5.20804
5.20841
5.45538
5.46198
5.46556
5.46667
5.88059
5.90356
5.9141
5.91395
6.35897
6.39478
6.41008
6.41034
6.80627
6.87755
6.90003
6.88533
6.19838
6.23229
6.23661
6.22609
8.1141
8.11489
8.11579
8.11634
7.527
7.52778
7.52785
7.52719
4.99134
4.9922
4.99215
4.99127
4.93894
4.93883
4.93873
4.93864
5.0096
5.00983
5.00995
5.01
5.12349
5.12438
5.12495
5.12534
5.32339
5.3304
5.33371
5.33363
5.55974
5.56819
5.5728
5.57485
5.81399
5.83885
5.84791
5.84365
5.69857
5.70612
5.70878
5.70954
7.88843
7.88854
7.88904
7.88957
7.33768
7.3384
7.33846
7.33785
4.97959
4.98038
4.98032
4.97949
4.90614
4.9061
4.90602
4.9059
4.92539
4.92528
4.92522
4.92522
4.9803
4.98015
4.98009
4.98017
5.07668
5.07925
5.08035
5.08004
5.20664
5.20773
5.2088
5.21015
5.36626
5.37596
5.37928
5.37657
5.4541
5.45316
5.45374
5.45602
7.65704
7.65688
7.65715
7.65755
7.13731
7.13797
7.13802
7.13746
4.97183
4.97253
4.97246
4.97167
4.89242
4.89243
4.89237
4.89225
4.8873
4.88718
4.88713
4.88714
4.91575
4.91554
4.91541
4.91539
4.96186
4.96313
4.96359
4.96323
5.04265
5.04218
5.04227
5.04301
5.15351
5.15836
5.1595
5.15691
5.32492
5.32161
5.32111
5.32304
7.41814
7.41793
7.41806
7.41833
6.92578
6.92636
6.92639
6.92589
4.9658
4.9664
4.9663
4.96555
4.88654
4.88656
4.8865
4.88638
4.86973
4.86964
4.86961
4.86963
4.88596
4.88583
4.88573
4.88569
4.90699
4.90779
4.90804
4.90772
4.96374
4.96321
4.96309
4.96346
5.04875
5.05197
5.05231
5.04973
5.25294
5.24939
5.24849
5.24978
7.1706
7.17045
7.17051
7.17064
6.70301
6.70351
6.70353
6.70309
4.96066
4.96114
4.96102
4.96031
4.88397
4.884
4.88395
4.88382
4.86175
4.8617
4.86169
4.86171
4.87203
4.87197
4.87191
4.87186
4.88063
4.8812
4.88135
4.88109
4.92484
4.92455
4.92445
4.92456
4.99615
4.99877
4.99881
4.99623
5.21088
5.20785
5.20686
5.20751
6.91365
6.91361
6.91364
6.91364
6.46904
6.46945
6.46945
6.46907
4.9561
4.95647
4.95631
4.95565
4.88285
4.88289
4.88284
4.8827
4.85849
4.85848
4.85847
4.85848
4.86542
4.8654
4.86536
4.86532
4.86809
4.8685
4.86859
4.86837
4.90483
4.90483
4.90478
4.9047
4.96892
4.97134
4.97126
4.96865
5.18476
5.1825
5.18159
5.1816
6.64678
6.64689
6.6469
6.64679
6.22398
6.2243
6.22428
6.22396
4.95205
4.95231
4.95212
4.95151
4.88233
4.88241
4.88237
4.88221
4.85765
4.85768
4.85768
4.85767
4.86219
4.86219
4.86217
4.86214
4.86222
4.86251
4.86256
4.86237
4.89336
4.89358
4.89358
4.89336
4.95327
4.95568
4.95556
4.95287
5.16679
5.16545
5.16468
5.16406
6.3698
6.37005
6.37006
6.36985
5.96818
5.9684
5.96836
5.9681
4.94846
4.94864
4.94844
4.94788
4.88193
4.88208
4.88205
4.88185
4.85805
4.85811
4.85812
4.85808
4.86054
4.86056
4.86056
4.86053
4.85952
4.85971
4.85973
4.85958
4.88512
4.8855
4.88554
4.88523
4.94147
4.944
4.94388
4.94108
5.15201
5.15169
5.15113
5.14987
6.08282
6.08319
6.0832
6.08292
5.70234
5.70245
5.70238
5.70219
4.94521
4.94538
4.9452
4.94467
4.88123
4.88148
4.88147
4.88121
4.85887
4.85898
4.85899
4.85892
4.85969
4.85972
4.85973
4.85971
4.85835
4.85846
4.85846
4.85836
4.87745
4.87789
4.87795
4.87762
4.92867
4.93132
4.93125
4.92842
5.13571
5.1366
5.13632
5.13436
5.78639
5.78684
5.78686
5.78655
5.42737
5.42734
5.42726
5.42716
4.941
4.94139
4.94128
4.94066
4.8796
4.87994
4.87994
4.87961
4.85947
4.85959
4.8596
4.85952
4.85936
4.8594
4.85941
4.85941
4.85808
4.85812
4.85812
4.85808
4.86955
4.86995
4.87001
4.86973
4.91187
4.91428
4.91425
4.91178
5.10923
5.11163
5.1117
5.10889
5.48141
5.48192
5.48195
5.48161
5.14313
5.14289
5.1428
5.14287
4.92733
4.92822
4.9282
4.92724
4.87564
4.87587
4.87584
4.87558
4.85963
4.8597
4.85971
4.85965
4.85958
4.85961
4.85963
4.85963
4.85863
4.85863
4.85863
4.85862
4.86301
4.86323
4.86327
4.86313
4.89064
4.8918
4.89177
4.89056
5.04763
5.05116
5.05147
5.04804
5.16797
5.16853
5.16854
5.16816
10.1125
9.36664
9.05457
8.94205
8.87758
8.83213
8.80186
8.78484
8.77539
8.76976
103.673
49.118
35.7476
29.9527
24.5554
19.9479
16.362
13.6883
11.7805
10.4185
160.951
70.861
51.0936
43.742
37.1903
31.4243
26.5917
22.7111
19.6675
17.2929
206.425
82.5941
55.9821
46.7273
39.3608
32.7653
27.2275
22.8341
19.4428
16.8551
242.06
88.9512
58.8255
47.9642
40.076
32.735
26.6757
21.9535
18.3671
15.7219
278.033
94.6895
60.9728
48.3009
39.8441
31.7859
25.3515
20.4641
16.8815
14.3305
307.092
98.1568
61.6886
47.7795
39.0446
30.5186
23.9426
19.0735
15.5942
13.2102
315.206
93.75
56.626
42.2264
33.9164
25.786
19.9235
15.7965
13.0457
11.229
224.47
56.1323
30.5421
21.1155
16.283
12.2238
9.95496
8.61294
7.80403
7.27991
9.5691
9.54446
9.38906
9.36292
9.31634
9.29022
9.26946
9.25842
9.25096
9.24455
9.36707
9.05696
8.90474
8.81914
8.7652
8.72958
8.70645
8.6927
8.6853
8.68061
53.1029
28.6715
22.5573
19.4497
16.6685
14.1975
12.1627
10.6001
9.46039
8.66824
89.9996
46.276
35.8019
31.0214
27.1813
23.5087
20.2901
17.6312
15.503
13.884
122.266
58.6132
42.8657
35.6344
30.5501
25.7661
21.6956
18.4225
15.8725
13.986
152.564
68.7681
47.8564
38.5199
32.3839
26.6776
21.9768
18.2976
15.4853
13.4752
186.437
78.8751
52.1441
40.4746
33.2571
26.6688
21.4535
17.4955
14.5911
12.5911
217.204
86.4733
54.7116
41.2486
33.3524
26.1769
20.6975
16.6606
13.7706
11.8533
233.195
86.7478
51.9157
37.4827
29.5772
22.5768
17.5737
14.0831
11.7632
10.283
167.404
54.7538
29.061
19.3788
14.6944
11.2263
9.2744
8.12942
7.43355
7.00274
9.81843
9.50189
9.33073
9.26745
9.21256
9.17928
9.15513
9.14038
9.12999
9.12098
8.73772
8.69631
8.66358
8.63635
8.61505
8.59959
8.58928
8.5831
8.57966
8.57721
19.9486
16.5771
14.5033
12.6848
11.115
9.8118
8.79743
8.04849
7.5097
7.13706
35.9217
28.7137
24.9265
21.6901
18.9142
16.5058
14.5105
12.9061
11.6307
10.6688
51.039
37.9377
31.5417
26.3507
22.2594
18.8398
16.0965
13.9473
12.2879
11.074
66.1298
45.6932
36.6301
29.5934
24.3788
20.1251
16.8131
14.2902
12.3788
11.0257
83.2267
53.3437
41.1433
32.0835
25.7346
20.661
16.8416
14.0198
11.974
10.5806
99.1241
59.1895
44.1488
33.4569
26.3354
20.7047
16.5972
13.654
11.5704
10.1993
108.418
59.756
42.5975
30.999
23.7634
18.2172
14.4241
11.8566
10.1702
9.0975
75.9414
36.6475
23.8672
16.2721
12.2252
9.68215
8.28956
7.47139
6.96265
6.64329
9.57139
9.37692
9.24295
9.1631
9.10548
9.06944
9.04435
9.02725
9.0146
9.00371
8.50933
8.49926
8.48821
8.47828
8.47074
8.46561
8.4624
8.46077
8.46037
8.4599
10.9417
10.1339
9.28471
8.44018
7.73289
7.19009
6.79123
6.50315
6.29456
6.14946
19.8686
18.0296
16.1776
14.3044
12.6884
11.36
10.2985
9.4627
8.80341
8.30879
28.4788
24.6342
21.191
17.9889
15.4007
13.3284
11.7048
10.4519
9.49345
8.79824
37.2442
30.6674
25.4313
20.8633
17.3672
14.6398
12.5631
11.0093
9.84164
9.01738
47.4707
36.971
29.5239
23.3592
18.8642
15.4394
12.915
11.0861
9.77429
8.88352
57.0688
42.0758
32.5518
25.0122
19.7589
15.8308
13.0265
11.0611
9.68081
8.76935
62.7976
43.263
32.087
23.711
18.2345
14.3058
11.6794
9.94082
8.8027
8.06975
42.7442
26.2026
17.9715
12.7909
10.0232
8.39113
7.47301
6.91835
6.55961
6.32901
9.32674
9.18817
9.08101
9.01133
8.96309
8.93142
8.90867
8.89234
8.88
8.86957
8.33339
8.3319
8.33038
8.32921
8.32851
8.32821
8.32824
8.32869
8.3298
8.33083
6.99896
6.75884
6.50586
6.2674
6.06901
5.91256
5.79217
5.70049
5.63112
5.58314
11.6115
10.9258
10.1519
9.37413
8.68721
8.11483
7.65556
7.29394
7.00544
6.78747
16.4406
14.9579
13.376
11.8597
10.5721
9.52168
8.69347
8.05527
7.56701
7.2142
21.5368
18.9351
16.3582
14.0117
12.113
10.6146
9.4725
8.62365
7.98354
7.5291
27.768
23.444
19.5081
16.0865
13.4433
11.4217
9.93314
8.86334
8.09569
7.57179
33.7354
27.3821
22.0647
17.6412
14.3787
11.9546
10.2303
9.03376
8.18809
7.62148
37.3932
28.7893
22.261
17.1532
13.6355
11.1582
9.50848
8.4214
7.70015
7.22518
24.5275
17.3336
12.8086
9.9567
8.36338
7.40477
6.82994
6.467
6.22052
6.05878
9.05257
8.96947
8.89784
8.84674
8.8093
8.78248
8.76226
8.74706
8.73533
8.72554
8.18336
8.18351
8.18387
8.18445
8.18518
8.18597
8.18677
8.18775
8.18924
8.191
5.60809
5.56491
5.51354
5.46134
5.41411
5.37362
5.3401
5.31313
5.29255
5.27957
7.50477
7.31379
7.06536
6.80591
6.57061
6.37238
6.21227
6.08443
5.9778
5.89482
9.97797
9.47222
8.85086
8.2275
7.67865
7.22429
6.86231
6.57995
6.36004
6.20032
12.7363
11.7744
10.6615
9.59947
8.70684
7.99552
7.45045
7.04301
6.72809
6.5002
16.3273
14.6095
12.753
11.0605
9.69803
8.648
7.87057
7.30835
6.8976
6.61336
19.8645
17.2459
14.5827
12.2672
10.4868
9.16038
8.2118
7.55008
7.06993
6.74007
22.1177
18.4192
14.9967
12.2233
10.2376
8.84176
7.90142
7.27189
6.84163
6.55067
14.3934
11.5377
9.42742
8.05164
7.2157
6.67988
6.33276
6.10282
5.9385
5.82922
8.79747
8.75135
8.70712
8.67163
8.64329
8.62125
8.60385
8.59025
8.5795
8.57068
8.03258
8.03291
8.03347
8.03422
8.03508
8.03592
8.03674
8.03768
8.03909
8.04089
5.19675
5.1886
5.17893
5.16825
5.1576
5.14756
5.13864
5.13124
5.12618
5.12428
5.83884
5.79293
5.73053
5.66336
5.60096
5.54741
5.5034
5.46696
5.43313
5.40495
6.95017
6.79216
6.58431
6.36812
6.17123
6.00316
5.86451
5.75207
5.66102
5.59418
8.29797
7.96326
7.54431
7.1319
6.77512
6.4848
6.25682
6.08148
5.93869
5.83186
10.2207
9.55358
8.76914
8.03132
7.41909
6.93852
6.57415
6.30295
6.09725
5.9522
12.1902
11.1256
9.92457
8.84888
7.99522
7.34951
6.87706
6.53869
6.28125
6.09841
13.519
11.9499
10.3391
8.99863
8.00425
7.29177
6.7958
6.45171
6.20677
6.03692
9.4258
8.38588
7.50698
6.88454
6.46176
6.16827
5.96309
5.82083
5.71385
5.64233
8.56192
8.53738
8.51064
8.48635
8.46528
8.44776
8.4333
8.42161
8.41213
8.40448
7.87434
7.8746
7.87502
7.87559
7.87624
7.87687
7.87746
7.87815
7.87931
7.8809
5.06298
5.06122
5.05924
5.05689
5.05426
5.05149
5.0489
5.04684
5.04609
5.04701
5.23567
5.22723
5.21548
5.20232
5.18991
5.17939
5.17107
5.16393
5.15499
5.14625
5.69446
5.65151
5.59146
5.5254
5.46177
5.40432
5.35413
5.3111
5.27463
5.24776
6.28734
6.18738
6.05365
5.91576
5.79079
5.68437
5.59686
5.52647
5.46472
5.41647
7.22107
6.98835
6.69955
6.41652
6.17119
5.97017
5.8104
5.68573
5.58662
5.5157
8.22886
7.83639
7.361
6.91947
6.55407
6.26669
6.04667
5.88212
5.749
5.65094
8.98469
8.36854
7.69575
7.11361
6.66007
6.32029
6.07138
5.89048
5.7561
5.66123
7.18582
6.82329
6.46896
6.1881
5.97526
5.81557
5.69599
5.60962
5.54128
5.49576
8.33708
8.32372
8.30736
8.2909
8.27561
8.26215
8.25058
8.24092
8.23289
8.2265
7.70634
7.70652
7.70679
7.70717
7.7076
7.708
7.70834
7.70878
7.70966
7.711
5.0133
5.01255
5.01181
5.01097
5.00998
5.00887
5.00782
5.00712
5.00736
5.00861
5.02004
5.01898
5.01785
5.01665
5.01586
5.01578
5.01647
5.01713
5.01562
5.01308
5.20584
5.19452
5.17767
5.1577
5.13711
5.11728
5.09885
5.08212
5.06737
5.05659
5.46128
5.43454
5.3959
5.35322
5.31195
5.2747
5.24246
5.21528
5.18909
5.16745
5.89246
5.81786
5.72088
5.61948
5.52577
5.44417
5.3755
5.31907
5.27216
5.23847
6.38028
6.25245
6.08382
5.9173
5.77033
5.64763
5.54819
5.47017
5.40263
5.35092
6.80387
6.5809
6.32418
6.08739
5.8902
5.73336
5.61188
5.51942
5.44805
5.39731
6.17793
6.04666
5.90077
5.77156
5.66391
5.57722
5.50818
5.45649
5.41341
5.38507
8.11408
8.10656
8.0965
8.08553
8.07471
8.06472
8.05581