/*--------------------------------*- C++ -*----------------------------------*\
| =========                 |                                                 |
| \\      /  F ield         | foam-extend: Open Source CFD                    |
|  \\    /   O peration     | Version:     4.0                                |
|   \\  /    A nd           | Web:         http://www.foam-extend.org         |
|    \\/     M anipulation  |                                                 |
\*---------------------------------------------------------------------------*/
FoamFile
{
    version     2.0;
    format      ascii;
    class       volScalarField;
    location    "2000";
    object      MaU;
}
// * * * * * * * * * * * * * * * * * * * * * * * * * * * * * * * * * * * * * //

dimensions      [0 0 0 0 0 0 0];

internalField   nonuniform List<scalar> 
34480
(
0.623786
0.624783
0.625318
0.625431
0.625125
0.624326
0.622894
0.620148
0.614053
0.608257
0.62721
0.628037
0.628498
0.628529
0.627971
0.626676
0.624671
0.621707
0.614689
0.609135
0.629401
0.630159
0.630532
0.630439
0.629703
0.628355
0.62658
0.624285
0.617249
0.61213
0.6294
0.630179
0.63062
0.630658
0.630147
0.629202
0.627927
0.626346
0.619698
0.615052
0.629866
0.630749
0.63133
0.631587
0.631399
0.630932
0.630203
0.629393
0.62353
0.619369
0.629466
0.630408
0.631073
0.63146
0.631508
0.631447
0.631254
0.631266
0.626585
0.623244
0.629675
0.630758
0.631531
0.632058
0.632316
0.632596
0.632898
0.633729
0.630495
0.627954
0.629088
0.630212
0.630942
0.631354
0.631498
0.631732
0.632186
0.633556
0.631838
0.630484
0.62884
0.630121
0.630965
0.631512
0.631832
0.632227
0.63293
0.634796
0.634348
0.632901
0.625038
0.626062
0.626099
0.625222
0.623601
0.621615
0.619715
0.61917
0.618369
0.619154
0.613889
0.615351
0.615924
0.615676
0.614532
0.612216
0.608102
0.600832
0.590122
0.576266
0.618507
0.619815
0.62034
0.620079
0.618836
0.616241
0.611699
0.603851
0.591193
0.575034
0.621582
0.622805
0.623277
0.622982
0.621666
0.619024
0.614553
0.606867
0.593363
0.576026
0.622394
0.623629
0.624167
0.624005
0.622897
0.620599
0.616526
0.609269
0.595375
0.577617
0.623542
0.624851
0.625506
0.625551
0.624742
0.622897
0.619346
0.612732
0.598932
0.581329
0.623682
0.625035
0.62577
0.62595
0.625377
0.623947
0.620942
0.615115
0.601866
0.585052
0.624338
0.625799
0.626629
0.626954
0.626598
0.62554
0.623071
0.618099
0.605777
0.590036
0.624074
0.625563
0.626362
0.626604
0.626193
0.625198
0.623021
0.618765
0.607631
0.59358
0.624073
0.62567
0.62656
0.626916
0.626684
0.625923
0.624137
0.620629
0.610753
0.597501
0.620463
0.621876
0.622209
0.621546
0.619943
0.617549
0.614091
0.609282
0.599881
0.589752
0.606262
0.607829
0.608393
0.608073
0.606831
0.604512
0.600817
0.59525
0.587177
0.576988
0.611165
0.612699
0.613257
0.612879
0.611448
0.608698
0.604123
0.596865
0.585475
0.570318
0.614513
0.616046
0.616598
0.616217
0.614722
0.611792
0.606809
0.598644
0.584627
0.564806
0.615819
0.617413
0.618043
0.617775
0.616408
0.613619
0.60863
0.600039
0.583869
0.559943
0.617443
0.619127
0.619866
0.619779
0.618642
0.61616
0.611409
0.6028
0.58513
0.557915
0.618003
0.619743
0.620567
0.620613
0.619678
0.617517
0.61311
0.604779
0.586223
0.556639
0.619022
0.620856
0.62177
0.621961
0.621228
0.619393
0.615395
0.607539
0.588671
0.55742
0.619057
0.620917
0.621816
0.621952
0.621191
0.619443
0.615716
0.608388
0.589733
0.557641
0.619316
0.621239
0.622208
0.622434
0.621804
0.620249
0.616883
0.610219
0.592208
0.558715
0.615947
0.617701
0.618257
0.617724
0.616085
0.613341
0.608829
0.601395
0.583939
0.55086
0.600703
0.602078
0.602549
0.602241
0.60115
0.599218
0.596348
0.592443
0.587484
0.581954
0.605341
0.606806
0.607315
0.606906
0.605506
0.602969
0.599046
0.593392
0.585566
0.576642
0.608537
0.610122
0.610667
0.610226
0.608674
0.605785
0.601132
0.594089
0.583495
0.570559
0.610041
0.611763
0.612397
0.612021
0.610475
0.607487
0.602437
0.594392
0.58114
0.563926
0.611933
0.613783
0.61452
0.614278
0.612856
0.609968
0.604811
0.596175
0.580671
0.55946
0.612783
0.614716
0.615539
0.615406
0.614113
0.611393
0.606291
0.597397
0.580097
0.555409
0.614075
0.616104
0.61701
0.617005
0.615868
0.613368
0.60845
0.599555
0.580976
0.553342
0.614367
0.616422
0.617324
0.617282
0.616126
0.613677
0.608892
0.600167
0.580896
0.551004
0.614848
0.616938
0.617893
0.617926
0.616875
0.614563
0.609965
0.601575
0.582277
0.549848
0.611727
0.613664
0.61433
0.613822
0.612067
0.608941
0.603577
0.594581
0.575477
0.541847
0.596843
0.597925
0.598286
0.598049
0.597234
0.59585
0.593914
0.591494
0.58874
0.586022
0.600924
0.602164
0.602596
0.602239
0.601064
0.599019
0.596034
0.592088
0.58724
0.582454
0.603667
0.605139
0.605645
0.605226
0.60381
0.601273
0.597403
0.591984
0.584739
0.577119
0.6051
0.606794
0.607405
0.607002
0.605473
0.602632
0.59809
0.591391
0.581606
0.570557
0.607032
0.608912
0.60963
0.60931
0.607792
0.604848
0.599898
0.592236
0.580059
0.565423
0.60801
0.610018
0.610829
0.610586
0.609112
0.606163
0.600985
0.592655
0.578333
0.560213
0.60945
0.611577
0.612469
0.61233
0.61095
0.608088
0.60285
0.594118
0.578013
0.556632
0.609918
0.612086
0.612988
0.612823
0.611415
0.608545
0.603266
0.594347
0.576971
0.552744
0.610571
0.612764
0.613707
0.613601
0.612268
0.609485
0.604261
0.595309
0.577301
0.550001
0.607679
0.609731
0.610477
0.609992
0.608172
0.604827
0.599078
0.589602
0.571369
0.541989
0.594201
0.595006
0.595263
0.595101
0.594547
0.593637
0.592417
0.590982
0.589465
0.588015
0.597686
0.598643
0.598981
0.598704
0.597807
0.596293
0.594187
0.591584
0.588689
0.58611
0.599858
0.60111
0.601543
0.601186
0.600001
0.597945
0.594964
0.591073
0.586385
0.581959
0.601052
0.602587
0.60314
0.602758
0.601374
0.598887
0.595115
0.589932
0.583151
0.576312
0.602849
0.604625
0.605291
0.604946
0.603473
0.600723
0.596351
0.590053
0.58113
0.571546
0.603813
0.605767
0.606534
0.60623
0.604717
0.601808
0.596993
0.589785
0.578781
0.566311
0.605288
0.607395
0.608246
0.608016
0.606526
0.603571
0.598483
0.590592
0.577704
0.562326
0.605845
0.608017
0.608892
0.608639
0.607101
0.604064
0.598774
0.590412
0.576018
0.557898
0.606615
0.608819
0.609727
0.609518
0.60802
0.60501
0.599654
0.590994
0.575621
0.554507
0.603917
0.605994
0.606775
0.606305
0.604474
0.601071
0.595326
0.58617
0.570296
0.546969
0.592387
0.592975
0.593151
0.593049
0.592699
0.592136
0.591405
0.590584
0.589753
0.588923
0.595354
0.596043
0.59629
0.596093
0.595456
0.594407
0.593003
0.591356
0.589656
0.588259
0.596957
0.597948
0.598297
0.598016
0.597093
0.595533
0.593362
0.590691
0.587743
0.58518
0.59784
0.599141
0.599613
0.599284
0.598118
0.596081
0.593129
0.589315
0.58478
0.580587
0.599386
0.600965
0.601554
0.601225
0.599901
0.597505
0.593877
0.588969
0.582692
0.576524
0.600232
0.60203
0.602727
0.602407
0.600972
0.598303
0.594107
0.588212
0.580128
0.571759
0.601648
0.603635
0.60442
0.604144
0.602666
0.599837
0.595222
0.588499
0.578675
0.567961
0.60221
0.604289
0.605112
0.60481
0.603256
0.600276
0.595336
0.587972
0.576655
0.563613
0.603046
0.605173
0.606027
0.605754
0.604206
0.601193
0.596088
0.588267
0.575863
0.560275
0.600499
0.602517
0.603294
0.602845
0.601067
0.597766
0.592344
0.584042
0.570996
0.55348
0.59111
0.591547
0.591666
0.591606
0.591395
0.591061
0.590637
0.590175
0.58971
0.589179
0.593679
0.594149
0.594322
0.59419
0.593763
0.593071
0.592173
0.59116
0.590167
0.589393
0.594784
0.595523
0.595788
0.595582
0.594903
0.59378
0.592269
0.590494
0.588662
0.587167
0.595357
0.596398
0.596781
0.596517
0.595592
0.594012
0.591809
0.589103
0.586128
0.583562
0.5966
0.59793
0.598428
0.59814
0.59702
0.595047
0.592183
0.588511
0.584204
0.580269
0.597264
0.598837
0.599444
0.599141
0.597864
0.595555
0.592085
0.58747
0.581705
0.576163
0.598559
0.600348
0.601046
0.600761
0.599389
0.596841
0.592877
0.58741
0.580169
0.57284
0.599051
0.600958
0.601705
0.601388
0.599914
0.597161
0.592799
0.586628
0.578058
0.568895
0.599913
0.601889
0.602667
0.602367
0.600867
0.598026
0.593429
0.586734
0.577125
0.565985
0.597475
0.599358
0.600098
0.599678
0.598013
0.594951
0.590075
0.582922
0.572651
0.560019
0.590179
0.590517
0.590599
0.590567
0.590443
0.590251
0.59001
0.589751
0.589484
0.589106
0.592465
0.592773
0.592889
0.592805
0.592531
0.592093
0.591535
0.590925
0.590347
0.589911
0.593163
0.593688
0.593879
0.593736
0.59326
0.592486
0.591472
0.590324
0.589197
0.588319
0.593476
0.594269
0.594566
0.594366
0.593668
0.592498
0.590916
0.589054
0.587125
0.585553
0.59441
0.595478
0.59588
0.595644
0.594745
0.593197
0.591028
0.588371
0.585465
0.582965
0.594867
0.596182
0.59669
0.596423
0.595346
0.593445
0.590699
0.587214
0.583188
0.579552
0.596009
0.597553
0.598152
0.597884
0.596679
0.594499
0.591245
0.586969
0.58176
0.576815
0.596377
0.598054
0.598708
0.598404
0.597077
0.594661
0.590985
0.586026
0.579717
0.573401
0.597238
0.599005
0.599693
0.599395
0.598017
0.595474
0.591525
0.58604
0.578827
0.571064
0.594872
0.59656
0.597236
0.596855
0.595355
0.59263
0.588429
0.582526
0.57471
0.565883
0.589473
0.58975
0.589807
0.589791
0.58972
0.589612
0.589476
0.58933
0.589171
0.588874
0.591568
0.591765
0.591841
0.59179
0.59162
0.59135
0.591012
0.590649
0.590311
0.590059
0.591947
0.592304
0.592437
0.592341
0.592021
0.591506
0.590846
0.59012
0.589433
0.588914
0.592073
0.592652
0.592873
0.592729
0.592224
0.59139
0.590291
0.58904
0.587803
0.586837
0.59272
0.593542
0.593854
0.593671
0.592981
0.591815
0.59023
0.588361
0.586429
0.584844
0.592978
0.59403
0.59444
0.594219
0.593351
0.591853
0.58976
0.58721
0.584444
0.582076
0.593963
0.595243
0.595738
0.595504
0.594495
0.592712
0.590145
0.586911
0.583237
0.579937
0.594167
0.595584
0.596137
0.595863
0.594724
0.592696
0.589723
0.585882
0.581344
0.577058
0.595021
0.596543
0.597131
0.596857
0.59565
0.593474
0.590219
0.585895
0.580618
0.575321
0.592693
0.594149
0.594742
0.594408
0.593106
0.590777
0.587296
0.582607
0.576827
0.570818
0.588918
0.589157
0.589198
0.589192
0.589151
0.589091
0.589014
0.588932
0.588833
0.588582
0.590891
0.591015
0.591065
0.591035
0.590932
0.59077
0.590568
0.590353
0.590153
0.590004
0.591019
0.591255
0.591343
0.591281
0.591073
0.59074
0.590322
0.589871
0.589455
0.589149
0.591037
0.591445
0.591605
0.591505
0.591153
0.590579
0.589836
0.589012
0.588225
0.58763
0.591435
0.592044
0.592276
0.59214
0.591631
0.590785
0.589663
0.588381
0.587112
0.586111
0.591521
0.59233
0.592647
0.592473
0.591803
0.590667
0.589124
0.587309
0.585438
0.583906
0.592365
0.593386
0.593782
0.593588
0.59278
0.591379
0.589424
0.587051
0.584504
0.582324
0.59238
0.593531
0.593981
0.593748
0.592812
0.591179
0.588861
0.585982
0.582785
0.57992
0.593238
0.594502
0.594988
0.59475
0.593739
0.591953
0.58937
0.586075
0.582303
0.578749
0.590924
0.592128
0.592629
0.592347
0.591258
0.589342
0.586562
0.582965
0.578798
0.574801
0.588473
0.588685
0.588716
0.588715
0.588692
0.588658
0.588615
0.588568
0.588502
0.58828
0.590371
0.59045
0.590484
0.590467
0.590406
0.590309
0.590189
0.590062
0.589942
0.589848
0.590294
0.590443
0.590499
0.59046
0.590328
0.59012
0.589861
0.589586
0.589337
0.589156
0.590279
0.590558
0.59067
0.590604
0.590367
0.589982
0.589492
0.588959
0.588462
0.588094
0.590467
0.590901
0.591068
0.590971
0.590609
0.590014
0.589242
0.588383
0.58756
0.586931
0.590416
0.591016
0.591253
0.591123
0.590625
0.589793
0.58869
0.58743
0.586182
0.585198
0.591149
0.591935
0.59224
0.592089
0.591467
0.590406
0.588965
0.587271
0.585535
0.584107
0.590962
0.591861
0.592215
0.592025
0.591286
0.590021
0.588275
0.586182
0.583973
0.582085
0.59185
0.592864
0.59325
0.593055
0.592242
0.590834
0.588856
0.586422
0.583782
0.581432
0.589527
0.590484
0.590891
0.590662
0.589785
0.588267
0.586123
0.583452
0.580519
0.577916
0.588108
0.588301
0.588325
0.588326
0.588313
0.588294
0.58827
0.588243
0.588197
0.587996
0.589971
0.590023
0.590047
0.590038
0.590002
0.589945
0.589874
0.589798
0.589722
0.58966
0.589706
0.589798
0.589832
0.589807
0.589726
0.589598
0.589441
0.589277
0.589131
0.589026
0.589729
0.589916
0.589992
0.589951
0.589796
0.589545
0.589228
0.588888
0.588575
0.588346
0.589741
0.59004
0.590155
0.590088
0.589839
0.589434
0.588916
0.588353
0.587827
0.587435
0.589594
0.590023
0.590195
0.5901
0.589743
0.589154
0.588387
0.587534
0.586713
0.586087
0.590249
0.590833
0.59106
0.590947
0.590486
0.589711
0.588682
0.587503
0.58634
0.585411
0.58985
0.590525
0.590793
0.590645
0.590084
0.589139
0.587866
0.586388
0.584891
0.583665
0.590811
0.591595
0.591893
0.59174
0.591112
0.590042
0.588578
0.586833
0.585023
0.583488
0.588457
0.589184
0.589503
0.589324
0.588644
0.587485
0.585886
0.583964
0.581945
0.580288
0.587807
0.587983
0.588001
0.588003
0.587996
0.587985
0.587972
0.587955
0.587922
0.587739
0.589673
0.58971
0.589728
0.589723
0.589702
0.589668
0.589625
0.589578
0.589528
0.589481
0.589212
0.589265
0.589284
0.589269
0.589219
0.589143
0.58905
0.588955
0.588872
0.588813
0.589337
0.58946
0.589512
0.589487
0.589388
0.589228
0.589027
0.588812
0.588617
0.588473
0.589197
0.589396
0.589473
0.589427
0.589261
0.588993
0.588655
0.588294
0.587963
0.587722
0.588992
0.58929
0.589409
0.589343
0.589096
0.588691
0.588173
0.587607
0.587076
0.586681
0.5896
0.590019
0.590183
0.590101
0.589772
0.589225
0.588512
0.587713
0.586947
0.586348
0.588981
0.589468
0.589663
0.589553
0.589142
0.588461
0.587561
0.586546
0.585552
0.584769
0.590069
0.590657
0.590877
0.590763
0.590297
0.589514
0.588466
0.58725
0.586034
0.585042
0.587654
0.588183
0.588425
0.588289
0.587782
0.586928
0.585775
0.584434
0.583075
0.582046
0.587547
0.587708
0.58772
0.587723
0.587719
0.587713
0.587706
0.587696
0.587672
0.587506
0.589471
0.589499
0.589514
0.589512
0.589499
0.589479
0.589452
0.58942
0.589384
0.589343
0.588777
0.588806
0.588815
0.588804
0.588774
0.58873
0.588677
0.588625
0.588581
0.58855
0.589066
0.589146
0.589181
0.589167
0.589106
0.589006
0.58888
0.588746
0.588624
0.588532
0.588793
0.588921
0.58897
0.58894
0.588832
0.58866
0.588445
0.588219
0.588015
0.587869
0.588565
0.588765
0.588846
0.588802
0.588636
0.588367
0.588025
0.587658
0.587319
0.587073
0.589145
0.589436
0.589549
0.589492
0.589265
0.588892
0.588413
0.587886
0.587392
0.587009
0.588293
0.588631
0.588768
0.588689
0.588399
0.587924
0.587308
0.58663
0.585982
0.585494
0.58958
0.590007
0.590164
0.590083
0.58975
0.589197
0.588471
0.587647
0.586849
0.586211
0.587053
0.58742
0.587596
0.587498
0.587133
0.586527
0.585722
0.584814
0.58392
0.5833
0.587292
0.587435
0.587443
0.587446
0.587444
0.587441
0.587437
0.587431
0.587414
0.587268
0.58937
0.589395
0.589407
0.589408
0.5894
0.589386
0.589368
0.589345
0.589314
0.589274
0.588382
0.588394
0.588396
0.588388
0.58837
0.588345
0.588317
0.58829
0.588269
0.588258
0.588891
0.588943
0.588966
0.588959
0.588922
0.58886
0.588784
0.588701
0.588626
0.588566
0.588506
0.588585
0.588616
0.588597
0.588529
0.588421
0.588287
0.588148
0.588025
0.587939
0.588284
0.588415
0.588469
0.588441
0.588333
0.588158
0.587939
0.587705
0.587491
0.587339
0.58884
0.589032
0.589108
0.589069
0.588918
0.588671
0.58836
0.588022
0.587713
0.587472
0.587745
0.58797
0.588064
0.588009
0.587812
0.587492
0.587081
0.586639
0.586223
0.585928
0.589307
0.589609
0.589718
0.589661
0.589433
0.589056
0.58857
0.588028
0.587516
0.587107
0.586567
0.586809
0.586934
0.586865
0.586613
0.586197
0.585653
0.585058
0.584479
0.584122
0.586941
0.587063
0.587068
0.58707
0.587069
0.587068
0.587066
0.587064
0.587054
0.58693
0.589396
0.589421
0.589432
0.589433
0.589428
0.589419
0.589405
0.589386
0.589358
0.589312
0.588023
0.588025
0.588025
0.588019
0.588008
0.587994
0.587979
0.587967
0.587959
0.58796
0.588796
0.588828
0.588842
0.588837
0.588814
0.588778
0.588733
0.588684
0.58864
0.588602
0.588326
0.588374
0.588394
0.588383
0.588341
0.588275
0.588194
0.588109
0.588035
0.587985
0.588137
0.588221
0.588257
0.58824
0.588172
0.588061
0.587923
0.587777
0.587643
0.587548
0.588654
0.588775
0.588821
0.588795
0.588697
0.58854
0.588344
0.588135
0.587949
0.587803
0.587331
0.587477
0.587541
0.587506
0.587377
0.587166
0.586898
0.586615
0.586347
0.586175
0.589247
0.589453
0.589526
0.589487
0.589336
0.589088
0.588773
0.588426
0.588108
0.587842
0.586059
0.586212
0.586299
0.586253
0.586084
0.585808
0.58545
0.58507
0.5847
0.584507
0.586274
0.586369
0.586371
0.586372
0.586373
0.586373
0.586374
0.586374
0.586372
0.586276
0.589617
0.589644
0.589652
0.589653
0.589649
0.589642
0.589632
0.589616
0.58959
0.589537
0.587746
0.587748
0.58775
0.587748
0.587743
0.587735
0.587725
0.587716
0.58771
0.587714
0.588762
0.588779
0.588784
0.588779
0.588765
0.588744
0.588719
0.588694
0.588673
0.588652
0.588253
0.588284
0.588298
0.588292
0.588267
0.588227
0.588177
0.588125
0.588079
0.588048
0.588116
0.588171
0.588195
0.588184
0.588142
0.588073
0.587987
0.587896
0.587811
0.58775
0.588572
0.588642
0.588669
0.58865
0.588588
0.58849
0.58837
0.588245
0.58814
0.588058
0.587128
0.587227
0.587273
0.587253
0.58717
0.587034
0.58686
0.586677
0.586496
0.586391
0.58945
0.589584
0.58963
0.589603
0.589505
0.589346
0.589147
0.588934
0.588745
0.588571
0.585301
0.585395
0.585457
0.585426
0.585316
0.585137
0.584905
0.584666
0.584423
0.58433
0.584978
0.585044
0.585047
0.58505
0.585051
0.585051
0.585051
0.58505
0.58505
0.584982
0.590174
0.590191
0.590188
0.590183
0.590178
0.590174
0.590172
0.590168
0.590157
0.590107
0.587668
0.587681
0.587694
0.587699
0.587698
0.587692
0.58768
0.587665
0.587647
0.587636
0.588762
0.588765
0.588762
0.588756
0.588747
0.588735
0.588723
0.588713
0.588709
0.588705
0.58827
0.588292
0.588303
0.5883
0.588285
0.58826
0.588228
0.588195
0.588163
0.58814
0.588191
0.588228
0.588244
0.588238
0.588212
0.588168
0.588113
0.588055
0.588
0.587957
0.588573
0.588611
0.588625
0.588611
0.58857
0.588508
0.588434
0.58836
0.588302
0.588264
0.587293
0.58737
0.587406
0.587395
0.587341
0.587251
0.587135
0.58701
0.586877
0.58679
0.590042
0.590117
0.590143
0.590122
0.590056
0.589952
0.589827
0.589698
0.589598
0.589501
0.584018
0.584081
0.584126
0.584106
0.584033
0.583914
0.583762
0.583605
0.583435
0.583388
0.583155
0.583196
0.583208
0.583215
0.583218
0.583215
0.583208
0.583196
0.583179
0.583124
0.591098
0.59107
0.591041
0.591021
0.591012
0.591013
0.591025
0.591048
0.591081
0.591091
0.587851
0.587887
0.587911
0.587923
0.587925
0.587918
0.587903
0.587879
0.587842
0.587798
0.588752
0.588744
0.588737
0.58873
0.588723
0.588715
0.588709
0.588708
0.588714
0.588727
0.588325
0.588342
0.588351
0.58835
0.588339
0.588321
0.588299
0.588274
0.58825
0.58823
0.588287
0.588314
0.588326
0.588322
0.588302
0.588271
0.588232
0.58819
0.588151
0.588119
0.588594
0.588616
0.588625
0.588614
0.588584
0.588539
0.588486
0.588434
0.588399
0.588385
0.587812
0.587883
0.587914
0.587908
0.587868
0.587802
0.587716
0.58762
0.587511
0.587412
0.591
0.591028
0.591039
0.59102
0.59097
0.590894
0.590804
0.59072
0.590674
0.590672
0.58233
0.582388
0.582421
0.582407
0.582351
0.582262
0.582151
0.582035
0.581907
0.581865
0.439194
0.418441
0.425347
0.466304
0.39142
0.368181
0.379222
0.436457
0.348232
0.321085
0.338422
0.417345
0.310164
0.280766
0.3051
0.406427
0.278687
0.248621
0.280189
0.404017
0.251584
0.222067
0.261903
0.40121
0.229868
0.202225
0.25085
0.398578
0.209483
0.185367
0.242831
0.396486
0.191541
0.17352
0.239249
0.39812
0.17208
0.162211
0.234937
0.393625
0.499273
0.489075
0.4894
0.499114
0.468784
0.456169
0.457314
0.469992
0.437909
0.421188
0.423398
0.440971
0.40889
0.387923
0.391517
0.414237
0.38423
0.358765
0.364023
0.392089
0.362185
0.331836
0.337888
0.371217
0.344305
0.308968
0.314854
0.353281
0.327863
0.287728
0.293167
0.336585
0.314321
0.270152
0.275138
0.32295
0.298959
0.252366
0.254967
0.305309
0.566675
0.56446
0.563929
0.565062
0.548918
0.545221
0.544526
0.546827
0.528932
0.523037
0.522229
0.526564
0.506695
0.498427
0.497627
0.504462
0.485699
0.474977
0.474349
0.484084
0.464625
0.451317
0.450909
0.463654
0.445688
0.429714
0.429482
0.445174
0.427054
0.408534
0.408446
0.426905
0.410794
0.390594
0.390552
0.410934
0.391879
0.372167
0.371403
0.391312
0.579141
0.578058
0.577709
0.578059
0.569513
0.568102
0.567612
0.567975
0.557654
0.55517
0.554453
0.555352
0.542883
0.539092
0.538187
0.539912
0.528448
0.523209
0.52219
0.525045
0.512886
0.506071
0.504996
0.509243
0.498285
0.489823
0.488732
0.494572
0.482973
0.472941
0.471889
0.4794
0.468751
0.457774
0.456771
0.465581
0.45091
0.44098
0.439718
0.448068
0.58601
0.58542
0.58522
0.585408
0.580184
0.579704
0.579475
0.579484
0.572706
0.571766
0.571343
0.571415
0.562604
0.560968
0.560316
0.560583
0.552648
0.550143
0.54927
0.549903
0.541354
0.537839
0.536772
0.537951
0.530625
0.526011
0.524793
0.526705
0.518843
0.513154
0.511854
0.514644
0.507673
0.501332
0.50003
0.503604
0.492923
0.487723
0.486293
0.489315
0.58859
0.588114
0.587968
0.588153
0.585146
0.584935
0.584826
0.584818
0.580062
0.579642
0.579425
0.579407
0.57284
0.572078
0.571701
0.571694
0.565787
0.564555
0.563987
0.564043
0.557471
0.555644
0.55487
0.555068
0.549644
0.547128
0.546162
0.54661
0.540748
0.537525
0.536418
0.537237
0.532326
0.528655
0.527511
0.528738
0.520416
0.517864
0.516643
0.517202
0.589716
0.589285
0.589162
0.589349
0.587836
0.587744
0.587692
0.587683
0.5843
0.584105
0.583998
0.583978
0.578932
0.578561
0.57836
0.578323
0.573729
0.573108
0.57278
0.572732
0.56738
0.566422
0.565937
0.565897
0.561539
0.560172
0.559519
0.55953
0.554742
0.552934
0.55214
0.552272
0.548584
0.546466
0.545612
0.545934
0.538911
0.537908
0.537009
0.536568
0.590048
0.589632
0.589518
0.589707
0.589179
0.589132
0.589105
0.589099
0.586718
0.58662
0.586566
0.586554
0.582703
0.582511
0.582402
0.582376
0.578805
0.578476
0.57829
0.578245
0.573845
0.573325
0.573036
0.572972
0.569409
0.568649
0.568241
0.568168
0.564132
0.563108
0.562589
0.562541
0.559724
0.558498
0.557914
0.557934
0.551683
0.55159
0.550993
0.550211
0.590004
0.589593
0.589482
0.589673
0.589795
0.589769
0.589754
0.58975
0.588077
0.588026
0.587996
0.58799
0.58508
0.584976
0.584916
0.584899
0.58216
0.581979
0.581874
0.581843
0.578269
0.577978
0.577808
0.577758
0.574905
0.574472
0.574224
0.574156
0.57076
0.570172
0.569848
0.569776
0.567617
0.566902
0.566523
0.566467
0.560799
0.561227
0.560862
0.560007
0.589778
0.589369
0.58926
0.589451
0.589992
0.589977
0.589967
0.589964
0.588777
0.588748
0.588732
0.588729
0.586561
0.586502
0.586466
0.586456
0.584378
0.584275
0.584214
0.584194
0.581333
0.581165
0.581065
0.581031
0.57883
0.578577
0.578427
0.578378
0.575549
0.575206
0.575006
0.574948
0.573345
0.572922
0.572684
0.572625
0.567469
0.568181
0.567974
0.567139
0.58948
0.589069
0.58896
0.589152
0.589962
0.589952
0.589945
0.589943
0.589069
0.589053
0.589044
0.589042
0.587462
0.587426
0.587405
0.587398
0.585832
0.585771
0.585735
0.585723
0.583461
0.58336
0.583299
0.583278
0.581656
0.581504
0.581412
0.581379
0.57903
0.578826
0.578703
0.578662
0.577563
0.577309
0.577161
0.577117
0.572419
0.573273
0.573164
0.572377
0.589164
0.588751
0.588642
0.588836
0.58982
0.589812
0.589807
0.589804
0.589111
0.589102
0.589097
0.589096
0.587988
0.587965
0.587952
0.587947
0.586761
0.586725
0.586703
0.586695
0.584924
0.584863
0.584825
0.584811
0.58369
0.583596
0.583538
0.583517
0.581547
0.581423
0.581348
0.581321
0.580688
0.580531
0.580439
0.580411
0.576111
0.577018
0.576968
0.576236
0.588859
0.588444
0.588335
0.588531
0.589637
0.589631
0.589626
0.589623
0.589001
0.588997
0.588995
0.588995
0.588277
0.588263
0.588254
0.58825
0.58733
0.587309
0.587296
0.587292
0.585915
0.585877
0.585853
0.585844
0.585144
0.585085
0.585048
0.585035
0.583336
0.583261
0.583214
0.583196
0.583
0.582902
0.582845
0.582828
0.578856
0.579761
0.579745
0.57907
0.588576
0.588157
0.588049
0.588248
0.58946
0.589453
0.589448
0.589445
0.588801
0.5888
0.5888
0.5888
0.588426
0.588416
0.588409
0.588406
0.587659
0.587646
0.587639
0.587636
0.586573
0.586549
0.586534
0.586528
0.586174
0.586136
0.586113
0.586105
0.584569
0.584523
0.584494
0.584482
0.584708
0.584644
0.584608
0.584601
0.58088
0.581745
0.581746
0.581132
0.588309
0.587888
0.587782
0.587984
0.58932
0.589313
0.589308
0.589304
0.588548
0.588549
0.588549
0.58855
0.588499
0.588491
0.588487
0.588484
0.587832
0.587825
0.587821
0.58782
0.587004
0.586989
0.586979
0.586975
0.586895
0.586871
0.586857
0.586852
0.585374
0.585346
0.585328
0.585321
0.585971
0.585928
0.585906
0.585905
0.582343
0.583139
0.583148
0.5826
0.588028
0.587605
0.587504
0.58771
0.589247
0.589238
0.589232
0.589228
0.588263
0.588265
0.588266
0.588268
0.588542
0.588536
0.588533
0.588531
0.587918
0.587914
0.587912
0.587911
0.587294
0.587284
0.587277
0.587275
0.587399
0.587385
0.587377
0.587375
0.585858
0.585841
0.58583
0.585825
0.586924
0.586893
0.58688
0.586885
0.583345
0.58405
0.58406
0.583586
0.587634
0.587216
0.587123
0.587333
0.589277
0.589267
0.589259
0.589255
0.587969
0.587971
0.587973
0.587975
0.588586
0.588582
0.58858
0.588579
0.587971
0.58797
0.587968
0.587968
0.587515
0.587508
0.587503
0.587502
0.587761
0.587755
0.587751
0.58775
0.586131
0.586119
0.586111
0.586107
0.587695
0.587672
0.587665
0.587673
0.5839
0.584491
0.5845
0.584106
0.586902
0.586501
0.586422
0.586633
0.58949
0.589477
0.589468
0.589464
0.587719
0.587721
0.587722
0.587722
0.588645
0.588644
0.588643
0.588644
0.588036
0.588034
0.588033
0.588032
0.587723
0.587716
0.587712
0.587712
0.588043
0.588043
0.588042
0.588042
0.586345
0.586332
0.586324
0.586322
0.588449
0.58843
0.588426
0.588439
0.583884
0.58434
0.584344
0.584041
0.585489
0.585135
0.585079
0.585275
0.590049
0.590034
0.590026
0.590027
0.58762
0.587617
0.587614
0.587611
0.588712
0.588714
0.588716
0.588718
0.588126
0.588124
0.588122
0.588121
0.587931
0.587925
0.587922
0.587922
0.588273
0.588277
0.588279
0.58828
0.586701
0.586679
0.58667
0.586672
0.589423
0.589409
0.589409
0.589425
0.583071
0.58336
0.583358
0.583163
0.583418
0.583198
0.583172
0.583296
0.591065
0.59106
0.591064
0.591077
0.587736
0.587723
0.587713
0.587707
0.588751
0.588756
0.588761
0.588764
0.588212
0.588209
0.588208
0.588207
0.588094
0.588088
0.588086
0.588087
0.588416
0.588423
0.588426
0.588425
0.587247
0.58721
0.587198
0.587211
0.590742
0.590754
0.59076
0.590765
0.581589
0.581662
0.581658
0.581614
0.59526
0.603715
0.607717
0.61082
0.613945
0.616702
0.61894
0.620688
0.622054
0.6232
0.596191
0.599526
0.606949
0.611999
0.616465
0.619852
0.622317
0.624082
0.625326
0.626269
0.600053
0.59641
0.607395
0.613111
0.618394
0.621992
0.62456
0.626383
0.627637
0.628528
0.60347
0.592539
0.607153
0.612726
0.618587
0.622136
0.624692
0.626471
0.627687
0.628551
0.607965
0.590532
0.607904
0.613204
0.619509
0.622909
0.625436
0.62713
0.628258
0.629041
0.611056
0.587879
0.607649
0.612475
0.619232
0.622447
0.624987
0.626633
0.627766
0.62859
0.61506
0.58662
0.608477
0.612586
0.619747
0.622698
0.625255
0.626843
0.627948
0.628748
0.616632
0.583571
0.607485
0.610826
0.618495
0.621247
0.623966
0.625638
0.626943
0.627979
0.618299
0.58209
0.607936
0.609943
0.617755
0.620041
0.622988
0.624807
0.626315
0.627542
0.602754
0.566225
0.594717
0.597069
0.606755
0.610622
0.615269
0.61838
0.620941
0.62296
0.537843
0.55991
0.576256
0.587883
0.595847
0.60139
0.605397
0.608389
0.610697
0.612616
0.524134
0.554678
0.576764
0.590712
0.599565
0.605556
0.6098
0.612875
0.615118
0.616781
0.513871
0.551549
0.577871
0.592889
0.602343
0.608607
0.612996
0.616138
0.618375
0.61997
0.505486
0.548521
0.578048
0.593387
0.603245
0.609586
0.613985
0.61709
0.619282
0.620834
0.501031
0.547706
0.579315
0.594706
0.604854
0.611146
0.615487
0.618494
0.620582
0.622045
0.497838
0.546637
0.579732
0.594887
0.605275
0.611446
0.615729
0.618651
0.6207
0.622165
0.497442
0.547071
0.58124
0.59587
0.606422
0.61237
0.616577
0.6194
0.621388
0.622813
0.496649
0.546126
0.581196
0.595128
0.605872
0.611605
0.615839
0.61868
0.620791
0.622388
0.497142
0.546449
0.582377
0.595052
0.605592
0.610853
0.615182
0.618142
0.620421
0.622204
0.488059
0.536414
0.573094
0.585281
0.596842
0.603123
0.608643
0.612533
0.615573
0.617841
0.568962
0.575236
0.581312
0.586688
0.591273
0.595105
0.598279
0.600901
0.603093
0.604984
0.555728
0.56712
0.577306
0.585633
0.592301
0.59755
0.601644
0.604827
0.607289
0.609163
0.542644
0.559819
0.574188
0.585077
0.593388
0.599639
0.604347
0.607896
0.610551
0.612496
0.52949
0.552397
0.570751
0.583747
0.59333
0.600243
0.605303
0.609035
0.611784
0.613774
0.519569
0.547545
0.56933
0.583908
0.59441
0.601707
0.606936
0.610715
0.613462
0.615425
0.510727
0.543016
0.567742
0.583445
0.594621
0.602122
0.607431
0.611213
0.613963
0.615948
0.504702
0.540495
0.567674
0.584062
0.595692
0.603228
0.60854
0.612278
0.615
0.616964
0.499012
0.537463
0.566706
0.583408
0.595356
0.602841
0.608182
0.611947
0.614762
0.616859
0.495306
0.536125
0.567104
0.583473
0.595308
0.602509
0.607908
0.611772
0.614717
0.616964
0.485216
0.527233
0.55942
0.575731
0.588265
0.596191
0.602407
0.606934
0.610412
0.612936
0.578777
0.581185
0.58409
0.587038
0.589815
0.592328
0.59455
0.596492
0.598206
0.599765
0.570006
0.574771
0.580185
0.585328
0.589865
0.593724
0.596946
0.599601
0.601757
0.60346
0.559487
0.567565
0.575975
0.583399
0.589621
0.59469
0.598764
0.602004
0.604539
0.606469
0.547173
0.559276
0.571021
0.580704
0.58846
0.594524
0.599246
0.602904
0.605714
0.607816
0.536483
0.552878
0.567906
0.579596
0.588631
0.595443
0.600605
0.604514
0.607469
0.609647
0.525869
0.546573
0.564723
0.578117
0.588198
0.595554
0.601019
0.60509
0.60815
0.61041
0.517338
0.542167
0.563167
0.57791
0.588793
0.596494
0.602138
0.606285
0.609392
0.611675
0.508964
0.537552
0.561093
0.576822
0.5883
0.5962
0.601981
0.60622
0.609433
0.611837
0.502452
0.534669
0.56041
0.576543
0.588222
0.596103
0.601997
0.606343
0.609664
0.612186
0.491553
0.526367
0.553559
0.57008
0.582397
0.590844
0.597312
0.60213
0.605821
0.608469
0.585273
0.586034
0.587198
0.588563
0.589998
0.591415
0.592761
0.594014
0.595194
0.596347
0.579942
0.581796
0.584315
0.587038
0.589709
0.592191
0.594418
0.596364
0.59802
0.599377
0.572406
0.575808
0.580117
0.584505
0.588596
0.592223
0.595338
0.597951
0.600091
0.601785
0.562591
0.568203
0.574771
0.581029
0.586581
0.591297
0.595207
0.598395
0.600949
0.602933
0.553472
0.561761
0.570821
0.578955
0.585871
0.591522
0.596068
0.599682
0.602526
0.604695
0.543678
0.554971
0.566629
0.576547
0.584687
0.591118
0.596167
0.600105
0.603175
0.605507
0.53523
0.54971
0.56394
0.575452
0.584629
0.59166
0.597076
0.601234
0.604449
0.606869
0.526537
0.544228
0.560905
0.573752
0.583763
0.591232
0.596929
0.601274
0.604641