/*--------------------------------*- C++ -*----------------------------------*\
| =========                 |                                                 |
| \\      /  F ield         | foam-extend: Open Source CFD                    |
|  \\    /   O peration     | Version:     4.0                                |
|   \\  /    A nd           | Web:         http://www.foam-extend.org         |
|    \\/     M anipulation  |                                                 |
\*---------------------------------------------------------------------------*/
FoamFile
{
    version     2.0;
    format      ascii;
    class       volScalarField;
    location    "2000";
    object      mut;
}
// * * * * * * * * * * * * * * * * * * * * * * * * * * * * * * * * * * * * * //

dimensions      [1 -1 -1 0 0 0 0];

internalField   nonuniform List<scalar> 
34480
(
0.0018885
0.00188725
0.00188708
0.00188792
0.00189003
0.00189393
0.00190147
0.00191973
0.00195899
0.00203023
0.0159265
0.0151187
0.0148192
0.0145492
0.0129266
0.00824349
0.00340667
0.00134828
0.000984861
0.00145492
0.0442681
0.0426101
0.0409229
0.0374784
0.0286694
0.0146808
0.00511814
0.0018285
0.00124091
0.00181185
0.0484174
0.0462598
0.044319
0.0402802
0.029708
0.0141606
0.00479318
0.00177551
0.0012874
0.00197768
0.0477406
0.045321
0.0435564
0.0397157
0.0288499
0.0131895
0.00440858
0.00168453
0.00129891
0.00209663
0.0459917
0.0435076
0.0418473
0.0380613
0.0268367
0.0116163
0.00385813
0.00155332
0.00130532
0.00222417
0.0438622
0.0415394
0.0400798
0.0364665
0.0252718
0.0105531
0.00349433
0.00146115
0.00131281
0.00233371
0.0364092
0.0347173
0.033688
0.0309409
0.0214266
0.00863949
0.00281226
0.00123974
0.00123602
0.00234064
0.0124288
0.0121092
0.0120061
0.0117294
0.00993119
0.00512562
0.00167729
0.000736718
0.000834267
0.00178631
0.00180093
0.00180085
0.00180252
0.00180579
0.00181057
0.00181668
0.00182472
0.00183596
0.00185253
0.00181382
0.00188853
0.00188667
0.00188607
0.00188659
0.00188845
0.00189189
0.0018974
0.00190685
0.00192455
0.00196538
0.0149586
0.0143237
0.0141318
0.014315
0.0147257
0.0147743
0.0129471
0.0076442
0.00249481
0.00204508
0.0407431
0.0395148
0.0388485
0.0383107
0.0366972
0.031986
0.0230046
0.0112944
0.00328122
0.00280231
0.0448196
0.0431504
0.0423468
0.0417737
0.0399309
0.0344323
0.0242063
0.0114385
0.00330053
0.00316954
0.0446542
0.0426971
0.0419513
0.0415927
0.0401094
0.0348385
0.0244539
0.0112836
0.00323791
0.00345066
0.0434398
0.0413725
0.0406448
0.0404204
0.0392059
0.0342109
0.0239583
0.0108491
0.00316546
0.00378157
0.0418355
0.0398509
0.0392137
0.0390735
0.038097
0.0334666
0.0235387
0.0105535
0.003129
0.00409787
0.0351437
0.0336713
0.0332024
0.0331849
0.0326761
0.0293608
0.0210951
0.00938457
0.00285432
0.00417037
0.012367
0.01206
0.0119989
0.0120568
0.0121869
0.0120296
0.0106114
0.00545477
0.00170672
0.00280075
0.00179636
0.0017939
0.00179341
0.0017946
0.0017974
0.0018015
0.00180767
0.00181751
0.00184178
0.00188909
0.00188403
0.00188242
0.00188189
0.00188235
0.00188394
0.00188671
0.0018907
0.00189669
0.00190562
0.00191915
0.014062
0.0136457
0.0135116
0.0136621
0.0141007
0.0147409
0.0151432
0.0142156
0.0101115
0.0058366
0.0372113
0.0362435
0.035905
0.036051
0.0363677
0.0359479
0.0330145
0.0253632
0.0133437
0.00709934
0.0410816
0.0397773
0.039347
0.0395727
0.0400694
0.039717
0.0361969
0.0266174
0.0125399
0.00720415
0.0413106
0.0397947
0.0393787
0.0397183
0.0405224
0.0406527
0.0373612
0.0266925
0.0114195
0.00717624
0.0405693
0.0389612
0.0385253
0.0389289
0.0399577
0.0405764
0.0376974
0.0261767
0.010305
0.00724776
0.0394632
0.0378962
0.0375033
0.0379114
0.0390429
0.0400215
0.0376511
0.025531
0.00938116
0.00733134
0.0336217
0.0324584
0.0321491
0.0324663
0.0334075
0.0345686
0.0334145
0.0226408
0.00796929
0.00704243
0.0122601
0.0120048
0.0119607
0.0120212
0.0122169
0.0124491
0.0126044
0.0106466
0.00448885
0.00445618
0.00178904
0.00178614
0.00178527
0.00178616
0.00178885
0.00179321
0.00180024
0.00181206
0.0018388
0.00189231
0.00187584
0.0018747
0.00187432
0.00187468
0.00187584
0.00187771
0.00188003
0.00188311
0.00188706
0.00189174
0.0134712
0.0132235
0.0131328
0.0132286
0.0135196
0.0139754
0.0144498
0.0148654
0.0145952
0.0128621
0.0340387
0.0333552
0.0331596
0.0333619
0.0339279
0.0346066
0.0346328
0.0324114
0.025687
0.0173828
0.0376442
0.0367026
0.0364342
0.0367254
0.0375339
0.0385403
0.0385992
0.0352936
0.0257928
0.0167227
0.0381909
0.0370982
0.0368298
0.0371863
0.0381993
0.0395799
0.0399746
0.0361444
0.0246338
0.0158812
0.0378696
0.0366932
0.0363915
0.0367874
0.0379471
0.0396906
0.0405396
0.0363511
0.0231426
0.0153347
0.0372093
0.0360338
0.0357528
0.0361414
0.0373445
0.0392841
0.0405173
0.0360606
0.0215244
0.0148458
0.0322058
0.0313242
0.0310941
0.0313814
0.0322892
0.03392
0.0354075
0.0319994
0.0185287
0.0137231
0.0121942
0.0119839
0.0119515
0.0119978
0.0121467
0.0123368
0.0125438
0.0126724
0.0095885
0.00831896
0.00178013
0.00177709
0.00177608
0.00177689
0.0017796
0.00178427
0.00179186
0.00180457
0.00183072
0.00187807
0.00186475
0.00186406
0.00186383
0.00186407
0.00186482
0.00186593
0.00186712
0.00186855
0.00187013
0.0018716
0.0131888
0.0130518
0.0129919
0.0130514
0.0132309
0.0134914
0.0137226
0.0140115
0.014293
0.0144154
0.0315055
0.0311045
0.0309981
0.0311231
0.0315066
0.0321208
0.0328082
0.0330908
0.03164
0.0274616
0.0347722
0.0341697
0.0340006
0.0341962
0.0347919
0.0357768
0.0368779
0.0371095
0.0340961
0.0274701
0.0355147
0.034791
0.0346147
0.0348554
0.0355991
0.0368652
0.038326
0.0385827
0.034233
0.0263053
0.0355129
0.0347022
0.0344871
0.0347632
0.0356238
0.0371641
0.039048
0.039457
0.0338279
0.0253958
0.0352034
0.0343595
0.0341516
0.0344282
0.0353317
0.0370031
0.0391542
0.0396392
0.0328213
0.0244437
0.0309613
0.0303139
0.0301385
0.0303465
0.0310166
0.0323218
0.034194
0.0350286
0.0289284
0.0222934
0.0121759
0.0120025
0.011979
0.0120105
0.0121119
0.0122296
0.0123004
0.0126957
0.0125737
0.0122109
0.00176979
0.00176673
0.00176566
0.00176641
0.00176909
0.00177383
0.00178148
0.00179385
0.00181657
0.00185319
0.00185131
0.00185096
0.00185084
0.00185099
0.00185143
0.001852
0.00185252
0.00185311
0.00185368
0.00185407
0.0131468
0.0130806
0.0130432
0.0130821
0.0131939
0.0133325
0.0134244
0.0135395
0.0136595
0.0137515
0.0297469
0.0295536
0.029506
0.0295659
0.0297593
0.0300879
0.0305434
0.0310948
0.0314188
0.0310582
0.0326051
0.0322642
0.0321654
0.0322726
0.0326184
0.0332413
0.0341517
0.0351926
0.0354801
0.0339462
0.0333874
0.0329497
0.0328421
0.0329811
0.0334357
0.0342681
0.0355101
0.0369053
0.0369207
0.0340658
0.0335735
0.03305
0.032904
0.0330758
0.0336308
0.0346843
0.0363073
0.0381505
0.0378579
0.0338491
0.0334981
0.0329226
0.0327758
0.0329546
0.0335607
0.0347315
0.0365765
0.0386892
0.0379489
0.0331012
0.0299084
0.0294533
0.0293258
0.0294663
0.02992
0.0308154
0.0322741
0.0342155
0.0337654
0.0299537
0.0122089
0.0120667
0.0120517
0.0120716
0.0121351
0.0121876
0.01214
0.0123348
0.0127462
0.0136375
0.00175787
0.00175491
0.00175383
0.00175452
0.00175709
0.00176169
0.00176894
0.00178021
0.00179868
0.00182515
0.0018359
0.00183578
0.00183575
0.00183583
0.00183606
0.00183628
0.00183647
0.00183667
0.00183684
0.00183688
0.013269
0.0132503
0.0132298
0.0132563
0.0133255
0.0133889
0.0134287
0.0134712
0.0135021
0.0134923
0.0286857
0.0286088
0.0285936
0.0286187
0.0287009
0.0288353
0.0290274
0.0292922
0.029574
0.0297924
0.0311274
0.0309502
0.030896
0.0309487
0.0311268
0.0314516
0.0319521
0.0326488
0.0333491
0.0337454
0.0318255
0.0315796
0.0315188
0.0315915
0.031842
0.0323053
0.0330408
0.034099
0.0350945
0.0353901
0.0320805
0.0317606
0.0316662
0.0317657
0.0320963
0.032728
0.033763
0.0353028
0.0366615
0.036723
0.0321315
0.0317563
0.0316576
0.0317656
0.0321461
0.0328817
0.0341052
0.0359711
0.0374804
0.037105
0.0290743
0.0287675
0.0286793
0.0287689
0.0290576
0.0296179
0.0305417
0.0321137
0.0335565
0.0335467
0.0123017
0.0121844
0.0121767
0.0121879
0.0122223
0.0122207
0.0120995
0.0121027
0.0122894
0.0129844
0.00174422
0.00174146
0.00174043
0.00174106
0.00174343
0.00174768
0.00175422
0.00176396
0.00177836
0.00179693
0.00181875
0.00181877
0.00181879
0.00181883
0.00181893
0.00181898
0.00181901
0.00181904
0.00181905
0.00181898
0.0134976
0.0135133
0.0135065
0.0135249
0.0135651
0.0135904
0.0136097
0.0136262
0.013627
0.0135851
0.0281279
0.0281061
0.0281062
0.0281164
0.0281471
0.0281922
0.0282571
0.0283456
0.028443
0.0285277
0.0302024
0.0301135
0.0300844
0.0301094
0.0301973
0.0303548
0.0305925
0.0309227
0.0312973
0.0316308
0.0307572
0.030626
0.0305939
0.0306297
0.03076
0.0309969
0.0313679
0.031915
0.0325572
0.0331295
0.0310011
0.0308139
0.0307554
0.0308104
0.0309982
0.0313511
0.0319231
0.0328121
0.0338826
0.0348216
0.0310982
0.0308625
0.0307991
0.0308611
0.0310897
0.0315237
0.0322363
0.0333879
0.0347746
0.0359123
0.0284634
0.0282648
0.0282069
0.0282611
0.0284343
0.0287591
0.0292737
0.0302059
0.0314641
0.0327004
0.0124603
0.0123621
0.0123607
0.0123656
0.0123783
0.012335
0.0121779
0.0120707
0.0120505
0.0123129
0.00172872
0.00172624
0.0017253
0.00172586
0.00172799
0.00173174
0.00173738
0.00174541
0.00175628
0.00176908
0.00179997
0.00180007
0.00180012
0.00180014
0.00180016
0.00180014
0.00180012
0.00180008
0.00180004
0.00179993
0.0137984
0.0138413
0.0138461
0.0138588
0.0138772
0.0138881
0.0138989
0.0139055
0.0138956
0.013843
0.027888
0.0278901
0.0278966
0.027901
0.0279103
0.0279226
0.0279409
0.0279645
0.0279877
0.0280026
0.0296645
0.0296193
0.0296034
0.0296154
0.0296594
0.0297365
0.0298482
0.0299942
0.0301541
0.0302896
0.0300719
0.0300035
0.0299874
0.0300045
0.0300709
0.0301889
0.0303667
0.030616
0.030909
0.0311767
0.0302669
0.0301603
0.0301252
0.0301548
0.0302589
0.03045
0.0307493
0.0311957
0.0317551
0.0323086
0.0303621
0.0302179
0.0301786
0.0302128
0.0303466
0.0305944
0.0309869
0.0316008
0.032392
0.0331898
0.0280619
0.0279381
0.0279021
0.0279332
0.0280305
0.0282035
0.0284623
0.028933
0.0296361
0.0304946
0.0126898
0.0126055
0.0126094
0.0126099
0.0126067
0.0125342
0.0123677
0.0122135
0.012087
0.0121456
0.00171128
0.00170914
0.00170832
0.0017088
0.00171063
0.00171381
0.00171847
0.00172483
0.00173281
0.00174147
0.00177961
0.00177974
0.0017798
0.0017798
0.00177979
0.00177976
0.00177972
0.00177967
0.00177962
0.0017795
0.0141698
0.0142229
0.0142379
0.0142465
0.0142529
0.01426
0.0142668
0.0142687
0.0142539
0.0141958
0.027836
0.0278455
0.0278544
0.0278567
0.0278584
0.0278609
0.0278646
0.0278686
0.02787
0.0278658
0.0293733
0.0293489
0.0293397
0.0293459
0.0293691
0.0294092
0.029465
0.0295332
0.029603
0.0296558
0.029658
0.0296219
0.0296137
0.029622
0.0296565
0.0297163
0.0298028
0.0299161
0.030042
0.0301469
0.0297963
0.0297364
0.0297155
0.0297315
0.029789
0.0298919
0.0300472
0.0302646
0.0305283
0.0307762
0.0298694
0.0297819
0.0297579
0.0297766
0.0298544
0.0299944
0.0302079
0.030522
0.0309158
0.0312922
0.0278425
0.0277677
0.0277469
0.0277636
0.0278138
0.0278946
0.0280105
0.0282224
0.0285509
0.0289683
0.0129944
0.0129199
0.0129282
0.0129256
0.0129107
0.0128215
0.0126623
0.0125
0.0123344
0.0123329
0.00169184
0.00169007
0.00168938
0.00168978
0.00169129
0.00169387
0.00169759
0.00170244
0.00170814
0.0017139
0.00175764
0.00175776
0.00175783
0.00175782
0.00175781
0.00175778
0.00175774
0.0017577
0.00175765
0.00175753
0.0146082
0.0146652
0.0146834
0.0146902
0.0146952
0.0147003
0.0147045
0.0147037
0.014686
0.0146237
0.0278887
0.0278995
0.0279077
0.0279099
0.0279103
0.0279103
0.0279102
0.0279092
0.0279053
0.0278965
0.029228
0.0292136
0.029208
0.0292115
0.0292247
0.0292471
0.0292773
0.0293124
0.0293462
0.0293693
0.0294222
0.0294021
0.0293976
0.0294019
0.0294208
0.029453
0.0294977
0.0295526
0.0296095
0.0296532
0.0295121
0.0294783
0.0294659
0.0294748
0.0295069
0.0295631
0.0296449
0.0297525
0.0298769
0.0299886
0.0295605
0.0295069
0.0294924
0.0295028
0.0295486
0.0296285
0.0297463
0.0299089
0.0301017
0.0302714
0.0277707
0.0277266
0.0277158
0.0277241
0.0277464
0.0277752
0.0278179
0.0279005
0.0280353
0.0282294
0.0133789
0.0133109
0.0133232
0.0133185
0.0132944
0.0132008
0.0130587
0.0129096
0.012742
0.0127409
0.00167037
0.00166896
0.0016684
0.00166872
0.00166992
0.00167194
0.00167479
0.00167836
0.00168233
0.0016861
0.001734
0.00173412
0.00173417
0.00173417
0.00173416
0.00173414
0.0017341
0.00173407
0.00173403
0.00173391
0.0151183
0.015179
0.0151984
0.0152052
0.0152093
0.015213
0.0152155
0.0152128
0.0151929
0.0151268
0.0279981
0.0280088
0.0280161
0.0280183
0.0280186
0.0280182
0.0280175
0.0280156
0.0280107
0.0280011
0.0291632
0.0291543
0.0291508
0.0291528
0.0291607
0.0291739
0.0291914
0.029211
0.0292292
0.0292406
0.0292958
0.0292835
0.0292806
0.0292831
0.0292944
0.0293132
0.0293385
0.0293679
0.0293965
0.0294175
0.0293508
0.0293313
0.0293238
0.0293289
0.0293473
0.0293788
0.0294231
0.0294782
0.0295391
0.0295934
0.0293807
0.0293469
0.0293379
0.0293442
0.0293719
0.0294191
0.0294862
0.0295738
0.0296715
0.0297535
0.0278105
0.0277852
0.0277806
0.0277841
0.0277908
0.0277942
0.0278026
0.027826
0.0278712
0.0279691
0.01385
0.0137863
0.0138025
0.0137961
0.013764
0.0136784
0.0135586
0.0134325
0.0132808
0.0133026
0.00164683
0.00164575
0.00164533
0.00164558
0.00164648
0.001648
0.00165011
0.00165266
0.00165535
0.00165779
0.00170862
0.00170873
0.00170877
0.00170877
0.00170877
0.00170875
0.00170872
0.00170869
0.00170866
0.00170855
0.0157115
0.015776
0.0157965
0.0158032
0.0158068
0.0158094
0.0158107
0.0158066
0.015785
0.015715
0.028138
0.0281483
0.0281547
0.0281568
0.0281573
0.0281571
0.0281565
0.0281547
0.0281501
0.0281403
0.0291401
0.0291346
0.0291324
0.0291336
0.0291383
0.0291462
0.0291564
0.0291678
0.0291784
0.0291845
0.0292323
0.0292242
0.029222
0.0292236
0.0292308
0.0292428
0.0292585
0.0292761
0.0292923
0.0293041
0.0292647
0.0292531
0.0292485
0.0292515
0.0292624
0.0292806
0.0293053
0.0293348
0.029366
0.0293949
0.0292847
0.0292626
0.0292568
0.029261
0.0292785
0.0293076
0.0293478
0.0293978
0.0294505
0.029495
0.0279302
0.0279154
0.0279146
0.0279155
0.0279137
0.0279082
0.0279028
0.0279022
0.0279096
0.0279677
0.0144184
0.0143574
0.0143779
0.0143699
0.0143326
0.014265
0.0141691
0.0140689
0.0139401
0.0139908
0.00162123
0.00162044
0.00162012
0.00162031
0.00162097
0.00162208
0.00162358
0.00162534
0.00162712
0.00162866
0.00168141
0.0016815
0.00168154
0.00168154
0.00168154
0.00168153
0.00168151
0.00168149
0.00168146
0.00168136
0.0164059
0.0164744
0.0164958
0.0165024
0.0165057
0.0165075
0.0165079
0.0165029
0.01648
0.0164057
0.0282944
0.0283042
0.0283097
0.0283117
0.0283122
0.0283123
0.028312
0.0283106
0.0283066
0.028297
0.029137
0.0291336
0.0291323
0.029133
0.0291357
0.0291402
0.029146
0.0291526
0.0291589
0.0291624
0.0292028
0.0291971
0.0291952
0.0291963
0.0292012
0.0292093
0.0292198
0.0292311
0.0292414
0.0292488
0.0292216
0.0292145
0.0292116
0.0292134
0.0292199
0.0292307
0.029245
0.0292614
0.0292783
0.0292948
0.029239
0.0292239
0.0292201
0.0292231
0.0292346
0.0292536
0.0292788
0.0293091
0.0293397
0.0293675
0.0281045
0.028093
0.0280943
0.0280938
0.0280897
0.0280829
0.028074
0.0280658
0.0280596
0.028101
0.0151138
0.0150441
0.0150666
0.0150568
0.0150278
0.0149776
0.0149052
0.0148297
0.0147246
0.0148029
0.00159355
0.00159299
0.00159277
0.0015929
0.00159337
0.00159414
0.00159518
0.00159635
0.0015975
0.00159847
0.00165229
0.00165238
0.00165241
0.00165241
0.00165241
0.0016524
0.00165239
0.00165237
0.00165235
0.00165225
0.0172272
0.0173002
0.0173223
0.0173287
0.0173318
0.017333
0.0173328
0.0173274
0.0173035
0.0172246
0.0284591
0.0284682
0.0284728
0.0284746
0.0284752
0.0284755
0.0284755
0.0284745
0.0284713
0.0284622
0.0291422
0.0291404
0.0291397
0.0291401
0.0291414
0.0291437
0.0291468
0.0291504
0.0291541
0.0291563
0.0291902
0.0291861
0.0291845
0.0291852
0.0291886
0.0291942
0.0292014
0.0292091
0.0292159
0.029221
0.029201
0.0291965
0.0291946
0.0291957
0.0291997
0.0292063
0.0292147
0.0292241
0.0292336
0.0292438
0.0292204
0.0292097
0.0292071
0.0292094
0.0292173
0.02923
0.0292465
0.0292658
0.0292848
0.0293044
0.0283107
0.0282999
0.0283009
0.0283006
0.0282975
0.028292
0.0282842
0.0282756
0.0282662
0.0283
0.0159625
0.0158853
0.0159021
0.0158959
0.0158764
0.0158421
0.0157914
0.0157379
0.0156547
0.0157559
0.0015638
0.00156342
0.00156327
0.00156336
0.00156368
0.0015642
0.00156489
0.00156564
0.00156636
0.00156695
0.00162123
0.00162131
0.00162134
0.00162134
0.00162134
0.00162133
0.00162132
0.00162131
0.00162129
0.00162119
0.0182124
0.0182905
0.0183128
0.0183189
0.018322
0.0183229
0.0183223
0.0183167
0.0182925
0.0182084
0.0286263
0.0286344
0.0286382
0.0286396
0.0286403
0.0286407
0.028641
0.0286405
0.0286381
0.0286299
0.02915
0.0291491
0.0291489
0.029149
0.0291496
0.0291505
0.0291519
0.0291536
0.0291557
0.0291573
0.029185
0.029182
0.0291806
0.0291811
0.0291834
0.0291872
0.0291921
0.0291973
0.0292021
0.0292056
0.0291909
0.0291879
0.0291866
0.0291872
0.0291897
0.0291937
0.0291988
0.0292044
0.0292099
0.0292163
0.0292135
0.029206
0.0292041
0.0292059
0.0292114
0.0292201
0.029231
0.0292436
0.0292558
0.0292706
0.0285298
0.0285194
0.0285202
0.0285201
0.0285184
0.028515
0.0285098
0.0285034
0.0284948
0.028524
0.017003
0.0169202
0.016931
0.0169281
0.0169172
0.0168972
0.0168663
0.0168311
0.0167676
0.0168852
0.001532
0.00153175
0.00153165
0.00153171
0.00153192
0.00153226
0.0015327
0.00153316
0.00153359
0.00153395
0.00158829
0.00158835
0.00158838
0.00158838
0.00158838
0.00158837
0.00158836
0.00158835
0.00158833
0.00158824
0.0194157
0.0194996
0.019522
0.0195277
0.0195303
0.0195307
0.01953
0.0195247
0.0195007
0.019411
0.0287896
0.0287966
0.0287994
0.0288004
0.028801
0.0288015
0.028802
0.028802
0.0288006
0.0287939
0.0291573
0.0291569
0.029157
0.029157
0.0291571
0.0291573
0.0291577
0.0291584
0.0291594
0.0291608
0.0291817
0.0291796
0.0291785
0.0291787
0.0291801
0.0291827
0.0291859
0.0291894
0.0291926
0.0291952
0.0291845
0.0291825
0.0291815
0.0291819
0.0291833
0.0291857
0.0291888
0.0291921
0.0291953
0.0291994
0.0292088
0.0292035
0.0292023
0.0292035
0.0292073
0.029213
0.0292201
0.0292281
0.029236
0.0292473
0.0287441
0.0287346
0.0287349
0.0287352
0.0287346
0.0287332
0.0287305
0.0287269
0.0287204
0.0287455
0.0182921
0.0182063
0.0182109
0.0182107
0.0182076
0.0182006
0.018188
0.0181679
0.0181228
0.0182485
0.00149824
0.00149808
0.00149801
0.00149805
0.00149818
0.00149839
0.00149866
0.00149894
0.0014992
0.0014994
0.00155368
0.00155374
0.00155376
0.00155376
0.00155376
0.00155375
0.00155374
0.00155373
0.00155371
0.00155363
0.0209196
0.021009
0.0210315
0.0210366
0.0210376
0.0210377
0.021037
0.0210323
0.0210097
0.0209145
0.0289407
0.0289459
0.0289475
0.028948
0.0289484
0.028949
0.0289497
0.0289502
0.0289499
0.0289455
0.0291623
0.0291622
0.0291623
0.0291624
0.0291623
0.0291622
0.0291621
0.0291622
0.0291626
0.0291639
0.0291779
0.0291764
0.0291756
0.0291756
0.0291765
0.029178
0.02918
0.0291822
0.0291844
0.0291864
0.0291786
0.0291772
0.0291766
0.0291767
0.0291775
0.0291789
0.0291806
0.0291824
0.0291843
0.0291868
0.0291999
0.0291964
0.0291956
0.0291964
0.0291988
0.0292023
0.0292066
0.0292113
0.0292161
0.0292243
0.0289342
0.0289262
0.0289263
0.0289266
0.0289267
0.0289265
0.0289256
0.028924
0.0289198
0.0289405
0.0199131
0.0198278
0.0198252
0.0198273
0.0198313
0.0198368
0.0198422
0.0198355
0.0198101
0.0199326
0.0014627
0.00146261
0.00146256
0.00146258
0.00146266
0.00146279
0.00146295
0.00146312
0.00146328
0.00146339
0.00151761
0.00151765
0.00151766
0.00151766
0.00151766
0.00151765
0.00151765
0.00151765
0.00151763
0.00151758
0.0228572
0.0229491
0.0229689
0.0229729
0.0229737
0.0229736
0.0229727
0.0229688
0.0229489
0.0228508
0.0290672
0.0290698
0.0290702
0.0290701
0.0290703
0.0290709
0.0290718
0.0290728
0.0290735
0.0290723
0.0291643
0.0291642
0.0291643
0.0291644
0.0291643
0.0291642
0.029164
0.029164
0.029164
0.029165
0.0291734
0.0291723
0.0291717
0.0291717
0.0291722
0.029173
0.0291742
0.0291755
0.0291769
0.0291783
0.0291728
0.029172
0.0291716
0.0291716
0.029172
0.0291727
0.0291736
0.0291746
0.0291756
0.029177
0.0291853
0.0291832
0.0291827
0.0291832
0.0291845
0.0291864
0.0291887
0.0291912
0.0291938
0.0291989
0.029079
0.0290729
0.0290728
0.029073
0.0290733
0.0290734
0.0290732
0.0290727
0.0290707
0.0290863
0.0220127
0.0219343
0.0219323
0.021934
0.0219371
0.0219413
0.0219455
0.0219485
0.0219494
0.0220525
0.00142552
0.00142546
0.00142543
0.00142544
0.00142549
0.00142557
0.00142567
0.00142577
0.00142589
0.00142595
0.00147922
0.00147921
0.0014792
0.00147919
0.00147919
0.00147919
0.0014792
0.00147922
0.00147924
0.00147926
0.0254657
0.0255461
0.0255599
0.0255628
0.0255634
0.0255631
0.025562
0.0255587
0.025544
0.0254557
0.0291556
0.0291553
0.0291546
0.0291542
0.0291542
0.0291546
0.0291555
0.0291568
0.0291584
0.0291602
0.0291641
0.0291641
0.0291642
0.0291642
0.0291642
0.0291642
0.0291642
0.0291642
0.0291641
0.0291645
0.0291697
0.0291691
0.0291687
0.0291687
0.029169
0.0291695
0.0291702
0.029171
0.0291718
0.0291727
0.0291692
0.0291687
0.0291684
0.0291684
0.0291687
0.0291692
0.0291697
0.0291703
0.0291709
0.0291715
0.0291713
0.0291703
0.02917
0.0291703
0.029171
0.0291721
0.0291733
0.0291746
0.0291759
0.0291782
0.0291665
0.0291627
0.0291623
0.0291622
0.0291622
0.0291622
0.0291621
0.0291622
0.0291624
0.0291722
0.0249072
0.0248484
0.0248473
0.0248485
0.0248505
0.0248533
0.0248561
0.0248579
0.0248582
0.0249351
0.00138594
0.00138588
0.00138586
0.00138587
0.00138591
0.00138598
0.00138605
0.00138613
0.00138621
0.00138626
0.00234421
0.00236508
0.00235486
0.00232094
0.00141084
0.00143386
0.00143122
0.00142637
0.00188741
0.00192949
0.00192036
0.00189567
0.00227435
0.00233252
0.00231299
0.00226676
0.00262181
0.00269296
0.00266096
0.00259648
0.00296326
0.00304557
0.00300533
0.00293183
0.00324538
0.00333586
0.00329353
0.00322022
0.00341315
0.00350998
0.00346992
0.0034013
0.00304494
0.00313449
0.00309562
0.00303993
0.00237482
0.00239147
0.00235658
0.00227532
0.00202756
0.00203328
0.00203439
0.00203138
0.00235369
0.00243403
0.00233403
0.00214217
0.0033083
0.00342282
0.00329236
0.00305449
0.00407184
0.00424029
0.00408164
0.00378369
0.00485362
0.00508959
0.00489504
0.00451938
0.00582846
0.00615453
0.00591304
0.00542849
0.00679477
0.00720858
0.00690702
0.00630923
0.00749275
0.00799097
0.00763285
0.00693809
0.00591713
0.00635399
0.0060011
0.00540453
0.00218165
0.002214
0.00220713
0.00217135
0.00193322
0.00193527
0.00193542
0.00193417
0.00406634
0.00404192
0.00405232
0.00414336
0.00499153
0.00497292
0.00499306
0.00509736
0.00549626
0.00551595
0.00553581
0.00558563
0.0060111
0.0060652
0.00606852
0.00602699
0.00675404
0.00685082
0.00681124
0.00663347
0.00751207
0.0076356
0.00752208
0.00718433
0.00805043
0.00821108
0.00802385
0.00752517
0.0061243
0.0062642
0.00608826
0.00560732
0.00204801
0.00206511
0.00206319
0.00204543
0.00189447
0.0018947
0.00189482
0.00189486
0.0102406
0.00996201
0.010098
0.0106127
0.0119478
0.0116137
0.0119167
0.0128102
0.0114409
0.0112598
0.0116319
0.0125269
0.0110904
0.0110292
0.0114262
0.0122565
0.0112082
0.0112508
0.0116412
0.0123682
0.0114043
0.0115061
0.0118449
0.0124234
0.0113543
0.0115317
0.011802
0.0121729
0.00801781
0.00820255
0.00832575
0.00836688
0.00195677
0.00196722
0.00196819
0.00196019
0.00187254
0.00187258
0.00187261
0.00187263
0.0144912
0.0144313
0.0144594
0.0145688
0.0238419
0.0235184
0.0237062
0.0243333
0.0222461
0.0219541
0.0223067
0.0232336
0.0203815
0.020202
0.0206819
0.0217894
0.0193312
0.0193009
0.0198719
0.0210702
0.0185182
0.0185933
0.0191862
0.0203776
0.0173307
0.017543
0.0180981
0.0191102
0.0108797
0.011115
0.0113565
0.0116698
0.00189353
0.00190002
0.00190148
0.00189807
0.0018545
0.00185447
0.00185446
0.00185445
0.0140869
0.0140132
0.0140038
0.0140587
0.0304041
0.0302973
0.0303234
0.0304705
0.031798
0.0315593
0.0316499
0.0320269
0.0304327
0.0301455
0.030366
0.0310247
0.0290256
0.0288078
0.0291969
0.0301264
0.0274493
0.0273218
0.0278365
0.0289646
0.0247747
0.0248401
0.0253972
0.0264739
0.0131732
0.0134055
0.0135811
0.0137416
0.00184561
0.00184953
0.00185081
0.00184945
0.00183719
0.00183715
0.00183712
0.00183711
0.0137853
0.0136946
0.0136769
0.0137313
0.029916
0.0299191
0.0299335
0.0299593
0.0336755
0.033679
0.0337116
0.0337707
0.0348251
0.034779
0.0348401
0.0349964
0.0353464
0.0352618
0.0353982
0.0357254
0.0347082
0.034595
0.0348272
0.0353612
0.0310986
0.0311305
0.0314424
0.0320071
0.0133155
0.0135929
0.013654
0.0135462
0.00180727
0.00180966
0.0018106
0.00181009
0.00181925
0.0018192
0.00181917
0.00181916
0.0138649
0.0137678
0.0137476
0.0138032
0.028625
0.0286183
0.0286212
0.0286342
0.031759
0.0317853
0.0318027
0.0318117
0.0333167
0.0333622
0.0333951
0.0334168
0.0350525
0.0351258
0.0351871
0.0352384
0.035919
0.0359836
0.0360695
0.0361775
0.032621
0.0327793
0.0329057
0.0330038
0.012392
0.0126486
0.0126889
0.0125499
0.00177444
0.00177595
0.00177659
0.00177635
0.0018002
0.00180014
0.00180011
0.0018001
0.0141242
0.0140237
0.0140027
0.0140594
0.0280675
0.0280548
0.0280534
0.0280637
0.0303408
0.0303489
0.0303541
0.0303564
0.03128
0.0313014
0.0313143
0.031319
0.0325574
0.0326145
0.0326458
0.0326531
0.0334931
0.0335719
0.0336154
0.0336284
0.0307731
0.0309409
0.0310092
0.0309857
0.011957
0.0121817
0.0122233
0.0121014
0.00174436
0.00174539
0.00174579
0.00174561
0.00177977
0.0017797
0.00177967
0.00177967
0.0144824
0.014379
0.0143572
0.0144153
0.0279205
0.027907
0.0279048
0.0279141
0.0296734
0.0296746
0.0296756
0.0296765
0.0301784
0.0301837
0.0301871
0.0301885
0.0308808
0.0309037
0.030916
0.0309179
0.0314137
0.0314469
0.0314648
0.031469
0.0290407
0.0291509
0.0291907
0.0291615
0.0120321
0.0122514
0.012293
0.0121704
0.0017155
0.00171624
0.0017165
0.00171632
0.0017578
0.00175773
0.0017577
0.0017577
0.0149176
0.014811
0.0147884
0.0148481
0.0279467
0.0279337
0.0279314
0.0279401
0.029377
0.0293766
0.0293767
0.0293773
0.0296625
0.0296634
0.029664
0.0296645
0.0300316
0.0300406
0.0300453
0.0300456
0.0302996
0.0303103
0.0303165
0.0303185
0.0281837
0.0282586
0.028283
0.0282564
0.0123973
0.012628
0.0126707
0.0125388
0.00168699
0.00168757
0.00168773
0.00168754
0.0017342
0.00173412
0.00173408
0.00173409
0.0154295
0.0153192
0.0152957
0.0153572
0.0280475
0.0280352
0.0280329
0.028041
0.029245
0.0292443
0.0292443
0.0292448
0.0294209
0.029421
0.029421
0.0294211
0.0296148
0.0296192
0.0296213
0.0296212
0.0297539
0.0297576
0.0297599
0.0297606
0.0278872
0.0279462
0.0279636
0.0279388
0.0129388
0.0131885
0.0132339
0.0130899
0.00165828
0.00165875
0.00165886
0.00165866
0.00170885
0.00170876
0.00170872
0.00170874
0.0160283
0.0159136
0.0158889
0.0159525
0.0281828
0.0281712
0.028169
0.0281764
0.0291874
0.0291867
0.0291867
0.0291872
0.0293058
0.0293058
0.0293058
0.0293058
0.0294078
0.0294104
0.0294116
0.0294114
0.0294901
0.029492
0.0294931
0.0294932
0.0278807
0.0279316
0.0279458
0.0279229
0.0136125
0.0138851
0.0139344
0.0137768
0.00162892
0.00162933
0.00162939
0.00162919
0.00168166
0.00168157
0.00168153
0.00168155
0.0167316
0.0166116
0.0165856
0.0166517
0.0283352
0.0283244
0.0283222
0.0283289
0.0291644
0.0291639
0.0291638
0.0291643
0.02925
0.0292499
0.0292499
0.0292499
0.0293036
0.0293054
0.0293061
0.0293059
0.0293636
0.0293653
0.029366
0.0293658
0.0280197
0.0280651
0.0280775
0.0280565
0.0144104
0.0147089
0.0147625
0.0145899
0.00159858
0.00159894
0.00159898
0.00159878
0.00165257
0.00165247
0.00165243
0.00165245
0.0175655
0.0174389
0.017411
0.0174802
0.0284956
0.0284857
0.0284836
0.0284896
0.0291578
0.0291573
0.0291573
0.0291577
0.0292219
0.0292218
0.0292218
0.0292218
0.02925
0.0292513
0.0292518
0.0292515
0.029303
0.0293047
0.0293054
0.0293049
0.0282289
0.0282697
0.0282805
0.0282614
0.0153472
0.0156745
0.0157328
0.0155434
0.00156698
0.0015673
0.00156733
0.00156714
0.00162153
0.00162142
0.00162138
0.00162141
0.0185671
0.0184322
0.018402
0.0184749
0.0286582
0.0286492
0.0286473
0.0286525
0.0291584
0.0291581
0.0291581
0.0291585
0.0292063
0.0292064
0.0292063
0.0292063
0.0292209
0.0292218
0.0292221
0.0292218
0.0292717
0.0292734
0.029274
0.0292734
0.028466
0.0285024
0.0285118
0.0284942
0.0164563
0.0168156
0.0168786
0.0166705
0.00153394
0.00153422
0.00153424
0.00153406
0.0015886
0.00158848
0.00158844
0.00158848
0.0197911
0.019645
0.0196117
0.0196892
0.0288165
0.0288087
0.0288069
0.0288114
0.0291617
0.0291615
0.0291615
0.0291618
0.0291959
0.029196
0.029196
0.029196
0.0292027
0.0292034
0.0292036
0.0292033
0.0292501
0.0292518
0.0292523
0.0292516
0.028703
0.0287351
0.0287428
0.0287267
0.0177922
0.0181856
0.018253
0.0180247
0.00149937
0.00149961
0.00149962
0.00149947
0.00155401
0.00155389
0.00155385
0.00155389
0.0213176
0.021156
0.0211183
0.0212023
0.0289639
0.0289578
0.0289564
0.0289598
0.0291646
0.0291645
0.0291646
0.0291647
0.0291872
0.0291873
0.0291873
0.0291873
0.0291891
0.0291895
0.0291896
0.0291894
0.0292279
0.0292294
0.0292298
0.029229
0.0289152
0.0289426
0.0289486
0.0289339
0.0194343
0.0198575
0.0199276
0.0196813
0.00146337
0.00146356
0.00146357
0.00146345
0.001518
0.00151788
0.00151785
0.0015179
0.0232721
0.0230879
0.0230444
0.0231383
0.0290874
0.0290836
0.0290826
0.0290848
0.0291654
0.0291654
0.0291654
0.0291653
0.0291792
0.0291793
0.0291794
0.0291794
0.0291783
0.0291785
0.0291786
0.0291785
0.0292021
0.0292032
0.0292035
0.0292029
0.0290777
0.0290993
0.0291034
0.0290908
0.0215229
0.0219755
0.0220425
0.0217747
0.00142604
0.0014262
0.00142621
0.00142612
0.00147972
0.00147962
0.00147961
0.00147967
0.0258484
0.0256396
0.025594
0.0257012
0.0291704
0.0291688
0.0291683
0.0291693
0.0291642
0.0291641
0.029164
0.029164
0.0291733
0.0291735
0.0291735
0.0291736
0.0291719
0.029172
0.0291721
0.029172
0.0291797
0.0291801
0.0291802
0.02918
0.0291743
0.0291866
0.0291885
0.0291808
0.0244724
0.0248974
0.024947
0.0246873
0.00138663
0.00138676
0.00138676
0.00138666
0.0021555
0.00203895
0.00197453
0.00194199
0.00192287
0.00191048
0.00190231
0.00189712
0.00189378
0.0018915
0.00174749
0.00158329
0.00476575
0.0094243
0.0139349
0.0171227
0.0186334
0.0187846
0.0181532
0.0172131
0.00236383
0.00257436
0.00732539
0.0155538
0.024959
0.0330806
0.0390657
0.0428687
0.0447448
0.0451312
0.0027686
0.00359708
0.00828898
0.0178414
0.0291689
0.0385213
0.0449961
0.0487263
0.0501635
0.0499545
0.00307713
0.00394192
0.00871626
0.0193459
0.0320854
0.0419667
0.048151
0.0510041
0.0513198
0.050108
0.00338881
0.00407079
0.0089376
0.0204178
0.0342682
0.0443132
0.0498913
0.0516819
0.0509071
0.0488678
0.00363086
0.0040838
0.00896733
0.0211694
0.0358993
0.0457598
0.0504394
0.0510696
0.0493445
0.0468125