/*--------------------------------*- C++ -*----------------------------------*\
| =========                 |                                                 |
| \\      /  F ield         | foam-extend: Open Source CFD                    |
|  \\    /   O peration     | Version:     4.0                                |
|   \\  /    A nd           | Web:         http://www.foam-extend.org         |
|    \\/     M anipulation  |                                                 |
\*---------------------------------------------------------------------------*/
FoamFile
{
    version     2.0;
    format      ascii;
    class       volScalarField;
    location    "2000";
    object      p;
}
// * * * * * * * * * * * * * * * * * * * * * * * * * * * * * * * * * * * * * //

dimensions      [1 -1 -2 0 0 0 0];

internalField   nonuniform List<scalar> 
34480
(
107971
107871
107831
107846
107931
108113
108456
109138
110104
110450
107829
107730
107690
107702
107781
107958
108296
108966
110000
109975
107687
107585
107544
107547
107612
107759
108058
108660
109689
109114
107613
107509
107463
107453
107496
107599
107839
108342
109304
108153
107531
107415
107362
107335
107352
107410
107592
107990
108849
107157
107547
107432
107372
107336
107334
107355
107481
107771
108491
106274
107453
107325
107258
107210
107192
107183
107260
107452
108012
105337
107540
107418
107355
107322
107319
107321
107384
107503
107881
104741
107440
107312
107244
107206
107205
107217
107270
107332
107504
103993
107533
107418
107405
107470
107609
107801
108045
108281
108452
104456
108730
108605
108560
108585
108691
108894
109229
109757
110571
111638
108523
108391
108344
108371
108484
108709
109097
109750
110890
112494
108322
108185
108138
108159
108267
108485
108880
109586
110967
112954
108194
108052
107999
108008
108100
108294
108666
109362
110883
113122
108068
107915
107853
107845
107916
108074
108408
109060
110649
113035
108046
107892
107822
107803
107856
107981
108270
108854
110447
112864
107922
107756
107679
107646
107680
107774
108020
108529
110078
112468
107986
107824
107748
107724
107765
107860
108085
108528
109981
112252
107873
107706
107623
107591
107622
107710
107919
108312
109619
111810
107954
107799
107757
107803
107936
108149
108480
108977
110231
112218
109297
109183
109144
109173
109276
109462
109746
110147
110678
111289
109083
108951
108907
108942
109067
109297
109662
110205
111020
112027
108863
108720
108675
108711
108843
109091
109500
110150
111246
112674
108704
108552
108500
108528
108656
108903
109332
110041
111360
113170
108550
108384
108325
108339
108454
108685
109110
109838
111325
113462
108497
108329
108262
108267
108368
108579
108987
109703
111302
113690
108348
108168
108095
108087
108173
108361
108744
109432
111094
113678
108390
108214
108140
108138
108227
108412
108784
109439
111102
113796
108265
108084
108004
107993
108069
108240
108592
109222
110824
113634
108332
108160
108108
108152
108298
108551
108979
109674
111240
114049
109694
109606
109576
109599
109679
109818
110016
110269
110562
110843
109515
109399
109360
109392
109502
109696
109985
110376
110882
111402
109317
109179
109136
109172
109299
109528
109885
110399
111153
111992
109154
109000
108949
108982
109114
109364
109771
110386
111383
112568
108993
108821
108761
108785
108914
109165
109598
110280
111490
113017
108924
108745
108678
108694
108816
109062
109505
110224
111611
113449
108760
108569
108496
108501
108612
108845
109286
110020
111544
113667
108786
108597
108522
108531
108645
108878
109320
110058
111662
114010
108649
108456
108376
108379
108483
108706
109136
109875
111490
114067
108702
108517
108456
108497
108650
108929
109408
110195
111803
114521
109968
109906
109885
109902
109958
110052
110179
110331
110492
110630
109834
109742
109711
109737
109824
109972
110182
110446
110749
111025
109678
109557
109519
109551
109661
109854
110138
110516
110998
111470
109529
109386
109338
109371
109496
109722
110072
110561
111248
111969
109376
109211
109154
109182
109311
109556
109952
110531
111419
112412
109303
109127
109062
109085
109215
109468
109896
110542
111618
112885
109135
108944
108872
108887
109013
109265
109710
110404
111644
113184
109152
108960
108885
108904
109033
109291
109751
110478
111843
113626
109008
108811
108733
108746
108870
109123
109584
110338
111768
113810
109050
108859
108793
108833
108990
109281
109777
110573
112026
114265
110157
110117
110103
110114
110150
110209
110286
110373
110459
110526
110065
109997
109974
109993
110056
110161
110303
110472
110651
110799
109955
109858
109826
109852
109940
110091
110303
110568
110870
111138
109831
109707
109665
109695
109803
109993
110275
110643
111101
111535
109698
109548
109497
109525
109645
109864
110202
110665
111289
111918
109631
109467
109406
109432
109559
109798
110182
110726
111517
112358
109468
109285
109217
109238
109367
109616
110031
110641
111591
112659
109482
109296
109224
109248
109383
109644
110086
110748
111834
113119
109335
109142
109068
109088
109221
109483
109937
110643
111822
113351
109370
109181
109114
109153
109308
109597
110078
110823
112046
113764
110290
110266
110257
110264
110286
110321
110366
110415
110461
110495
110230
110183
110167
110180
110223
110294
110385
110490
110594
110675
110165
110091
110066
110086
110152
110263
110413
110592
110781
110937
110067
109966
109931
109955
110043
110194
110409
110675
110978
111243
109960
109832
109787
109813
109917
110102
110374
110729
111159
111559
109907
109761
109706
109733
109849
110060
110384
110821
111388
111943
109754
109587
109525
109549
109671
109901
110266
110775
111479
112208
109772
109599
109533
109559
109690
109937
110336
110907
111737
112641
109625
109443
109374
109399
109531
109785
110204
110824
111752
112860
109657
109478
109413
109450
109597
109871
110313
110971
111951
113211
110389
110374
110369
110373
110386
110407
110432
110459
110483
110501
110348
110318
110307
110316
110344
110389
110446
110509
110569
110614
110322
110268
110250
110264
110311
110389
110491
110608
110725
110816
110247
110169
110141
110160
110228
110342
110498
110685
110882
111045
110169
110064
110027
110049
110134
110282
110492
110753
111045
111301
110132
110008
109961
109985
110085
110263
110524
110860
111260
111626
109993
109846
109793
109816
109926
110127
110432
110839
111350
111845
110020
109866
109807
109833
109954
110175
110518
110986
111604
112233
109876
109710
109649
109674
109799
110031
110398
110917
111622
112404
109909
109745
109684
109718
109854
110102
110490
111044
111801
112694
110465
110456
110454
110456
110464
110475
110489
110504
110517
110526
110435
110417
110409
110415
110432
110460
110495
110533
110567
110593
110439
110402
110389
110399
110431
110483
110550
110625
110696
110750
110383
110325
110303
110317
110367
110450
110560
110686
110814
110914
110331
110249
110220
110237
110304
110417
110572
110758
110954
111118
110311
110210
110172
110192
110274
110417
110619
110869
111146
111386
110187
110064
110019
110040
110134
110301
110546
110858
111222
111556
110227
110095
110044
110069
110174
110363
110646
111015
111464
111895
110086
109941
109888
109912
110023
110226
110534
110950
111471
112010
110124
109980
109925
109956
110075
110292
110619
111066
111632
112250
110527
110522
110521
110522
110526
110532
110540
110548
110555
110560
110501
110489
110485
110488
110499
110516
110536
110559
110579
110593
110528
110503
110494
110501
110522
110556
110599
110645
110689
110720
110483
110442
110426
110436
110471
110529
110604
110688
110769
110831
110455
110393
110371
110384
110434
110517
110629
110758
110888
110991
110450
110371
110341
110357
110422
110532
110683
110863
111052
111208
110340
110241
110204
110222
110299
110432
110622
110854
111108
111331
110396
110287
110244
110266
110354
110509
110733
111014
111334
111624
110257
110135
110090
110112
110207
110377
110625
110947
111323
111687
110303
110181
110134
110160
110262
110443
110708
111057
111469
111888
110579
110576
110575
110576
110578
110582
110586
110590
110594
110597
110551
110544
110541
110543
110550
110560
110572
110585
110597
110605
110597
110580
110575
110579
110592
110614
110641
110669
110695
110713
110556
110528
110517
110524
110548
110587
110637
110691
110743
110782
110549
110504
110488
110497
110533
110593
110670
110758
110842
110907
110556
110496
110473
110486
110535
110616
110726
110852
110979
111080
110459
110381
110352
110366
110427
110529
110671
110839
111013
111160
110530
110444
110410
110428
110499
110621
110792
110999
111222
111414
110393
110294
110257
110275
110353
110489
110682
110923
111189
111432
110449
110349
110310
110332
110416
110561
110769
111031
111325
111604
110623
110621
110622
110622
110623
110625
110627
110630
110632
110633
110590
110586
110584
110585
110589
110595
110602
110610
110617
110622
110651
110641
110638
110640
110649
110662
110678
110695
110711
110721
110610
110591
110583
110588
110604
110629
110662
110697
110729
110754
110619
110588
110576
110583
110608
110649
110702
110759
110814
110855
110635
110592
110575
110584
110620
110678
110755
110842
110926
110990
110548
110489
110467
110478
110523
110600
110702
110820
110938
111034
110635
110570
110544
110558
110612
110705
110832
110979
111132
111257
110497
110418
110390
110404
110466
110571
110715
110890
111074
111234
110566
110487
110456
110473
110539
110652
110809
111001
111205
111387
110663
110662
110662
110662
110663
110664
110665
110666
110667
110668
110620
110618
110616
110617
110619
110623
110627
110632
110636
110640
110696
110690
110688
110690
110695
110703
110713
110723
110731
110737
110649
110636
110631
110634
110644
110661
110681
110704
110724
110739
110672
110651
110643
110648
110665
110692
110727
110764
110798
110824
110693
110663
110651
110657
110682
110723
110776
110833
110889
110929
110613
110570
110554
110562
110595
110650
110721
110803
110880
110943
110717
110669
110650
110660
110701
110769
110859
110962
111065
111145
110573
110513
110492
110503
110549
110627
110732
110856
110980
111085
110657
110598
110574
110587
110637
110722
110837
110972
111111
111229
110699
110698
110698
110698
110699
110699
110700
110700
110701
110701
110642
110641
110640
110640
110642
110644
110646
110649
110652
110655
110735
110731
110730
110731
110734
110739
110745
110750
110755
110757
110677
110668
110665
110666
110673
110683
110696
110710
110723
110733
110711
110698
110692
110696
110707
110724
110747
110770
110792
110807
110734
110714
110706
110710
110727
110755
110790
110828
110863
110888
110660
110630
110619
110624
110647
110685
110734
110788
110838
110879
110780
110747
110733
110741
110770
110818
110881
110950
111018
111067
110626
110582
110566
110574
110608
110664
110738
110823
110905
110973
110730
110686
110669
110678
110715
110776
110857
110950
111042
111117
110733
110732
110733
110733
110733
110733
110733
110733
110734
110733
110656
110656
110655
110655
110656
110657
110659
110661
110663
110666
110769
110767
110767
110768
110769
110772
110775
110778
110780
110781
110696
110690
110688
110689
110693
110699
110707
110716
110724
110730
110740
110731
110728
110730
110737
110749
110763
110777
110790
110799
110763
110749
110743
110746
110758
110776
110799
110823
110846
110861
110693
110673
110665
110669
110685
110710
110742
110777
110809
110835
110830
110807
110798
110803
110823
110856
110899
110944
110989
111018
110660
110628
110617
110623
110646
110685
110735
110792
110845
110889
110788
110758
110745
110752
110778
110821
110876
110938
110998
111045
110770
110769
110770
110770
110770
110770
110770
110770
110770
110769
110662
110661
110661
110661
110661
110662
110664
110665
110667
110670
110800
110799
110799
110800
110801
110802
110804
110805
110806
110805
110708
110704
110703
110704
110706
110710
110715
110720
110724
110729
110760
110754
110752
110753
110758
110765
110773
110782
110790
110795
110779
110770
110767
110769
110776
110787
110802
110817
110831
110841
110716
110703
110698
110701
110711
110727
110748
110770
110789
110805
110868
110854
110847
110851
110864
110886
110914
110943
110972
110989
110677
110654
110647
110651
110667
110692
110726
110762
110796
110825
110843
110822
110814
110818
110836
110864
110902
110941
110980
111008
110823
110822
110823
110823
110823
110823
110823
110822
110822
110821
110656
110655
110655
110654
110655
110655
110657
110658
110660
110663
110825
110826
110825
110826
110826
110827
110828
110829
110829
110827
110715
110713
110712
110713
110714
110716
110719
110722
110724
110727
110770
110766
110765
110765
110768
110772
110778
110783
110788
110791
110785
110779
110776
110777
110782
110789
110798
110808
110817
110823
110730
110722
110719
110721
110727
110738
110750
110764
110775
110784
110893
110883
110878
110881
110889
110903
110922
110940
110960
110969
110675
110660
110655
110658
110668
110685
110706
110729
110750
110769
110908
110894
110888
110891
110903
110921
110946
110971
110996
111012
110917
110916
110917
110917
110917
110917
110916
110916
110915
110914
110630
110628
110628
110628
110629
110629
110630
110631
110633
110636
110839
110839
110838
110838
110838
110839
110839
110840
110841
110840
110718
110717
110717
110718
110719
110720
110721
110723
110723
110725
110770
110768
110767
110767
110769
110771
110775
110778
110781
110783
110780
110776
110774
110775
110778
110782
110788
110794
110800
110804
110735
110731
110730
110731
110735
110742
110750
110757
110763
110768
110891
110884
110880
110882
110887
110896
110908
110921
110934
110940
110648
110639
110636
110638
110644
110655
110668
110682
110694
110707
111007
110999
110994
110996
111004
111016
111032
111048
111065
111073
111079
111078
111078
111078
111078
111078
111078
111078
111077
111077
110569
110569
110570
110571
110571
110571
110571
110571
110571
110573
110827
110825
110823
110822
110822
110823
110824
110826
110828
110829
110720
110721
110721
110722
110723
110723
110724
110724
110724
110724
110765
110763
110762
110762
110763
110765
110767
110770
110772
110774
110769
110767
110765
110766
110768
110771
110775
110779
110783
110786
110736
110734
110733
110734
110737
110741
110746
110751
110755
110757
110848
110842
110839
110840
110844
110850
110858
110867
110878
110885
110582
110577
110576
110577
110582
110590
110598
110607
110613
110619
111164
111158
111154
111156
111161
111169
111180
111191
111204
111209
111261
111259
111257
111257
111256
111257
111257
111259
111261
111265
110485
110491
110495
110497
110498
110498
110496
110493
110489
110482
110792
110788
110786
110785
110785
110785
110787
110789
110793
110798
110726
110727
110727
110728
110729
110729
110730
110730
110729
110727
110760
110758
110758
110758
110758
110760
110762
110764
110766
110767
110762
110760
110759
110759
110761
110763
110767
110770
110773
110775
110739
110737
110736
110737
110740
110743
110747
110751
110754
110755
110785
110779
110776
110777
110780
110785
110792
110800
110809
110818
110497
110496
110495
110497
110501
110507
110514
110521
110524
110520
111331
111326
111323
111324
111329
111336
111345
111354
111364
111368
122714
123928
123752
122478
125946
127352
126952
125330
128889
130476
129888
127898
131055
132758
131984
129715
132718
134500
133552
131079
134068
135909
134951
132357
134994
136867
136042
133380
135817
137696
137034
134334
135732
137583
137066
134374
135321
137158
136899
134361
113012
113202
113240
113120
115298
115669
115728
115437
117555
118108
118166
117657
119695
120415
120460
119705
121647
122504
122518
121505
123500
124466
124445
123216
125035
126085
126034
124646
126540
127648
127579
126082
127320
128459
128388
126840
127968
129141
129118
127619
111810
111899
111927
111900
113134
113301
113341
113274
114587
114853
114906
114776
116064
116436
116496
116283
117488
117963
118021
117703
118965
119540
119590
119156
120256
120924
120964
120411
121637
122381
122411
121744
122458
123249
123272
122510
123276
124104
124145
123327
110958
110981
110992
110992
111711
111764
111784
111777
112631
112735
112768
112743
113662
113831
113879
113825
114690
114931
114993
114894
115819
116137
116210
116054
116823
117219
117298
117074
117981
118448
118530
118232
118694
119212
119299
118936
119471
120031
120135
119731
110675
110685
110690
110691
111147
111171
111182
111181
111731
111780
111799
111795
112438
112521
112553
112542
113163
113289
113334
113310
114001
114177
114235
114190
114737
114968
115037
114963
115657
115940
116019
115908
116236
116560
116652
116508
116913
117273
117384
117217
110544
110548
110550
110551
110847
110856
110861
110863
111242
111262
111273
111274
111735
111774
111793
111795
112257
112320
112349
112349
112887
112982
113023
113017
113424
113554
113607
113592
114153
114321
114384
114353
114612
114810
114887
114842
115165
115390
115481
115424
110504
110506
110507
110507
110699
110704
110706
110707
110987
110997
111002
111003
111339
111358
111369
111372
111722
111755
111773
111777
112204
112256
112282
112287
112594
112668
112704
112707
113175
113274
113319
113318
113525
113644
113701
113694
113958
114096
114162
114149
110506
110506
110507
110507
110627
110629
110630
110631
110842
110847
110850
110851
111096
111106
111112
111114
111387
111404
111415
111418
111764
111792
111809
111814
112048
112090
112113
112120
112517
112574
112605
112611
112764
112836
112874
112879
113101
113185
113229
113231
110529
110529
110529
110529
110600
110601
110601
110602
110764
110767
110768
110769
110943
110949
110953
110954
111166
111176
111182
111184
111464
111481
111491
111495
111670
111695
111709
111715
112054
112088
112107
112113
112213
112256
112281
112286
112479
112529
112558
112563
110561
110561
110562
110562
110597
110598
110598
110598
110728
110729
110730
110731
110849
110852
110854
110855
111019
111025
111029
111030
111255
111265
111271
111273
111398
111412
111422
111426
111717
111737
111749
111754
111805
111832
111848
111852
112021
112052
112070
112074
110597
110597
110597
110597
110607
110608
110608
110608
110718
110719
110719
110719
110792
110794
110795
110796
110924
110928
110930
110931
111109
111115
111119
111120
111201
111209
111215
111218
111470
111482
111490
111493
111503
111520
111530
111533
111683
111702
111713
111716
110633
110633
110633
110633
110623
110624
110624
110624
110723
110724
110724
110724
110760
110761
110762
110763
110865
110867
110868
110869
111009
111012
111015
111016
111059
111064
111068
111070
111292
111300
111304
111306
111279
111289
111296
111298
111436
111447
111455
111457
110668
110668
110668
110668
110640
110641
110641
110641
110738
110738
110738
110738
110743
110744
110745
110745
110830
110831
110832
110832
110941
110944
110945
110946
110958
110961
110964
110965
111166
111171
111174
111175
111113
111120
111124
111125
111258
111265
111270
111272
110701
110701
110701
110701
110655
110656
110656
110656
110758
110758
110758
110758
110735
110736
110736
110737
110811
110811
110812
110812
110896
110898
110899
110899
110888
110890
110891
110892
111082
111084
111086
111087
110992
110996
110998
110999
111135
111139
111142
111143
110733
110733
110733
110733
110666
110666
110666
110667
110781
110781
110781
110781
110732
110732
110732
110733
110801
110802
110802
110802
110867
110868
110868
110869
110840
110841
110841
110842
111027
111029
111030
111031
110901
110904
110906
110907
111055
111058
111060
111060
110769
110769
110769
110769
110670
110670
110670
110671
110806
110806
110805
110805
110729
110729
110730
110730
110797
110797
110797
110797
110845
110846
110847
110847
110807
110807
110807
110808
110995
110997
110997
110997
110833
110835
110836
110836
111014
111015
111016
111017
110821
110821
110821
110820
110663
110663
110664
110664
110828
110828
110828
110828
110726
110726
110727
110727
110792
110792
110792
110792
110827
110827
110828
110828
110783
110783
110783
110784
110975
110976
110976
110976
110774
110776
110776
110776
111014
111014
111015
111015
110913
110913
110913
110913
110636
110636
110637
110637
110842
110843
110843
110842
110723
110722
110722
110722
110785
110785
110785
110785
110807
110808
110808
110808
110765
110764
110764
110765
110948
110950
110950
110950
110709
110710
110711
110711
111074
111073
111074
111075
111077
111077
111077
111077
110570
110569
110570
110570
110835
110836
110837
110837
110720
110720
110719
110719
110775
110776
110776
110776
110788
110789
110789
110789
110752
110751
110751
110751
110898
110901
110901
110901
110614
110613
110613
110614
111214
111214
111215
111216
111266
111267
111267
111268
110466
110462
110461
110461
110807
110809
110810
110811
110723
110722
110722
110722
110769
110769
110769
110769
110777
110777
110778
110778
110750
110749
110749
110749
110835
110839
110840
110838
110496
110490
110489
110493
111390
111393
111393
111390
116090
113576
111651
110363
109557
109037
108682
108431
108252
108115
117147
113965
111596
110195
109369
108843
108493
108252
108083
107958
117509
114003
111327
110005
109180
108659
108309
108067
107904
107797
117492
113900
110998
109842
109036
108550
108216
107987
107829
107722
117206
113679
110689
109663
108865
108414
108095
107879
107730
107634
116837
113552
110520
109628
108830
108419
108110
107907
107760
107657
116194
113295
110228
109476
108671
108300
107997
107804
107659
107563
115772
113318
110220
109610
108791
108455
108144
107947
107789
107667
115047
112985
109908
109478
108683
108393
108074
107872
107707
107576
115486
113682
110579
110174
109256
108863
108431
108141
107905
107704
112563
111819
111158
110605
110150
109780
109480
109239
109046
108896
114186
112820
111686
110831
110188
109704
109340
109063
108851
108692
115485
113532
111990
110915
110128
109562
109152
108850
108628
108478
116472
114020
112139
110934
110064
109466
109041
108734
108508
108353
117098
114286
112135
110852
109932
109325
108898
108594
108370
108223
117573
114535
112167
110854
109904
109305
108881
108584
108362
108208
117721
114566
112021
110714
109743
109162
108742
108452
108231
108083
117931
114769
112088
110822
109840
109278
108855
108561
108333
108163
117711
114571
111845
110687
109735
109204
108775
108475
108238
108059
118117
115085
112321
111185
110158
109553
109046
108682
108396
108166
111743
111428
111074
110735
110428
110160
109930
109737
109575
109445
112914
112274
111604
111024
110550
110167
109859
109609
109409
109254
114113
113062
112038
111215
110577
110087
109710
109418
109194
109035
115226
113740
112382
111367
110605
110043
109622
109303
109061
108888
116154
114237
112572
111402
110547
109937
109490
109158
108906
108734
117026
114710
112772
111488
110564
109927
109465
109128
108872
108689
117625
114952
112774
111411
110435
109786
109316
108978
108718
108539
118275
115315
112945
111546
110537
109885
109407
109061
108794
108596
118446
115269
112812
111451
110451
109810
109320
108964
108688
108481
118950
115688
113184
111818
110763
110068
109524
109123
108813
108571
110970
110873
110738
110586
110429
110277
110136
110010
109898
109805
111703
111475
111186
110892
110614
110363
110143
109952
109792
109662
112571
112136
111627
111149
110728
110370
110073
109828
109630
109482
113507
112818
112066
111405
110849
110398
110036
109746
109515
109343
114371
113392
112386
111554
110881
110356
109945
109624
109372
109190
115265
113979
112723
111740
110969
110387
109941
109599
109332
109135
115959
114361
112863
111753
110901
110278
109807
109452
109173
108974
116751
114862
113151
111947
111035
110384
109892
109521
109232
109015
117126
114990
113147
111909
110970
110304
109794
109411
109112
108887
117732
115419
113479
112193
111201
110493
109945
109530
109208
108958
110682
110642
110580
110504
110421
110336
110253
110175
110104
110042
111155
111059
110921
110763
110601
110443
110295
110162
110045
109948
111736
111544
111286
111013
110748
110505
110289
110101
109942
109819
112434
112108
111699
111290
110912
110581
110297
110057
109858
109703
113127
112633
112048
111496
111008
110596
110252
109971
109740
109567
113900
113210
112436
111744
111154
110671
110279
109964
109710
109516
114529
113621
112650
111826
111143
110603
110172
109832
109557
109356
115300
114169
113010
112074
111314
110726
110263
109899
109610
109389
115738
114403
113103
112089
111276
110654
110164
109785
109483
109254
116337
114823
113409
112327
111461
110801
110281
109876
109558
109310
110548
110530
110501
110464
110421
110375
110328
110283
110240
110203
110854
110811
110743
110659
110567
110472
110379
110292
110214
110146
111256
111168
111037
110884
110723
110564
110415
110280
110161
110067
111759
111604
111385
111140
110895
110664
110454
110268
110108
109980
112287
112040
111709
111360
111025
110719
110450
110218
110021
109870
112913
112552
112093
111632
111205
110829
110506
110235
110008
109831
113428
112930
112328
111752
111237
110797
110428
110123
109871
109680
114111
113463
112715
112033
111437
110941
110531
110198
109926
109714
114524
113727
112853
112080
111418
110878
110437
110084
109798
109577
115045
114110
113133
112291
111578
111002
110534
110160
109861
109624
110505
110497
110482
110463
110441
110416
110390
110364
110340
110318
110703
110681
110645
110599
110547
110491
110434
110380
110329
110285
110995
110950
110879
110790
110692
110591
110492
110398
110315
110248
111357
111277
111155
111008
110851
110694
110545
110408
110287
110186
111753
111624
111434
111215
110989
110771
110569
110388
110230
110106
112247
112055
111782
111481
111181
110901
110648
110426
110236
110083
112645
112371
112002
111612
111236
110895
110594
110337
110117
109947
113222
112854
112380
111901
111452
111054
110711
110422
110181
109988
113563
113092
112518
111956
111444
111001
110625
110314
110055
109852
113987
113425
112772
112149
111590
111114
110713
110382
110112
109895
110506
110502
110495
110485
110472
110459
110445
110431
110417
110404
110629
110617
110598
110573
110543
110511
110477
110444
110412
110384
110846
110822
110781
110730
110670
110607
110543
110481
110425
110379
111107
111064
110993
110903
110803
110699
110597
110500
110413
110338
111407
111336
111224
111085
110935
110783
110638
110503
110382
110285
111796
111690
111525
111329
111123
110920
110730
110557
110405
110280
112094
111940
111712
111451
111184
110928
110694
110486
110304
110160
112571
112360
112061
111731
111403
111097
110823
110584
110379
110211
112822
112545
112173
111778
111396
111049
110743
110481
110257
110079
113159
112826
112399
111955
111534
111157
110827
110548
110314
110123
110529
110527
110523
110517
110511
110504
110496
110488
110480
110474
110601
110594
110584
110570
110553
110534
110514
110494
110475
110458
110766
110752
110729
110699
110663
110624
110583
110544
110507
110477
110950
110925
110883
110829
110765
110698
110630
110563
110502
110448
111178
111137
111069
110982
110883
110780
110678
110581
110492
110420
111486
111423
111322
111195
111055
110912
110774
110645
110528
110429
111703
111612
111469
111296
111110
110924
110747
110586
110442
110325
112094
111970
111780
111557
111324
111096
110885
110695
110529
110389
112260
112096
111858
111587
111311
111048
110808
110596
110411
110261
112530
112332
112056
111749
111441
111153
110893
110666
110471
110310
110561
110560
110558
110555
110552
110548
110543
110539
110535
110531
110598
110594
110589
110581
110571
110560
110549
110537
110526
110515
110729
110721
110707
110689
110667
110644
110619
110593
110570
110552
110853
110838
110813
110780
110740
110697
110652
110608
110566
110529
111027
111002
110960
110905
110841
110772
110703
110635
110572
110520
111268
111231
111167
111085
110992
110894
110796
110702
110616
110541
111419
111364
111274
111160
111032
110901
110772
110651
110541
110450
111744
111669
111548
111399
111236
111072
110915
110769
110640
110528
111839
111740
111588
111405
111210
111018
110836
110671
110523
110402
112057
111939
111762
111554
111335
111123
110924
110746
110590
110458
110597
110596
110595
110594
110592
110590
110587
110585
110583
110581
110608
110606
110603
110599
110593
110587
110580
110573
110567
110560
110718
110713
110705
110694
110681
110667
110651
110636
110622
110611
110795
110786
110771
110751
110726
110699
110670
110641
110613
110588
110929
110914
110888
110853
110812
110766
110720
110674
110630
110594
111117
111094
111054
111002
110940
110874
110806
110740
110678
110623
111214
111180
111123
111048
110962
110871
110779
110692
110610
110542
111487
111441
111364
111266
111155
111039
110926
110818
110720
110634
111525
111465
111368
111246
111111
110974
110840
110716
110602
110507
111708
111636
111523
111384
111233
111080
110933
110798
110677
110574
110633
110633
110632
110631
110630
110629
110628
110627
110625
110624
110624
110623
110621
110619
110616
110612
110608
110604
110600
110595
110723
110720
110715
110709
110701
110692
110683
110673
110665
110660
110762
110757
110748
110735
110720
110703
110685
110666
110648
110631
110867
110858
110842
110820
110794
110764
110734
110703
110674
110650
111014
111000
110975
110941
110901
110856
110811
110765
110722
110683
111068
111046
111010
110961
110904
110842
110778
110716
110658
110609
111302
111274
111225
111161
111086
111007
110927
110850
110778
110714
111293
111256
111194
111113
111022
110926
110830
110740
110655
110584
111452
111408
111336
111245
111142
111035
110930
110831
110741
110662
110668
110668
110667
110667
110666
110666
110665
110664
110663
110663
110641
110641
110640
110638
110637
110635
110632
110630
110627
110624
110737
110736
110733
110729
110724
110719
110713
110707
110703
110700
110745
110742
110737
110729
110720
110709
110698
110686
110674
110663
110831
110825
110815
110802
110785
110766
110746
110726
110707
110692
110944
110936
110920
110898
110872
110844
110813
110783
110754
110727
110964
110950
110927
110896
110858
110817
110774
110731
110690
110656
111173
111156
111124
111083
111034
110980
110925
110871
110821
110774
111122
111099
111059
111007
110946
110881
110814
110750
110688
110636
111269
111242
111197
111137
111069
110996
110923
110852
110787
110729
110701
110701
110700
110700
110700
110700
110699
110699
110698
110698
110656
110656
110656
110655
110654
110653
110651
110650
110648
110645
110757
110756
110754
110752
110749
110746
110742
110739
110736
110736
110737
110735
110732
110727
110722
110715
110708
110701
110693
110686
110811
110808
110802
110793
110783
110771
110758
110745
110733
110724
110898
110893
110883
110870
110853
110835
110815
110795
110776
110757
110892
110883
110868