/*--------------------------------*- C++ -*----------------------------------*\
| =========                 |                                                 |
| \\      /  F ield         | foam-extend: Open Source CFD                    |
|  \\    /   O peration     | Version:     4.0                                |
|   \\  /    A nd           | Web:         http://www.foam-extend.org         |
|    \\/     M anipulation  |                                                 |
\*---------------------------------------------------------------------------*/
FoamFile
{
    version     2.0;
    format      ascii;
    class       surfaceScalarField;
    location    "2000";
    object      phi;
}
// * * * * * * * * * * * * * * * * * * * * * * * * * * * * * * * * * * * * * //

dimensions      [1 0 -1 0 0 0 0];

internalField   nonuniform List<scalar> 
97302
(
-0.000109786
9.52346e-07
-0.000869478
0.000878753
-0.0001196
1.14171e-06
-0.000870481
0.000879153
-0.000129523
1.20084e-06
-0.000871006
0.000879728
-0.000140124
1.13889e-06
-0.000871045
0.000880508
-0.000152232
9.4679e-07
-0.000870594
0.000881754
-0.000167325
6.14437e-07
-0.000869427
0.000883906
-0.000188496
1.15353e-07
-0.00086694
0.000887995
-0.000222747
-5.94762e-07
-0.000861314
0.000896161
-0.000271326
-1.63829e-06
-0.000851526
0.000901743
-4.39522e-06
-0.000824028
-0.000352997
0.000910095
-0.000150902
1.60459e-06
-0.00116594
0.00117604
-0.000161174
1.96692e-06
-0.00116689
0.00117634
-0.000171519
2.08545e-06
-0.00116748
0.00117694
-0.000182473
1.99349e-06
-0.00116751
0.00117761
-0.000194834
1.67605e-06
-0.00116671
0.00117834
-0.000210314
1.12187e-06
-0.0011647
0.00117968
-0.000232766
2.7338e-07
-0.00116111
0.0011834
-0.000271568
-9.64572e-07
-0.00115432
0.00119349
-0.00032835
-2.89497e-06
-0.00114201
0.00120005
-7.45784e-06
-0.00110412
-0.00043277
0.00121161
-0.000191209
1.89852e-06
-0.00146131
0.00147216
-0.000201779
2.39477e-06
-0.00146232
0.00147246
-0.000212298
2.57629e-06
-0.00146294
0.00147297
-0.000223275
2.49987e-06
-0.00146273
0.0014732
-0.000235635
2.14743e-06
-0.00146139
0.00147328
-0.000251511
1.50838e-06
-0.00145872
0.00147421
-0.000275388
5.03507e-07
-0.00145484
0.00147849
-0.000318359
-9.65602e-07
-0.00144827
0.00149124
-0.000381692
-3.35074e-06
-0.00143511
0.0014989
-9.13228e-06
-0.00138639
-0.000500691
0.00150707
-0.000231438
2.08832e-06
-0.00175269
0.00176395
-0.000242302
2.72426e-06
-0.00175392
0.00176445
-0.000253116
2.98453e-06
-0.00175479
0.0017652
-0.000264406
2.949e-06
-0.00175479
0.00176563
-0.000277165
2.58893e-06
-0.00175361
0.00176593
-0.000293713
1.89554e-06
-0.00175118
0.00176734
-0.000318864
7.66527e-07
-0.00174762
0.00177251
-0.000364969
-8.89654e-07
-0.0017414
0.00178743
-0.000432989
-3.67667e-06
-0.00172779
0.00179613
-1.06258e-05
-0.00166794
-0.000560752
0.00179719
-0.00027157
2.32111e-06
-0.00204521
0.00205666
-0.000282603
3.02634e-06
-0.00204682
0.00205755
-0.000293586
3.3244e-06
-0.0020482
0.00205884
-0.000305071
3.30515e-06
-0.00204867
0.0020598
-0.000318118
2.9376e-06
-0.00204802
0.00206072
-0.000335168
2.21263e-06
-0.00204622
0.00206295
-0.000361325
1.01367e-06
-0.0020433
0.00206921
-0.000409966
-7.43141e-07
-0.00203776
0.00208626
-0.000481929
-3.81146e-06
-0.00202451
0.00209661
-1.18601e-05
-0.00195285
-0.000615164
0.00208732
-0.000312272
2.40668e-06
-0.00233634
0.00234809
-0.000323408
3.13749e-06
-0.0023384
0.00234942
-0.000334459
3.42341e-06
-0.00234017
0.00235112
-0.000346002
3.37651e-06
-0.00234106
0.00235253
-0.000359149
2.97471e-06
-0.00234093
0.00235404
-0.000376426
2.21774e-06
-0.00233988
0.00235715
-0.000403209
9.87724e-07
-0.00233789
0.0023647
-0.000453744
-7.81501e-07
-0.00233346
0.00238403
-0.000529012
-3.90934e-06
-0.00232171
0.00239707
-1.28299e-05
-0.00223795
-0.000665767
0.00237568
-0.000352795
2.38571e-06
-0.00262729
0.00263916
-0.000363874
3.02424e-06
-0.00262995
0.00264114
-0.000374849
3.23933e-06
-0.00263229
0.00264344
-0.000386302
3.1065e-06
-0.00263364
0.00264536
-0.000399397
2.6306e-06
-0.00263409
0.00264753
-0.000416694
1.80419e-06
-0.00263385
0.00265156
-0.000443815
5.63437e-07
-0.00263299
0.00266054
-0.00049569
-1.10719e-06
-0.00263016
0.00268236
-0.000573743
-3.85872e-06
-0.00262107
0.00269907
-1.2987e-05
-0.00252498
-0.000712502
0.0026639
-0.000394591
2.0263e-06
-0.00291882
0.00293112
-0.000405721
2.47558e-06
-0.00292207
0.00293375
-0.000416695
2.50427e-06
-0.00292452
0.00293623
-0.000428098
2.16557e-06
-0.00292582
0.00293816
-0.000441059
1.49559e-06
-0.00292617
0.00294026
-0.00045808
4.92351e-07
-0.00292609
0.00294442
-0.000484928
-8.15907e-07
-0.00292593
0.00295416
-0.000536993
-2.35836e-06
-0.00292454
0.00297786
-0.000616513
-4.14788e-06
-0.0029188
0.00299861
-1.21397e-05
-0.00281221
-0.000755671
0.00295052
-0.000435787
1.06908e-06
-0.0032067
0.00321914
-0.000446491
1.13653e-06
-0.00321081
0.00322285
-0.00045707
8.45657e-07
-0.00321388
0.00322611
-0.000468171
1.12144e-07
-0.00321579
0.00322894
-0.00048096
-9.47241e-07
-0.00321692
0.00323215
-0.000497824
-2.30727e-06
-0.00321785
0.00323752
-0.000524526
-3.78232e-06
-0.00321911
0.00324877
-0.000576318
-5.0973e-06
-0.00322001
0.00327454
-0.00065577
-5.50494e-06
-0.00321665
0.00329746
-1.01945e-05
-0.0030993
-0.000792417
0.003234
-0.000477199
-0.00347528
0.00348829
-0.000488543
-0.00347888
0.00349136
-0.000499731
-0.00347959
0.00349163
-0.000511443
-0.00347704
0.00348886
-0.000524718
-0.00347188
0.00348421
-0.000541684
-0.00346519
0.00347985
-0.000567575
-0.00345812
0.00348023
-0.00061658
-0.00345219
0.00349609
-0.000689669
-0.00344857
0.00351615
-0.00333959
-0.000818667
0.00345839
1.43968e-05
8.89716e-07
-0.000861023
5.31382e-06
1.11439e-06
-0.000862512
-3.79006e-06
1.19513e-06
-0.000863097
-1.30985e-05
1.13747e-06
-0.000862874
-2.28108e-05
9.31479e-07
-0.000861813
-3.3145e-05
5.58818e-07
-0.000859652
-4.42485e-05
-1.46568e-08
-0.000855822
-5.55401e-05
-8.67731e-07
-0.000849155
-6.62358e-05
-2.1963e-06
-0.000838634
-3.96733e-06
-0.000822382
-6.39149e-05
1.54103e-05
1.51539e-06
-0.00115609
5.39211e-06
1.93169e-06
-0.00115769
-4.61575e-06
2.08539e-06
-0.00115837
-1.49306e-05
2.00617e-06
-0.00115806
-2.58177e-05
1.67214e-06
-0.00115656
-3.76395e-05
1.06103e-06
-0.00115338
-5.12326e-05
1.11111e-07
-0.00114764
-6.76406e-05
-1.29378e-06
-0.00113748
-8.82619e-05
-3.54073e-06
-0.00112005
-6.60679e-06
-0.0010911
-9.86446e-05
1.6739e-05
1.82679e-06
-0.00145026
6.00831e-06
2.39087e-06
-0.00145205
-4.62976e-06
2.61436e-06
-0.00145283
-1.55072e-05
2.5521e-06
-0.0014524
-2.69616e-05
2.17097e-06
-0.00145043
-3.97269e-05
1.44734e-06
-0.00144634
-5.55486e-05
2.89268e-07
-0.0014392
-7.71557e-05
-1.42516e-06
-0.00142653
-0.000108635
-4.28078e-06
-0.00140289
-8.393e-06
-0.00135936
-0.000133883
1.79551e-05
2.03536e-06
-0.00174094
6.74099e-06
2.75671e-06
-0.00174307
-4.38226e-06
3.06768e-06
-0.00174412
-1.58101e-05
3.05159e-06
-0.00174386
-2.79981e-05
2.66102e-06
-0.00174192
-4.19382e-05
1.87443e-06
-0.00173767
-5.99408e-05
5.5917e-07
-0.00172989
-8.61284e-05
-1.39832e-06
-0.00171524
-0.000128052
-4.79123e-06
-0.00168535
-9.90232e-06
-0.00162548
-0.000168998
1.90697e-05
2.28173e-06
-0.00203307
7.5693e-06
3.08174e-06
-0.00203564
-3.83427e-06
3.43657e-06
-0.00203716
-1.55975e-05
3.44276e-06
-0.0020373
-2.83139e-05
3.04885e-06
-0.00203569
-4.31612e-05
2.23271e-06
-0.00203173
-6.29153e-05
8.22649e-07
-0.00202381
-9.29947e-05
-1.2852e-06
-0.0020078
-0.00014489
-5.07273e-06
-0.00197233
-1.10603e-05
-0.00189519
-0.000201391
1.97735e-05
2.39999e-06
-0.00232378
8.09617e-06
3.23463e-06
-0.00232687
-3.43794e-06
3.58501e-06
-0.00232879
-1.53438e-05
3.57388e-06
-0.00232928
-2.83349e-05
3.1568e-06
-0.00232805
-4.37525e-05
2.32154e-06
-0.00232455
-6.48008e-05
8.76521e-07
-0.00231689
-9.80669e-05
-1.27209e-06
-0.0023002
-0.000159353
-5.20547e-06
-0.00226029
-1.18794e-05
-0.00216569
-0.000230797
2.01856e-05
2.37078e-06
-0.00261447
8.53122e-06
3.11157e-06
-0.00261817
-2.95251e-06
3.39643e-06
-0.00262061
-1.47973e-05
3.31213e-06
-0.00262153
-2.78465e-05
2.85369e-06
-0.00262074
-4.35517e-05
1.99171e-06
-0.00261781
-6.54959e-05
5.50756e-07
-0.00261072
-0.000101305
-1.56286e-06
-0.00259406
-0.000171272
-5.24333e-06
-0.00255107
-1.22456e-05
-0.00243909
-0.000256798
1.99271e-05
2.03542e-06
-0.00290557
8.27118e-06
2.59069e-06
-0.00290989
-3.10594e-06
2.7195e-06
-0.00291247
-1.47837e-05
2.48207e-06
-0.00291331
-2.76608e-05
1.90924e-06
-0.00291234
-4.32625e-05
9.67986e-07
-0.00290946
-6.54715e-05
-4.34019e-07
-0.00290273
-0.000102748
-2.40575e-06
-0.00288642
-0.000180115
-5.21893e-06
-0.00284146
-1.18972e-05
-0.00271326
-0.000279414
1.93963e-05
1.07465e-06
-0.00319318
8.21043e-06
1.21951e-06
-0.00319825
-2.66196e-06
1.05953e-06
-0.00320134
-1.38315e-05
4.75006e-07
-0.00320261
-2.63512e-05
-4.03099e-07
-0.00320209
-4.1857e-05
-1.58415e-06
-0.00319979
-6.44359e-05
-3.00975e-06
-0.00319395
-0.000103037
-4.67436e-06
-0.00317914
-0.000186365
-6.14816e-06
-0.0031324
-1.00743e-05
-0.00298563
-0.000301856
1.82408e-05
-0.00346148
6.80349e-06
-0.00346623
-4.11807e-06
-0.00346761
-1.52122e-05
-0.00346547
-2.74191e-05
-0.00346008
-4.23431e-05
-0.00345185
-6.39042e-05
-0.00343957
-0.000101286
-0.00341948
-0.000186012
-0.00336999
-0.00321568
-0.000320002
1.20267e-05
7.78383e-07
-0.000854352
4.42416e-06
1.01845e-06
-0.000855928
-3.29365e-06
1.10648e-06
-0.000856486
-1.10367e-05
1.04204e-06
-0.000856173
-1.86818e-05
8.18556e-07
-0.000854986
-2.59838e-05
4.20241e-07
-0.00085277
-3.2391e-05
-1.74921e-07
-0.00084924
-3.65993e-05
-1.00484e-06
-0.000843942
-3.67281e-05
-2.15328e-06
-0.000836352
-3.43152e-06
-0.000826707
-2.89717e-05
1.38791e-05
1.36362e-06
-0.00114758
4.85367e-06
1.80383e-06
-0.00114945
-4.23287e-06
1.96689e-06
-0.00115014
-1.34714e-05
1.87623e-06
-0.00114966
-2.28681e-05
1.51035e-06
-0.00114786
-3.2272e-05
8.44701e-07
-0.0011444
-4.12825e-05
-1.7416e-07
-0.00113863
-4.87474e-05
-1.61872e-06
-0.0011294
-5.22021e-05
-3.70405e-06
-0.00111504
-6.12621e-06
-0.00109585
-4.47565e-05
1.59833e-05
1.71033e-06
-0.0014401
5.78123e-06
2.30549e-06
-0.00144235
-4.41538e-06
2.53904e-06
-0.00144321
-1.48019e-05
2.4588e-06
-0.0014426
-2.54737e-05
2.0268e-06
-0.00144028
-3.64938e-05
1.20781e-06
-0.00143568
-4.79762e-05
-9.30089e-08
-0.0014278
-5.94525e-05
-1.97344e-06
-0.0014147
-6.85122e-05
-4.84337e-06
-0.00139269
-8.3632e-06
-0.00136069
-6.49465e-05
1.76327e-05
1.9695e-06
-0.00172974
6.64166e-06
2.73302e-06
-0.00173251
-4.34089e-06
3.05614e-06
-0.00173366
-1.56257e-05
3.01747e-06
-0.00173314
-2.74587e-05
2.56292e-06
-0.00173062
-4.01695e-05
1.65482e-06
-0.00172541
-5.43191e-05
1.45175e-07
-0.00171598
-7.00992e-05
-2.08661e-06
-0.00169935
-8.58006e-05
-5.70298e-06
-0.00166879
-1.03315e-05
-0.00162108
-8.82332e-05
1.90375e-05
2.26109e-06
-0.00202119
7.53771e-06
3.11005e-06
-0.00202452
-3.93295e-06
3.48103e-06
-0.00202612
-1.57933e-05
3.46586e-06
-0.00202589
-2.84685e-05
3.00558e-06
-0.00202346
-4.25407e-05
2.05828e-06
-0.00201806
-5.90229e-05
4.20836e-07
-0.0020076
-7.89044e-05
-2.05554e-06
-0.00198794
-0.000101935
-6.29856e-06
-0.00194871
-1.19666e-05
-0.00188338
-0.000112116
1.9975e-05
2.42834e-06
-0.00231129
8.13875e-06
3.31632e-06
-0.00231524
-3.61479e-06
3.68747e-06
-0.00231724
-1.57984e-05
3.6624e-06
-0.0023173
-2.89949e-05
3.18467e-06
-0.00231503
-4.40364e-05
2.22091e-06
-0.00230967
-6.24224e-05
5.37853e-07
-0.00229862
-8.6047e-05
-2.03666e-06
-0.0022766
-0.000116869
-6.63516e-06
-0.00222913
-1.31767e-05
-0.00214512
-0.000136226
2.05268e-05
2.42251e-06
-0.00260155
8.61014e-06
3.21656e-06
-0.00260615
-3.18567e-06
3.5281e-06
-0.00260866
-1.54192e-05
3.44322e-06
-0.00260908
-2.88395e-05
2.94869e-06
-0.00260708
-4.44888e-05
1.9983e-06
-0.00260194
-6.43509e-05
3.56513e-07
-0.00259068
-9.1256e-05
-2.19935e-06
-0.00256699
-0.000129974
-6.76355e-06
-0.00251222
-1.39462e-05
-0.00240902
-0.000159271
2.03504e-05
2.09842e-06
-0.00289217
8.40353e-06
2.70315e-06
-0.00289743
-3.30862e-06
2.87538e-06
-0.0029001
-1.54076e-05
2.67832e-06
-0.00290045
-2.87372e-05
2.12781e-06
-0.00289819
-4.45288e-05
1.17714e-06
-0.00289285
-6.52349e-05
-3.25618e-07
-0.00288135
-9.45811e-05
-2.64584e-06
-0.00285663
-0.000140682
-6.40044e-06
-0.00279572
-1.37361e-05
-0.00267358
-0.000180575
1.97368e-05
1.15146e-06
-0.00317947
8.24285e-06
1.32878e-06
-0.00318538
-2.96899e-06
1.24864e-06
-0.00318851
-1.4525e-05
7.73422e-07
-0.00318915
-2.74269e-05
2.66622e-08
-0.00318709
-4.31487e-05
-1.01264e-06
-0.00318188
-6.46483e-05
-2.33598e-06
-0.00317044
-9.64379e-05
-4.0897e-06
-0.00314591
-0.000148893
-6.37031e-06
-0.00307997
-1.15119e-05
-0.00293617
-0.000200575
1.85746e-05
-0.00344761
6.99864e-06
-0.00345332
-4.10499e-06
-0.00345526
-1.54462e-05
-0.00345335
-2.79169e-05
-0.00344758
-4.30016e-05
-0.00343777
-6.36986e-05
-0.00342121
-9.54089e-05
-0.00339186
-0.000150677
-0.0033211
-0.00316252
-0.000215345
9.33423e-06
6.09488e-07
-0.000849522
3.46413e-06
8.53047e-07
-0.000850911
-2.58715e-06
9.45175e-07
-0.00085138
-8.54629e-06
8.79115e-07
-0.000851093
-1.41065e-05
6.53466e-07
-0.000850079
-1.88452e-05
2.59343e-07
-0.000848291
-2.21199e-05
-3.10191e-07
-0.000845655
-2.28924e-05
-1.05733e-06
-0.000842112
-1.95798e-05
-1.97853e-06
-0.000837686
-2.86226e-06
-0.000832841
-1.05832e-05
1.17257e-05
1.11752e-06
-0.00114075
4.10788e-06
1.56796e-06
-0.00114255
-3.63865e-06
1.73622e-06
-0.00114318
-1.13763e-05
1.63811e-06
-0.00114268
-1.88889e-05
1.25644e-06
-0.00114095
-2.57873e-05
5.73212e-07
-0.00113782
-3.13123e-05
-4.43077e-07
-0.00113297
-3.39462e-05
-1.81457e-06
-0.00112601
-3.08501e-05
-3.60132e-06
-0.00111652
-5.41649e-06
-0.001106
-1.81532e-05
1.44347e-05
1.48916e-06
-0.00143133
5.25817e-06
2.10075e-06
-0.0014337
-3.98507e-06
2.33716e-06
-0.00143456
-1.32956e-05
2.23637e-06
-0.00143389
-2.25669e-05
1.76211e-06
-0.00143151
-3.15042e-05
8.79666e-07
-0.00142705
-3.94299e-05
-4.88382e-07
-0.00141982
-4.47343e-05
-2.3948e-06
-0.00140881
-4.34915e-05
-5.03367e-06
-0.0013925
-7.8909e-06
-0.001373
-2.87091e-05
1.65215e-05
1.80088e-06
-0.00171964
6.22639e-06
2.59346e-06
-0.0017227
-4.13197e-06
2.92036e-06
-0.00172388
-1.4691e-05
2.8512e-06
-0.00172319
-2.54957e-05
2.33232e-06
-0.00172038
-3.64574e-05
1.32178e-06
-0.00171489
-4.71085e-05
-3.16485e-07
-0.0017055
-5.58651e-05
-2.67482e-06
-0.00169031
-5.78753e-05
-6.17541e-06
-0.00166564
-1.01705e-05
-0.00163379
-4.28853e-05
1.82719e-05
2.14349e-06
-0.00201011
7.19126e-06
3.03082e-06
-0.00201388
-3.92165e-06
3.40943e-06
-0.00201549
-1.53432e-05
3.36092e-06
-0.00201497
-2.73102e-05
2.82474e-06
-0.00201199
-3.99844e-05
1.74966e-06
-0.00200581
-5.32027e-05
-6.50513e-08
-0.00199463
-6.55987e-05
-2.76521e-06
-0.00197546
-7.1926e-05
-7.05178e-06
-0.0019415
-1.21892e-05
-0.00189466
-5.86287e-05
1.95041e-05
2.37094e-06
-0.00229937
7.87356e-06
3.30338e-06
-0.00230388
-3.73184e-06
3.68696e-06
-0.00230591
-1.57143e-05
3.63459e-06
-0.00230559
-2.84876e-05
3.08333e-06
-0.00230252
-4.24887e-05
1.98552e-06
-0.00229591
-5.79572e-05
9.68559e-08
-0.00228332
-7.39558e-05
-2.78068e-06
-0.00226058
-8.55246e-05
-7.60419e-06
-0.00221701
-1.37635e-05
-0.00215327
-7.58e-05
2.02604e-05
2.40917e-06
-0.00258899
8.39444e-06
3.24921e-06
-0.00259423
-3.40045e-06
3.57855e-06
-0.00259675
-1.56048e-05
3.47752e-06
-0.00259672
-2.882e-05
2.92364e-06
-0.00259371
-4.37428e-05
1.85912e-06
-0.00258689
-6.10739e-05
2.41846e-08
-0.00257327
-8.04464e-05
-2.8645e-06
-0.00254754
-9.78675e-05
-7.85272e-06
-0.00249455
-1.48938e-05
-0.00241263
-9.31294e-05
2.02403e-05
2.11339e-06
-0.00287902
8.27171e-06
2.76081e-06
-0.00288498
-3.51426e-06
2.96318e-06
-0.0028877
-1.56832e-05
2.78529e-06
-0.00288759
-2.89493e-05
2.22509e-06
-0.00288423
-4.42583e-05
1.22787e-06
-0.00287691
-6.28378e-05
-3.99801e-07
-0.00286234
-8.50359e-05
-3.01903e-06
-0.00283428
-0.000108505
-7.32885e-06
-0.00277277
-1.48286e-05
-0.00267206
-0.000110088
1.96922e-05
1.20039e-06
-0.0031659
8.11842e-06
1.40551e-06
-0.00317245
-3.22863e-06
1.39028e-06
-0.00317559
-1.49152e-05
1.00003e-06
-0.00317568
-2.77941e-05
3.46651e-07
-0.00317233
-4.30446e-05
-6.06784e-07
-0.0031648
-6.25162e-05
-1.89432e-06
-0.00314947
-8.76674e-05
-3.75116e-06
-0.00312003
-0.000117049
-6.49489e-06
-0.00305142
-1.22147e-05
-0.00292919
-0.000126643
1.86048e-05
-0.00343395
7.07048e-06
-0.00344038
-4.05747e-06
-0.00344274
-1.54491e-05
-0.00344096
-2.7874e-05
-0.00343481
-4.25512e-05
-0.0034237
-6.14311e-05
-0.00340422
-8.70648e-05
-0.00336997
-0.000119678
-0.00329498
-0.00315501
-0.0001394
6.84952e-06
4.24469e-07
-0.000846177
2.57514e-06
6.5508e-07
-0.000847292
-1.89839e-06
7.45777e-07
-0.000847652
-6.2407e-06
6.83451e-07
-0.000847435
-1.01071e-05
4.71632e-07
-0.000846685
-1.30926e-05
1.09416e-07
-0.000845415
-1.47037e-05
-3.94774e-07
-0.000843649
-1.43363e-05
-1.01964e-06
-0.00084146
-1.132e-05
-1.71949e-06
-0.000838983
-2.32793e-06
-0.000836469
-5.3646e-06
9.38776e-06
8.2313e-07
-0.00113554
3.29789e-06
1.26284e-06
-0.00113707
-2.96809e-06
1.42951e-06
-0.0011376
-9.13023e-06
1.3304e-06
-0.00113716
-1.4846e-05
9.54064e-07
-0.00113572
-1.96459e-05
2.9384e-07
-0.0011332
-2.28143e-05
-6.55344e-07
-0.00112954
-2.32477e-05
-1.87163e-06
-0.00112473
-1.9283e-05
-3.31192e-06
-0.00111889
-4.63093e-06
-0.00111321
-9.7653e-06
1.24563e-05
1.18939e-06
-0.00142415
4.59171e-06
1.79756e-06
-0.00142637
-3.40593e-06
2.03051e-06
-0.00142717
-1.13537e-05
1.91417e-06
-0.00142652
-1.89766e-05
1.41757e-06
-0.00142435
-2.58022e-05
5.16139e-07
-0.00142045
-3.09544e-05
-8.36424e-07
-0.00141449
-3.28545e-05
-2.64238e-06
-0.00140614
-2.86149e-05
-4.92184e-06
-0.00139513
-7.13836e-06
-0.00138372
-1.53868e-05
1.48907e-05
1.53544e-06
-0.00171095
5.63938e-06
2.34096e-06
-0.00171399
-3.75107e-06
2.66617e-06
-0.00171513
-1.32144e-05
2.56866e-06
-0.00171439
-2.25864e-05
1.99972e-06
-0.00171159
-3.15017e-05
9.2389e-07
-0.00170638
-3.90676e-05
-7.61449e-07
-0.00169801
-4.3352e-05
-3.09843e-06
-0.00168557
-4.00335e-05
-6.26704e-06
-0.00166761
-9.53447e-06
-0.00164759
-2.38436e-05
1.69726e-05
1.92105e-06
-0.00200019
6.66679e-06
2.83464e-06
-0.00200406
-3.74421e-06
3.21605e-06
-0.00200563
-1.43377e-05
3.13292e-06
-0.00200494
-2.51198e-05
2.52741e-06
-0.00200173
-3.59133e-05
1.34881e-06
-0.00199544
-4.594e-05
-5.73713e-07
-0.0019848
-5.30683e-05
-3.34301e-06
-0.00196809
-5.16604e-05
-7.37326e-06
-0.00194181
-1.17673e-05
-0.00191045
-3.3639e-05
1.85156e-05
2.209e-06
-0.0022884
7.43027e-06
3.1779e-06
-0.00229314
-3.7026e-06
3.56982e-06
-0.00229513
-1.51043e-05
3.48628e-06
-0.00229454
-2.69519e-05
2.86195e-06
-0.002291
-3.93118e-05
1.6428e-06
-0.00228384
-5.16575e-05
-3.96638e-07
-0.00227115
-6.18706e-05
-3.42909e-06
-0.00225028
-6.33671e-05
-8.1189e-06
-0.00221477
-1.35848e-05
-0.00216982
-4.50067e-05
1.95088e-05
2.30443e-06
-0.00257717
8.00664e-06
3.18669e-06
-0.00258274
-3.49236e-06
3.53105e-06
-0.00258522
-1.53144e-05
3.40945e-06
-0.00258482
-2.78301e-05
2.7917e-06
-0.00258112
-4.13637e-05
1.61123e-06
-0.00257333
-5.57419e-05
-3.86923e-07
-0.00255891
-6.90355e-05
-3.47718e-06
-0.0025342
-7.42149e-05
-8.48405e-06
-0.00248901
-1.49485e-05
-0.00242863
-5.68541e-05
1.96915e-05
2.04798e-06
-0.00286647
7.98141e-06
2.7389e-06
-0.00287282
-3.61792e-06
2.96714e-06
-0.00287554
-1.5545e-05
2.80006e-06
-0.00287505
-2.82963e-05
2.2189e-06
-0.0028709
-4.245e-05
1.16039e-06
-0.00286231
-5.83064e-05
-5.87425e-07
-0.00284629
-7.43898e-05
-3.4067e-06
-0.00281827
-8.38692e-05
-7.90883e-06
-0.00276387
-1.50054e-05
-0.00268683
-6.90437e-05
1.92686e-05
1.20038e-06
-0.0031528
7.8663e-06
1.43408e-06
-0.00315975
-3.38634e-06
1.47572e-06
-0.00316284
-1.49366e-05
1.15452e-06
-0.00316248
-2.74287e-05
5.71375e-07
-0.00315819
-4.16474e-05
-3.26454e-07
-0.00314909
-5.83908e-05
-1.60585e-06
-0.00313171
-7.72868e-05
-3.53741e-06
-0.003101
-9.15578e-05
-6.47444e-06
-0.00303859
-1.20769e-05
-0.0029422
-8.14801e-05
1.82903e-05
-0.00342077
7.00132e-06
-0.00342766
-3.96589e-06
-0.0034303
-1.51883e-05
-0.00342858
-2.72598e-05
-0.00342217
-4.10505e-05
-0.00341024
-5.75054e-05
-0.00338937
-7.70901e-05
-0.00335393
-9.41495e-05
-0.00328439
-0.00317039
-9.08499e-05
4.81665e-06
2.51482e-07
-0.000843918
1.84283e-06
4.56181e-07
-0.000844774
-1.31438e-06
5.40538e-07
-0.000845036
-4.34602e-06
4.86009e-07
-0.000844889
-6.94541e-06
2.99999e-07
-0.000844385
-8.78992e-06
-1.24915e-08
-0.000843558
-9.55035e-06
-4.3317e-07
-0.000842456
-8.91218e-06
-9.30064e-07
-0.000841168
-6.64617e-06
-1.44677e-06
-0.000839802
-1.86534e-06
-0.000838403
-2.8463e-06
7.16968e-06
5.2188e-07
-0.00113171
2.51963e-06
9.30151e-07
-0.00113289
-2.32226e-06
1.08815e-06
-0.00113331
-7.02458e-06
9.94905e-07
-0.00113297
-1.12147e-05
6.44578e-07
-0.00113187
-1.44511e-05
4.16702e-08
-0.00113002
-1.61746e-05
-7.97277e-07
-0.00112746
-1.57046e-05
-1.82392e-06
-0.0011243
-1.22596e-05
-2.94988e-06
-0.00112083
-3.90631e-06
-0.00111778
-5.65263e-06
1.03346e-05
8.50011e-07
-0.00141852
3.86921e-06
1.43118e-06
-0.00142041
-2.77437e-06
1.65333e-06
-0.00142109
-9.291e-06
1.52981e-06
-0.00142054
-1.53069e-05
1.03652e-06
-0.00141873
-2.03019e-05
1.63326e-07
-0.00141558
-2.34788e-05
-1.10187e-06
-0.00141101
-2.36623e-05
-2.71951e-06
-0.00140506
-1.91473e-05
-4.61036e-06
-0.00139798
-6.31107e-06
-0.00139137
-9.09109e-06
1.29533e-05
1.20168e-06
-0.00170379
4.94866e-06
1.99788e-06
-0.00170656
-3.26056e-06
2.31474e-06
-0.00170758
-1.14346e-05
2.19637e-06
-0.00170688
-1.92462e-05
1.60228e-06
-0.00170435
-2.61808e-05
5.10897e-07
-0.00169979
-3.1279e-05
-1.13625e-06
-0.00169287
-3.28875e-05
-3.32819e-06
-0.00168335
-2.80246e-05
-6.07124e-06
-0.00167102
-8.68292e-06
-0.00165869
-1.45459e-05
1.52827e-05
1.61161e-06
-0.00199163
6.0157e-06
2.53219e-06
-0.00199533
-3.42878e-06
2.91025e-06
-0.00199678
-1.29312e-05
2.79743e-06
-0.00199604
-2.22872e-05
2.1427e-06
-0.00199292
-3.10789e-05
9.04938e-07
-0.00198705
-3.82925e-05
-1.03906e-06
-0.00197768
-4.18763e-05
-3.73236e-06
-0.0019641
-3.73978e-05
-7.34245e-06
-0.00194501
-1.09824e-05
-0.00192467
-2.08737e-05
1.70998e-05
1.95002e-06
-0.00227864
6.84794e-06
2.94055e-06
-0.0022833
-3.52992e-06
3.33553e-06
-0.00228518
-1.40544e-05
3.22257e-06
-0.00228444
-2.46632e-05
2.53876e-06
-0.00228079
-3.51104e-05
1.23322e-06
-0.00227372
-4.44649e-05
-8.77196e-07
-0.00226196
-5.04406e-05
-3.90981e-06
-0.00224413
-4.72125e-05
-8.23536e-06
-0.0022171
-1.29053e-05
-0.00218659
-2.85174e-05
1.83241e-05
2.10779e-06
-0.0025664
7.47615e-06
3.02297e-06
-0.00257198
-3.44731e-06
3.37866e-06
-0.00257434
-1.45831e-05
3.23678e-06
-0.0025737
-2.605e-05
2.56339e-06
-0.00256968
-3.78153e-05
1.29087e-06
-0.00256162
-4.91472e-05
-8.06241e-07
-0.00254764
-5.76855e-05
-3.94923e-06
-0.00252562
-5.64437e-05
-8.68681e-06
-0.0024898
-1.43482e-05
-0.00244714
-3.64849e-05
1.8729e-05
1.89669e-06
-0.00285483
7.55184e-06
2.62792e-06
-0.00286125
-3.59904e-06
2.87748e-06
-0.00286388
-1.49941e-05
2.71599e-06
-0.00286313
-2.68819e-05
2.11163e-06
-0.00285856
-3.94561e-05
9.99512e-07
-0.00284944
-5.23256e-05
-8.25362e-07
-0.0028334
-6.33382e-05
-3.70846e-06
-0.00280749
-6.48602e-05
-8.09626e-06
-0.00276294
-1.44332e-05
-0.00270663
-4.49751e-05
1.84637e-05
1.14465e-06
-0.00314051
7.48899e-06
1.40534e-06
-0.00314755
-3.42661e-06
1.49533e-06
-0.00315054
-1.45698e-05
1.22861e-06
-0.00314985
-2.63508e-05
6.96887e-07
-0.00314499
-3.91551e-05
-1.63732e-07
-0.00313512
-5.29351e-05
-1.43755e-06
-0.00311732
-6.63006e-05
-3.37798e-06
-0.00308796
-7.12586e-05
-6.28806e-06
-0.00303544
-1.12867e-05
-0.00296299
-5.36106e-05
1.76228e-05
-0.00340838
6.79089e-06
-0.00341542
-3.81488e-06
-0.0034182
-1.4638e-05
-0.00341653
-2.60674e-05
-0.00341004
-3.86047e-05
-0.00339787
-5.23898e-05
-0.00337703
-6.65645e-05
-0.00334313
-7.36944e-05
-0.00328355
-0.00319579
-5.95759e-05
3.29111e-06
1.07555e-07
-0.000842395
1.28819e-06
2.79325e-07
-0.00084305
-8.66321e-07
3.54174e-07
-0.000843235
-2.92004e-06
3.09494e-07
-0.000843145
-4.63247e-06
1.55316e-07
-0.000842828
-5.77049e-06
-1.00329e-07
-0.000842319
-6.12985e-06
-4.3485e-07
-0.000841661
-5.55927e-06
-8.14956e-07
-0.000840923
-4.01146e-06
-1.18863e-06
-0.000840161
-1.47501e-06
-0.000839294
-1.64584e-06
5.2493e-06
2.45683e-07
-0.00112895
1.83144e-06
6.06925e-07
-0.0011298
-1.76703e-06
7.50415e-07
-0.00113011
-5.22938e-06
6.68389e-07
-0.00112987
-8.21482e-06
3.59489e-07
-0.00112909
-1.036e-05
-1.63482e-07
-0.00112781
-1.12716e-05
-8.70445e-07
-0.00112611
-1.05669e-05
-1.70173e-06
-0.00112412
-7.94685e-06
-2.56064e-06
-0.00112208
-3.25152e-06
-0.00112041
-3.53739e-06
8.28515e-06
5.08622e-07
-0.00141422
3.15606e-06
1.04022e-06
-0.00141571
-2.16803e-06
1.24419e-06
-0.00141626
-7.3321e-06
1.12225e-06
-0.00141583
-1.19355e-05
6.56963e-07
-0.00141442
-1.54919e-05
-1.47792e-07
-0.00141204
-1.73729e-05
-1.27608e-06
-0.00140872
-1.68206e-05
-2.65989e-06
-0.00140466
-1.29826e-05
-4.17603e-06
-0.00140021
-5.46798e-06
-0.00139636
-5.77719e-06
1.09e-05
8.34809e-07
-0.00169807
4.20961e-06
1.5963e-06
-0.00170042
-2.72833e-06
1.89697e-06
-0.00170129
-9.56116e-06
1.76756e-06
-0.00170069
-1.58691e-05
1.17729e-06
-0.00169856
-2.10943e-05
1.21328e-07
-0.00169484
-2.43878e-05
-1.41542e-06
-0.00168944
-2.45459e-05
-3.37705e-06
-0.00168248
-1.98145e-05
-5.66563e-06
-0.00167426
-7.72111e-06
-0.00166671
-9.54065e-06
1.33482e-05
1.24388e-06
-0.00198451
5.28004e-06
2.14618e-06
-0.00198781
-3.0238e-06
2.51293e-06
-0.0019891
-1.12878e-05
2.37909e-06
-0.00198839
-1.9156e-05
1.70333e-06
-0.00198557
-2.60799e-05
4.60443e-07
-0.00198046
-3.10463e-05
-1.41932e-06
-0.00197271
-3.24053e-05
-3.91866e-06
-0.0019622
-2.7213e-05
-7.02748e-06
-0.00194884
-9.9795e-06
-0.0019358
-1.38203e-05
1.53594e-05
1.61424e-06
-0.00227024
6.1568e-06
2.60432e-06
-0.00227455
-3.24321e-06
2.99491e-06
-0.00227626
-1.268e-05
2.85834e-06
-0.00227548
-2.18953e-05
2.13835e-06
-0.00227201
-3.04287e-05
7.95867e-07
-0.00226552
-3.72127e-05
-1.29649e-06
-0.00225529
-4.02428e-05
-4.18875e-06
-0.00224083
-3.52495e-05
-8.0102e-06
-0.00222111
-1.1892e-05
-0.00220077
-1.9155e-05
1.67718e-05
1.831e-06
-0.00255689
6.823e-06
2.76246e-06
-0.00256218
-3.27959e-06
3.1235e-06
-0.00256436
-1.34839e-05
2.96478e-06
-0.0025636
-2.36824e-05
2.2531e-06
-0.00255959
-3.35623e-05
9.28672e-07
-0.00255187
-4.21043e-05
-1.18647e-06
-0.00253921
-4.70682e-05
-4.2353e-06
-0.00252061
-4.28689e-05
-8.5064e-06
-0.0024935
-1.32776e-05
-0.00246406
-2.45659e-05
1.73921e-05
1.66469e-06
-0.00284432
6.99497e-06
2.42672e-06
-0.00285051
-3.46301e-06
2.69134e-06
-0.00285299
-1.40717e-05
2.53277e-06
-0.00285209
-2.48443e-05
1.91045e-06
-0.00284745
-3.56474e-05
7.65632e-07
-0.00283848
-4.56531e-05
-1.07869e-06
-0.0028235
-5.26144e-05
-3.88815e-06
-0.00280088
-4.99875e-05
-7.91582e-06
-0.00276616
-1.32824e-05
-0.00272612
-3.04911e-05
1.72964e-05
1.03316e-06
-0.00312928
6.99039e-06
1.31556e-06
-0.00313613
-3.35156e-06
1.44472e-06
-0.00313896
-1.38363e-05
1.22003e-06
-0.00313805
-2.4645e-05
7.26786e-07
-0.003133
-3.58148e-05
-1.03524e-07
-0.00312309
-4.67366e-05
-1.35834e-06
-0.00310612
-5.55483e-05
-3.23852e-06
-0.0030798
-5.51143e-05
-5.95443e-06
-0.00303783
-1.01062e-05
-0.00298514
-3.61361e-05
1.66138e-05
-0.00339705
6.44309e-06
-0.00340393
-3.59993e-06
-0.00340671
-1.38032e-05
-0.00340511
-2.43466e-05
-0.00339877
-3.53942e-05
-0.00338692
-4.65268e-05
-0.00336725
-5.61786e-05
-0.00333672
-5.73738e-05
-0.00328831
-0.00322359
-3.96858e-05
2.21193e-06
-9.81103e-10
-0.000841353
8.93628e-07
1.36864e-07
-0.000841869
-5.42894e-07
2.01093e-07
-0.000842
-1.90615e-06
1.66493e-07
-0.000841948
-3.02086e-06
4.46923e-08
-0.000841758
-3.72699e-06
-1.55624e-07
-0.000841457
-3.90063e-06
-4.11791e-07
-0.000841076
-3.47115e-06
-6.94278e-07
-0.000840659
-2.44943e-06
-9.60617e-07
-0.000840222
-1.15596e-06
-0.000839618
-9.69472e-07
3.69429e-06
1.38482e-08
-0.00112697
1.26105e-06
3.20022e-07
-0.00112755
-1.32592e-06
4.455e-07
-0.00112776
-3.79921e-06
3.77693e-07
-0.0011276
-5.8777e-06
1.18328e-07
-0.00112709
-7.28501e-06
-3.1536e-07
-0.00112625
-7.75941e-06
-8.87674e-07
-0.00112516
-7.09751e-06
-1.53847e-06
-0.00112394
-5.21318e-06
-2.18012e-06
-0.00112274
-2.67358e-06
-0.00112181
-2.29062e-06
6.44964e-06
1.94839e-07
-0.00141099
2.50236e-06
6.59614e-07
-0.0014121
-1.63115e-06
8.39371e-07
-0.00141252
-5.60394e-06
7.26169e-07
-0.00141221
-9.04143e-06
3.07859e-07
-0.00141117
-1.15314e-05
-4.0141e-07
-0.00140946
-1.26146e-05
-1.36719e-06
-0.00140716
-1.1835e-05
-2.50854e-06
-0.00140447
-8.82535e-06
-3.69284e-06
-0.0014017
-4.65868e-06
-0.00139945
-3.74686e-06
8.89254e-06
4.68926e-07
-0.00169363
3.47487e-06
1.1717e-06
-0.00169552
-2.20609e-06
1.44839e-06
-0.00169622
-7.74936e-06
1.31774e-06
-0.00169574
-1.27099e-05
7.58393e-07
-0.00169405
-1.65606e-05
-2.18866e-07
-0.00169117
-1.86209e-05
-1.59514e-06
-0.00168715
-1.80876e-05
-3.28421e-06
-0.00168223
-1.40467e-05
-5.13794e-06
-0.00167685
-6.7241e-06
-0.00167224
-6.4518e-06
1.13189e-05
8.50384e-07
-0.00197875
4.50703e-06
1.70695e-06
-0.00198154
-2.57526e-06
2.05346e-06
-0.00198262
-9.55455e-06
1.90889e-06
-0.001982
-1.59931e-05
1.24269e-06
-0.00197962
-2.13079e-05
4.77813e-08
-0.00197541
-2.46092e-05
-1.69688e-06
-0.00196931
-2.46915e-05
-3.9246e-06
-0.00196147
-1.98183e-05
-6.51527e-06
-0.00195234
-8.85631e-06
-0.00194403
-9.45604e-06
1.34184e-05
1.22926e-06
-0.00226323
5.39574e-06
2.19192e-06
-0.00226702
-2.87752e-06
2.56904e-06
-0.0022685
-1.11036e-05
2.41727e-06
-0.00226777
-1.88922e-05
1.68988e-06
-0.00226467
-2.56746e-05
3.64896e-07
-0.00225906
-3.04237e-05
-1.62733e-06
-0.00225061
-3.15576e-05
-4.27285e-06
-0.00223935
-2.63092e-05
-7.52764e-06
-0.00222535
-1.06689e-05
-0.00221193
-1.33376e-05
1.49467e-05
1.49394e-06
-0.00254874
6.07684e-06
2.4189e-06
-0.00255354
-3.01312e-06
2.77717e-06
-0.00255548
-1.21098e-05
2.60755e-06
-0.00255469
-2.09329e-05
1.88128e-06
-0.00255096
-2.89914e-05
5.53498e-07
-0.002544
-3.51938e-05
-1.49855e-06
-0.00253314
-3.76492e-05
-4.33389e-06
-0.00251809
-3.24402e-05
-8.03146e-06
-0.0024982
-1.19097e-05
-0.00247818
-1.70761e-05
1.57515e-05
1.36486e-06
-0.0028351
6.33311e-06
2.14202e-06
-0.00284082
-3.22503e-06
2.4139e-06
-0.00284307
-1.28453e-05
2.25818e-06
-0.00284212
-2.23458e-05
1.62989e-06
-0.0028377
-3.13601e-05
4.83214e-07
-0.00282939
-3.88652e-05
-1.31843e-06
-0.00281617
-4.281e-05
-3.94567e-06
-0.00279732
-3.83378e-05
-7.46967e-06
-0.00277119
-1.17981e-05
-0.00274326
-2.13089e-05
1.58165e-05
8.71537e-07