/*--------------------------------*- C++ -*----------------------------------*\
| =========                 |                                                 |
| \\      /  F ield         | foam-extend: Open Source CFD                    |
|  \\    /   O peration     | Version:     4.0                                |
|   \\  /    A nd           | Web:         http://www.foam-extend.org         |
|    \\/     M anipulation  |                                                 |
\*---------------------------------------------------------------------------*/
FoamFile
{
    version     2.0;
    format      ascii;
    class       volScalarField;
    location    "2000";
    object      rho;
}
// * * * * * * * * * * * * * * * * * * * * * * * * * * * * * * * * * * * * * //

dimensions      [1 -3 0 0 0 0 0];

internalField   nonuniform List<scalar> 
34480
(
1.34604
1.34533
1.34522
1.34568
1.34689
1.3492
1.35342
1.36152
1.37223
1.37671
1.34695
1.34628
1.34623
1.3467
1.34785
1.35005
1.35415
1.36231
1.37417
1.37605
1.34571
1.34507
1.34507
1.34546
1.34647
1.34837
1.35219
1.35998
1.37224
1.36887
1.34459
1.34402
1.34407
1.34444
1.34533
1.34692
1.35034
1.35741
1.36944
1.36051
1.3435
1.34291
1.343
1.34331
1.34408
1.34538
1.34841
1.35471
1.36623
1.35221
1.34337
1.3429
1.34302
1.34335
1.34405
1.34513
1.34777
1.35328
1.36398
1.34517
1.34206
1.34155
1.3417
1.342
1.34264
1.34357
1.34591
1.35074
1.36046
1.33768
1.34281
1.34248
1.34274
1.34327
1.34414
1.34528
1.3476
1.35193
1.3604
1.33372
1.34129
1.34098
1.34126
1.34182
1.34283
1.34423
1.34664
1.35065
1.35757
1.32781
1.33852
1.33844
1.33925
1.34075
1.34298
1.34595
1.35002
1.35553
1.36261
1.32899
1.35292
1.35182
1.35143
1.35167
1.35262
1.35444
1.35735
1.36169
1.36852
1.37745
1.35349
1.35225
1.35183
1.35208
1.3531
1.3551
1.35851
1.36421
1.37449
1.3893
1.35198
1.35066
1.35022
1.35038
1.35131
1.3532
1.35671
1.36311
1.3761
1.39519
1.35064
1.34926
1.34876
1.34882
1.34961
1.3513
1.35465
1.36106
1.37565
1.39763
1.34944
1.34793
1.34736
1.34727
1.34789
1.34927
1.35231
1.35837
1.37382
1.39756
1.34921
1.3477
1.34706
1.34687
1.34734
1.34844
1.3511
1.35653
1.3722
1.39646
1.34787
1.34625
1.34553
1.34522
1.34553
1.34636
1.34864
1.35341
1.36881
1.39297
1.34858
1.34702
1.34631
1.34609
1.34646
1.34732
1.34944
1.35361
1.36817
1.39132
1.34709
1.34551
1.34475
1.34446
1.34477
1.34562
1.34764
1.35143
1.36457
1.38716
1.34441
1.34291
1.3425
1.34286
1.34402
1.34592
1.34899
1.35369
1.36636
1.38766
1.35767
1.35674
1.35643
1.35668
1.35758
1.35918
1.36159
1.36488
1.36902
1.37353
1.35821
1.35703
1.35666
1.35698
1.35809
1.36011
1.36323
1.36776
1.3744
1.3823
1.35654
1.35523
1.35485
1.35517
1.35635
1.35853
1.36208
1.36763
1.37695
1.38863
1.35497
1.35356
1.35311
1.35338
1.35454
1.35676
1.36054
1.36671
1.37813
1.39326
1.35355
1.35201
1.3515
1.35165
1.35272
1.35482
1.35863
1.36502
1.37806
1.39621
1.35307
1.35151
1.35093
1.35101
1.35197
1.35393
1.35763
1.36395
1.3781
1.39857
1.35152
1.34985
1.34922
1.34918
1.35002
1.35179
1.35531
1.36142
1.37625
1.3986
1.35206
1.35044
1.3498
1.34981
1.35068
1.35244
1.35591
1.36177
1.37668
1.40008
1.3505
1.34885
1.34815
1.34808
1.34883
1.35047
1.35381
1.35957
1.37391
1.39837
1.3478
1.34619
1.34572
1.3461
1.34741
1.34971
1.35365
1.36001
1.37412
1.39888
1.36096
1.36028
1.36005
1.36025
1.36091
1.36204
1.36363
1.3656
1.36774
1.36956
1.36179
1.36079
1.36047
1.36075
1.36168
1.36332
1.36571
1.36884
1.37273
1.37648
1.36036
1.35913
1.35876
1.35907
1.36017
1.36213
1.36514
1.36936
1.37549
1.38198
1.3588
1.35741
1.35696
1.35726
1.35843
1.36061
1.36411
1.36928
1.37761
1.3871
1.35736
1.3558
1.35529
1.3555
1.35666
1.3589
1.36269
1.3685
1.37879
1.39129
1.35677
1.35515
1.35456
1.35472
1.35584
1.35805
1.36199
1.36818
1.38011
1.39538
1.35513
1.35338
1.35275
1.35281
1.35385
1.35597
1.35993
1.36631
1.37954
1.39742
1.35554
1.35383
1.35316
1.35327
1.35433
1.35647
1.36048
1.36696
1.38096
1.40094
1.35391
1.35216
1.35146
1.3515
1.35247
1.35453
1.35845
1.36505
1.37918
1.40123
1.35118
1.34947
1.34892
1.34928
1.35064
1.35314
1.35746
1.36449
1.37862
1.40219
1.36324
1.3628
1.36265
1.36278
1.36324
1.36398
1.36498
1.36613
1.3673
1.36819
1.36441
1.36365
1.36339
1.36361
1.36433
1.36555
1.36724
1.36931
1.3716
1.37358
1.36334
1.3623
1.36198
1.36225
1.36318
1.3648
1.36715
1.37018
1.37396
1.37751
1.36194
1.36069
1.36027
1.36056
1.36164
1.36358
1.36654
1.37056
1.3761
1.38172
1.36063
1.35915
1.35867
1.35892
1.36006
1.36219
1.3656
1.37044
1.37775
1.38565
1.36002
1.35845
1.35789
1.35811
1.35927
1.3615
1.36523
1.3707
1.37969
1.38992
1.35838
1.35665
1.35604
1.35618
1.35732
1.35956
1.36348
1.36942
1.37991
1.39254
1.35873
1.35701
1.35636
1.35653
1.35771
1.36003
1.36412
1.37042
1.38205
1.39682
1.35706
1.35529
1.35461
1.35474
1.35587
1.35816
1.36228
1.3689
1.38114
1.3982
1.35435
1.3526
1.35202
1.35237
1.35376
1.35635
1.36075
1.36775
1.38024
1.39919
1.36484
1.36459
1.3645
1.36458
1.36487
1.36532
1.36591
1.36656
1.36716
1.36756
1.36629
1.36574
1.36555
1.36571
1.36622
1.36706
1.36819
1.36949
1.37083
1.37189
1.36563
1.36481
1.36454
1.36476
1.36549
1.36673
1.36845
1.37056
1.37289
1.37487
1.36445
1.36339
1.36303
1.36328
1.3642
1.36581
1.36815
1.37115
1.37477
1.37808
1.36335
1.36204
1.3616
1.36184
1.36288
1.36476
1.36762
1.37145
1.37648
1.38139
1.36282
1.36137
1.36085
1.36109
1.3622
1.36428
1.36757
1.37212
1.37859
1.38526
1.36124
1.35961
1.35903
1.35922
1.36036
1.36255
1.36615
1.37131
1.37918
1.38778
1.36158
1.35993
1.35931
1.35954
1.36074
1.36304
1.36691
1.37258
1.38167
1.39213
1.35992
1.3582
1.35755
1.35774
1.35893
1.36127
1.36526
1.37137
1.38132
1.39392
1.35726
1.35556
1.35496
1.3553
1.35667
1.35922
1.36343
1.3699
1.38027
1.39458
1.36601
1.36589
1.36584
1.36589
1.36606
1.36633
1.36666
1.36702
1.36734
1.36752
1.36763
1.36726
1.36713
1.36724
1.36758
1.36814
1.36885
1.36965
1.37042
1.37101
1.36736
1.36673
1.36653
1.36669
1.36723
1.36813
1.36934
1.37074
1.3722
1.37336
1.36641
1.36555
1.36526
1.36546
1.3662
1.36745
1.36921
1.37136
1.37374
1.37576
1.36555
1.36444
1.36407
1.36429
1.36517
1.36673
1.36901
1.37192
1.37535
1.37845
1.36515
1.36388
1.36342
1.36365
1.36465
1.36646
1.36921
1.37283
1.37741
1.38176
1.36368
1.36221
1.36169
1.3619
1.36297
1.36495
1.36807
1.37235
1.3781
1.3839
1.36408
1.36256
1.36199
1.36223
1.36338
1.36553
1.36898
1.37381
1.38068
1.38795
1.36244
1.36083
1.36023
1.36045
1.36163
1.36385
1.36749
1.3728
1.38055
1.38959
1.35989
1.35828
1.35771
1.35803
1.35932
1.36171
1.36555
1.37119
1.37941
1.38977
1.36692
1.36687
1.36685
1.36688
1.36698
1.36713
1.36732
1.36751
1.36768
1.36774
1.3686
1.36837
1.36828
1.36835
1.36857
1.36891
1.36935
1.36983
1.37027
1.3706
1.36864
1.3682
1.36805
1.36816
1.36854
1.36916
1.36997
1.37088
1.37178
1.37246
1.36789
1.36724
1.36701
1.36716
1.36772
1.36866
1.36993
1.37142
1.37296
1.37421
1.36729
1.3664
1.36609
1.36627
1.36699
1.36822
1.36996
1.37208
1.3744
1.37639
1.36704
1.36598
1.36558
1.36579
1.36664
1.36814
1.37033
1.37309
1.37631
1.37918
1.3657
1.36443
1.36398
1.36418
1.36513
1.36685
1.36943
1.37281
1.37696
1.38088
1.36619
1.36486
1.36435
1.36459
1.36563
1.36754
1.37047
1.3744
1.37946
1.38449
1.3646
1.36315
1.36262
1.36284
1.36393
1.36595
1.3691
1.3735
1.37933
1.38567
1.3622
1.36074
1.36021
1.3605
1.36168
1.36383
1.36716
1.37187
1.37815
1.38544
1.36766
1.36765
1.36765
1.36766
1.36772
1.36781
1.36791
1.36801
1.3681
1.3681
1.36931
1.36917
1.36912
1.36916
1.36929
1.36951
1.36977
1.37005
1.3703
1.37049
1.36961
1.3693
1.3692
1.36927
1.36953
1.36994
1.37047
1.37105
1.37159
1.37199
1.369
1.36852
1.36835
1.36846
1.36887
1.36954
1.37042
1.37142
1.37242
1.37319
1.36864
1.36795
1.36771
1.36785
1.3684
1.36934
1.37061
1.37211
1.37366
1.37493
1.36853
1.36768
1.36736
1.36753
1.36822
1.36941
1.37109
1.37312
1.37534
1.37723
1.36734
1.36628
1.3659
1.36608
1.36688
1.3683
1.37034
1.37292
1.37586
1.37851
1.36795
1.36682
1.36638
1.3666
1.3675
1.36911
1.3715
1.37457
1.37823
1.38167
1.3664
1.36514
1.36469
1.3649
1.36586
1.3676
1.37022
1.37371
1.37799
1.38233
1.36419
1.36291
1.36244
1.3627
1.36374
1.36559
1.36837
1.37213
1.3768
1.38181
1.36829
1.36831
1.36831
1.36832
1.36835
1.3684
1.36846
1.36851
1.36855
1.36853
1.36985
1.36977
1.36974
1.36976
1.36984
1.36997
1.37013
1.37029
1.37044
1.37054
1.37034
1.37013
1.37007
1.37012
1.37028
1.37055
1.37088
1.37124
1.37157
1.3718
1.36982
1.36948
1.36935
1.36943
1.36972
1.37018
1.37078
1.37144
1.37207
1.37255
1.36967
1.36915
1.36897
1.36908
1.36949
1.37017
1.37107
1.3721
1.37312
1.37393
1.36968
1.36902
1.36877
1.36891
1.36945
1.37036
1.3716
1.37305
1.37456
1.37578
1.36862
1.36778
1.36747
1.36762
1.36827
1.36938
1.37095
1.37286
1.37489
1.37666
1.36937
1.36845
1.36809
1.36827
1.36902
1.37033
1.3722
1.37452
1.37711
1.37941
1.36786
1.36681
1.36643
1.36661
1.36743
1.36886
1.37095
1.37363
1.3767
1.37962
1.36587
1.3648
1.3644
1.36462
1.36549
1.36702
1.36926
1.37216
1.37554
1.37892
1.36885
1.36889
1.36889
1.3689
1.36892
1.36894
1.36897
1.369
1.36902
1.36898
1.37027
1.37023
1.37021
1.37022
1.37027
1.37034
1.37044
1.37053
1.37062
1.37068
1.37091
1.37078
1.37073
1.37077
1.37087
1.37104
1.37124
1.37146
1.37166
1.37178
1.37042
1.37019
1.3701
1.37015
1.37034
1.37065
1.37105
1.37148
1.37187
1.37217
1.37044
1.37007
1.36994
1.37002
1.37031
1.37079
1.37141
1.3721
1.37277
1.37327
1.37055
1.37006
1.36987
1.36998
1.37038
1.37105
1.37194
1.37295
1.37396
1.37475
1.36961
1.36895
1.36871
1.36883
1.36933
1.37018
1.37134
1.37271
1.3741
1.37526
1.37049
1.36977
1.36949
1.36964
1.37023
1.37125
1.37267
1.37436
1.37616
1.37768
1.369
1.36815
1.36785
1.368
1.36866
1.3698
1.37141
1.3734
1.37555
1.37749
1.36728
1.3664
1.36607
1.36626
1.36696
1.36818
1.36992
1.37208
1.37447
1.37672
1.36936
1.3694
1.36941
1.36941
1.36943
1.36944
1.36945
1.36947
1.36947
1.36942
1.3706
1.37058
1.37056
1.37057
1.3706
1.37065
1.3707
1.37076
1.3708
1.37084
1.37137
1.37128
1.37126
1.37128
1.37134
1.37144
1.37157
1.3717
1.37181
1.37188
1.37085
1.3707
1.37064
1.37067
1.3708
1.371
1.37125
1.37153
1.37178
1.37197
1.37102
1.37076
1.37067
1.37073
1.37093
1.37125
1.37167
1.37213
1.37255
1.37287
1.3712
1.37085
1.37071
1.37079
1.37107
1.37155
1.37217
1.37286
1.37353
1.37403
1.37034
1.36985
1.36967
1.36976
1.37014
1.37076
1.37159
1.37254
1.37347
1.37424
1.37137
1.37083
1.37061
1.37073
1.37118
1.37195
1.37299
1.37418
1.37541
1.37639
1.36987
1.36921
1.36897
1.3691
1.36961
1.37048
1.37168
1.37311
1.37459
1.37586
1.36843
1.36775
1.36749
1.36763
1.36818
1.36912
1.37042
1.37199
1.37363
1.37512
1.36984
1.36988
1.36989
1.36989
1.3699
1.36991
1.36991
1.36992
1.36992
1.36987
1.37085
1.37084
1.37084
1.37084
1.37086
1.37088
1.37092
1.37095
1.37098
1.37101
1.37175
1.3717
1.37168
1.37169
1.37173
1.37179
1.37187
1.37194
1.37201
1.37204
1.37117
1.37107
1.37103
1.37105
1.37113
1.37126
1.37142
1.37159
1.37175
1.37187
1.37145
1.37128
1.37122
1.37126
1.37139
1.37161
1.37188
1.37218
1.37244
1.37264
1.37167
1.37143
1.37133
1.37138
1.37158
1.37191
1.37233
1.37279
1.37322
1.37354
1.37088
1.37052
1.3704
1.37046
1.37073
1.37117
1.37175
1.3724
1.37301
1.3735
1.37204
1.37165
1.37149
1.37158
1.37192
1.37247
1.37321
1.37403
1.37486
1.37547
1.37051
1.37001
1.36983
1.36992
1.3703
1.37095
1.37181
1.37281
1.37381
1.37464
1.36939
1.36887
1.36868
1.36879
1.3692
1.3699
1.37084
1.37193
1.37305
1.37401
1.3703
1.37034
1.37035
1.37035
1.37035
1.37035
1.37036
1.37036
1.37036
1.3703
1.37104
1.37104
1.37103
1.37104
1.37105
1.37106
1.37108
1.37111
1.37112
1.37114
1.37207
1.37205
1.37204
1.37205
1.37207
1.37211
1.37215
1.37219
1.37222
1.37223
1.37139
1.37133
1.3713
1.37131
1.37136
1.37144
1.37154
1.37165
1.37175
1.37183
1.37178
1.37167
1.37163
1.37165
1.37174
1.37188
1.37205
1.37224
1.3724
1.37252
1.372
1.37184
1.37177
1.37181
1.37194
1.37216
1.37244
1.37274
1.37302
1.37321
1.37126
1.37102
1.37093
1.37098
1.37116
1.37146
1.37185
1.37228
1.37267
1.37299
1.37257
1.3723
1.37218
1.37225
1.37248
1.37287
1.37338
1.37393
1.37448
1.37485
1.37095
1.37058
1.37045
1.37052
1.37079
1.37125
1.37185
1.37253
1.37319
1.37373
1.3702
1.36982
1.36967
1.36976
1.37005
1.37055
1.37121
1.37196
1.37269
1.37331
1.37075
1.37079
1.3708
1.3708
1.3708
1.3708
1.3708
1.3708
1.3708
1.37074
1.37116
1.37116
1.37116
1.37116
1.37117
1.37118
1.37119
1.37121
1.37122
1.37124
1.37236
1.37235
1.37235
1.37236
1.37237
1.37239
1.37241
1.37243
1.37245
1.37244
1.37154
1.3715
1.37148
1.37149
1.37152
1.37157
1.37163
1.3717
1.37176
1.37181
1.37201
1.37194
1.37192
1.37193
1.37199
1.37208
1.37219
1.3723
1.3724
1.37247
1.37222
1.37212
1.37207
1.37209
1.37218
1.37233
1.3725
1.3727
1.37287
1.37299
1.37154
1.37137
1.37131
1.37135
1.37147
1.37167
1.37192
1.3722
1.37244
1.37265
1.37297
1.3728
1.37272
1.37276
1.37292
1.37319
1.37353
1.37389
1.37424
1.37446
1.37123
1.37096
1.37087
1.37092
1.37111
1.37142
1.37183
1.37228
1.3727
1.37305
1.37091
1.37064
1.37054
1.3706
1.37081
1.37115
1.3716
1.37209
1.37257
1.37296
1.37125
1.37128
1.37129
1.37129
1.37129
1.37129
1.37129
1.37129
1.37128
1.37123
1.3712
1.3712
1.3712
1.3712
1.37121
1.37121
1.37123
1.37124
1.37125
1.37127
1.37263
1.37262
1.37262
1.37263
1.37264
1.37265
1.37266
1.37267
1.37267
1.37265
1.37164
1.37162
1.37161
1.37161
1.37163
1.37166
1.3717
1.37174
1.37177
1.37181
1.37217
1.37212
1.37211
1.37212
1.37215
1.37221
1.37227
1.37234
1.3724
1.37244
1.37234
1.37227
1.37224
1.37226
1.37231
1.37241
1.37252
1.37264
1.37275
1.37282
1.37173
1.37162
1.37159
1.37161
1.37169
1.37182
1.37198
1.37215
1.37229
1.37242
1.37328
1.37317
1.37312
1.37314
1.37325
1.37342
1.37365
1.37388
1.37411
1.37423
1.37136
1.37117
1.37111
1.37115
1.37127
1.37148
1.37174
1.37203
1.37229
1.37253
1.37161
1.37143
1.37136
1.3714
1.37154
1.37177
1.37206
1.37238
1.37268
1.37292
1.37192
1.37195
1.37196
1.37196
1.37196
1.37196
1.37195
1.37195
1.37194
1.37189
1.37114
1.37114
1.37114
1.37113
1.37114
1.37114
1.37115
1.37117
1.37118
1.3712
1.37284
1.37284
1.37284
1.37284
1.37285
1.37285
1.37286
1.37286
1.37287
1.37284
1.3717
1.37168
1.37168
1.37168
1.3717
1.37171
1.37173
1.37175
1.37177
1.37179
1.37224
1.37221
1.3722
1.3722
1.37222
1.37226
1.3723
1.37234
1.37238
1.3724
1.37237
1.37232
1.3723
1.37231
1.37234
1.3724
1.37247
1.37255
1.37262
1.37266
1.37184
1.37178
1.37176
1.37178
1.37183
1.37191
1.37201
1.37211
1.37219
1.37226
1.37346
1.37338
1.37335
1.37336
1.37343
1.37354
1.37369
1.37384
1.37399
1.37405
1.37133
1.37121
1.37117
1.37119
1.37127
1.3714
1.37157
1.37175
1.37191
1.37207
1.37244
1.37232
1.37227
1.3723
1.37239
1.37254
1.37273
1.37293
1.37313
1.37326
1.37301
1.37304
1.37304
1.37304
1.37304
1.37304
1.37304
1.37303
1.37302
1.37298
1.37089
1.37088
1.37088
1.37088
1.37088
1.37089
1.3709
1.37091
1.37092
1.37095
1.37292
1.37292
1.37291
1.37291
1.37291
1.37291
1.37292
1.37293
1.37294
1.37292
1.37173
1.37172
1.37173
1.37173
1.37174
1.37175
1.37176
1.37177
1.37177
1.37178
1.37222
1.37221
1.3722
1.3722
1.37221
1.37223
1.37226
1.37228
1.37231
1.37233
1.3723
1.37227
1.37226
1.37226
1.37228
1.37232
1.37236
1.37241
1.37246
1.37249
1.37189
1.37186
1.37185
1.37186
1.37189
1.37194
1.372
1.37206
1.3721
1.37214
1.37338
1.37332
1.37329
1.3733
1.37334
1.37342
1.37351
1.37361
1.37373
1.37377
1.37106
1.37098
1.37096
1.37098
1.37103
1.37111
1.37122
1.37133
1.37142
1.37153
1.37364
1.37356
1.37353
1.37354
1.3736
1.3737
1.37382
1.37395
1.37409
1.37416
1.37477
1.37478
1.37478
1.37478
1.37478
1.37478
1.37478
1.37478
1.37477
1.37475
1.3703
1.37031
1.37032
1.37033
1.37034
1.37034
1.37033
1.37033
1.37032
1.37033
1.37274
1.37272
1.37271
1.3727
1.3727
1.3727
1.37271
1.37273
1.37275
1.37277
1.37176
1.37177
1.37177
1.37178
1.37178
1.37179
1.37179
1.37179
1.37179
1.37178
1.37216
1.37215
1.37214
1.37214
1.37215
1.37216
1.37218
1.3722
1.37222
1.37223
1.37219
1.37217
1.37216
1.37216
1.37218
1.3722
1.37223
1.37227
1.3723
1.37232
1.3719
1.37188
1.37188
1.37188
1.37191
1.37194
1.37198
1.37202
1.37205
1.37206
1.3729
1.37285
1.37282
1.37283
1.37286
1.37291
1.37298
1.37305
1.37314
1.3732
1.37042
1.37039
1.37038
1.37039
1.37043
1.37049
1.37056
1.37063
1.37067
1.37071
1.37539
1.37534
1.37531
1.37532
1.37537
1.37543
1.37552
1.37561
1.37572
1.37576
1.37662
1.37661
1.37659
1.37658
1.37658
1.37658
1.37659
1.37661
1.37663
1.37666
1.36955
1.36961
1.36965
1.36967
1.36968
1.36968
1.36966
1.36963
1.36959
1.36951
1.37237
1.37234
1.37232
1.37231
1.3723
1.37231
1.37232
1.37234
1.37238
1.37242
1.37182
1.37183
1.37184
1.37185
1.37185
1.37186
1.37186
1.37186
1.37185
1.37184
1.37211
1.3721
1.3721
1.3721
1.3721
1.37212
1.37213
1.37215
1.37216
1.37218
1.37213
1.37211
1.37211
1.37211
1.37212
1.37214
1.37217
1.3722
1.37223
1.37225
1.37193
1.37192
1.37191
1.37192
1.37194
1.37197
1.37201
1.37205
1.37207
1.37207
1.37227
1.37222
1.3722
1.3722
1.37223
1.37227
1.37233
1.3724
1.37248
1.37256
1.36967
1.36966
1.36965
1.36967
1.3697
1.36976
1.36982
1.36987
1.3699
1.36986
1.37717
1.37712
1.3771
1.37711
1.37715
1.37721
1.37729
1.37737
1.37745
1.37749
1.47349
1.47909
1.47565
1.46846
1.50624
1.51197
1.50512
1.49435
1.53267
1.53772
1.52803
1.51472
1.55162
1.55553
1.54299
1.52767
1.56627
1.56877
1.5535
1.53667
1.57819
1.57923
1.56304
1.54429
1.58615
1.58556
1.56993
1.54882
1.59328
1.59095
1.57613
1.55274
1.59114
1.58693
1.57271
1.54727
1.58332
1.5781
1.56554
1.53896
1.3727
1.37238
1.37293
1.37399
1.39415
1.39552
1.39652
1.39618
1.41355
1.41625
1.4175
1.41559
1.43215
1.43606
1.43744
1.43361
1.44963
1.4544
1.45575
1.44984
1.46658
1.47186
1.47292
1.46533
1.48072
1.48627
1.48693
1.47823
1.495
1.50062
1.50097
1.49163
1.50197
1.5076
1.50778
1.49822
1.5056
1.51173
1.51191
1.5027
1.37691
1.37735
1.37754
1.37755
1.38963
1.39061
1.3909
1.39075
1.4017
1.40329
1.40371
1.40336
1.41346
1.41571
1.41625
1.41554
1.42499
1.4279
1.42846
1.42721
1.4372
1.44072
1.44127
1.43933
1.44782
1.45186
1.45234
1.44963
1.4597
1.46414
1.46455
1.46104
1.4657
1.47047
1.47081
1.46645
1.46921
1.47474
1.47508
1.46971
1.37015
1.37011
1.37015
1.37025
1.37818
1.37843
1.37852
1.37854
1.38605
1.3866
1.3868
1.38675
1.39441
1.39539
1.39573
1.39555
1.40285
1.40432
1.40479
1.4044
1.41223
1.41423
1.41483
1.41411
1.4204
1.42292
1.4236
1.42247
1.43029
1.4333
1.43403
1.43242
1.43515
1.43859
1.4394
1.43729
1.43782
1.44211
1.44306
1.44026
1.36876
1.3687
1.3687
1.36877
1.37441
1.37456
1.37462
1.37462
1.37942
1.37974
1.37986
1.37983
1.38513
1.38568
1.38588
1.38582
1.39113
1.39195
1.39225
1.39214
1.39813
1.39928
1.39969
1.39948
1.40407
1.40558
1.40608
1.40572
1.41197
1.41383
1.41444
1.41387
1.41586
1.41807
1.41884
1.41807
1.41789
1.42088
1.42185
1.42062
1.36796
1.36787
1.36785
1.36791
1.37219
1.37224
1.37227
1.37229
1.37559
1.37571
1.37577
1.37579
1.37952
1.37977
1.37989
1.37992
1.38386
1.38428
1.38447
1.38449
1.38916
1.3898
1.39008
1.39007
1.39347
1.39435
1.39471
1.39466
1.39984
1.40097
1.40143
1.40129
1.40299
1.40437
1.40499
1.40479
1.40421
1.40624
1.40703
1.40649
1.36787
1.36776
1.36774
1.36779
1.37118
1.3712
1.37122
1.37123
1.37371
1.37377
1.3738
1.37382
1.37645
1.37658
1.37665
1.37667
1.37963
1.37986
1.37998
1.38001
1.38369
1.38404
1.38423
1.38427
1.38676
1.38727
1.38753
1.38757
1.39192
1.3926
1.39293
1.39296
1.39435
1.39521
1.39566
1.39567
1.39476
1.39616
1.39672
1.39644
1.36806
1.36794
1.36791
1.36797
1.37069
1.3707
1.37071
1.37071
1.37264
1.37267
1.37269
1.3727
1.37458
1.37465
1.37469
1.37471
1.37701
1.37713
1.3772
1.37723
1.38018
1.38038
1.3805
1.38054
1.38237
1.38266
1.38283
1.38289
1.38659
1.38699
1.38722
1.38728
1.38826
1.38879
1.38909
1.38915
1.38802
1.38902
1.38939
1.38919
1.3684
1.36828
1.36825
1.36831
1.37054
1.37055
1.37055
1.37055
1.37209
1.37211
1.37212
1.37212
1.37341
1.37345
1.37347
1.37349
1.37528
1.37535
1.3754
1.37542
1.37781
1.37793
1.378
1.37803
1.37935
1.37952
1.37963
1.37967
1.38285
1.38309
1.38323
1.38329
1.3838
1.38413
1.38432
1.38437
1.38313
1.38388
1.38413
1.38394
1.36882
1.3687
1.36866
1.36872
1.37057
1.37057
1.37058
1.37058
1.37186
1.37187
1.37187
1.37187
1.37268
1.37271
1.37272
1.37273
1.37414
1.37418
1.37421
1.37422
1.37614
1.37621
1.37626
1.37628
1.37716
1.37726
1.37733
1.37736
1.38011
1.38026
1.38035
1.38039
1.38049
1.38069
1.38081
1.38085
1.37957
1.38016
1.38032
1.38013
1.36926
1.36913
1.3691
1.36916
1.37069
1.37069
1.3707
1.3707
1.37182
1.37182
1.37183
1.37183
1.37225
1.37227
1.37228
1.37229
1.3734
1.37342
1.37344
1.37345
1.37497
1.37502
1.37505
1.37506
1.37556
1.37563
1.37567
1.37569
1.3781
1.3782
1.37826
1.37828
1.37802
1.37815
1.37823
1.37825
1.37699
1.37748
1.37759
1.37739
1.3697
1.36957
1.36954
1.3696
1.37085
1.37085
1.37085
1.37086
1.3719
1.3719
1.3719
1.3719
1.37202
1.37203
1.37203
1.37204
1.37294
1.37296
1.37297
1.37297
1.37417
1.3742
1.37422
1.37423
1.37442
1.37446
1.37449
1.3745
1.37666
1.37672
1.37675
1.37677
1.37619
1.37627
1.37632
1.37634
1.37518
1.37559
1.37566
1.37547
1.37013
1.37001
1.36997
1.37003
1.37101
1.37101
1.37101
1.37101
1.37205
1.37205
1.37205
1.37205
1.3719
1.3719
1.37191
1.37191
1.37268
1.37269
1.37269
1.3727
1.37364
1.37365
1.37367
1.37367
1.37361
1.37363
1.37365
1.37366
1.37564
1.37568
1.3757
1.37571
1.37484
1.3749
1.37493
1.37494
1.37395
1.37431
1.37436
1.37417
1.37056
1.37043
1.3704
1.37046
1.37115
1.37115
1.37115
1.37115
1.37224
1.37224
1.37224
1.37224
1.37184
1.37185
1.37185
1.37185
1.37254
1.37255
1.37255
1.37255
1.37328
1.37329
1.3733
1.3733
1.37305
1.37306
1.37308
1.37308
1.37496
1.37499
1.375
1.37501
1.37385
1.37389
1.37391
1.37392
1.37318
1.3735
1.37353
1.37336
1.37099
1.37086
1.37083
1.37089
1.37124
1.37124
1.37124
1.37124
1.37245
1.37245
1.37245
1.37244
1.37182
1.37182
1.37182
1.37183
1.37248
1.37248
1.37248
1.37249
1.37304
1.37305
1.37306
1.37306
1.37267
1.37268
1.37268
1.37269
1.37454
1.37455
1.37456
1.37456
1.37313
1.37315
1.37317
1.37317
1.3728
1.37307
1.37309
1.37294
1.37146
1.37133
1.3713
1.37136
1.37127
1.37127
1.37127
1.37127
1.37266
1.37266
1.37266
1.37266
1.3718
1.3718
1.37181
1.37181
1.37245
1.37245
1.37245
1.37245
1.37286
1.37287
1.37287
1.37287
1.37242
1.37242
1.37242
1.37243
1.37429
1.3743
1.3743
1.3743
1.37257
1.37259
1.3726
1.3726
1.37276
1.37298
1.373
1.37286
1.3721
1.37198
1.37195
1.37201
1.3712
1.3712
1.3712
1.3712
1.37286
1.37286
1.37286
1.37285
1.37178
1.37178
1.37178
1.37178
1.37241
1.37241
1.37241
1.37241
1.3727
1.3727
1.37271
1.37271
1.37224
1.37223
1.37223
1.37224
1.37411
1.37412
1.37412
1.37412
1.37209
1.3721
1.3721
1.37211
1.37311
1.37329
1.3733
1.37319
1.37316
1.37304
1.37301
1.37307
1.37093
1.37093
1.37093
1.37093
1.37296
1.37296
1.37296
1.37295
1.37175
1.37175
1.37175
1.37175
1.37234
1.37234
1.37234
1.37234
1.37252
1.37252
1.37253
1.37253
1.3721
1.37209
1.37209
1.37209
1.37385
1.37387
1.37387
1.37387
1.37152
1.37152
1.37152
1.37153
1.37404
1.37417
1.37417
1.3741
1.3749
1.37479
1.37477
1.37483
1.37028
1.37027
1.37027
1.37027
1.37284
1.37285
1.37285
1.37285
1.37174
1.37174
1.37173
1.37173
1.37225
1.37225
1.37225
1.37225
1.37235
1.37235
1.37235
1.37235
1.372
1.37199
1.37199
1.372
1.37334
1.37336
1.37337
1.37336
1.37064
1.37062
1.37062
1.37063
1.37574
1.37582
1.37583
1.37578
1.37676
1.3767
1.3767
1.37675
1.3693
1.36925
1.36924
1.36924
1.37253
1.37255
1.37256
1.37256
1.37179
1.37178
1.37178
1.37178
1.37219
1.37219
1.37219
1.3722
1.37226
1.37226
1.37226
1.37226
1.37202
1.37201
1.37201
1.37202
1.37272
1.37276
1.37277
1.37275
1.36958
1.36951
1.3695
1.36954
1.37768
1.37774
1.37774
1.37769
1.42998
1.40548
1.38433
1.37006
1.36148
1.35619
1.35271
1.35032
1.34868
1.34748
1.44225
1.40927
1.38407
1.36926
1.36102
1.35597
1.35272
1.35053
1.34905
1.348
1.44377
1.4072
1.3797
1.36643
1.35861
1.35382
1.35069
1.34859
1.34724
1.34646
1.44053
1.40326
1.37432
1.36342
1.35615
1.3519
1.34907
1.3472
1.34598
1.34526
1.43461
1.39828
1.36947
1.36043
1.35355
1.34983
1.34726
1.34562
1.34456
1.34401
1.42732
1.39429
1.36607
1.35886
1.35228
1.34913
1.34681
1.34539
1.34443
1.34387
1.41707
1.38916
1.36149
1.35612
1.34971
1.34714
1.34498
1.34376
1.34289
1.34247
1.40913
1.38705
1.35992
1.35639
1.3501
1.34804
1.34594
1.34478
1.34389
1.3433
1.3981
1.38107
1.35505
1.35362
1.34779
1.34633
1.34428
1.34321
1.34237
1.34178
1.39498
1.38118
1.35574
1.35488
1.34818
1.34605
1.34321
1.34154
1.34022
1.33913
1.37776
1.37498
1.37165
1.36828
1.36505
1.36215
1.35965
1.35757
1.35588
1.35459
1.39542
1.38745
1.38
1.37364
1.36836
1.3642
1.36098
1.35849
1.35653
1.35507
1.40834
1.39527
1.38409
1.37535
1.36849
1.3634
1.35966
1.35687
1.3548
1.35343
1.41795
1.40035
1.38597
1.37573
1.36798
1.36252
1.35859
1.35572
1.35359
1.35215
1.42424
1.40334
1.38628
1.37511
1.36683
1.36124
1.35727
1.35443
1.35228
1.35091
1.42902
1.40604
1.38678
1.37519
1.36661
1.36108
1.35714
1.35434
1.35222
1.35075
1.4306
1.40652
1.38542
1.37375
1.36497
1.35958
1.35567
1.35294
1.3508
1.34939
1.43287
1.40872
1.38623
1.37485
1.366
1.3608
1.35685
1.35408
1.35188
1.35026
1.43041
1.40635
1.38351
1.37307
1.36452
1.35955
1.35556
1.35274
1.3505
1.34882
1.43079
1.40737
1.38415
1.37378
1.36456
1.35897
1.35436
1.35102
1.3484
1.34623
1.37677
1.37473
1.37218
1.36958
1.36716
1.365
1.36311
1.3615
1.36017
1.35912
1.38893
1.38439
1.37916
1.37449
1.37064
1.36749
1.36492
1.3628
1.36107
1.35971
1.39985
1.39196
1.38359
1.3767
1.37132
1.36716
1.36393
1.3614
1.35943
1.35805
1.40967
1.39809
1.38679
1.37815
1.37164
1.36679
1.36312
1.36032
1.35815
1.35662
1.41815
1.40274
1.38868
1.37863
1.37124
1.36592
1.36198
1.35903
1.35675
1.35521
1.42625
1.40721
1.39066
1.37955
1.37151
1.36592
1.36183
1.3588
1.35647
1.35482
1.4318
1.40941
1.39065
1.37877
1.37024
1.36451
1.36032
1.35727
1.35488
1.35326
1.43809
1.41298
1.39247
1.38024
1.3714
1.36562
1.36133
1.3582
1.35575
1.35394
1.43914
1.41198
1.39089
1.37903
1.37025
1.36451
1.36009
1.35686
1.35434
1.35247
1.44029
1.41221
1.39081
1.37881
1.36953
1.36331
1.35846
1.35486
1.35208
1.34984
1.37018
1.36971
1.3689
1.36789
1.36679
1.36567
1.36459
1.3636
1.36274
1.36205
1.37823
1.37683
1.37488
1.37278
1.37072
1.36878
1.36702
1.36547
1.36414
1.36305
1.38585
1.38287
1.37909
1.3754
1.37207
1.36919
1.36674
1.36469
1.36301
1.36177
1.39375
1.38881
1.38301
1.37774
1.37321
1.36947
1.36642
1.36395
1.36195
1.36045
1.40125
1.39398
1.38603
1.37925
1.37366
1.36922
1.36571
1.36293
1.3607
1.35911
1.40914
1.39934
1.38921
1.38109
1.37461
1.36964
1.36579
1.36279
1.36042
1.35866
1.41519
1.40273
1.39046
1.38118
1.37394
1.36857
1.36446
1.36133
1.35882
1.35705
1.42249
1.40753
1.39339
1.38326
1.37545
1.36979
1.36546
1.36217
1.35957
1.35761
1.42522
1.40822
1.39309
1.38263
1.37455
1.3687
1.36418
1.36076
1.35807
1.35605
1.42737
1.40879
1.39282
1.38183
1.37327
1.36705
1.36221
1.35852
1.35566
1.35336
1.36862
1.36835
1.36793
1.3674
1.3668
1.36617
1.36555
1.36496
1.36443
1.36401
1.37443
1.3738
1.37285
1.37172
1.37051
1.3693
1.36815
1.36709
1.36615
1.36536
1.3794
1.37803
1.37614
1.37408
1.37203
1.37012
1.36839
1.36685
1.36554
1.36453
1.38509
1.38273
1.37963
1.37645
1.37345
1.37078
1.36844
1.36644
1.36475
1.36344
1.39093
1.38728
1.38275
1.37837
1.37442
1.37102
1.36815
1.36576
1.36376
1.36229
1.39757
1.39238
1.38628
1.3807
1.37586
1.37183
1.36851
1.36581
1.36359
1.36189
1.40285
1.39589
1.38811
1.38138
1.37571
1.37114
1.36745
1.3645
1.36209
1.36032
1.4098
1.40102
1.39166
1.38393
1.37756
1.37255
1.36853
1.36536
1.3628
1.36084
1.41308
1.40272
1.39225
1.38383
1.37694
1.37157
1.36729
1.36396
1.36128
1.35925
1.41523
1.40333
1.39186
1.38278
1.3754
1.3697
1.36516
1.36161
1.35881
1.35655
1.3678
1.36767
1.36747
1.36721
1.3669
1.36657
1.36623
1.3659
1.3656
1.36538
1.37223
1.37195
1.37148
1.37089
1.37021
1.36949
1.36878
1.36811
1.36749
1.36695
1.37566
1.37505
1.37411
1.37298
1.37176
1.37053
1.36936
1.36826
1.3673
1.36655
1.37967
1.37857
1.37694
1.37509
1.37318
1.37135
1.36965
1.36812
1.36679
1.36571
1.38407
1.38227
1.37977
1.37706
1.37439
1.37192
1.3697
1.36776
1.36609
1.36482
1.38937
1.3867
1.38316
1.37953
1.37609
1.37301
1.37032
1.36802
1.36608
1.36455
1.39357
1.38981
1.38511
1.3805
1.37629
1.37264
1.36952
1.36692
1.36473
1.36309
1.39967
1.39474
1.38883
1.38331
1.37839
1.37422
1.37072
1.36785
1.36548
1.36362
1.40279
1.39674
1.38982
1.38349
1.37795
1.37336
1.36956
1.3665
1.36398
1.36205
1.40431
1.39711
1.3893
1.38233
1.37635
1.37143
1.3674
1.36415
1.36153
1.3594
1.36769
1.36761
1.3675
1.36737
1.36721
1.36703
1.36684
1.36666
1.3665
1.3664
1.37119
1.37104
1.37079
1.37046
1.37007
1.36965
1.36923
1.36881
1.36842
1.36807
1.37375
1.37343
1.37291
1.37225
1.37151
1.37073
1.36995
1.36921
1.36854
1.36802
1.37656
1.376
1.37509
1.37398
1.37277
1.37153
1.37033
1.36922
1.36823
1.3674
1.37984
1.37891
1.37748
1.3758
1.37402
1.37227
1.37062
1.36913
1.36781
1.36678
1.384
1.38258
1.38051
1.37817
1.37578
1.3735
1.37142
1.36957
1.36796
1.36666
1.38715
1.38511
1.38227
1.37919
1.37616
1.37335
1.37084
1.36867
1.36678
1.36534
1.39231
1.38955
1.38586
1.38203
1.37836
1.37506
1.37216
1.3697
1.36762
1.36595
1.39486
1.39132
1.38682
1.38226
1.37801
1.37429
1.37108
1.36842
1.36617
1.36441
1.3956
1.39132
1.38615
1.38106
1.37642
1.3724
1.36898
1.36614
1.36381
1.36186
1.36787
1.36782
1.36777
1.36769
1.36761
1.36751
1.36741
1.36731
1.36724
1.36722
1.3707
1.37062
1.37048
1.3703
1.37008
1.36984
1.36959
1.36934
1.3691
1.36888
1.37267
1.37249
1.37219
1.3718
1.37135
1.37087
1.37037
1.36988
1.36944
1.36909
1.37466
1.37434
1.37381
1.37313
1.37236
1.37155
1.37073
1.36996
1.36924
1.36863
1.37715
1.37663
1.37578
1.37472
1.37354
1.37233
1.37115
1.37005
1.36905
1.36826
1.38042
1.37964
1.37839
1.37687
1.37523
1.37359
1.37204
1.37061
1.36934
1.36829
1.38272
1.38158
1.37983
1.37778
1.37564
1.37355
1.37161
1.36987
1.36833
1.36713
1.38701
1.38543
1.38312
1.3805
1.37784
1.37532
1.37303
1.37101
1.36927
1.36784
1.3888
1.38671
1.38381
1.38063
1.37749
1.3746
1.37202
1.3698
1.36788
1.36635
1.38891
1.38638
1.38302
1.37943
1.37596
1.37281
1.37004
1.36766
1.36565
1.36395
1.36821
1.36818
1.36815
1.36811
1.36806
1.36801
1.36796
1.36791
1.36788
1.3679
1.37054
1.3705
1.37042
1.37032
1.3702
1.37006
1.36991
1.36977
1.36962
1.36949
1.3721
1.372
1.37183
1.3716
1.37132
1.37102
1.37071
1.3704
1.37011
1.3699
1.37346
1.37327
1.37296
1.37254
1.37205
1.37152
1.37099
1.37046
1.36997
1.36953
1.37537
1.37507
1.37455
1.37387
1.3731
1.37228
1.37146
1.37068
1.36995
1.36936
1.37796
1.3775
1.37672
1.37574
1.37463
1.37348
1.37236
1.3713
1.37034
1.36952
1.37959
1.37891
1.37781
1.37645
1.37496
1.37346
1.37201
1.37068
1.36946
1.3685
1.38316
1.38222
1.38075
1.37899
1.3771
1.37524
1.3735
1.37191
1.37051
1.36933
1.3842
1.38296
1.3811
1.37893
1.37669
1.37452
1.37251
1.37074
1.36916
1.36789
1.38389
1.38238
1.38021