/*--------------------------------*- C++ -*----------------------------------*\
  =========                 |
  \\      /  F ield         | OpenFOAM: The Open Source CFD Toolbox
   \\    /   O peration     | Website:  https://openfoam.org
    \\  /    A nd           | Version:  6
     \\/     M anipulation  |
\*---------------------------------------------------------------------------*/
FoamFile
{
    version     2.0;
    format      ascii;
    class       volScalarField;
    location    "450";
    object      epsilon;
}
// * * * * * * * * * * * * * * * * * * * * * * * * * * * * * * * * * * * * * //

dimensions      [0 2 -3 0 0 0 0];

internalField   nonuniform List<scalar> 
3072
(
2.45552
4.72151
4.67752
4.45829
3.93864
3.20114
3.1617
5.02714
22.402
39.7963
47.8364
52.8727
2.39937
4.94993
4.88562
5.02182
5.89919
11.3168
21.2594
23.3733
29.3633
34.1619
35.4143
36.1731
8.46505
7.20588
9.59553
14.3527
17.8619
18.2842
20.1472
23.0014
26.5421
28.0861
29.2016
30.2726
13.0197
10.5105
13.7062
15.4892
16.3495
17.1424
19.9446
22.8278
24.9606
26.079
27.0826
27.9907
14.9032
12.1693
14.0879
14.6819
15.5128
17.6115
20.5495
23.1011
24.7816
25.6848
26.4558
27.1537
15.7762
12.5324
13.725
14.3928
16.1109
18.8997
21.7152
23.787
25.1154
25.9173
26.5606
27.1184
16.1077
12.1388
13.0752
14.8963
17.6375
20.7706
23.4217
25.2684
26.3731
27.0564
27.5649
27.9975
16.4364
11.9203
13.6811
17.0657
21.1335
24.6901
27.2518
28.8706
29.75
30.2019
30.456
30.6256
17.5756
12.9423
17.4077
23.6919
29.5439
33.6351
35.9982
37.0782
37.2908
37.0107
36.5164
35.9687
19.9008
17.4337
29.5361
40.6852
48.4839
52.4184
53.4107
52.6032
50.8452
48.688
46.4899
44.4372
24.7639
35.2331
60.4632
76.3792
82.347
82.3838
79.2329
74.5563
69.3719
64.2294
59.468
55.2228
114.504
108.152
118.744
121.947
119.196
111.867
103.452
94.8143
86.4752
78.6566
71.5874
65.3217
56.2909
57.965
58.4893
58.197
57.2037
54.1945
50.1655
44.0835
36.9895
27.9616
18.5114
23.127
36.7078
37.1917
37.5655
38.1191
38.8693
40.1467
42.6121
46.5696
51.6571
57.5081
61.5221
75.0951
31.0684
31.6392
32.0698
32.5231
33.38
35.0607
38.0669
43.0646
50.9517
62.8945
81.22
120.094
28.6759
29.2298
29.7214
30.292
31.2103
32.8907
35.9179
41.1523
49.8919
64.6789
92.4301
152.203
27.7079
28.1623
28.5785
29.0937
29.954
31.5315
34.413
39.5388
48.5542
64.9
98.8963
177.843
27.5666
27.9548
28.3367
28.8316
29.658
31.1664
33.9393
38.9203
47.834
64.7044
102.469
200.926
28.3817
28.7373
29.107
29.5821
30.3415
31.7106
34.2533
38.9468
47.6449
64.4181
104.488
221.641
30.7858
30.9553
31.1674
31.4964
32.095
33.2405
35.4677
39.7609
48.0209
64.5263
105.356
246.597
35.4632
35.0535
34.7811
34.735
35.0098
35.7872
37.5786
41.3435
49.0535
65.157
106.814
276.039
42.6389
41.1448
39.9778
39.1894
38.9132
39.2965
40.5419
43.6506
50.6401
66.1258
108.328
307.406
51.5836
48.583
46.1997
44.4501
43.3812
43.281
44.0726
46.4656
52.5276
67.1476
110.368
346.702
59.9509
55.542
52.0398
49.4411
47.7137
47.0579
47.5249
49.2409
53.9521
67.0802
110.589
412.454
2.45449
4.72119
4.67872
4.46082
3.94182
3.20463
3.16394
5.02463
22.3825
39.7891
47.835
52.8717
2.39985
4.95038
4.88704
5.02372
5.90139
11.313
21.2599
23.3749
29.3582
34.1625
35.4158
36.1744
8.46713
7.20685
9.59497
14.3518
17.8672
18.2903
20.1467
22.9997
26.5408
28.0864
29.2014
30.2725
13.0207
10.5103
13.7061
15.4929
16.355
17.1431
19.9422
22.8264
24.9597
26.0786
27.0821
27.9903
14.9028
12.169
14.0898
14.6851
15.5136
17.6108
20.5473
23.1
24.7811
25.6845
26.4552
27.1531
15.7741
12.5323
13.7261
14.3935
16.1108
18.8981
21.7142
23.7865
25.1152
25.917
26.56
27.1177
16.107
12.1387
13.0758
14.8967
17.6374
20.7704
23.4218
25.2687
26.3733
27.0564
27.5644
27.9967
16.4368
11.9214
13.6822
17.067
21.1351
24.6921
27.2538
28.8722
29.7511
30.2024
30.4558
30.6249
17.5782
12.9443
17.4105
23.6959
29.5491
33.6408
36.0035
37.0825
37.2938
37.0125
36.5172
35.9688
19.9053
17.4373
29.5413
40.6929
48.4939
52.4288
53.4201
52.6108
50.8509
48.6919
46.4923
44.4385
24.7692
35.2379
60.4694
76.388
82.3578
82.3953
79.2439
74.5659
69.3795
64.235
59.4718
55.2253
114.509
108.154
118.744
121.95
119.201
111.874
103.46
94.8225
86.4824
78.6625
71.5919
65.3248
56.2923
57.9673
58.4934
58.2013
57.2092
54.2001
50.1715
44.0888
36.9941
27.9654
18.5146
23.1318
36.7093
37.1933
37.568
38.1221
38.8728
40.1507
42.6167
46.5748
51.6631
57.5145
61.53
75.1069
31.0687
31.6399
32.0709
32.5246
33.382
35.0632
38.0699
43.0683
50.9564
62.9007
81.2287
120.107
28.6757
29.2298
29.7218
30.2927
31.2114
32.8922
35.92
41.1551
49.8958
64.6846
92.4389
152.219
27.7074
28.1619
28.5782
29.0937
29.9543
31.5322
34.4142
39.5408
48.5573
64.9051
98.9047
177.86
27.5658
27.954
28.336
28.8311
29.6578
31.1666
33.9399
38.9216
47.8364
64.7087
102.477
200.943
28.3807
28.7363
29.106
29.5812
30.3409
31.7103
34.2535
38.9477
47.6469
64.4218
104.496
221.658
30.7849
30.9542
31.1663
31.4954
32.0941
33.2399
35.4675
39.7613
48.0223
64.5295
105.363
246.615
35.4628
35.0528
34.7802
34.734
35.0089
35.7864
37.5782
41.3437
49.0545
65.1596
106.82
276.059
42.6393
41.1446
39.9773
39.1887
38.9125
39.2959
40.5415
43.6506
50.6408
66.128
108.334
307.427
51.585
48.5836
46.1999
44.45
43.3809
43.2808
44.0725
46.4657
52.5283
67.1495
110.373
346.725
59.9531
55.5434
52.0406
49.4416
47.714
47.0582
47.5252
49.2414
53.9529
67.082
110.594
412.482
2.45242
4.7154
4.67275
4.4543
3.93579
3.19853
3.15989
5.02614
22.4039
39.8009
47.8428
52.8802
2.39813
4.94684
4.88306
5.01926
5.89574
11.311
21.2583
23.3748
29.3662
34.1659
35.4189
36.1779
8.45948
7.20236
9.59158
14.3486
17.8592
18.283
20.1483
23.0036
26.5452
28.0897
29.2054
30.2766
13.0147
10.5074
13.7032
15.4871
16.348
17.1429
19.9464
22.8301
24.9634
26.0821
27.086
27.9943
14.8996
12.167
14.0858
14.6804
15.5129
17.6124
20.5513
23.1032
24.7841
25.6877
26.459
27.1571
15.7742
12.5308
13.7233
14.3923
16.1112
18.9008
21.7168
23.7891
25.1179
25.9201
26.5637
27.1219
16.1067
12.1377
13.0745
14.8962
17.6382
20.7721
23.4237
25.2708
26.376
27.0596
27.5684
28.0012
16.4365
11.9201
13.6811
17.0664
21.1351
24.6925
27.2549
28.8742
29.754
30.2062
30.4604
30.6301
17.5767
12.9427
17.4088
23.694
29.5473
33.6397
36.0037
37.0842
37.2969
37.0167
36.5222
35.9744
19.9024
17.435
29.5388
40.6895
48.4901
52.426
53.4191
52.6118
50.8536
48.6959
46.4973
44.444
24.7665
35.2366
60.4681
76.3856
82.3549
82.3931
79.2429
74.5666
69.3817
64.2384
59.4762
55.2301
114.521
108.161
118.751
121.953
119.203
111.874
103.46
94.8233
86.4841
78.665
71.5951
65.3285
56.2993
57.9738
58.4982
58.2059
57.2122
54.2025
50.1725
44.0894
36.9942
27.9648
18.5134
23.1295
36.7127
37.1966
37.5701
38.1236
38.8738
40.1512
42.6164
46.5743
51.6621
57.5134
61.5275
75.1024
31.0725
31.6434
32.074
32.5274
33.3844
35.0652
38.0717
43.0698
50.9575
62.9014
81.2279
120.105
28.6797
29.2337
29.7255
30.2963
31.2147
32.8954
35.9229
41.1578
49.8982
64.6866
92.4405
152.22
27.7115
28.1662
28.5826
29.098
29.9586
31.5363
34.4182
39.5446
48.5609
64.9082
98.908
177.864
27.5703
27.9587
28.3408
28.836
29.6626
31.1713
33.9445
38.9262
47.8409
64.7132
102.481
200.95
28.3856
28.7415
29.1113
29.5866
30.3461
31.7155
34.2586
38.9527
47.6519
64.4271
104.501
221.668
30.7904
30.9599
31.1721
31.5011
32.0998
33.2454
35.473
39.7667
48.0278
64.5353
105.37
246.629
35.4686
35.0588
34.7862
34.7399
35.0147
35.7921
37.5838
41.3492
49.0602
65.1657
106.827
276.075
42.6451
41.1505
39.9831
39.1944
38.918
39.3013
40.5468
43.656
50.6465
66.1342
108.342
307.447
51.5901
48.5888
46.205
44.455
43.3858
43.2855
44.0772
46.4706
52.5336
67.1556
110.381
346.748
59.9569
55.5472
52.0445
49.4454
47.7177
47.0619
47.5289
49.2452
53.9572
67.0872
110.602
412.512
2.45451
4.72105
4.6786
4.46062
3.94153
3.20424
3.16403
5.02717
22.3956
39.7979
47.8418
52.879
2.39988
4.95033
4.88716
5.02404
5.90212
11.3177
21.2626
23.3768
29.3645
34.1663
35.4193
36.1781
8.46724
7.20736
9.59658
14.3541
17.8673
18.2904
20.1496
23.0032
26.5445
28.0893
29.2047
30.2758
13.0211
10.5113
13.7076
15.4936
16.3552
17.1448
19.9453
22.8293
24.9626
26.0813
27.085
27.9932
14.9035
12.1701
14.0908
14.6859
15.515
17.6128
20.55
23.1026
24.7834
25.6869
26.4579
27.1559
15.7751
12.5333
13.7271
14.3948
16.1123
18.9001
21.7163
23.7886
25.1173
25.9193
26.5626
27.1204
16.1076
12.1395
13.0767
14.8979
17.6388
20.772
23.4234
25.2704
26.3752
27.0585
27.5668
27.9994
16.4371
11.9218
13.6829
17.0679
21.1361
24.6932
27.255
28.8736
29.7528
30.2044
30.4582
30.6276
17.5781
12.9445
17.4111
23.6966
29.5498
33.6414
36.0043
37.0835
37.2952
37.0143
36.5194
35.9713
19.9052
17.4378
29.5425
40.694
48.4945
52.4291
53.4205
52.6115
50.8519
48.6934
46.4942
44.4406
24.7702
35.2404
60.473
76.3907
82.3593
82.396
79.2442
74.5661
69.38
64.2359
59.4731
55.2269
114.524
108.163
118.753
121.955
119.205
111.876
103.461
94.8228
86.4826
78.6629
71.5926
65.3259
56.299
57.974
58.4994
58.2072
57.2145
54.2047
50.1752
44.0918
36.9961
27.9667
18.5152
23.1328
36.713
37.197
37.5711
38.125
38.8755
40.1532
42.619
46.5772
51.6654
57.5168
61.5322
75.1099
31.0719
31.6429
32.0737
32.5273
33.3845
35.0656
38.0722
43.0706
50.9588
62.9033
81.2318
120.112
28.6786
29.2327
29.7246
30.2955
31.214
32.8948
35.9225
41.1576
49.8984
64.6875
92.4427
152.226
27.7102
28.1648
28.5812
29.0967
29.9572
31.535
34.4171
39.5436
48.5602
64.9082
98.9087
177.868
27.5687
27.957
28.339
28.8342
29.6609
31.1696
33.943
38.9247
47.8397
64.7122
102.481
200.953
28.3836
28.7393
29.1091
29.5844
30.3441
31.7135
34.2568
38.951
47.6504
64.4257
104.5
221.67
30.7878
30.9573
31.1695
31.4986
32.0974
33.2432
35.471
39.7649
48.0261
64.5337
105.368
246.628
35.4655
35.0557
34.7833
34.7372
35.0121
35.7898
37.5817
41.3473
49.0585
65.164
106.826
276.073
42.6417
41.1472
39.9801
39.1916
38.9156
39.299
40.5448
43.6542
50.6447
66.1323
108.34
307.442
51.5869
48.5857
46.2022
44.4525
43.3836
43.2836
44.0754
46.4689
52.5318
67.1537
110.379
346.74
59.9544
55.5449
52.0425
49.4437
47.7163
47.0606
47.5277
49.244
53.9557
67.0853
110.599
412.496
154.862
146.832
138.668
130.509
123.333
115.818
108.089
100.242
92.3773
84.5845
77.2417
70.4672
96.2241
97.6292
97.7955
97.2954
96.389
94.6973
92.3522
89.1452
84.7622
79.4119
73.9428
68.452
68.3491
69.7484
70.663
71.1865
71.5668
71.5066
71.0509
70.0771
68.5167
66.5625
64.0616
60.8699
53.897
54.4114
54.635
54.6157
54.575
54.4934
54.3444
54.0802
53.6482
53.0458
52.2725
51.3732
64.4932
59.5735
55.6558
52.747
50.8132
49.851
50.0628
51.1276
54.2257
62.7252
85.7503
168.865
63.3795
59.2452
55.9701
53.5645
51.9509
50.9875
50.9902
51.5361
53.2279
57.4198
67.7488
91.9882
57.7618
55.3653
53.4149
51.9265
50.8131
49.9825
49.6418
49.7223
50.5684
52.2984
56.9671
65.5435
50.6462
49.8527
48.8497
47.7941
46.785
45.9234
45.4481
45.4046
46.0547
46.9556
49.3082
52.6698
154.854
146.826
138.664
130.507
123.334
115.821
108.094
100.247
92.383
84.5897
77.246
70.4707
96.2217
97.6276
97.7944
97.2951
96.3898
94.6993
92.355
89.149
84.7671
79.4166
73.9472
68.4559
68.3491
69.7488
70.6636
71.1873
71.5684
71.5089
71.054
70.0809
68.5208
66.567
64.0663
60.8744
53.8966
54.4119
54.6364
54.6175
54.5773
54.4962
54.3478
54.084
53.6525
53.0504
52.2771
51.3778
64.4959
59.5755
55.6575
52.7484
50.8143
49.852
50.0639
51.1287
54.2269
62.7268
85.7532
168.872
63.3829
59.248
55.9726
53.5667
51.9529
50.9893
50.9919
51.5377
53.2294
57.4213
67.7507
91.991
57.7659
55.3691
53.4183
51.9296
50.8159
49.9849
49.6438
49.7242
50.57
52.2999
56.9686
65.5451
50.6506
49.8568
48.8534
47.7974
46.7878
45.9256
45.4499
45.4062
46.0559
46.9566
49.3091
52.6706
154.861
146.834
138.671
130.511
123.336
115.822
108.094
100.248
92.3837
84.5908
77.2476
70.4726
96.2246
97.631
97.7977
97.2977
96.3914
94.6999
92.3551
89.1487
84.7665
79.4163
73.9471
68.4561
68.3507
69.7505
70.6652
71.1888
71.5691
71.509
71.0536
70.08
68.5198
66.5658
64.0649
60.8731
53.8973
54.4125
54.6369
54.6178
54.5773
54.4958
54.3471
54.083
53.6512
53.0488
52.2755
51.3762
64.4979
59.5777
55.6596
52.7505
50.8165
49.8543
50.0662
51.1312
54.23
62.7308
85.7591
168.887
63.3831
59.2484
55.973
53.5673
51.9537
50.9904
50.9932
51.5393
53.2315
57.4243
67.755
91.9984
57.7647
55.368
53.4174
51.9291
50.8156
49.985
49.6448
49.7255
50.572
52.3027
56.9726
65.5507
50.6492
49.8556
48.8525
47.797
46.7881
45.9266
45.452
45.4088
46.0593
46.9608
49.3142
52.6766
154.871
146.839
138.673
130.514
123.339
115.825
108.096
100.249
92.3842
84.5906
77.247
70.4717
96.2325
97.6381
97.8041
97.3041
96.3978
94.7061
92.3609
89.1536
84.7701
79.4191
73.9493
68.4577
68.3571
69.7572
70.6722
71.196
71.5766
71.5165
71.0609
70.087
68.5264
66.5717
64.0701
60.8774
53.9039
54.4195
54.6441
54.6252
54.5849
54.5034
54.3546
54.0902
53.6581
53.0553
52.2814
51.3816
64.4971
59.577
55.6591
52.7502
50.8164
49.8541
50.0659
51.1306
54.2289
62.729
85.756
168.879
63.3847
59.2499
55.9745
53.5686
51.9548
50.991
50.9935
51.539
53.2306
57.4225
67.7521
91.9937
57.7687
55.3716
53.4205
51.9316
50.8175
49.9861
49.6447
49.7249
50.5706
52.3005
56.9693
65.5466
50.6539
49.8595
48.8554
47.7988
46.7888
45.9262
45.4504
45.4067
46.0565
46.9573
49.3102
52.6727
44.5567
44.2344
43.8792
43.5507
43.3715
43.2744
43.2359
43.2529
43.3167
43.436
43.5969
43.7593
37.3588
36.9611
36.6398
36.4315
36.3666
36.3968
36.5238
36.7829
37.1769
37.6316
38.022
38.1757
32.0008
31.8206
31.7178
31.6923
31.7184
31.7753
31.9031
32.2039
32.7814
33.5617
34.4299
35.079
27.8886
27.967
28.077
28.1757
28.213
28.1603
28.1131
28.1954
28.649
29.6378
31.7822
35.7556
43.7875
42.0548
40.4391
39.6201
39.181
39.2274
39.7794
40.6693
41.8306
43.0128
44.2756
44.9785
37.8624
34.4977
32.4732
31.9592
32.1634
32.9679
34.1931
35.5754
36.7957
37.6913
38.2998
38.1655
35.2467
28.7595
26.2708
25.9113
26.4919
27.688
29.2101
30.677
31.7926
32.5125
32.8477
32.5742
39.5749
24.7813
21.4676
21.0982
21.8631
23.194
24.7621
26.1732
27.2031
27.8566
28.1628
28.0784
44.558
44.2365
43.882
43.554
43.3752
43.2783
43.2401
43.2572
43.3211
43.4404
43.6011
43.7632
37.361
36.964
36.6432
36.4353
36.3706
36.401
36.528
36.787
37.1809
37.6355
38.0256
38.1791
32.0035
31.8238
31.7214
31.6962
31.7224
31.7793
31.907
32.2075
32.7848
33.5649
34.4328
35.0817
27.8914
27.97
28.0804
28.1793
28.2167
28.1641
28.1166
28.1986
28.6519
29.6406
31.7848
35.7582
43.7912
42.058
40.4416
39.6221
39.1824
39.2284
39.78
40.6697
41.8308
43.013
44.2757
44.9786
37.8654
34.4998
32.4746
31.96
32.1638
32.9679
34.193
35.5751
36.7953
37.6909
38.2994
38.1651
35.2492
28.7609
26.2715
25.9114
26.4916
27.6875
29.2094
30.6763
31.7919
32.5118
32.8471
32.5736
39.5773
24.7822
21.4678
21.098
21.8625
23.1932
24.7612
26.1722
27.2022
27.8558
28.1621
28.0779
44.5579
44.2363
43.8816
43.5534
43.3743
43.2773
43.239
43.2561
43.32
43.4395
43.6006
43.7633
37.3606
36.9635
36.6426
36.4345
36.3697
36.4001
36.5273
36.7867
37.1809
37.6362
38.0273
38.1818
32.003
31.8232
31.7209
31.6956
31.7219
31.779
31.907
32.2085
32.7864
33.5674
34.4373
35.0877
27.891
27.9697
28.0802
28.1792
28.2168
28.1645
28.1178
28.2005
28.655
29.645
31.7913
35.7673
43.7919
42.0592
40.4434
39.6247
39.1859
39.2325
39.7849
40.675
41.8366
43.0192
44.2825
44.9856
37.8693
34.5036
32.4789
31.965
32.1694
32.974
34.1995
35.5819
36.8024
37.6981
38.3067
38.1722
35.2561
28.7668
26.2774
25.9177
26.4983
27.6945
29.2167
30.6836
31.7992
32.5191
32.8542
32.5803
39.5895
24.7896
21.4744
21.1046
21.8695
23.2004
24.7685
26.1795
27.2092
27.8626
28.1686
28.0837
44.565
44.2435
43.8888
43.5604
43.3812
43.2838
43.245
43.2616
43.3249
43.4436
43.6038
43.7654
37.3675
36.9701
36.6489
36.4405
36.3752
36.4051
36.5315
36.7899
37.1832
37.6372
38.0269
38.1801
32.0091
31.8289
31.7261
31.7002
31.7259
31.7823
31.9094
32.2091
32.7859
33.5655
34.4332
35.082
27.8961
27.9743
28.0842
28.1825
28.2194
28.166
28.1179
28.1994
28.6521
29.6403
31.7844
35.7581
43.7928
42.0591
40.4425
39.6229
39.1833
39.2293
39.7811
40.6709
41.8322
43.0146
44.2779
44.981
37.866
34.5005
32.4755
31.9612
32.1652
32.9696
34.1948
35.577
36.7974
37.6931
38.302
38.1676
35.2494
28.7615
26.2726
25.913
26.4936
27.6897
29.2118
30.6787
31.7944
32.5143
32.8498
32.5761
39.5775
24.783
21.4691
21.0996
21.8647
23.1957
24.7638
26.1749
27.2049
27.8584
28.1648
28.0802
24.5098
24.8001
25.0654
25.224
25.1837
24.8634
24.3652
23.7889
23.2491
22.8074
22.8648
26.3139
21.5446
21.9832
22.3379
22.5012
22.3064
21.629
20.5042
18.9198
16.7386
13.5005
8.00904
3.21619
18.8296
19.3578
19.7481
19.8825
19.5229
18.5156
16.8303
14.4185
11.1812
7.07011
3.05994
1.85428
16.3001
16.8687
17.2665
17.3645
16.8894
15.6801
13.6865
10.9342
7.57642
4.16437
1.96269
1.73351
13.955
14.5292
14.9208
14.9928
14.478
13.2269
11.2036
8.54126
5.60033
3.09741
1.71309
1.69828
11.8232
12.3793
12.7584
12.821
12.3354
11.1771
9.32479
6.98564
4.58701
2.73002
1.68479
1.62679
9.94413
10.4662
10.8294
10.8957
10.4833
9.50474
7.92388
5.97819
4.06482
2.62781
1.73333
1.47717
8.36009
8.83996
9.18449
9.2589
8.94132
8.17654
6.8897
5.31767
3.79216
2.62288
1.79857
1.27669
7.12582
7.56345
7.88883
7.97693
7.75214
7.18117
6.16542
4.90958
3.67725
2.67523
1.83853
1.02844
6.35669
6.76803
7.08677
7.19303
7.04479
6.60848
5.80097
4.78328
3.7216
2.78972
1.84912
0.755307
6.52589
6.97337
7.33397
7.47609
7.36233
6.94223
6.22588
5.30637
4.21912
3.1211
1.82164
0.508755
12.1417
13.1194
13.9667
14.3119
14.0755
13.2458
11.8743
9.95242
7.46403
4.68271
2.08786
0.287795
64.4066
21.4039
17.4476
17.1586
18.0047
19.3292
20.8185
22.14
23.124
23.7798
24.1758
24.3504
38.4262
16.4573
13.9157
13.8793
14.7547
16.0026
17.3611
18.5809
19.5299
20.2243
20.7291
21.1289
26.9834
12.6128
11.0072
11.1694
12.0209
13.1569
14.3678
15.4765
16.3784
17.0977
17.6997
18.2609
19.7203
9.73575
8.68425
8.94644
9.7394
10.7477
11.8093
12.7996
13.6422
14.3589
15.0107
15.6559
14.5832
7.57471
6.84482
7.14043
7.85517
8.73377
9.65187
10.5202
11.2912
11.9776
12.6288
13.2926
10.7312
5.92343
5.39397
5.68599
6.31836
7.07463
7.85871
8.61054
9.29888
9.93168
10.548
11.1847
7.83219
4.66203
4.24969
4.52289
5.08377
5.73253
6.39664
7.04058
7.64401
8.21158
8.77313
9.35601
5.66143
3.66459
3.3451
3.5995
4.11224
4.67523
5.23824
5.78762
6.3125
6.81433
7.31476
7.834
3.96351
2.81134
2.61893
2.88201
3.37783
3.88315
4.36917
4.84337
5.30486
5.75145
6.19749
6.65801
2.60458
2.05032
2.03729
2.37747
2.90772
3.39688
3.83771
4.26167
4.67936
5.08757
5.50237
5.92632
1.50876
1.41363
1.65816
2.20616
2.83321
3.36235
3.81908
4.26238
4.71288
5.15524
5.60866
6.06516
0.324415
1.62847
2.63939
3.91417
4.91116
5.73692
6.51997
7.38661
8.35856
9.32342
10.2581
11.1857
24.5123
24.8029
25.0685
25.2273
25.1872
24.8668
24.3684
23.7918
23.2516
22.81
22.8679
26.3185
21.5467
21.9856
22.3406
22.5041
22.3095
21.632
20.5071
18.9224
16.741
13.5027
8.01094
3.2173
18.8314
19.3599
19.7504
19.885
19.5256
18.5183
16.833
14.421
11.1834
7.07188
3.061
1.85505
16.3017
16.8705
17.2685
17.3667
16.8918
15.6826
13.6889
10.9364
7.57826
4.16565
1.9634
1.73422
13.9564
14.5307
14.9225
14.9947
14.4801
13.2291
11.2057
8.54316
5.60184
3.09838
1.71366
1.69897
11.8246
12.3807
12.7599
12.8226
12.3372
11.1789
9.32662
6.98725
4.58824
2.73081
1.68532
1.62742
9.94549
10.4676
10.8308
10.8972
10.4849
9.50636
7.92546
5.97956
4.06586
2.6285
1.73382
1.47773
8.36149
8.84126
9.18581
9.26024
8.94272
8.17797
6.89108
5.31887
3.79309
2.62353
1.79905
1.27716
7.12725
7.56475
7.89015
7.97822
7.75345
7.18248
6.16668
4.91067
3.6781
2.67586
1.83902
1.02881
6.3582
6.76944
7.08817
7.19437
7.0461
6.60977
5.80219
4.78434
3.72246
2.79037
1.84962
0.755581
6.52743
6.97506
7.33564
7.47767
7.36384
6.94368
6.22724
5.30756
4.22011
3.12186
1.82214
0.50894
12.1451
13.1231
13.9699
14.3149
14.0785
13.2486
11.8769
9.95471
7.46591
4.68394
2.08844
0.287865
64.41
21.4044
17.4475
17.1583
18.0041
19.3284
20.8175
22.1391
23.1232
23.7791
24.1752
24.3501
38.4272
16.4575
13.9155
13.879
14.7541
16.0018
17.3603
18.5801
19.5292
20.2237
20.7286
21.1288
26.9839
12.6129
11.0071
11.1691
12.0204
13.1563
14.367
15.4758
16.3778
17.0972
17.6995
18.261
19.7205
9.73581
8.68419
8.94625
9.73907
10.7473
11.8088
12.799
13.6417
14.3586
15.0106
15.6561
14.5834
7.57477
6.84482
7.14035
7.85499
8.73351
9.65156
10.5199
11.291
11.9775
12.6288
13.2929
10.7313
5.92348
5.39403
5.68602
6.31834
7.07455
7.85858
8.61042
9.2988
9.9317
10.5482
11.1851
7.83222
4.66207
4.24978
4.52301
5.08387
5.7326
6.39668
7.04062
7.64409
8.21173
8.77341
9.35648
5.66141
3.66461
3.34522
3.59969
4.11245
4.67542
5.23841
5.78779
6.3127
6.81458
7.31512
7.83452
3.9635
2.81137
2.61907
2.88227
3.37813
3.88344
4.36944
4.84364
5.30515
5.75178
6.1979
6.65857
2.60455
2.05034
2.03744
2.37779
2.90809
3.39725
3.83807
4.26201
4.67974
5.08797
5.50284
5.92694
1.50871
1.41368
1.65835
2.20655
2.83368
3.3628
3.81951
4.26281
4.71336
5.15573
5.60922
6.06589
0.324407
1.62858
2.63986
3.91489
4.91192
5.7376
6.52059
7.38727
8.35934
9.32425
10.2591
11.187
24.5121
24.8029
25.0686
25.2276
25.1879
24.8679
24.3702
23.7945
23.2554
22.8146
22.8733
26.3238
21.5469
21.986
22.3412
22.5049
22.3107
21.6337
20.5093
18.9251
16.7441
13.5056
8.01238
3.21742
18.8318
19.3606
19.7513
19.8862
19.5271
18.5202
16.835
14.4231
11.1853
7.07304
3.0612
1.85496
16.3023
16.8714
17.2696
17.368
16.8935
15.6844
13.6907
10.938
7.57937
4.16608
1.96345
1.73415
13.9571
14.5317
14.9238
14.9962
14.4818
13.2308
11.2073
8.54438
5.60254
3.09862
1.71372
1.6989
11.8253
12.3817
12.7612
12.8241
12.3389
11.1806
9.32802
6.98824
4.58879
2.73104
1.68539
1.6274
9.94622
10.4686
10.832
10.8986
10.4865
9.50784
7.92672
5.98042
4.06636
2.62876
1.73392
1.47772
8.36223
8.8422
9.18698
9.26159
8.94416
8.17933
6.89224
5.31967
3.79359
2.62382
1.79918
1.27718
7.128
7.56564
7.89127
7.97942
7.7548
7.1837
6.16779
4.91141
3.67863
2.6762
1.83917
1.02884
6.35897
6.77032
7.08921
7.1955
7.04735
6.61093
5.80325
4.78509
3.72301
2.79074
1.84978
0.755598
6.52829
6.97601
7.33672
7.47886
7.36516
6.9449
6.22837
5.3084
4.22074
3.12227
1.8223
0.508967
12.1465
13.1247
13.9718
14.3174
14.0809
13.251
11.879
9.95637
7.46701
4.68452
2.08863
0.287882
64.4346
21.4125
17.4542
17.1648
18.0108
19.3353
20.8245
22.1458
23.1296
23.7852
24.1809
24.355
38.4451
16.4648
13.9216
13.885
14.7602
16.0082
17.3667
18.5863
19.535
20.2291
20.7336
21.1328
26.9977
12.6191
11.0125
11.1745
12.0259
13.1619
14.3727
15.4813
16.3829
17.1019
17.7035
18.2642
19.7313
9.74102
8.68879
8.95088
9.74386
10.7522
11.8137
12.8038
13.6461
14.3626
15.0139
15.6587
14.5917
7.57907
6.8487
7.14428
7.85908
8.7377
9.65575
10.5239
11.2947
11.9808
12.6316
13.2951
10.7376
5.92701
5.39724
5.68931
6.32178
7.07809
7.86212
8.61382
9.30193
9.93446
10.5505
11.1868
7.83698
4.66496
4.25242
4.52572
5.08674
5.73557
6.39965
7.04347
7.64671
8.21404
8.77533
9.3579
5.66496
3.66696
3.34736
3.60192
4.11484
4.67792
5.24092
5.7902
6.31492
6.81654
7.31674
7.83571
3.966
2.8132
2.62079
2.88408
3.38013
3.88558
4.3716
4.84573
5.30707
5.75349
6.19933
6.65962
2.60622
2.0517
2.0388
2.37931
2.90985
3.39918
3.84004
4.26393
4.6815
5.08955
5.50417
5.92792
1.50968
1.41462
1.65949
2.20799
2.83544
3.3648
3.82158
4.26484
4.71522
5.15744
5.61068
6.06698
0.324542
1.62964
2.64176
3.91755
4.91522
5.74133
6.52451
7.3911
8.36296
9.32765
10.2621
11.1893
24.5163
24.8063
25.0715
25.2298
25.189
24.8679
24.369
23.792
23.2513
22.8091
22.8665
26.317
21.55
21.9883
22.343
22.506
22.3107
21.6327
20.5074
18.9223
16.7407
13.5021
8.01053
3.21732
18.8341
19.3621
19.7522
19.8864
19.5264
18.5187
16.833
14.4208
11.1832
7.07174
3.06101
1.85512
16.304
16.8723
17.2699
17.3677
16.8923
15.6827
13.6888
10.9363
7.57819
4.16568
1.96343
1.73428
13.9584
14.5322
14.9237
14.9955
14.4804
13.2291
11.2057
8.54307
5.60183
3.09842
1.71367
1.69901
11.8263
12.382
12.7609
12.8233
12.3375
11.179
9.32654
6.98719
4.58824
2.73083
1.68532
1.62743
9.94703
10.4687
10.8317
10.8978
10.4852
9.50643
7.92541
5.97952
4.06586
2.6285
1.73379
1.47772
8.36291
8.84238
9.18664
9.26079
8.94304
8.1781
6.89108
5.31886
3.79308
2.62351
1.79901
1.27713
7.12861
7.56585
7.89099
7.97879
7.75384
7.18267
6.16673
4.91069
3.67811
2.67584
1.83897
1.02878
6.35957
6.77058
7.08906
7.195
7.04657
6.61003
5.80232
4.78441
3.72248
2.79034
1.84956
0.755546
6.529
6.97641
7.33671
7.47846
7.36442
6.94407
6.22748
5.3077
4.22014
3.12181
1.82207
0.508909
12.1484
13.1259
13.9722
14.3165
14.0797
13.2495
11.8775
9.95503
7.46592
4.68386
2.08836
0.287852
64.4122
21.4054
17.4489
17.1599
18.0062
19.3309
20.8202
22.1417
23.1258
23.7817
24.1778
24.352
38.4293
16.4585
13.9168
13.8805
14.756
16.0042
17.3628
18.5827
19.5317
20.2263
20.7314
21.13
26.9856
12.6137
11.0081
11.1705
12.0221
13.1583
14.3693
15.4782
16.3802
17.0996
17.7017
18.2619
19.7219
9.73651
8.68501
8.94732
9.74047
10.749
11.8107
12.8011
13.6438
14.3606
15.0125
15.657
14.5844
7.57531
6.84542
7.14114
7.85606
8.73484
9.6531
10.5215
11.2926
11.9791
12.6303
13.2938
10.7321
5.92389
5.39443
5.68655
6.31908
7.07553
7.85976
8.61172
9.30014
9.93299
10.5493
11.1858
7.8328
4.66239
4.25004
4.52332
5.08433
5.73326
6.39752
7.0416
7.64513
8.21275
8.7743
9.35699
5.66184
3.66487
3.34537
3.59983
4.11267
4.67581
5.23897
5.78849
6.31349
6.81538
7.3158
7.83486
3.96382
2.81158
2.61914
2.88226
3.37816
3.88361
4.36978
4.84413
5.30575
5.75241
6.19843
6.65876
2.60477
2.0505
2.03746
2.37767
2.90797
3.39725
3.83823
4.26236
4.68021
5.0885
5.50329
5.92703
1.50886
1.41376
1.6583
2.20633
2.83344
3.3627
3.8196
4.2631
4.7138
5.15627
5.60969
6.06581
0.324435
1.62864
2.63966
3.91448
4.91161
5.7376
6.52098
7.38802
8.36032
9.32541
10.2601
11.1867
)
;

boundaryField
{
    rotor
    {
        Cmu             0.09;
        kappa           0.41;
        E               9.8;
        type            epsilonWallFunction;
        value           nonuniform List<scalar> 
192
(
2.45552
4.72151
4.67752
4.45829
3.93864
3.20114
3.1617
5.02714
22.402
39.7963
47.8364
52.8727
56.2909
57.965
58.4893
58.197
57.2037
54.1945
50.1655
44.0835
36.9895
27.9616
18.5114
23.127
2.45449
4.72119
4.67872
4.46082
3.94182
3.20463
3.16394
5.02463
22.3825
39.7891
47.835
52.8717
56.2923
57.9673
58.4934
58.2013
57.2092
54.2001
50.1715
44.0888
36.9941
27.9654
18.5146
23.1318
2.45242
4.7154
4.67275
4.4543
3.93579
3.19853
3.15989
5.02614
22.4039
39.8009
47.8428
52.8802
56.2993
57.9738
58.4982
58.2059
57.2122
54.2025
50.1725
44.0894
36.9942
27.9648
18.5134
23.1295
2.45451
4.72105
4.6786
4.46062
3.94153
3.20424
3.16403
5.02717
22.3956
39.7979
47.8418
52.879
56.299
57.974
58.4994
58.2072
57.2145
54.2047
50.1752
44.0918
36.9961
27.9667
18.5152
23.1328
2.45552
2.39937
8.46505
13.0197
14.9032
15.7762
16.1077
16.4364
17.5756
19.9008
24.7639
114.504
23.1328
75.1099
120.112
152.226
177.868
200.953
221.67
246.628
276.073
307.442
346.74
412.496
2.45449
2.39985
8.46713
13.0207
14.9028
15.7741
16.107
16.4368
17.5782
19.9053
24.7692
114.509
23.127
75.0951
120.094
152.203
177.843
200.926
221.641
246.597
276.039
307.406
346.702
412.454
2.45242
2.39813
8.45948
13.0147
14.8996
15.7742
16.1067
16.4365
17.5767
19.9024
24.7665
114.521
23.1318
75.1069
120.107
152.219
177.86
200.943
221.658
246.615
276.059
307.427
346.725
412.482
2.45451
2.39988
8.46724
13.0211
14.9035
15.7751
16.1076
16.4371
17.5781
19.9052
24.7702
114.524
23.1295
75.1024
120.105
152.22
177.864
200.95
221.668
246.629
276.075
307.447
346.748
412.512
)
;
    }
    stator
    {
        Cmu             0.09;
        kappa           0.41;
        E               9.8;
        type            epsilonWallFunction;
        value           nonuniform List<scalar> 
192
(
12.1417
13.1194
13.9667
14.3119
14.0755
13.2458
11.8743
9.95242
7.46403
4.68271
2.08786
0.287795
0.324415
1.62847
2.63939
3.91417
4.91116
5.73692
6.51997
7.38661
8.35856
9.32342
10.2581
11.1857
12.1451
13.1231
13.9699
14.3149
14.0785
13.2486
11.8769
9.95471
7.46591
4.68394
2.08844
0.287865
0.324407
1.62858
2.63986
3.91489
4.91192
5.7376
6.52059
7.38727
8.35934
9.32425
10.2591
11.187
12.1465
13.1247
13.9718
14.3174
14.0809
13.251
11.879
9.95637
7.46701
4.68452
2.08863
0.287882
0.324542
1.62964
2.64176
3.91755
4.91522
5.74133
6.52451
7.3911
8.36296
9.32765
10.2621
11.1893
12.1484
13.1259
13.9722
14.3165
14.0797
13.2495
11.8775
9.95503
7.46592
4.68386
2.08836
0.287852
0.324435
1.62864
2.63966
3.91448
4.91161
5.7376
6.52098
7.38802
8.36032
9.32541
10.2601
11.1867
64.4066
38.4262
26.9834
19.7203
14.5832
10.7312
7.83219
5.66143
3.96351
2.60458
1.50876
0.324415
26.3139
3.21619
1.85428
1.73351
1.69828
1.62679
1.47717
1.27669
1.02844
0.755307
0.508755
0.287795
64.41
38.4272
26.9839
19.7205
14.5834
10.7313
7.83222
5.66141
3.9635
2.60455
1.50871
0.324407
26.3185
3.2173
1.85505
1.73422
1.69897
1.62742
1.47773
1.27716
1.02881
0.755581
0.50894
0.287865
64.4346
38.4451
26.9977
19.7313
14.5917
10.7376
7.83698
5.66496
3.966
2.60622
1.50968
0.324542
26.3238
3.21742
1.85496
1.73415
1.6989
1.6274
1.47772
1.27718
1.02884
0.755598
0.508967
0.287882
64.4122
38.4293
26.9856
19.7219
14.5844
10.7321
7.8328
5.66184
3.96382
2.60477
1.50886
0.324435
26.317
3.21732
1.85512
1.73428
1.69901
1.62743
1.47772
1.27713
1.02878
0.755546
0.508909
0.287852
)
;
    }
    front
    {
        type            empty;
    }
    back
    {
        type            empty;
    }
}


// ************************************************************************* //
