/*--------------------------------*- C++ -*----------------------------------*\
  =========                 |
  \\      /  F ield         | OpenFOAM: The Open Source CFD Toolbox
   \\    /   O peration     | Website:  https://openfoam.org
    \\  /    A nd           | Version:  6
     \\/     M anipulation  |
\*---------------------------------------------------------------------------*/
FoamFile
{
    version     2.0;
    format      ascii;
    class       volScalarField;
    location    "450";
    object      k;
}
// * * * * * * * * * * * * * * * * * * * * * * * * * * * * * * * * * * * * * //

dimensions      [0 2 -2 0 0 0 0];

internalField   nonuniform List<scalar> 
3072
(
0.0594105
0.0608393
0.0604619
0.0585634
0.0539253
0.0469728
0.0465584
0.0633027
0.171373
0.251776
0.284736
0.304397
0.0724817
0.110075
0.113405
0.109533
0.0934436
0.0996288
0.17423
0.199031
0.264886
0.341605
0.406088
0.474083
0.069033
0.126807
0.168892
0.199015
0.207985
0.199485
0.237075
0.312502
0.403748
0.489791
0.566053
0.632535
0.0977223
0.190136
0.2213
0.22411
0.22376
0.252264
0.33902
0.433813
0.523081
0.600779
0.668536
0.72587
0.11304
0.22136
0.243385
0.243264
0.267452
0.345805
0.441529
0.533249
0.614033
0.682372
0.741155
0.791138
0.12359
0.242365
0.269812
0.286567
0.346989
0.437486
0.530443
0.614533
0.68585
0.745568
0.796762
0.840638
0.131444
0.259758
0.300895
0.351839
0.43598
0.530429
0.618412
0.694294
0.757188
0.808999
0.852812
0.890318
0.139308
0.284867
0.355836
0.448945
0.554354
0.651509
0.733001
0.798588
0.850363
0.891396
0.925011
0.953369
0.151903
0.32873
0.462542
0.604271
0.73114
0.829321
0.900333
0.950255
0.984805
1.0089
1.02657
1.04047
0.171637
0.407264
0.651562
0.849346
0.990806
1.08085
1.13241
1.15823
1.16739
1.16683
1.16154
1.15458
0.206052
0.558787
0.957495
1.20064
1.32941
1.38961
1.408
1.401
1.37804
1.34762
1.315
1.28322
0.592199
0.962992
1.38054
1.57278
1.64418
1.65648
1.64278
1.60529
1.5569
1.50285
1.44808
1.39536
0.317411
0.323684
0.325655
0.324572
0.320881
0.309532
0.294006
0.269735
0.239971
0.199133
0.151265
0.117236
0.534935
0.58393
0.618855
0.634128
0.632756
0.623641
0.608777
0.583908
0.538704
0.444377
0.326643
0.276822
0.685313
0.72297
0.745162
0.75408
0.754692
0.75177
0.745473
0.73383
0.70725
0.642848
0.488062
0.404647
0.771122
0.804985
0.828235
0.842712
0.851492
0.858005
0.864659
0.870509
0.867254
0.833499
0.696742
0.503483
0.831505
0.862942
0.886333
0.903511
0.917451
0.931727
0.949531
0.97131
0.986531
0.977988
0.874268
0.590445
0.877112
0.906774
0.93057
0.950323
0.969023
0.9906
1.01895
1.05554
1.09502
1.11369
1.05611
0.674181
0.92211
0.948927
0.971807
0.992575
1.01425
1.04113
1.078
1.12784
1.1869
1.23248
1.21634
0.754853
0.977626
0.998753
1.0179
1.03683
1.05845
1.0874
1.12969
1.19049
1.2685
1.34032
1.35564
0.847333
1.05228
1.06322
1.07464
1.08804
1.10588
1.13294
1.17644
1.24475
1.34073
1.44044
1.47532
0.952369
1.14814
1.14377
1.14334
1.14784
1.1585
1.17994
1.22006
1.29104
1.40241
1.53493
1.60567
1.06414
1.25494
1.23215
1.21632
1.20991
1.2148
1.22935
1.26265
1.32919
1.44823
1.61703
1.75545
1.19652
1.34815
1.30964
1.28116
1.26479
1.26547
1.27614
1.30328
1.3608
1.47104
1.66107
1.90335
1.39139
0.0593847
0.0608351
0.0604694
0.0585822
0.0539514
0.047004
0.0465785
0.0632814
0.171274
0.251746
0.28473
0.304394
0.0724943
0.11009
0.113449
0.109593
0.0935239
0.0996424
0.174222
0.199006
0.26482
0.341565
0.406035
0.474038
0.0690431
0.126827
0.168926
0.199081
0.208093
0.199549
0.236996
0.312429
0.403663
0.48972
0.565985
0.632479
0.0977254
0.190159
0.221351
0.224172
0.223811
0.252198
0.338912
0.433721
0.522996
0.600705
0.668469
0.725813
0.113036
0.221376
0.243416
0.243287
0.267399
0.345698
0.441425
0.53316
0.613955
0.682304
0.741092
0.791082
0.123578
0.24236
0.269805
0.286524
0.346903
0.437389
0.530356
0.614456
0.685783
0.745505
0.796702
0.840582
0.13144
0.259746
0.300869
0.351785
0.435913
0.530363
0.61835
0.694237
0.757133
0.808945
0.852758
0.890265
0.13931
0.284878
0.355834
0.448936
0.554344
0.651498
0.732985
0.798566
0.850335
0.891362
0.924971
0.953326
0.151918
0.328776
0.462592
0.604329
0.731204
0.829382
0.900382
0.950288
0.984821
1.0089
1.02656
1.04045
0.171663
0.407334
0.651648
0.849456
0.990933
1.08098
1.13252
1.15833
1.16746
1.16688
1.16157
1.15459
0.206082
0.558855
0.957585
1.20076
1.32956
1.38977
1.40815
1.40113
1.37815
1.3477
1.31506
1.28326
0.59222
0.963031
1.38059
1.57286
1.6443
1.65661
1.64293
1.60543
1.55703
1.50296
1.44816
1.39543
0.317417
0.323692
0.32567
0.324588
0.320902
0.309553
0.294029
0.269757
0.23999
0.199151
0.151282
0.117252
0.534899
0.583906
0.618849
0.634137
0.632776
0.623667
0.608809
0.583944
0.538743
0.44441
0.326672
0.27685
0.685269
0.72294
0.745148
0.754079
0.754702
0.751791
0.745501
0.733864
0.707289
0.64289
0.488097
0.404677
0.771075
0.804949
0.828211
0.842701
0.851491
0.858015
0.864679
0.870538
0.86729
0.833541
0.696786
0.503517
0.831456
0.862901
0.886301
0.903489
0.91744
0.931727
0.949543
0.971334
0.986564
0.978032
0.874317
0.590481
0.877061
0.906728
0.930532
0.950294
0.969004
0.990592
1.01896
1.05556
1.09505
1.11374
1.05616
0.67422
0.922059
0.948879
0.971765
0.99254
1.01423
1.04111
1.078
1.12785
1.18692
1.23252
1.2164
0.754893
0.977581
0.998709
1.01786
1.03679
1.05842
1.08739
1.12968
1.19049
1.26852
1.34037
1.3557
0.847375
1.05225
1.06319
1.07461
1.08802
1.10586
1.13292
1.17643
1.24476
1.34076
1.44048
1.47538
0.952414
1.14813
1.14376
1.14332
1.14783
1.15849
1.17993
1.22005
1.29105
1.40244
1.53498
1.60574
1.06419
1.25496
1.23217
1.21632
1.20991
1.2148
1.22936
1.26266
1.32921
1.44826
1.61707
1.75552
1.19657
1.34821
1.30968
1.28119
1.26482
1.26549
1.27616
1.3033
1.36083
1.47108
1.66112
1.90343
1.39146
0.0593354
0.0607863
0.0604193
0.0585269
0.053898
0.0469463
0.0465401
0.0632941
0.171382
0.251795
0.284761
0.304426
0.0724434
0.110021
0.113359
0.109487
0.0933958
0.0995657
0.174215
0.199046
0.264911
0.341641
0.406135
0.474137
0.0690031
0.126761
0.168845
0.198971
0.207946
0.199469
0.237107
0.312535
0.403794
0.489845
0.566117
0.632607
0.0976976
0.190096
0.221266
0.224088
0.223747
0.252292
0.339061
0.433857
0.523136
0.600843
0.668608
0.72595
0.113021
0.221332
0.243367
0.243257
0.267474
0.34584
0.441571
0.533299
0.614093
0.682442
0.741234
0.791225
0.123579
0.242349
0.269803
0.286578
0.347018
0.437524
0.53049
0.61459
0.685917
0.745645
0.796848
0.840733
0.131438
0.259754
0.3009
0.351864
0.436021
0.530482
0.618475
0.694367
0.75727
0.809089
0.852911
0.890424
0.139308
0.284875
0.355862
0.448991
0.554417
0.651587
0.73309
0.798687
0.850468
0.891507
0.925127
0.953489
0.151909
0.328751
0.462587
0.604336
0.731228
0.829427
0.900453
0.950384
0.984938
1.00903
1.02671
1.04061
0.171646
0.407292
0.65162
0.84943
0.990917
1.08098
1.13256
1.15839
1.16755
1.16699
1.1617
1.15473
0.206067
0.558829
0.957569
1.20074
1.32954
1.38976
1.40816
1.40117
1.37821
1.34779
1.31516
1.28338
0.59226
0.963074
1.38063
1.57288
1.6443
1.65661
1.64294
1.60545
1.55707
1.50302
1.44824
1.39552
0.317443
0.323716
0.325688
0.324605
0.320913
0.309562
0.294033
0.269759
0.239991
0.199148
0.151276
0.117245
0.534996
0.583996
0.618925
0.6342
0.632827
0.623711
0.608843
0.583969
0.538756
0.444416
0.326667
0.27684
0.685392
0.723055
0.745251
0.754171
0.754783
0.751859
0.745559
0.733912
0.707326
0.642916
0.488105
0.404673
0.771209
0.805079
0.828334
0.842815
0.851596
0.858109
0.864763
0.870609
0.867349
0.833584
0.69681
0.50352
0.831601
0.863044
0.886441
0.903624
0.917568
0.931846
0.949651
0.971429
0.986646
0.978095
0.874354
0.59049
0.877215
0.906884
0.930687
0.950445
0.96915
0.990731
1.01909
1.05568
1.09515
1.11382
1.05622
0.674236
0.922223
0.949046
0.971931
0.992705
1.01439
1.04127
1.07815
1.12798
1.18704
1.23262
1.21646
0.754916
0.97775
0.998881
1.01804
1.03697
1.05859
1.08755
1.12984
1.19064
1.26866
1.34048
1.35577
0.847405
1.05242
1.06336
1.07478
1.08819
1.10603
1.13309
1.1766
1.24492
1.3409
1.44061
1.47547
0.952451
1.14828
1.14391
1.14348
1.14799
1.15865
1.18008
1.22021
1.29121
1.40259
1.53512
1.60583
1.06424
1.25509
1.2323
1.21646
1.21005
1.21494
1.2295
1.2628
1.32936
1.44842
1.61722
1.75562
1.19662
1.3483
1.30977
1.28129
1.26493
1.2656
1.27628
1.30343
1.36096
1.47123
1.66127
1.90354
1.39152
0.059385
0.0608337
0.0604683
0.0585803
0.0539487
0.0470002
0.0465794
0.0633025
0.17134
0.251783
0.284757
0.304422
0.0724949
0.11009
0.113447
0.109588
0.0935131
0.099664
0.174245
0.199033
0.264877
0.341612
0.406097
0.474102
0.0690437
0.126833
0.168937
0.199084
0.208077
0.199546
0.237049
0.312488
0.403735
0.489791
0.566062
0.632556
0.0977282
0.190166
0.221356
0.224175
0.223817
0.252246
0.338981
0.433792
0.523071
0.600781
0.668548
0.725893
0.11304
0.221387
0.243429
0.243304
0.26744
0.345757
0.441492
0.53323
0.614027
0.682379
0.74117
0.791163
0.123584
0.242375
0.269826
0.286558
0.346949
0.437443
0.530416
0.61452
0.68585
0.745576
0.796779
0.840663
0.131444
0.259758
0.300889
0.351815
0.435951
0.530409
0.618401
0.694294
0.757196
0.809014
0.852833
0.890345
0.139312
0.284882
0.355846
0.448958
0.554373
0.651534
0.733028
0.798617
0.850393
0.891427
0.925044
0.953405
0.151917
0.328775
0.462603
0.604348
0.731229
0.829413
0.90042
0.950333
0.984873
1.00896
1.02663
1.04052
0.171663
0.40734
0.65167
0.849484
0.990963
1.08101
1.13256
1.15837
1.16751
1.16693
1.16163
1.15466
0.206087
0.558886
0.957635
1.20081
1.3296
1.38981
1.40819
1.40118
1.37819
1.34776
1.31512
1.28333
0.59227
0.963118
1.38068
1.57294
1.64437
1.65667
1.64298
1.60548
1.55708
1.50302
1.44822
1.3955
0.317442
0.323717
0.325693
0.32461
0.320921
0.309571
0.294044
0.269769
0.239999
0.199157
0.151285
0.117256
0.534965
0.583971
0.618909
0.634191
0.632824
0.623712
0.608848
0.583978
0.538771
0.44443
0.326683
0.276858
0.685345
0.723014
0.745217
0.754144
0.754762
0.751846
0.745552
0.733909
0.707329
0.642923
0.488116
0.404687
0.771155
0.805028
0.828288
0.842774
0.851561
0.858081
0.86474
0.870594
0.86734
0.833583
0.696817
0.503532
0.831538
0.862984
0.886384
0.90357
0.917519
0.931803
0.949614
0.9714
0.986625
0.978084
0.874355
0.590499
0.877145
0.906814
0.930619
0.950381
0.96909
0.990676
1.01904
1.05564
1.09512
1.1138
1.05621
0.674241
0.922144
0.948967
0.971855
0.992632
1.01432
1.04121
1.07809
1.12793
1.187
1.23259
1.21645
0.754919
0.977665
0.998798
1.01796
1.03689
1.05852
1.08748
1.12978
1.19059
1.26861
1.34045
1.35576
0.847405
1.05233
1.06327
1.0747
1.08811
1.10596
1.13302
1.17653
1.24486
1.34085
1.44057
1.47545
0.952446
1.14821
1.14384
1.14341
1.14792
1.15858
1.18002
1.22015
1.29115
1.40254
1.53507
1.60581
1.06422
1.25503
1.23224
1.2164
1.21
1.21489
1.22945
1.26275
1.32931
1.44836
1.61717
1.75559
1.1966
1.34827
1.30975
1.28127
1.2649
1.26557
1.27625
1.30339
1.36091
1.47117
1.6612
1.90349
1.39149
1.71768
1.71386
1.72914
1.74453
1.75196
1.74392
1.7216
1.68181
1.6319
1.57397
1.51345
1.45312
1.73516
1.68951
1.6692
1.66175
1.65975
1.6534
1.64017
1.61852
1.58558
1.54007
1.49029
1.43773
1.64344
1.60436
1.57046
1.54411
1.52382
1.50645
1.49024
1.4732
1.45338
1.42868
1.39873
1.36452
1.512
1.4821
1.44534
1.40761
1.37609
1.34972
1.32763
1.30998
1.29649
1.28558
1.27679
1.27125
1.39808
1.35388
1.32166
1.30343
1.30378
1.3135
1.33749
1.38616
1.47441
1.6407
1.92158
1.84228
1.38979
1.35447
1.33119
1.32152
1.32498
1.33664
1.35975
1.39963
1.46406
1.56967
1.79277
1.79476
1.33736
1.32418
1.31934
1.32139
1.32939
1.34375
1.3642
1.39341
1.43842
1.49723
1.63607
1.67034
1.27559
1.28786
1.29474
1.30242
1.31098
1.3226
1.33929
1.36126
1.39456
1.42812
1.5053
1.53157
1.71766
1.71387
1.72916
1.74457
1.75204
1.74402
1.72172
1.68194
1.63203
1.57409
1.51355
1.45321
1.73516
1.68953
1.66924
1.66181
1.65983
1.65349
1.64027
1.61864
1.58571
1.5402
1.4904
1.43784
1.64343
1.60442
1.57052
1.54418
1.5239
1.50654
1.49035
1.47332
1.4535
1.42881
1.39886
1.36465
1.51198
1.48214
1.44542
1.4077
1.37618
1.34982
1.32774
1.31009
1.29662
1.28571
1.27692
1.27138
1.39816
1.35394
1.32172
1.30348
1.30382
1.31354
1.33754
1.38621
1.47446
1.64076
1.92166
1.84236
1.38989
1.35456
1.33127
1.3216
1.32506
1.33671
1.35981
1.39969
1.46412
1.56973
1.79284
1.79483
1.33747
1.32428
1.31943
1.32148
1.32947
1.34383
1.36427
1.39348
1.43848
1.4973
1.63614
1.67041
1.27571
1.28797
1.29485
1.30251
1.31107
1.32268
1.33936
1.36132
1.39462
1.42818
1.50535
1.53162
1.71775
1.71396
1.72924
1.74463
1.75208
1.74404
1.72174
1.68196
1.63206
1.57413
1.5136
1.45326
1.73523
1.68961
1.66931
1.66187
1.65987
1.65352
1.64029
1.61865
1.58572
1.54021
1.49042
1.43786
1.64349
1.60448
1.57058
1.54423
1.52394
1.50657
1.49037
1.47333
1.45351
1.42881
1.39885
1.36464
1.51203
1.48218
1.44546
1.40773
1.37621
1.34983
1.32775
1.3101
1.29661
1.2857
1.27691
1.27137
1.39821
1.354
1.32178
1.30355
1.30391
1.31363
1.33764
1.38632
1.47459
1.64091
1.92178
1.84245
1.38991
1.35459
1.33131
1.32164
1.32511
1.33677
1.3599
1.39979
1.46424
1.56988
1.79299
1.79496
1.33747
1.32429
1.31946
1.32152
1.32952
1.34389
1.36435
1.39358
1.4386
1.49744
1.6363
1.67056
1.27571
1.28799
1.29488
1.30256
1.31114
1.32277
1.33947
1.36145
1.39476
1.42834
1.50553
1.53179
1.7178
1.714
1.72929
1.7447
1.75215
1.74412
1.72181
1.68202
1.63211
1.57416
1.51362
1.45327
1.73534
1.6897
1.6694
1.66196
1.65997
1.65362
1.64039
1.61875
1.58581
1.54029
1.49048
1.43792
1.64364
1.60461
1.57071
1.54435
1.52407
1.5067
1.49049
1.47345
1.45362
1.42891
1.39895
1.36473
1.5122
1.48234
1.44561
1.40788
1.37635
1.34997
1.32789
1.31023
1.29673
1.28581
1.27701
1.27146
1.39822
1.35401
1.32179
1.30355
1.3039
1.31362
1.33761
1.38628
1.47453
1.64083
1.92171
1.8424
1.38996
1.35463
1.33135
1.32167
1.32512
1.33677
1.35987
1.39975
1.46417
1.56979
1.79288
1.79486
1.33755
1.32436
1.3195
1.32155
1.32953
1.34388
1.36431
1.39351
1.43852
1.49733
1.63617
1.67044
1.27578
1.28803
1.2949
1.30255
1.3111
1.32271
1.33939
1.36135
1.39465
1.42822
1.50538
1.53167
1.35032
1.31077
1.27126
1.23547
1.20713
1.18514
1.16931
1.16001
1.15755
1.16147
1.17479
1.19839
1.22125
1.18352
1.14824
1.11734
1.09239
1.07281
1.05912
1.05194
1.05145
1.05642
1.07007
1.09338
1.12016
1.0894
1.06039
1.03371
1.00964
0.988092
0.970015
0.956076
0.946128
0.939666
0.939751
0.952031
1.0377
1.01526
0.992432
0.96849
0.942784
0.91531
0.886955
0.858272
0.828713
0.797573
0.768779
0.762209
1.22453
1.23727
1.23641
1.2428
1.25471
1.2735
1.29825
1.32613
1.35599
1.38256
1.40638
1.39355
1.12162
1.13524
1.12849
1.13668
1.15633
1.18485
1.21832
1.25091
1.27613
1.2916
1.29521
1.26673
0.990471
1.01927
1.01408
1.02557
1.05199
1.08739
1.12636
1.15911
1.18071
1.19161
1.18728
1.15802
0.81296
0.893345
0.900444
0.917383
0.948872
0.98818
1.02936
1.06148
1.08197
1.09181
1.08742
1.06484
1.35036
1.31085
1.27137
1.23558
1.20724
1.18526
1.16942
1.16013
1.15767
1.16159
1.1749
1.19849
1.22133
1.18362
1.14835
1.11747
1.09251
1.07293
1.05924
1.05205
1.05156
1.05652
1.07017
1.09347
1.12026
1.08951
1.06051
1.03383
1.00976
0.98821
0.970125
0.956178
0.946221
0.939749
0.939829
0.952098
1.0378
1.01537
0.992551
0.968611
0.942904
0.915424
0.887059
0.858365
0.828794
0.797643
0.768839
0.762261
1.22462
1.23736
1.23649
1.24287
1.25477
1.27356
1.2983
1.32618
1.35603
1.3826
1.40642
1.39358
1.12169
1.13531
1.12855
1.13673
1.15637
1.18489
1.21836
1.25094
1.27616
1.29163
1.29523
1.26675
0.99053
1.01933
1.01412
1.02561
1.05202
1.08742
1.12638
1.15913
1.18073
1.19162
1.1873
1.15803
0.812999
0.893384
0.900476
0.917408
0.948891
0.988194
1.02937
1.06149
1.08198
1.09182
1.08743
1.06485
1.35039
1.31087
1.27139
1.23559
1.20725
1.18526
1.16942
1.16012
1.15767
1.16159
1.17492
1.19853
1.22135
1.18364
1.14836
1.11747
1.09251
1.07293
1.05924
1.05206
1.05157
1.05655
1.07021
1.09355
1.12027
1.08952
1.06052
1.03383
1.00976
0.988212
0.970133
0.956196
0.946254
0.939805
0.939903
0.952207
1.03781
1.01538
0.99256
0.968619
0.942911
0.915435
0.887079
0.858397
0.828845
0.797715
0.768931
0.762374
1.22469
1.23744
1.23659
1.24299
1.25491
1.27371
1.29847
1.32635
1.35622
1.38279
1.40661
1.39377
1.12181
1.13544
1.1287
1.1369
1.15656
1.18508
1.21856
1.25114
1.27636
1.29183
1.29543
1.26694
0.990682
1.0195
1.01431
1.02582
1.05224
1.08764
1.1266
1.15935
1.18094
1.19183
1.18749
1.15821
0.813165
0.893581
0.900691
0.917633
0.949122
0.988428
1.02961
1.06172
1.0822
1.09202
1.08762
1.06502
1.35057
1.31103
1.27154
1.23573
1.20738
1.18538
1.16954
1.16022
1.15775
1.16165
1.17496
1.19854
1.22151
1.18379
1.1485
1.1176
1.09263
1.07303
1.05933
1.05212
1.05161
1.05656
1.0702
1.09349
1.12043
1.08966
1.06064
1.03394
1.00985
0.988288
0.970187
0.956225
0.946257
0.939809
0.939855
0.952104
1.03795
1.01551
0.992665
0.968706
0.942981
0.915484
0.887103
0.858394
0.828811
0.797654
0.768837
0.762258
1.22466
1.23739
1.23652
1.24289
1.2548
1.27359
1.29834
1.32621
1.35607
1.38265
1.40647
1.39365
1.12171
1.13533
1.12857
1.13676
1.1564
1.18493
1.2184
1.25099
1.27621
1.29169
1.2953
1.26682
0.990537
1.01934
1.01414
1.02564
1.05206
1.08747
1.12644
1.15919
1.18079
1.19169
1.18737
1.1581
0.813007
0.893395
0.900499
0.917442
0.948936
0.988249
1.02944
1.06156
1.08205
1.09188
1.0875
1.06492
0.965151
0.95078
0.933471
0.911226
0.882431
0.846567
0.803725
0.753407
0.692406
0.611289
0.479739
0.286287
0.896372
0.889178
0.876724
0.855798
0.823792
0.779192
0.720874
0.647156
0.553122
0.427103
0.23501
0.0721422
0.827824
0.826708
0.818603
0.7992
0.765061
0.713644
0.642944
0.551454
0.436927
0.299121
0.146357
0.051094
0.758155
0.761809
0.757736
0.740417
0.705997
0.651261
0.574068
0.4747
0.356512
0.232468
0.126028
0.049912
0.687455
0.694692
0.694116
0.679512
0.646855
0.592722
0.515359
0.417413
0.307137
0.202436
0.122105
0.05027
0.616314
0.626157
0.628399
0.616982
0.587828
0.537688
0.465178
0.374798
0.277092
0.188627
0.121154
0.0498461
0.545495
0.557048
0.561513
0.553337
0.528821
0.485119
0.420601
0.340776
0.256231
0.180248
0.119574
0.0476665
0.475439
0.487917
0.493997
0.488703
0.469406
0.433495
0.378502
0.310092
0.237726
0.171525
0.114801
0.0440817
0.405808
0.418419
0.425536
0.422702
0.408209
0.380294
0.335823
0.278499
0.216955
0.158896
0.104884
0.0388777
0.334055
0.346033
0.353597
0.352633
0.342119
0.321456
0.288115
0.241617
0.189721
0.139084
0.0877294
0.0322228
0.250555
0.260833
0.268015
0.26831
0.261382
0.24647
0.22431
0.191574
0.148702
0.106345
0.0596344
0.0251997
0.112504
0.11846
0.123503
0.125527
0.124141
0.119212
0.110834
0.0985262
0.0813288
0.0596012
0.0347843
0.0222888
0.520059
0.754199
0.78737
0.813435
0.848815
0.890085
0.931595
0.9636
0.984365
0.995391
0.994954
0.981588
0.377181
0.624766
0.679293
0.71467
0.752925
0.794796
0.835794
0.867916
0.889896
0.903139
0.907545
0.903369
0.304706
0.519628
0.581493
0.622427
0.662306
0.703738
0.743584
0.775721
0.799171
0.814813
0.823809
0.827089
0.252615
0.433252
0.494899
0.537691
0.577825
0.617936
0.656039
0.68778
0.712279
0.730155
0.742895
0.751724
0.210937
0.360917
0.41857
0.460797
0.499937
0.537992
0.573839
0.604606
0.629433
0.64892
0.664408
0.677019
0.175452
0.298613
0.351135
0.39147
0.428709
0.464141
0.497299
0.526518
0.550977
0.571176
0.588306
0.603344
0.145046
0.242991
0.291051
0.329001
0.363839
0.396238
0.426376
0.45355
0.477042
0.49716
0.514889
0.531069
0.119081
0.192121
0.236817
0.272428
0.304604
0.333703
0.360581
0.38532
0.407372
0.426767
0.444236
0.460521
0.0956644
0.145752
0.187109
0.220527
0.249736
0.2753
0.298711
0.320714
0.340951
0.359124
0.375659
0.391237
0.0735279
0.10407
0.140687
0.17132
0.196669
0.218209
0.237849
0.256849
0.274978
0.291528
0.306504
0.320638
0.0525413
0.067225
0.0953785
0.119922
0.138987
0.155145
0.170106
0.185436
0.200941
0.215288
0.227712
0.239373
0.0306782
0.0293177
0.0410987
0.0530057
0.0615863
0.0682947
0.0743642
0.0808043
0.0877359
0.0943572
0.100556
0.106524
0.965248
0.950885
0.933584
0.911341
0.882545
0.846676
0.803824
0.753495
0.692481
0.611352
0.479789
0.286318
0.896468
0.889277
0.876829
0.855906
0.823899
0.779295
0.72097
0.647242
0.553196
0.427164
0.235055
0.0721584
0.827914
0.826799
0.818699
0.7993
0.765161
0.713742
0.643036
0.551538
0.437
0.299181
0.146395
0.051108
0.758241
0.761894
0.757824
0.740508
0.706089
0.651353
0.574156
0.47478
0.35658
0.232521
0.126062
0.0499257
0.687539
0.694772
0.694196
0.679595
0.64694
0.592806
0.51544
0.417487
0.307199
0.202483
0.122136
0.0502836
0.616396
0.626232
0.628473
0.617058
0.587904
0.537765
0.465253
0.374865
0.277148
0.188669
0.121183
0.0498589
0.545574
0.55712
0.561582
0.553406
0.52889
0.485188
0.420668
0.340837
0.256281
0.180286
0.119601
0.0476785
0.475514
0.487985
0.494061
0.488766
0.469468
0.433558
0.378562
0.310146
0.237771
0.171559
0.114827
0.0440925
0.405877
0.418481
0.425595
0.422758
0.408265
0.380349
0.335876
0.278547
0.216995
0.158927
0.104907
0.0388871
0.334116
0.346088
0.353649
0.352683
0.342168
0.321504
0.288161
0.241659
0.189756
0.139111
0.087749
0.0322306
0.250601
0.260878
0.268058
0.268349
0.261421
0.246508
0.224345
0.191607
0.14873
0.106366
0.0596482
0.0252059
0.112525
0.118482
0.123522
0.125545
0.124158
0.11923
0.11085
0.0985414
0.0813426
0.0596118
0.0347909
0.0222942
0.520077
0.754224
0.787393
0.813454
0.848829
0.890095
0.931601
0.963606
0.984372
0.995398
0.994963
0.9816
0.377189
0.624783
0.679311
0.714686
0.752937
0.794804
0.8358
0.867922
0.889902
0.903146
0.907555
0.903383
0.30471
0.519641
0.581509
0.622443
0.662318
0.703747
0.743591
0.775727
0.799178
0.814822
0.823821
0.827106
0.252618
0.433264
0.494915
0.537707
0.577839
0.617947
0.656048
0.687788
0.712288
0.730166
0.74291
0.751744
0.210938
0.360928
0.418586
0.460815
0.499953
0.538006
0.573851
0.604617
0.629445
0.648934
0.664425
0.677041
0.175454
0.298624
0.351152
0.391489
0.428727
0.464157
0.497314
0.526532
0.550991
0.571192
0.588325
0.603369
0.145047
0.243002
0.291068
0.329021
0.36386
0.396257
0.426394
0.453566
0.477059
0.497178
0.51491
0.531095
0.119082
0.192132
0.236833
0.272449
0.304626
0.333724
0.3606
0.385338
0.407391
0.426787
0.444258
0.460548
0.095664
0.145762
0.187125
0.220548
0.249757
0.27532
0.29873
0.320733
0.34097
0.359144
0.375681
0.391262
0.0735279
0.104077
0.140701
0.171339
0.196688
0.218227
0.237867
0.256866
0.274997
0.291547
0.306525
0.320662
0.0525413
0.0672296
0.0953899
0.119937
0.139002
0.155158
0.170119
0.18545
0.200955
0.215303
0.227729
0.239393
0.0306775
0.0293186
0.0411035
0.053012
0.0615924
0.0682999
0.0743687
0.080809
0.0877412
0.0943626
0.100562
0.106531
0.965263
0.950901
0.9336
0.911357
0.882562
0.846697
0.803853
0.753536
0.692536
0.611417
0.479851
0.286358
0.896486
0.889298
0.876852
0.855931
0.823926
0.779325
0.721005
0.647282
0.55324
0.427205
0.23507
0.0721604
0.827935
0.826826
0.81873
0.799334
0.765196
0.713778
0.643073
0.551573
0.43703
0.299198
0.146394
0.0511064
0.758266
0.761925
0.757861
0.740549
0.706131
0.651394
0.574193
0.47481
0.3566
0.232528
0.126059
0.0499241
0.687566
0.694806
0.694238
0.679641
0.646987
0.59285
0.515478
0.417515
0.307215
0.202488
0.122135
0.0502821
0.616426
0.626269
0.628516
0.617106
0.587954
0.537811
0.465291
0.374892
0.277164
0.188675
0.121183
0.0498585
0.545605
0.557156
0.561626
0.553455
0.528941
0.485234
0.420707
0.340864
0.256298
0.180294
0.119603
0.0476784
0.475545
0.488021
0.494104
0.488813
0.469517
0.433603
0.378601
0.310173
0.237788
0.171569
0.114829
0.0440929
0.405908
0.418515
0.425636
0.422801
0.408312
0.380391
0.335914
0.278573
0.217013
0.158937
0.10491
0.0388878
0.334144
0.346119
0.353685
0.352721
0.342209
0.321541
0.288194
0.241683
0.189773
0.139121
0.087752
0.032231
0.250624
0.260903
0.268085
0.26838
0.261453
0.246538
0.224372
0.191628
0.148744
0.106375
0.0596505
0.0252067
0.112534
0.118492
0.123533
0.125559
0.124172
0.119244
0.110863
0.0985521
0.0813504
0.0596165
0.0347928
0.0222954
0.520208
0.754429
0.787614
0.813684
0.849064
0.890331
0.931831
0.963825
0.984581
0.995595
0.99514
0.981752
0.377303
0.624978
0.679525
0.714911
0.753167
0.795034
0.836021
0.868131
0.890098
0.903329
0.907717
0.903519
0.304813
0.51982
0.58171
0.622655
0.662535
0.703963
0.743801
0.775924
0.799359
0.814988
0.823966
0.827227
0.252708
0.433424
0.495098
0.537902
0.57804
0.618148
0.656243
0.687969
0.712454
0.730314
0.743039
0.751849
0.211018
0.361068
0.418749
0.46099
0.500135
0.538189
0.574029
0.604782
0.629595
0.649067
0.664538
0.677131
0.175521
0.298745
0.351294
0.391645
0.42889
0.46432
0.497473
0.52668
0.551125
0.57131
0.588425
0.603446
0.145105
0.243103
0.29119
0.329156
0.364001
0.396401
0.426534
0.453697
0.477178
0.497282
0.514996
0.531162
0.11913
0.192214
0.236936
0.272563
0.304747
0.333848
0.360721
0.385451
0.407494
0.426877
0.444333
0.460605
0.0957039
0.145825
0.187208
0.220642
0.249859
0.275425
0.298833
0.320829
0.341057
0.359221
0.375744
0.391311
0.0735584
0.104123
0.140765
0.171413
0.19677
0.218313
0.237951
0.256945
0.275068
0.29161
0.306577
0.320701
0.0525628
0.0672594
0.0954346
0.11999
0.139062
0.155222
0.170182
0.185509
0.201008
0.21535
0.227768
0.239422
0.0306907
0.0293311
0.0411233
0.0530359
0.0616199
0.0683293
0.0743984
0.0808367
0.0877665
0.0943854
0.100581
0.106546
0.965391
0.951005
0.933683
0.911421
0.882607
0.846722
0.803855
0.753513
0.692489
0.61135
0.479779
0.286311
0.896597
0.889384
0.876914
0.855973
0.823949
0.779331
0.720993
0.647254
0.5532
0.427164
0.235055
0.0721591
0.828032
0.826895
0.818774
0.799356
0.765202
0.71377
0.643053
0.551547
0.437006
0.299185
0.146401
0.0511093
0.758348
0.761981
0.75789
0.740557
0.706123
0.651375
0.574169
0.474788
0.356587
0.232527
0.126067
0.0499268
0.687635
0.694851
0.694255
0.679637
0.646969
0.592824
0.515451
0.417495
0.307206
0.202488
0.12214
0.0502844
0.616483
0.626303
0.628526
0.617095
0.58793
0.537781
0.465263
0.374872
0.277154
0.188673
0.121185
0.049859
0.545653
0.557184
0.56163
0.55344
0.528914
0.485203
0.420677
0.340843
0.256286
0.180289
0.119602
0.0476784
0.475585
0.488043
0.494105
0.488797
0.46949
0.433571
0.378571
0.310151
0.237774
0.171561
0.114827
0.044092
0.405941
0.418533
0.425634
0.422786
0.408286
0.380363
0.335884
0.278552
0.216998
0.158927
0.104906
0.0388863
0.33417
0.346133
0.353683
0.352708
0.342186
0.321516
0.288168
0.241663
0.189758
0.139111
0.0877478
0.0322296
0.250643
0.260913
0.268084
0.268369
0.261435
0.246518
0.224352
0.191611
0.148731
0.106366
0.059647
0.0252048
0.112545
0.118499
0.123535
0.125554
0.124165
0.119235
0.110854
0.0985434
0.0813426
0.059611
0.0347899
0.0222932
0.520089
0.75424
0.787418
0.813489
0.848875
0.890151
0.931665
0.963672
0.984439
0.995466
0.995036
0.981662
0.377203
0.6248
0.679335
0.714719
0.752981
0.794858
0.835861
0.867986
0.889968
0.903212
0.907624
0.903442
0.304723
0.519657
0.581529
0.62247
0.662356
0.703795
0.743647
0.775788
0.799239
0.814884
0.823885
0.827159
0.252631
0.433276
0.49493
0.537728
0.57787
0.617988
0.656097
0.687842
0.712344
0.730223
0.742969
0.751788
0.210949
0.360937
0.418595
0.460828
0.499975
0.538038
0.573892
0.604664
0.629495
0.648988
0.664481
0.677068
0.175463
0.29863
0.351155
0.391496
0.428741
0.46418
0.497345
0.52657
0.551034
0.57124
0.588374
0.603385
0.145055
0.243004
0.291068
0.329022
0.363866
0.396272
0.426417
0.453597
0.477095
0.497218
0.514948
0.531104
0.119088
0.192132
0.23683
0.272444
0.304626
0.333731
0.360615
0.385361
0.40742
0.426819
0.444287
0.460552
0.0956695
0.145761
0.187119
0.22054
0.249753
0.275322
0.29874
0.32075
0.340992
0.359169
0.375701
0.391263
0.0735325
0.104077
0.140695
0.17133
0.196682
0.218227
0.237872
0.256878
0.275013
0.291566
0.306539
0.320658
0.0525449
0.0672294
0.0953843
0.119929
0.138996
0.155157
0.170123
0.185459
0.200967
0.215316
0.227739
0.239386
0.0306803
0.0293194
0.0411018
0.0530086
0.0615901
0.0683002
0.074372
0.0808146
0.0877481
0.0943705
0.100568
0.106529
)
;

boundaryField
{
    rotor
    {
        type            kqRWallFunction;
        value           nonuniform List<scalar> 
192
(
0.0594105
0.0608393
0.0604619
0.0585634
0.0539253
0.0469728
0.0465584
0.0633027
0.171373
0.251776
0.284736
0.304397
0.317411
0.323684
0.325655
0.324572
0.320881
0.309532
0.294006
0.269735
0.239971
0.199133
0.151265
0.117236
0.0593847
0.0608351
0.0604694
0.0585822
0.0539514
0.047004
0.0465785
0.0632814
0.171274
0.251746
0.28473
0.304394
0.317417
0.323692
0.32567
0.324588
0.320902
0.309553
0.294029
0.269757
0.23999
0.199151
0.151282
0.117252
0.0593354
0.0607863
0.0604193
0.0585269
0.053898
0.0469463
0.0465401
0.0632941
0.171382
0.251795
0.284761
0.304426
0.317443
0.323716
0.325688
0.324605
0.320913
0.309562
0.294033
0.269759
0.239991
0.199148
0.151276
0.117245
0.059385
0.0608337
0.0604683
0.0585803
0.0539487
0.0470002
0.0465794
0.0633025
0.17134
0.251783
0.284757
0.304422
0.317442
0.323717
0.325693
0.32461
0.320921
0.309571
0.294044
0.269769
0.239999
0.199157
0.151285
0.117256
0.0594105
0.0724817
0.069033
0.0977223
0.11304
0.12359
0.131444
0.139308
0.151903
0.171637
0.206052
0.592199
0.117256
0.276858
0.404687
0.503532
0.590499
0.674241
0.754919
0.847405
0.952446
1.06422
1.1966
1.39149
0.0593847
0.0724943
0.0690431
0.0977254
0.113036
0.123578
0.13144
0.13931
0.151918
0.171663
0.206082
0.59222
0.117236
0.276822
0.404647
0.503483
0.590445
0.674181
0.754853
0.847333
0.952369
1.06414
1.19652
1.39139
0.0593354
0.0724434
0.0690031
0.0976976
0.113021
0.123579
0.131438
0.139308
0.151909
0.171646
0.206067
0.59226
0.117252
0.27685
0.404677
0.503517
0.590481
0.67422
0.754893
0.847375
0.952414
1.06419
1.19657
1.39146
0.059385
0.0724949
0.0690437
0.0977282
0.11304
0.123584
0.131444
0.139312
0.151917
0.171663
0.206087
0.59227
0.117245
0.27684
0.404673
0.50352
0.59049
0.674236
0.754916
0.847405
0.952451
1.06424
1.19662
1.39152
)
;
    }
    stator
    {
        type            kqRWallFunction;
        value           nonuniform List<scalar> 
192
(
0.112504
0.11846
0.123503
0.125527
0.124141
0.119212
0.110834
0.0985262
0.0813288
0.0596012
0.0347843
0.0222888
0.0306782
0.0293177
0.0410987
0.0530057
0.0615863
0.0682947
0.0743642
0.0808043
0.0877359
0.0943572
0.100556
0.106524
0.112525
0.118482
0.123522
0.125545
0.124158
0.11923
0.11085
0.0985414
0.0813426
0.0596118
0.0347909
0.0222942
0.0306775
0.0293186
0.0411035
0.053012
0.0615924
0.0682999
0.0743687
0.080809
0.0877412
0.0943626
0.100562
0.106531
0.112534
0.118492
0.123533
0.125559
0.124172
0.119244
0.110863
0.0985521
0.0813504
0.0596165
0.0347928
0.0222954
0.0306907
0.0293311
0.0411233
0.0530359
0.0616199
0.0683293
0.0743984
0.0808367
0.0877665
0.0943854
0.100581
0.106546
0.112545
0.118499
0.123535
0.125554
0.124165
0.119235
0.110854
0.0985434
0.0813426
0.059611
0.0347899
0.0222932
0.0306803
0.0293194
0.0411018
0.0530086
0.0615901
0.0683002
0.074372
0.0808146