/*--------------------------------*- C++ -*----------------------------------*\
  =========                 |
  \\      /  F ield         | OpenFOAM: The Open Source CFD Toolbox
   \\    /   O peration     | Website:  https://openfoam.org
    \\  /    A nd           | Version:  6
     \\/     M anipulation  |
\*---------------------------------------------------------------------------*/
FoamFile
{
    version     2.0;
    format      ascii;
    class       volScalarField;
    location    "450";
    object      nut;
}
// * * * * * * * * * * * * * * * * * * * * * * * * * * * * * * * * * * * * * //

dimensions      [0 2 -1 0 0 0 0];

internalField   nonuniform List<scalar> 
3072
(
0.000129368
7.05555e-05
7.03381e-05
6.92352e-05
6.6448e-05
6.20341e-05
6.17046e-05
7.17408e-05
0.000117988
0.00014336
0.000152535
0.000157722
0.000197061
0.000220305
0.000236912
0.000215016
0.000133214
7.89385e-05
0.00012851
0.000152533
0.000215059
0.000307431
0.000419087
0.000559199
5.06671e-05
0.000200837
0.000267543
0.00024836
0.000217961
0.000195878
0.000251072
0.000382115
0.00055275
0.000768726
0.000987529
0.00118949
6.60129e-05
0.000309563
0.000321579
0.000291833
0.000275616
0.000334105
0.000518642
0.000741964
0.000986566
0.00124561
0.00148526
0.00169413
7.71656e-05
0.000362387
0.000378431
0.000362759
0.000414995
0.000611094
0.000853806
0.00110782
0.0013693
0.00163158
0.0018687
0.00207452
8.71373e-05
0.000421839
0.00047737
0.000513508
0.000672595
0.000911412
0.00116615
0.00142887
0.00168563
0.00193031
0.00215111
0.00234529
9.65365e-05
0.000500271
0.000623196
0.000747914
0.000969928
0.00121912
0.00146953
0.00171693
0.00195654
0.00217704
0.00237461
0.00254808
0.000106264
0.000612686
0.000832953
0.00106293
0.00130872
0.00154725
0.00177442
0.00198808
0.00218758
0.00236782
0.0025285
0.00267104
0.000118158
0.000751469
0.00110612
0.00138709
0.00162845
0.00184033
0.0020266
0.00219182
0.00234068
0.00247519
0.00259736
0.0027088
0.000133227
0.000856258
0.0012936
0.00159579
0.00182231
0.00200581
0.00216083
0.00229521
0.00241227
0.00251674
0.00261188
0.00269989
0.000154305
0.000797598
0.00136466
0.0016986
0.00193158
0.00210955
0.00225186
0.00236936
0.00246365
0.00254473
0.00261703
0.00268366
0.000275649
0.000771707
0.00144454
0.0018256
0.00204116
0.00220756
0.0023478
0.0024461
0.00252274
0.00258427
0.00263626
0.00268263
0.000161083
0.000162674
0.000163186
0.000162916
0.000161997
0.00015911
0.000155078
0.00014854
0.000140114
0.000127635
0.000111245
5.34866e-05
0.000701595
0.000825121
0.000917554
0.00094941
0.000927062
0.000871891
0.000782756
0.000658914
0.000505606
0.000309041
0.000156084
9.18398e-05
0.00136051
0.00148682
0.00155829
0.00157357
0.00153566
0.00145075
0.00131389
0.00112542
0.000883548
0.000591352
0.000263955
0.000122708
0.00186626
0.00199523
0.00207721
0.00210995
0.00209077
0.00201442
0.00187336
0.00165728
0.00135677
0.000966695
0.000472687
0.000149895
0.00224579
0.00237978
0.00247399
0.00252528
0.00252902
0.00247785
0.00235797
0.00214751
0.001804
0.00132637
0.000695587
0.000176427
0.00251171
0.00264718
0.00275038
0.00281914
0.0028495
0.00283369
0.00275326
0.00257644
0.00225607
0.0017252
0.000979649
0.000203592
0.00269631
0.00282008
0.00292015
0.00299737
0.0030514
0.00307644
0.00305338
0.00293943
0.00266104
0.00212223
0.00127435
0.000231376
0.00279407
0.00290017
0.00299196
0.00307183
0.00314156
0.00320153
0.00323835
0.00320801
0.00301572
0.00250568
0.00156989
0.000262038
0.00281013
0.0029024
0.0029883
0.00306739
0.00314393
0.00322796
0.00331468
0.00337288
0.00329805
0.00286596
0.00183396
0.000295721
0.00278242
0.00286156
0.0029429
0.0030258
0.00310413
0.00318864
0.00330445
0.00343661
0.00349542
0.00320665
0.00214198
0.000331535
0.00274773
0.00281248
0.00288202
0.00296397
0.00306161
0.00314266
0.00325567
0.00342205
0.00359362
0.00350467
0.00251292
0.000371641
0.00272851
0.00277922
0.00283867
0.00291201
0.00302065
0.00311462
0.0032166
0.00338457
0.00360982
0.00370189
0.00294828
0.000422442
0.000129309
7.05505e-05
7.03375e-05
6.92403e-05
6.64585e-05
6.20488e-05
6.17142e-05
7.17283e-05
0.000117955
0.000143352
0.000152533
0.000157722
0.00019709
0.000220342
0.000237026
0.000215171
0.000133393
7.89863e-05
0.000128495
0.000152484
0.000214988
0.000307355
0.00041896
0.000559071
5.06696e-05
0.000200873
0.000267665
0.00024854
0.000218123
0.000195938
0.000250913
0.000381964
0.000552544
0.000768495
0.000987299
0.00118929
6.60123e-05
0.000309642
0.000321729
0.000291926
0.000275647
0.000333917
0.000518376
0.000741697
0.000986277
0.00124532
0.00148499
0.00169389
7.71628e-05
0.000362451
0.000378474
0.000362748
0.000414811
0.000610741
0.0008535
0.00110751
0.00136898
0.00163128
0.00186842
0.00207427
8.71327e-05
0.000421825
0.000477304
0.000513331
0.000672269
0.000911087
0.00116583
0.00142854
0.00168531
0.00193
0.00215083
0.00234504
9.65345e-05
0.000500226
0.000623061
0.000747665
0.000969635
0.00121884
0.00146923
0.00171662
0.00195624
0.00217676
0.00237435
0.00254785
0.000106265
0.000612679
0.00083288
0.00106281
0.00130857
0.00154707
0.00177421
0.00198785
0.00218736
0.0023676
0.0025283
0.00267085
0.000118164
0.00075156
0.00110618
0.00138713
0.00162845
0.00184029
0.00202652
0.00219172
0.00234056
0.00247507
0.00259724
0.00270868
0.000133237
0.000856378
0.00129371
0.0015959
0.0018224
0.00200588
0.00216089
0.00229525
0.00241228
0.00251673
0.00261186
0.00269985
0.000154316
0.000797682
0.00136478
0.00169874
0.00193175
0.00210972
0.00225204
0.00236952
0.00246378
0.00254483
0.0026171
0.00268372
0.000275657
0.000771761
0.00144464
0.00182574
0.00204136
0.00220776
0.00234804
0.00244632
0.00252295
0.00258446
0.00263642
0.00268277
0.000161084
0.000162676
0.00016319
0.00016292
0.000162002
0.000159115
0.000155084
0.000148545
0.000140119
0.00012764
0.000111251
5.34902e-05
0.000701472
0.000825017
0.000917474
0.000949362
0.000927037
0.000871877
0.000782753
0.000658921
0.00050562
0.000309053
0.000156092
9.18444e-05
0.00136032
0.00148666
0.00155817
0.00157349
0.00153561
0.00145073
0.00131388
0.00112542
0.000883564
0.000591372
0.000263964
0.000122713
0.00186604
0.00199505
0.00207706
0.00210984
0.00209069
0.00201437
0.00187334
0.00165727
0.00135677
0.000966708
0.000472701
0.0001499
0.00224557
0.00237959
0.00247383
0.00252516
0.00252894
0.0024778
0.00235794
0.00214751
0.00180401
0.00132639
0.000695606
0.000176432
0.00251149
0.00264699
0.00275021
0.00281901
0.00284941
0.00283363
0.00275323
0.00257644
0.00225608
0.00172522
0.000979667
0.000203597
0.0026961
0.0028199
0.00292
0.00299725
0.00305131
0.00307638
0.00305335
0.00293943
0.00266105
0.00212226
0.00127437
0.000231382
0.0027939
0.00290002
0.00299183
0.00307172
0.00314148
0.00320148
0.00323834
0.00320802
0.00301575
0.00250571
0.00156992
0.000262044
0.00281001
0.00290229
0.0029882
0.00306731
0.00314387
0.00322792
0.00331467
0.00337291
0.0032981
0.00286601
0.001834
0.000295728
0.00278237
0.00286151
0.00294285
0.00302576
0.0031041
0.00318863
0.00330447
0.00343666
0.00349548
0.00320672
0.00214203
0.000331542
0.00274777
0.0028125
0.00288204
0.00296399
0.00306164
0.0031427
0.00325572
0.00342213
0.00359372
0.00350477
0.00251298
0.000371649
0.00272863
0.00277932
0.00283876
0.00291209
0.00302074
0.00311472
0.0032167
0.00338468
0.00360995
0.00370202
0.00294837
0.000422451
0.000129203
7.05238e-05
7.03107e-05
6.92108e-05
6.64288e-05
6.20148e-05
6.16915e-05
7.17356e-05
0.000117991
0.000143366
0.000152541
0.00015773
0.000196955
0.000220223
0.000236842
0.000214943
0.000133155
7.8879e-05
0.000128494
0.000152546
0.000215076
0.00030746
0.000419128
0.000559251
5.06566e-05
0.000200789
0.000267503
0.000248322
0.000217913
0.000195859
0.000251128
0.000382159
0.000552811
0.000768802
0.000987623
0.00118961
6.60049e-05
0.000309521
0.000321551
0.000291817
0.000275609
0.000334169
0.00051872
0.000742042
0.000986661
0.00124572
0.00148539
0.00169429
7.71593e-05
0.000362367
0.000378429
0.000362772
0.000415063
0.00061119
0.000853896
0.00110793
0.00136942
0.00163173
0.00186888
0.00207472
8.71329e-05
0.00042184
0.000477394
0.000513566
0.000672696
0.000911521
0.00116627
0.00142901
0.00168579
0.0019305
0.00215132
0.00234552
9.65334e-05
0.000500297
0.000623252
0.00074803
0.000970072
0.00121928
0.00146971
0.00171712
0.00195675
0.00217728
0.00237486
0.00254835
0.000106263
0.000612731
0.000833079
0.0010631
0.00130891
0.00154747
0.00177465
0.00198832
0.00218783
0.00236808
0.00252877
0.00267132
0.00011816
0.000751542
0.00110626
0.00138727
0.00162866
0.00184055
0.00202683
0.00219206
0.00234093
0.00247545
0.00259763
0.00270909
0.00013323
0.000856315
0.00129372
0.00159594
0.00182249
0.00200601
0.00216106
0.00229546
0.00241252
0.002517
0.00261216
0.00270018
0.00015431
0.000797639
0.00136476
0.00169874
0.00193176
0.00210976
0.0022521
0.00236963
0.00246393
0.00254502
0.00261732
0.00268396
0.000275665
0.000771773
0.00144464
0.00182575
0.00204136
0.00220778
0.00234806
0.00244638
0.00252304
0.00258457
0.00263656
0.00268293
0.000161091
0.000162682
0.000163194
0.000162924
0.000162005
0.000159118
0.000155085
0.000148546
0.000140119
0.000127639
0.000111249
5.34886e-05
0.000701661
0.000825198
0.000917648
0.000949512
0.000927162
0.000871989
0.000782845
0.000658984
0.000505655
0.000309067
0.000156093
9.18428e-05
0.00136064
0.00148697
0.00155845
0.00157374
0.00153583
0.0014509
0.00131403
0.00112553
0.000883638
0.000591412
0.000263976
0.000122712
0.00186644
0.00199542
0.00207742
0.00211017
0.00209098
0.00201462
0.00187355
0.00165744
0.00135689
0.000966779
0.000472725
0.000149901
0.00224601
0.00238002
0.00247424
0.00252554
0.00252929
0.0024781
0.00235821
0.00214772
0.00180418
0.00132649
0.000695642
0.000176433
0.00251197
0.00264745
0.00275066
0.00281944
0.00284981
0.002834
0.00275356
0.0025767
0.00225628
0.00172535
0.000979723
0.0002036
0.00269659
0.00282038
0.00292047
0.0029977
0.00305174
0.00307679
0.00305372
0.00293975
0.00266131
0.00212242
0.00127444
0.000231385
0.00279436
0.00290048
0.00299229
0.00307217
0.00314192
0.00320191
0.00323874
0.00320838
0.00301605
0.00250591
0.00157
0.000262048
0.00281043
0.00290272
0.00298863
0.00306775
0.0031443
0.00322836
0.0033151
0.00337331
0.00329844
0.00286624
0.0018341
0.000295734
0.00278272
0.00286188
0.00294323
0.00302616
0.00310451
0.00318905
0.00330489
0.00343708
0.00349587
0.00320701
0.00214214
0.000331549
0.00274804
0.00281279
0.00288235
0.00296433
0.00306199
0.00314307
0.00325612
0.00342255
0.00359413
0.0035051
0.0025131
0.000371657
0.00272882
0.00277953
0.002839
0.00291237
0.00302104
0.00311503
0.00321705
0.00338508
0.0036104
0.00370241
0.00294852
0.000422461
0.000129309
7.05493e-05
7.03366e-05
6.9239e-05
6.64569e-05
6.20465e-05
6.17149e-05
7.17398e-05
0.000117978
0.000143362
0.00015254
0.000157729
0.000197091
0.000220345
0.000237013
0.000215137
0.000133346
7.89877e-05
0.000128513
0.000152513
0.000215035
0.000307405
0.000419047
0.000559165
5.06698e-05
0.000200878
0.000267656
0.000248508
0.000218088
0.000195933
0.000250988
0.000382051
0.000552664
0.00076864
0.000987458
0.00118945
6.60137e-05
0.000309638
0.000321708
0.000291921
0.000275659
0.000334008
0.000518505
0.000741845
0.000986446
0.00124551
0.00148518
0.00169408
7.71647e-05
0.000362453
0.000378487
0.000362776
0.000414901
0.000610881
0.000853643
0.00110767
0.00136917
0.00163148
0.00186863
0.00207448
8.71353e-05
0.000421845
0.000477342
0.000513408
0.000672382
0.000911215
0.00116598
0.00142871
0.0016855
0.00193021
0.00215104
0.00234526
9.6536e-05
0.000500241
0.000623099
0.000747734
0.000969729
0.00121895
0.00146937
0.00171679
0.00195643
0.00217696
0.00237456
0.00254806
0.000106266
0.000612676
0.000832894
0.00106285
0.00130864
0.00154717
0.00177434
0.00198801
0.00218753
0.00236779
0.0025285
0.00267106
0.000118164
0.000751545
0.0011062
0.00138717
0.00162853
0.00184039
0.00202665
0.00219186
0.00234072
0.00247524
0.00259743
0.00270889
0.000133238
0.00085638
0.00129375
0.00159596
0.00182249
0.00200599
0.00216101
0.00229538
0.00241243
0.00251689
0.00261203
0.00270005
0.000154318
0.000797715
0.00136484
0.00169883
0.00193185
0.00210984
0.00225216
0.00236966
0.00246393
0.00254499
0.00261728
0.00268391
0.000275666
0.000771829
0.00144473
0.00182586
0.00204149
0.00220791
0.00234818
0.00244648
0.00252312
0.00258464
0.0026366
0.00268296
0.000161091
0.000162683
0.000163195
0.000162925
0.000162007
0.00015912
0.000155087
0.000148549
0.000140122
0.000127642
0.000111252
5.34911e-05
0.000701574
0.000825119
0.000917575
0.000949452
0.000927114
0.000871947
0.000782813
0.000658966
0.000505652
0.000309068
0.000156097
9.18457e-05
0.00136049
0.00148683
0.00155833
0.00157363
0.00153574
0.00145084
0.00131398
0.0011255
0.000883621
0.000591407
0.000263975
0.000122714
0.00186624
0.00199524
0.00207725
0.00211002
0.00209086
0.00201452
0.00187347
0.00165738
0.00135686
0.000966762
0.000472724
0.000149903
0.00224578
0.0023798
0.00247404
0.00252536
0.00252913
0.00247797
0.0023581
0.00214764
0.00180412
0.00132646
0.000695639
0.000176434
0.00251171
0.00264721
0.00275044
0.00281923
0.00284962
0.00283383
0.00275342
0.0025766
0.00225622
0.00172532
0.000979713
0.000203601
0.00269632
0.00282013
0.00292023
0.00299748
0.00305154
0.0030766
0.00305356
0.00293962
0.00266122
0.00212237
0.00127443
0.000231386
0.00279412
0.00290025
0.00299206
0.00307196
0.00314172
0.00320172
0.00323857
0.00320824
0.00301594
0.00250585
0.00156998
0.000262048
0.00281022
0.00290252
0.00298844
0.00306755
0.00314412
0.00322818
0.00331493
0.00337315
0.00329831
0.00286616
0.00183407
0.000295733
0.00278258
0.00286174
0.00294309
0.00302601
0.00310436
0.0031889
0.00330473
0.00343692
0.00349572
0.0032069
0.00214211
0.000331548
0.00274798
0.00281272
0.00288227
0.00296424
0.00306189
0.00314295
0.00325599
0.00342239
0.00359396
0.00350495
0.00251306
0.000371654
0.00272883
0.00277954
0.00283899
0.00291234
0.00302099
0.00311496
0.00321695
0.00338493
0.00361019
0.00370221
0.00294844
0.000422456
0.00171468
0.00180041
0.00194057
0.00209875
0.00223981
0.0023633
0.00246789
0.0025395
0.00259457
0.002636
0.00266886
0.00269686
0.00281603
0.00263137
0.00256414
0.00255436
0.00257218
0.00259812
0.00262163
0.00264472
0.00266943
0.00268807
0.00270325
0.00271778
0.00355644
0.00332133
0.00314127
0.00301439
0.00292011
0.00285632
0.00281312
0.00278735
0.00277462
0.00275983
0.00274861
0.00275297
0.00381752
0.00363335
0.00344119
0.00326506
0.00312278
0.00300873
0.00291906
0.00285584
0.00281986
0.00280408
0.00280678
0.0028312
0.00272768
0.00276915
0.00282469
0.00289881
0.00301074
0.00311477
0.00321596
0.00338231
0.00360807
0.0038624
0.00387547
0.00180889
0.0027428
0.00278696
0.0028495
0.00293437
0.00304138
0.0031536
0.00326343
0.00342105
0.00362428
0.00386188
0.00426965
0.00315155
0.00278673
0.00285035
0.00293286
0.00302633
0.00313018
0.00325133
0.00337404
0.00351437
0.00368241
0.00385774
0.00422887
0.00383111
0.00289148
0.00299426
0.00308851
0.00319424
0.00330621
0.00342819
0.003552
0.00367303
0.00380051
0.0039092
0.00413587
0.00400823
0.00171473
0.00180049
0.00194067
0.00209889
0.00224002
0.0023635
0.00246814
0.00253976
0.00259483
0.00263625
0.00266909
0.00269706
0.0028161
0.00263149
0.00256427
0.00255454
0.00257239
0.00259835
0.00262188
0.002645
0.00266971
0.00268835
0.00270352
0.00271803
0.00355641
0.00332155
0.00314149
0.00301463
0.00292035
0.00285657
0.00281338
0.00278763
0.00277493
0.00276015
0.00274892
0.00275326
0.00381746
0.0036335
0.0034415
0.00326536
0.00312307
0.00300902
0.00291935
0.00285613
0.00282017
0.00280439
0.00280708
0.00283149
0.00272787
0.00276933
0.00282485
0.00289896
0.00301089
0.00311493
0.00321611
0.00338246
0.00360823
0.00386258
0.00387564
0.00180897
0.00274303
0.00278719
0.00284972
0.00293457
0.00304159
0.00315381
0.00326362
0.00342124
0.00362448
0.00386208
0.00426986
0.00315171
0.00278701
0.00285061
0.0029331
0.00302657
0.00313041
0.00325155
0.00337427
0.00351459
0.00368263
0.00385796
0.00422909
0.0038313
0.00289174
0.00299452
0.00308876
0.00319448
0.00330644
0.00342843
0.00355224
0.00367326
0.00380074
0.00390942
0.00413609
0.00400843
0.00171483
0.00180059
0.00194076
0.00209896
0.00224005
0.00236355
0.00246817
0.0025398
0.00259489
0.00263632
0.00266918
0.00269717
0.00281625
0.00263164
0.00256441
0.00255465
0.00257248
0.00259843
0.00262195
0.00264505
0.00266976
0.0026884
0.00270358
0.0027181
0.00355659
0.00332172
0.00314165
0.00301476
0.00292047
0.00285668
0.00281347
0.0027877
0.00277498
0.00276019
0.00274895
0.00275331
0.00381764
0.00363366
0.00344165
0.00326549
0.00312319
0.00300912
0.00291944
0.00285621
0.00282022
0.00280444
0.00280713
0.00283155
0.00272799
0.00276947
0.00282502
0.00289917
0.00301113
0.0031152
0.00321642
0.00338285
0.00360868
0.00386304
0.00387589
0.00180901
0.00274312
0.00278729
0.00284985
0.00293476
0.0030418
0.00315406
0.00326394
0.00342162
0.00362493
0.0038626
0.00427027
0.00315189
0.00278707
0.0028507
0.00293326
0.00302676
0.00313066
0.00325186
0.00337461
0.003515
0.0036831
0.00385847
0.00422963
0.00383167
0.00289186
0.00299469
0.00308898
0.00319478
0.00330679
0.00342883
0.00355265
0.00367373
0.00380124
0.00390996
0.00413664
0.00400888
0.00171483
0.00180062
0.00194082
0.00209906
0.00224019
0.0023637
0.00246833
0.00253995
0.00259502
0.00263644
0.00266928
0.00269726
0.00281637
0.00263174
0.00256452
0.00255478
0.00257263
0.00259859
0.00262211
0.00264522
0.00266993
0.00268857
0.00270372
0.00271824
0.00355689
0.00332195
0.00314184
0.00301494
0.00292065
0.00285686
0.00281365
0.00278789
0.00277516
0.00276036
0.0027491
0.00275347
0.00381803
0.00363399
0.0034419
0.00326571
0.00312339
0.00300932
0.00291963
0.00285639
0.00282038
0.00280457
0.00280725
0.00283165
0.00272807
0.00276954
0.00282507
0.00289919
0.00301112
0.00311516
0.00321633
0.00338268
0.00360844
0.00386277
0.00387571
0.00180897
0.00274324
0.0027874
0.00284993
0.00293478
0.00304179
0.003154
0.0032638
0.00342142
0.00362465
0.00386226
0.00426995
0.00315171
0.0027872
0.0028508
0.00293327
0.00302674
0.00313057
0.0032517
0.00337441
0.00351473
0.00368276
0.0038581
0.0042292
0.00383137
0.00289188
0.00299465
0.00308887
0.00319459
0.00330655
0.00342854
0.00355235
0.00367337
0.00380085
0.00390955
0.00413619
0.00400853
0.00368301
0.0034957
0.00331479
0.00315434
0.00302373
0.00292113
0.00284612
0.00279994
0.00278399
0.00279518
0.00284912
0.00295371
0.00359301
0.00341075
0.00323856
0.00308417
0.00295323
0.00284595
0.00276414
0.00270756
0.00267638
0.00266908
0.00271041
0.00281838
0.00352895
0.00335667
0.00319057
0.00303448
0.00289242
0.00276533
0.0026544
0.00255458
0.00245762
0.0023678
0.00230852
0.0023254
0.00347502
0.00331706
0.00315713
0.00299612
0.00283543
0.00267757
0.00251847
0.00235133
0.00215745
0.00193169
0.00167364
0.00146233
0.00308198
0.00327608
0.00340226
0.00350855
0.00361622
0.00372093
0.00381333
0.00389179
0.00395606
0.00399959
0.00402053
0.00388582
0.00299035
0.00336224
0.0035295
0.00363851
0.00374148
0.00383249
0.00390688
0.00395863
0.00398323
0.00398345
0.00394208
0.00378389
0.002505
0.00325118
0.00352298
0.00365332
0.00375973
0.00384348
0.003909
0.00394165
0.00394642
0.00393058
0.00386228
0.00370508
0.00150301
0.00289839
0.00339917
0.00359004
0.00370635
0.00378913
0.00385117
0.00387448
0.00387309
0.0038513
0.00377884
0.00363447
0.00368315
0.00349596
0.00331512
0.00315467
0.00302405
0.00292144
0.00284642
0.00280023
0.00278428
0.00279544
0.00284937
0.00295395
0.00359325
0.00341107
0.00323891
0.00308452
0.00295356
0.00284626
0.00276444
0.00270784
0.00267663
0.0026693
0.00271062
0.00281858
0.00352924
0.00335701
0.00319094
0.00303483
0.00289276
0.00276564
0.00265468
0.00255483
0.00245785
0.00236799
0.0023087
0.00232555
0.00347534
0.00331741
0.0031575
0.00299648
0.00283577
0.00267788
0.00251875
0.00235157
0.00215766
0.00193185
0.00167376
0.00146243
0.0030822
0.00327632
0.00340249
0.00350877
0.00361645
0.00372115
0.00381356
0.00389201
0.00395627
0.0039998
0.00402073
0.00388601
0.00299053
0.00336246
0.00352973
0.00363874
0.00374171
0.00383272
0.0039071
0.00395884
0.00398343
0.00398365
0.00394227
0.00378406
0.00250512
0.00325138
0.0035232
0.00365355
0.00375997
0.00384371
0.00390922
0.00394186
0.00394662
0.00393077
0.00386246
0.00370524
0.00150306
0.00289854
0.00339938
0.00359027
0.00370659
0.00378936
0.00385139
0.00387468
0.00387327
0.00385148
0.00377901
0.00363462
0.00368332
0.00349611
0.00331525
0.00315478
0.00302414
0.00292152
0.00284648
0.00280029
0.00278433
0.00279553
0.00284947
0.00295411
0.0035934
0.0034112
0.00323902
0.00308461
0.00295363
0.00284631
0.00276448
0.00270788
0.00267669
0.00266941
0.00271074
0.00281878
0.00352938
0.00335713
0.00319104
0.0030349
0.00289281
0.00276568
0.00265472
0.00255486
0.0024579
0.0023681
0.00230876
0.00232568
0.00347546
0.00331752
0.00315759
0.00299654
0.00283581
0.0026779
0.00251876
0.00235159
0.00215769
0.0019319
0.00167382
0.00146249
0.00308246
0.00327662
0.00340287
0.00350922
0.00361691
0.00372165
0.00381405
0.00389252
0.0039568
0.00400032
0.00402122
0.00388643
0.00299084
0.00336285
0.00353022
0.00363927
0.00374225
0.00383327
0.00390765
0.00395938
0.00398397
0.00398415
0.00394273
0.00378446
0.0025054
0.0032518
0.00352375
0.00365414
0.00376057
0.0038443
0.0039098
0.00394242
0.00394716
0.00393128
0.0038629
0.00370563
0.00150321
0.00289896
0.00339995
0.00359089
0.00370722
0.00378998
0.00385198
0.00387525
0.00387383
0.00385199
0.00377945
0.00363501
0.00368367
0.0034964
0.0033155
0.00315499
0.00302433
0.0029217
0.00284665
0.00280043
0.00278443
0.00279556
0.00284948
0.00295404
0.00359373
0.00341147
0.00323926
0.00308482
0.00295382
0.00284648
0.00276462
0.00270799
0.00267674
0.0026694
0.00271068
0.00281861
0.00352971
0.0033574
0.00319126
0.00303511
0.00289299
0.00276583
0.00265482
0.00255496
0.00245796
0.00236825
0.0023088
0.00232556
0.00347579
0.00331779
0.00315781
0.00299673
0.00283596
0.00267805
0.00251888
0.00235166
0.00215773
0.00193192
0.00167377
0.00146242
0.00308226
0.00327639
0.00340256
0.00350884
0.00361653
0.00372124
0.00381365
0.00389211
0.00395639
0.00399992
0.00402086
0.00388616
0.00299057
0.00336248
0.00352975
0.00363877
0.00374176
0.00383278
0.00390718
0.00395894
0.00398355
0.00398377
0.00394242
0.00378422
0.00250514
0.00325137
0.0035232
0.00365356
0.00375999
0.00384375
0.00390929
0.00394195
0.00394672
0.00393089
0.00386262
0.00370538
0.00150308
0.00289852
0.00339935
0.00359025
0.00370658
0.00378938
0.00385144
0.00387476
0.00387337
0.00385159
0.00377917
0.00363476
0.00342053
0.00328057
0.00312874
0.00296265
0.00278281
0.00259421
0.00238609
0.00214747
0.00185592
0.00147455
0.000905908
0.000280324
0.00335646
0.0032369
0.00309689
0.00292941
0.00273809
0.00252636
0.00228096
0.00199226
0.00164499
0.00121607
0.000620631
0.00014564
0.0032755
0.00317754
0.00305397
0.00289124
0.0026983
0.00247554
0.00221053
0.00189819
0.00153664
0.00113896
0.000630019
0.000126709
0.00317371
0.00309638
0.00299279
0.00284141
0.00265603
0.00243446
0.00216709
0.00185478
0.00150982
0.00116794
0.000728324
0.000129338
0.0030479
0.00298942
0.00290612
0.00277175
0.00260105
0.00239048
0.00213355
0.00183592
0.00151597
0.00119075
0.000783307
0.000133922
0.00289142
0.00285045
0.00278558
0.00267219
0.00252109
0.00232796
0.00208854
0.0018098
0.00150648
0.00117296
0.000784097
0.000137459
0.00269313
0.00266832
0.00262033
0.0025291
0.00240083
0.00222843
0.0020093
0.00174828
0.00145367
0.00111273
0.00074239
0.000138433
0.00243344
0.00242373
0.00239131
0.00232153
0.00221788
0.00206843
0.00187146
0.00162742
0.00134124
0.00100953
0.00065949
0.000136985
0.00207993
0.00208327
0.00206587
0.00201593
0.00193458
0.00181254
0.00164627
0.00142182
0.00115202
0.000849389
0.000538503
0.000132271
0.00157997
0.00159226
0.00158786
0.00155588
0.0014953
0.00140729
0.00128787
0.00109843
0.000870452
0.000624076
0.000374599
0.000123722
0.00086578
0.000878063
0.000881501
0.000866644
0.00083518
0.00078754
0.000727341
0.000622471
0.000471687
0.000326116
0.000175701
0.000112338
9.38211e-05
9.62661e-05
9.82885e-05
9.90878e-05
9.85383e-05
9.65622e-05
9.31067e-05
8.77843e-05
7.97551e-05
6.8274e-05
5.21565e-05
0.000155357
0.000377935
0.00239178
0.00319789
0.00347062
0.00360149
0.00368885
0.00375187
0.00377449
0.00377131
0.00374992
0.00368526
0.00356119
0.000333207
0.00213461
0.00298437
0.00331196
0.00345794
0.00355274
0.00362128
0.00364864
0.00364939
0.00362976
0.00357601
0.00347613
0.000309677
0.00192671
0.00276474
0.00312168
0.00328414
0.00338775
0.00346349
0.00349929
0.00350953
0.0034948
0.00345088
0.00337151
0.000291239
0.00173522
0.00253831
0.00290842
0.00308534
0.00319752
0.00328002
0.00332618
0.00334703
0.00334157
0.00330901
0.00324849
0.000274596
0.00154771
0.00230365
0.00267632
0.00286363
0.00298259
0.00307052
0.00312726
0.00315792
0.00316413
0.00314594
0.00310337
0.000258171
0.00135484
0.00205722
0.00242568
0.00261796
0.00274055
0.00283222
0.0028976
0.00293818
0.00295638
0.00295311
0.00292921
0.000241754
0.00113985
0.00179401
0.00215388
0.00234356
0.00246496
0.00255786
0.00262956
0.00267938
0.002709
0.00271966
0.00271303
0.000225423
0.000906501
0.00150889
0.00185568
0.00203066
0.00214368
0.00223389
0.00230879
0.00236605
0.00240548
0.00242812
0.00243646
0.000207808
0.00068008
0.00120312
0.0015187
0.00166175
0.00175659
0.001838
0.00191131
0.00197221
0.00201816
0.00204934
0.00206908
0.000186814
0.000475414
0.000874371
0.00111108
0.00119719
0.00126156
0.0013267
0.00139322
0.0014543
0.00150347
0.00153661
0.0015613
0.000164674
0.000287719
0.000493762
0.000586687
0.00061364
0.000644278
0.000681904
0.000726073
0.000771066
0.000809155
0.000832058
0.000850256
0.000261096
4.75031e-05
5.75964e-05
6.46022e-05
6.95066e-05
7.31707e-05
7.63352e-05
7.95547e-05
8.28832e-05
8.59443e-05
8.87131e-05
9.12998e-05
0.00342088
0.00328093
0.00312911
0.00296302
0.00278315
0.00259452
0.00238637
0.00214772
0.00185612
0.00147469
0.000905976
0.000280336
0.00335685
0.00323726
0.00309725
0.00292976
0.00273842
0.00252668
0.00228125
0.00199251
0.0016452
0.00121622
0.000620723
0.000145655
0.00327589
0.0031779
0.00305433
0.00289159
0.00269863
0.00247585
0.00221082
0.00189845
0.00153686
0.00113913
0.000630135
0.000126726
0.00317413
0.00309674
0.00299313
0.00284175
0.00265635
0.00243476
0.00216737
0.00185504
0.00151004
0.00116811
0.000728452
0.000129356
0.00304834
0.00298979
0.00290646
0.00277207
0.00260136
0.00239077
0.00213382
0.00183616
0.00151618
0.00119092
0.000783444
0.00013394
0.00289185
0.00285081
0.00278591
0.0026725
0.00252138
0.00232824
0.0020888
0.00181003
0.00150668
0.00117314
0.000784231
0.000137476
0.00269354
0.00266866
0.00262064
0.00252939
0.0024011
0.00222868
0.00200954
0.0017485
0.00145386
0.00111291
0.000742521
0.00013845
0.0024338
0.00242404
0.00239158
0.00232178
0.00221812
0.00206867
0.00187167
0.00162762
0.00134142
0.00100969
0.000659606
0.000137002
0.00208023
0.00208353
0.0020661
0.00201614
0.00193478
0.00181273
0.00164646
0.001422
0.00115218
0.000849517
0.000538597
0.000132287
0.00158017
0.00159244
0.00158801
0.00155603
0.00149545
0.00140743
0.00128801
0.00109856
0.000870571
0.00062417
0.000374666
0.000123737
0.000865896
0.000878153
0.000881578
0.000866716
0.000835254
0.000787614
0.000727413
0.000622545
0.000471755
0.000326166
0.000175734
0.000112352
9.38297e-05
9.62748e-05
9.82961e-05
9.90948e-05
9.85452e-05
9.65692e-05
9.31137e-05
8.77912e-05
7.9762e-05
6.82803e-05
5.21616e-05
0.000155396
0.000377942
0.00239189
0.00319809
0.00347085
0.00360174
0.00368909
0.00375209
0.0037747
0.00377149
0.00375008
0.00368542
0.00356132
0.000333212
0.0021347
0.00298456
0.0033122
0.00345819
0.00355298
0.00362151
0.00364884
0.00364958
0.00362993
0.00357617
0.00347626
0.000309679
0.0019268
0.00276493
0.00312192
0.0032844
0.003388
0.00346372
0.0034995
0.00350972
0.00349497
0.00345102
0.00337164
0.000291242
0.0017353
0.00253849
0.00290866
0.00308559
0.00319777
0.00328026
0.0033264
0.00334722
0.00334174
0.00330916
0.00324862
0.000274597
0.0015478
0.00230383
0.00267655
0.00286388
0.00298283
0.00307075
0.00312747
0.00315811
0.00316429
0.00314609
0.0031035
0.000258176
0.00135492
0.0020574
0.0024259
0.0026182
0.00274078
0.00283243
0.0028978
0.00293836
0.00295654
0.00295325
0.00292934
0.000241756
0.00113994
0.00179417
0.00215409
0.00234377
0.00246516
0.00255806
0.00262975
0.00267955
0.00270914
0.0027198
0.00271315
0.000225427
0.000906591
0.00150905
0.00185586
0.00203084
0.00214386
0.00223405
0.00230895
0.00236619
0.00240561
0.00242824
0.00243657
0.000207807
0.000680159
0.00120326
0.00151885
0.00166189
0.00175671
0.00183812
0.00191143
0.00197232
0.00201826
0.00204944
0.00206918
0.000186816
0.000475475
0.000874485
0.00111117
0.00119727
0.00126164
0.00132677
0.00139329
0.00145437
0.00150354
0.00153669
0.00156138
0.000164679
0.000287748
0.000493822
0.000586729
0.000613672
0.000644305
0.000681929
0.000726105
0.000771101
0.000809193
0.000832099
0.000850299
0.000261092
4.7503e-05
5.75995e-05
6.46057e-05
6.95097e-05
7.31732e-05
7.63372e-05
7.95568e-05
8.28853e-05
8.59465e-05
8.87158e-05
9.13029e-05
0.003421
0.00328103
0.0031292
0.00296308
0.00278318
0.00259453
0.00238636
0.0021477
0.00185611
0.0014747
0.000905998
0.000280359
0.00335695
0.00323736
0.00309734
0.00292983
0.00273845
0.00252668
0.00228123
0.00199247
0.00164516
0.00121619
0.000620693
0.000145658
0.00327599
0.00317798
0.00305442
0.00289167
0.00269867
0.00247585
0.0022108
0.0018984
0.0015368
0.00113908
0.00063008
0.000126724
0.00317423
0.00309682
0.00299323
0.00284184
0.00265641
0.00243479
0.00216736
0.001855
0.00150998
0.00116806
0.000728403
0.000129353
0.00304844
0.00298987
0.00290657
0.00277217
0.00260143
0.00239082
0.00213383
0.00183614
0.00151615
0.00119089
0.000783405
0.000133938
0.00289196
0.00285091
0.00278602
0.00267261
0.00252146
0.0023283
0.00208883
0.00181004
0.00150667
0.00117312
0.000784201
0.000137475
0.00269365
0.00266876
0.00262075
0.0025295
0.0024012
0.00222876
0.00200959
0.00174853
0.00145387
0.00111289
0.000742497
0.00013845
0.00243391
0.00242414
0.0023917
0.0023219
0.00221823
0.00206875
0.00187174
0.00162766
0.00134144
0.00100968
0.000659588
0.000137002
0.00208032
0.00208362
0.0020662
0.00201624
0.00193489
0.00181282
0.00164653
0.00142204
0.0011522
0.000849523
0.000538582
0.000132288
0.00158024
0.00159252
0.0015881
0.00155612
0.00149554
0.00140751
0.00128807
0.00109861
0.000870598
0.000624179
0.00037466
0.000123737
0.000865939
0.000878199
0.00088163
0.000866775
0.00083531
0.000787668
0.000727455
0.000622584
0.000471773
0.000326173
0.000175732
0.000112353
9.38329e-05