/*--------------------------------*- C++ -*----------------------------------*\
  =========                 |
  \\      /  F ield         | OpenFOAM: The Open Source CFD Toolbox
   \\    /   O peration     | Website:  https://openfoam.org
    \\  /    A nd           | Version:  6
     \\/     M anipulation  |
\*---------------------------------------------------------------------------*/
FoamFile
{
    version     2.0;
    format      ascii;
    class       surfaceScalarField;
    location    "450";
    object      phi;
}
// * * * * * * * * * * * * * * * * * * * * * * * * * * * * * * * * * * * * * //

dimensions      [0 3 -1 0 0 0 0];

internalField   nonuniform List<scalar> 
5952
(
5.24906e-06
-5.25628e-06
8.84005e-06
-3.59132e-06
1.1553e-05
-2.71262e-06
1.30056e-05
-1.45229e-06
1.31236e-05
-1.17453e-07
1.1478e-05
1.64686e-06
7.14276e-06
4.33551e-06
7.921e-07
6.35187e-06
-1.21231e-05
1.29149e-05
-2.65665e-05
1.44434e-05
-3.73315e-05
1.07647e-05
8.406e-06
-4.57378e-05
1.41404e-06
-6.67032e-06
3.64769e-06
-5.82523e-06
3.94273e-06
-3.00721e-06
2.32285e-06
1.68223e-07
-1.67298e-06
3.87931e-06
-9.38988e-06
9.36445e-06
-2.08546e-05
1.58005e-05
-3.27826e-05
1.82801e-05
-3.85112e-05
1.86435e-05
-4.07501e-05
1.66822e-05
-4.31733e-05
1.31878e-05
1.04155e-05
-4.51829e-05
1.29203e-06
-7.96244e-06
1.00262e-06
-5.53582e-06
-1.31084e-06
-6.93388e-07
-6.47043e-06
5.32835e-06
-1.50799e-05
1.24892e-05
-2.43538e-05
1.86387e-05
-2.99852e-05
2.14321e-05
-3.29919e-05
2.12869e-05
-3.41786e-05
1.98301e-05
-3.46318e-05
1.71353e-05
-3.54163e-05
1.39721e-05
1.10767e-05
-3.60776e-05
-1.74638e-06
-6.21605e-06
-4.69836e-06
-2.58366e-06
-9.43337e-06
4.04197e-06
-1.58353e-05
1.17307e-05
-2.18107e-05
1.84649e-05
-2.542e-05
2.22483e-05
-2.68649e-05
2.28772e-05
-2.72619e-05
2.16841e-05
-2.71986e-05
1.97669e-05
-2.71049e-05
1.70415e-05
-2.71841e-05
1.40513e-05
1.11416e-05
-2.7249e-05
-3.66102e-06
-2.55485e-06
-8.51466e-06
2.27022e-06
-1.35316e-05
9.05927e-06
-1.78413e-05
1.60407e-05
-2.03668e-05
2.09908e-05
-2.09655e-05
2.28473e-05
-2.05933e-05
2.25051e-05
-1.99151e-05
2.1006e-05
-1.90618e-05
1.89135e-05
-1.839e-05
1.63697e-05
-1.79575e-05
1.36187e-05
1.0839e-05
-1.7655e-05
-4.83536e-06
2.28066e-06
-9.69559e-06
7.13082e-06
-1.34832e-05
1.28472e-05
-1.55175e-05
1.80754e-05
-1.57031e-05
2.11768e-05
-1.47487e-05
2.18931e-05
-1.33804e-05
2.1137e-05
-1.19776e-05
1.96033e-05
-1.06951e-05
1.7631e-05
-9.66862e-06
1.53432e-05
-8.91714e-06
1.28672e-05
1.02992e-05
-8.3774e-06
-5.1744e-06
7.45557e-06
-9.26921e-06
1.12259e-05
-1.15113e-05
1.50897e-05
-1.16611e-05
1.82256e-05
-1.02729e-05
1.97888e-05
-8.24751e-06
1.9868e-05
-6.13426e-06
1.90238e-05
-4.18324e-06
1.76524e-05
-2.50087e-06
1.59487e-05
-1.14435e-06
1.39867e-05
-1.08743e-07
1.18316e-05
9.53603e-06
6.544e-07
-5.15735e-06
1.26131e-05
-8.16942e-06
1.42382e-05
-8.78513e-06
1.57056e-05
-7.35916e-06
1.67998e-05
-4.78791e-06
1.72177e-05
-1.88347e-06
1.69637e-05
9.1346e-07
1.6227e-05
3.405e-06
1.51609e-05
5.51609e-06
1.38376e-05
7.22658e-06
1.22762e-05
8.56035e-06
1.04978e-05
8.53054e-06
9.56583e-06
-4.57324e-06
1.71866e-05
-6.34179e-06
1.60069e-05
-5.22941e-06
1.45933e-05
-2.40702e-06
1.39775e-05
1.20276e-06
1.3608e-05
4.8998e-06
1.32667e-05
8.31622e-06
1.28106e-05
1.12982e-05
1.21789e-05
1.38003e-05
1.13355e-05
1.58292e-05
1.02473e-05
1.74281e-05
8.89883e-06
7.30542e-06
1.86533e-05
-4.03864e-06
2.12252e-05
-3.05778e-06
1.5026e-05
5.50013e-07
1.09855e-05
4.86281e-06
9.66467e-06
9.35625e-06
9.11451e-06
1.35928e-05
9.0302e-06
1.73463e-05
9.0571e-06
2.05445e-05
8.98064e-06
2.31925e-05
8.6875e-06
2.53296e-05
8.11028e-06
2.70211e-05
7.20734e-06
5.99516e-06
2.83313e-05
5.63935e-07
2.06614e-05
6.08796e-06
9.50201e-06
1.19646e-05
5.10889e-06
1.73061e-05
4.32313e-06
2.19958e-05
4.4248e-06
2.60196e-05
5.00642e-06
2.94163e-05
5.6604e-06
3.22349e-05
6.16207e-06
3.45341e-05
6.38832e-06
3.63753e-05
6.2691e-06
3.78364e-05
5.74623e-06
4.85216e-06
3.89794e-05
2.04022e-05
2.59109e-07
2.86847e-05
1.21948e-06
3.37451e-05
4.84321e-08
3.76067e-05
4.61563e-07
4.05817e-05
1.44981e-06
4.30177e-05
2.57043e-06
4.5056e-05
3.62211e-06
4.67409e-05
4.47718e-06
4.81057e-05
5.02351e-06
4.91848e-05
5.19002e-06
5.0044e-05
4.8871e-06
5.07277e-05
4.16844e-06
-5.16193e-05
5.88124e-06
-5.55595e-05
3.93998e-06
-5.7372e-05
1.8125e-06
-5.7411e-05
3.88341e-08
-5.56451e-05
-1.76587e-06
-5.21699e-05
-3.47522e-06
-4.67194e-05
-5.45047e-06
-3.93292e-05
-7.39014e-06
-2.98e-05
-9.52924e-06
-1.83749e-05
-1.1425e-05
-6.99336e-06
-1.13814e-05
-6.99332e-06
-4.68248e-05
7.52302e-06
-4.76501e-05
4.76511e-06
-4.79564e-05
2.11879e-06
-4.75507e-05
-3.66961e-07
-4.64661e-05
-2.85046e-06
-4.44254e-05
-5.51596e-06
-4.14202e-05
-8.45563e-06
-3.7072e-05
-1.17383e-05
-3.1219e-05
-1.53821e-05
-2.355e-05
-1.9094e-05
-1.31242e-05
-2.18072e-05
-2.01175e-05
-3.66859e-05
8.13124e-06
-3.71597e-05
5.23882e-06
-3.74076e-05
2.36664e-06
-3.72391e-05
-5.35529e-07
-3.64988e-05
-3.59072e-06
-3.51206e-05
-6.89417e-06
-3.29995e-05
-1.05767e-05
-3.0004e-05
-1.47338e-05
-2.60479e-05
-1.93381e-05
-2.06516e-05
-2.44903e-05
-1.27991e-05
-2.96597e-05
-3.29165e-05
-2.73101e-05
8.1922e-06
-2.73074e-05
5.2361e-06
-2.71794e-05
2.23863e-06
-2.68496e-05
-8.65321e-07
-2.62548e-05
-4.18553e-06
-2.53229e-05
-7.82608e-06
-2.39609e-05
-1.19387e-05
-2.20407e-05
-1.6654e-05
-1.93481e-05
-2.20307e-05
-1.53927e-05
-2.84457e-05
-9.41066e-06
-3.56417e-05
-4.23272e-05
-1.74603e-05
7.99749e-06
-1.73213e-05
5.097e-06
-1.71827e-05
2.09998e-06
-1.6988e-05
-1.05999e-06
-1.6693e-05
-4.48051e-06
-1.62468e-05
-8.27227e-06
-1.55903e-05
-1.25952e-05
-1.46589e-05
-1.75854e-05
-1.32492e-05
-2.34404e-05
-1.11406e-05
-3.05543e-05
-7.44527e-06
-3.9337e-05
-4.97725e-05
-8.01429e-06
7.63435e-06
-7.78408e-06
4.86677e-06
-7.64568e-06
1.96156e-06
-7.56435e-06
-1.14134e-06
-7.51594e-06
-4.52893e-06
-7.47782e-06
-8.31038e-06
-7.44436e-06
-1.26286e-05
-7.37542e-06
-1.76543e-05
-7.15591e-06
-2.36599e-05
-6.60206e-06
-3.11081e-05
-4.88095e-06
-4.10581e-05
-5.46534e-05
1.18484e-06
7.10388e-06
1.51922e-06
4.53237e-06
1.68573e-06
1.79504e-06
1.70026e-06
-1.15588e-06
1.56395e-06
-4.39262e-06
1.26486e-06
-8.01129e-06
7.76261e-07
-1.214e-05
8.22231e-08
-1.69603e-05
-7.91897e-07
-2.27858e-05
-1.72493e-06
-3.01751e-05
-2.25199e-06
-4.05311e-05
-5.69054e-05
1.02889e-05
6.38084e-06
1.0763e-05
4.05818e-06
1.10085e-05
1.5496e-06
1.10273e-05
-1.17475e-06
1.08019e-05
-4.16719e-06
1.02909e-05
-7.50024e-06
9.4214e-06
-1.12705e-05
8.10179e-06
-1.56406e-05
6.23904e-06
-2.0923e-05
3.81618e-06
-2.77522e-05
1.21716e-06
-3.79321e-05
-5.56883e-05
1.95609e-05
5.47314e-06
2.0186e-05
3.43307e-06
2.05466e-05
1.18909e-06
2.0636e-05
-1.26418e-06
2.04227e-05
-3.95385e-06
1.98411e-05
-6.91865e-06
1.87691e-05
-1.01985e-05
1.70294e-05
-1.39009e-05
1.43767e-05
-1.82703e-05
1.05555e-05
-2.3931e-05
5.66309e-06
-3.30397e-05
-5.00252e-05
2.93304e-05
4.47408e-06
3.0053e-05
2.71047e-06
3.05194e-05
7.22682e-07
3.07187e-05
-1.46347e-06
3.06082e-05
-3.84332e-06
3.01035e-05
-6.41398e-06
2.90399e-05
-9.13482e-06
2.7162e-05
-1.2023e-05
2.40591e-05
-1.51672e-05
1.92247e-05
-1.90966e-05
1.18453e-05
-2.56603e-05
-3.81799e-05
3.98888e-05
3.56469e-06
4.0589e-05
2.01024e-06
4.11036e-05
2.08093e-07
4.14191e-05
-1.77893e-06
4.14832e-05
-3.90735e-06
4.11979e-05
-6.12865e-06
4.0371e-05
-8.30786e-06
3.87037e-05
-1.03557e-05
3.56473e-05
-1.21108e-05
3.0462e-05
-1.39112e-05
2.06266e-05
-1.58248e-05
-1.75533e-05
5.13428e-05
2.94966e-06
5.18876e-05
1.46541e-06
5.23873e-05
-2.91557e-07
5.28195e-05
-2.21109e-06
5.31171e-05
-4.20491e-06
5.31707e-05
-6.18231e-06
5.27856e-05
-7.92265e-06
5.16907e-05
-9.26079e-06
4.93612e-05
-9.78123e-06
4.486e-05
-9.41007e-06
3.45436e-05
-5.50832e-06
1.69903e-05
5.25161e-06
-5.25191e-06
8.84326e-06
-3.59189e-06
1.15558e-05
-2.71259e-06
1.30081e-05
-1.45212e-06
1.31257e-05
-1.17589e-07
1.14821e-05
1.64483e-06
7.14895e-06
4.33286e-06
8.00829e-07
6.34919e-06
-1.21113e-05
1.29115e-05
-2.65574e-05
1.44461e-05
-3.73262e-05
1.07684e-05
8.40842e-06
-4.57348e-05
1.41753e-06
-6.66964e-06
3.65116e-06
-5.82574e-06
3.94725e-06
-3.00856e-06
2.32896e-06
1.66584e-07
-1.66488e-06
3.8767e-06
-9.37881e-06
9.35927e-06
-2.08433e-05
1.57975e-05
-3.27759e-05
1.8282e-05
-3.85103e-05
1.86458e-05
-4.07505e-05
1.66863e-05
-4.31734e-05
1.31911e-05
1.04179e-05
-4.51831e-05
1.2937e-06
-7.9634e-06
1.00559e-06
-5.53767e-06
-1.30617e-06
-6.96586e-07
-6.4625e-06
5.3233e-06
-1.50695e-05
1.24839e-05
-2.43466e-05
1.86367e-05
-2.99831e-05
2.14341e-05
-3.29917e-05
2.12906e-05
-3.41797e-05
1.98338e-05
-3.46329e-05
1.71395e-05
-3.54174e-05
1.39754e-05
1.10793e-05
-3.60789e-05
-1.74515e-06
-6.21816e-06
-4.69507e-06
-2.5876e-06
-9.42757e-06
4.03627e-06
-1.58287e-05
1.17248e-05
-2.18065e-05
1.84619e-05
-2.54194e-05
2.22498e-05
-2.6866e-05
2.28808e-05
-2.72634e-05
2.16881e-05
-2.72004e-05
1.97707e-05
-2.71063e-05
1.70453e-05
-2.71855e-05
1.40544e-05
1.11441e-05
-2.72503e-05
-3.65948e-06
-2.55849e-06
-8.51156e-06
2.26496e-06
-1.35283e-05
9.05331e-06
-1.78397e-05
1.60365e-05
-2.03677e-05
2.09903e-05
-2.09677e-05
2.285e-05
-2.05954e-05
2.25088e-05
-1.99172e-05
2.10099e-05
-1.90636e-05
1.89171e-05
-1.83915e-05
1.6373e-05
-1.79586e-05
1.36215e-05
1.08413e-05
-1.76559e-05
-4.83392e-06
2.27656e-06
-9.6947e-06
7.12602e-06
-1.34836e-05
1.28427e-05
-1.55194e-05
1.80729e-05
-1.57061e-05
2.11772e-05
-1.47515e-05
2.18958e-05
-1.33829e-05
2.11402e-05
-1.19794e-05
1.96067e-05
-1.06965e-05
1.76341e-05
-9.66955e-06
1.53461e-05
-8.91781e-06
1.28697e-05
1.03013e-05
-8.37784e-06
-5.17484e-06
7.45176e-06
-9.27043e-06
1.12222e-05
-1.15139e-05
1.50865e-05
-1.16646e-05
1.8224e-05
-1.02763e-05
1.97893e-05
-8.25028e-06
1.987e-05
-6.13624e-06
1.90264e-05
-4.1846e-06
1.76551e-05
-2.5017e-06
1.59513e-05
-1.14478e-06
1.39891e-05
-1.08877e-07
1.18338e-05
9.53792e-06
6.54437e-07
-5.15841e-06
1.26106e-05
-8.17179e-06
1.42356e-05
-8.78847e-06
1.57034e-05
-7.36283e-06
1.67986e-05
-4.79117e-06
1.72178e-05
-1.88593e-06
1.69649e-05
9.11823e-07
1.62288e-05
3.40406e-06
1.51629e-05
5.51569e-06
1.38397e-05
7.22658e-06
1.22782e-05
8.56062e-06
1.04997e-05
8.53225e-06
9.56626e-06
-4.57481e-06
1.71855e-05
-6.34424e-06
1.60052e-05
-5.23252e-06
1.45917e-05
-2.4103e-06
1.39764e-05
1.19986e-06
1.36077e-05
4.89763e-06
1.32672e-05
8.31484e-06
1.28116e-05
1.12975e-05
1.21802e-05
1.38002e-05
1.1337e-05
1.58294e-05
1.0249e-05
1.74286e-05
8.90048e-06
7.30696e-06
1.86539e-05
-4.03941e-06
2.12251e-05
-3.05919e-06
1.5025e-05
5.4795e-07
1.09846e-05
4.86045e-06
9.66394e-06
9.35408e-06
9.1141e-06
1.35911e-05
9.0302e-06
1.73452e-05
9.05751e-06
2.0544e-05
8.98141e-06
2.31925e-05
8.68857e-06
2.53299e-05
8.11157e-06
2.70216e-05
7.20873e-06
5.99654e-06
2.8332e-05
5.64046e-07
2.06612e-05
6.0875e-06
9.50161e-06
1.19635e-05
5.10856e-06
1.73047e-05
4.32272e-06
2.19945e-05
4.4244e-06
2.60185e-05
5.0062e-06
2.94155e-05
5.66047e-06
3.22345e-05
6.16247e-06
3.4534e-05
6.38905e-06
3.63755e-05
6.27011e-06
3.78368e-05
5.74741e-06
4.85341e-06
3.89799e-05
2.04022e-05
2.59057e-07
2.86844e-05
1.21943e-06
3.37445e-05
4.85306e-08
3.76058e-05
4.61438e-07
4.05807e-05
1.44951e-06
4.30168e-05
2.57011e-06
4.50553e-05
3.62199e-06
4.67404e-05
4.47735e-06
4.81055e-05
5.02402e-06
4.91848e-05
5.19084e-06
5.00441e-05
4.88813e-06
5.07279e-05
4.16955e-06
-5.16181e-05
5.88301e-06
-5.55596e-05
3.94136e-06
-5.73731e-05
1.81333e-06
-5.74126e-05
3.94491e-08
-5.56471e-05
-1.76559e-06
-5.21721e-05
-3.4751e-06
-4.67216e-05
-5.45049e-06
-3.93313e-05
-7.3903e-06
-2.98019e-05
-9.52952e-06
-1.83764e-05
-1.14254e-05
-6.99443e-06
-1.13821e-05
-6.99446e-06
-4.68256e-05
7.52536e-06
-4.76512e-05
4.76675e-06
-4.79579e-05
2.11993e-06
-4.75523e-05
-3.66237e-07
-4.64678e-05
-2.85011e-06
-4.44271e-05
-5.51588e-06
-4.14218e-05
-8.45579e-06
-3.70735e-05
-1.17387e-05
-3.12203e-05
-1.53827e-05
-2.35509e-05
-1.90948e-05
-1.31249e-05
-2.18082e-05
-2.01193e-05
-3.66871e-05
8.13344e-06
-3.71609e-05
5.24047e-06
-3.74088e-05
2.3678e-06
-3.72403e-05
-5.34811e-07
-3.65001e-05
-3.5904e-06
-3.51219e-05
-6.89418e-06
-3.30007e-05
-1.0577e-05
-3.0005e-05
-1.47344e-05
-2.60487e-05
-1.9339e-05
-2.06521e-05
-2.44915e-05
-1.27991e-05
-2.96612e-05
-3.29185e-05
-2.73112e-05
8.19424e-06
-2.73085e-05
5.23764e-06
-2.71804e-05
2.23968e-06
-2.68506e-05
-8.64689e-07
-2.62558e-05
-4.18529e-06
-2.53238e-05
-7.82618e-06
-2.39617e-05
-1.19391e-05
-2.20415e-05
-1.66547e-05
-1.93488e-05
-2.20317e-05
-1.53932e-05
-2.8447e-05
-9.41099e-06
-3.56434e-05
-4.23295e-05
-1.74611e-05
7.99936e-06
-1.7322e-05
5.0984e-06
-1.71833e-05
2.10095e-06
-1.69886e-05
-1.05943e-06
-1.66936e-05
-4.48032e-06
-1.62474e-05
-8.27242e-06
-1.55908e-05
-1.25957e-05
-1.46593e-05
-1.75862e-05
-1.32495e-05
-2.34416e-05
-1.11408e-05
-3.05557e-05
-7.44542e-06
-3.93389e-05
-4.97749e-05
-8.01461e-06
7.63604e-06
-7.78431e-06
4.86807e-06
-7.64589e-06
1.96246e-06
-7.56454e-06
-1.14081e-06
-7.51615e-06
-4.52876e-06
-7.47803e-06
-8.31056e-06
-7.4446e-06
-1.26291e-05
-7.37564e-06
-1.76552e-05
-7.15611e-06
-2.36611e-05
-6.60227e-06
-3.11097e-05
-4.8811e-06
-4.10601e-05
-5.46561e-05
1.18499e-06
7.10545e-06
1.51941e-06
4.5336e-06
1.68593e-06
1.79591e-06
1.70044e-06
-1.15536e-06
1.56409e-06
-4.39244e-06
1.26496e-06
-8.01146e-06
7.76307e-07
-1.21405e-05
8.2241e-08
-1.69611e-05
-7.91921e-07
-2.2787e-05
-1.72495e-06
-3.01767e-05
-2.25205e-06
-4.05332e-05
-5.69082e-05
1.02894e-05
6.38231e-06
1.07636e-05
4.05936e-06
1.1009e-05
1.55047e-06
1.10278e-05
-1.17421e-06
1.08023e-05
-4.16698e-06
1.02912e-05
-7.50036e-06
9.42169e-06
-1.1271e-05
8.10201e-06
-1.56415e-05
6.23922e-06
-2.09242e-05
3.81627e-06
-2.77538e-05
1.21719e-06
-3.79341e-05
-5.5691e-05
1.95617e-05
5.47451e-06
2.01868e-05
3.43421e-06
2.05473e-05
1.18995e-06
2.06367e-05
-1.26361e-06
2.04233e-05
-3.9536e-06
1.98417e-05
-6.91873e-06
1.87696e-05
-1.01989e-05
1.70298e-05
-1.39017e-05
1.4377e-05
-1.82714e-05
1.05557e-05
-2.39325e-05
5.66323e-06
-3.30416e-05
-5.00278e-05
2.93312e-05
4.47536e-06
3.00538e-05
2.71157e-06
3.05202e-05
7.2354e-07
3.07195e-05
-1.46288e-06
3.06089e-05
-3.84304e-06
3.01042e-05
-6.41402e-06
2.90405e-05
-9.1352e-06
2.71626e-05
-1.20238e-05
2.40596e-05
-1.51683e-05
1.92251e-05
-1.9098e-05
1.18456e-05
-2.5662e-05
-3.81822e-05
3.98894e-05
3.56587e-06
4.05897e-05
2.01129e-06
4.11043e-05
2.0892e-07
4.14198e-05
-1.77836e-06
4.14839e-05
-3.90708e-06
4.11986e-05
-6.1287e-06
4.03717e-05
-8.30825e-06
3.87044e-05
-1.03564e-05
3.5648e-05
-1.21119e-05
3.04626e-05
-1.39126e-05
2.0627e-05
-1.58264e-05
-1.75551e-05
5.13431e-05
2.95076e-06
5.1888e-05
1.46639e-06
5.23878e-05
-2.9079e-07
5.282e-05
-2.21059e-06
5.31177e-05
-4.20471e-06
5.31715e-05
-6.18244e-06
5.27864e-05
-7.92313e-06
5.16916e-05
-9.26161e-06
4.93621e-05
-9.78236e-06
4.48609e-05
-9.4114e-06
3.45443e-05
-5.50972e-06
1.69893e-05
5.24991e-06
-5.24985e-06
8.84072e-06
-3.59074e-06
1.15524e-05
-2.71136e-06
1.30046e-05
-1.45149e-06
1.31222e-05
-1.17107e-07
1.14772e-05
1.64697e-06
7.14189e-06
4.3357e-06
7.91912e-07
6.3517e-06
-1.21228e-05
1.29143e-05
-2.65654e-05
1.44427e-05
-3.73302e-05
1.07643e-05
8.40573e-06
-4.57363e-05
1.41598e-06
-6.66585e-06
3.64765e-06
-5.82249e-06
3.94217e-06
-3.00546e-06
2.32251e-06
1.69058e-07
-1.673e-06
3.87939e-06
-9.38929e-06
9.3641e-06
-2.08532e-05
1.58e-05
-3.27806e-05
1.82792e-05
-3.8509e-05
1.86427e-05
-4.0748e-05
1.66815e-05
-4.31713e-05
1.31873e-05
1.04152e-05
-4.5181e-05
1.29313e-06
-7.95912e-06
1.00364e-06
-5.53301e-06
-1.30979e-06
-6.91701e-07
-6.46927e-06
5.32912e-06
-1.50787e-05
1.24893e-05
-2.43523e-05
1.86381e-05
-2.99832e-05
2.1431e-05
-3.29897e-05
2.1286e-05
-3.41764e-05
1.98293e-05
-3.46298e-05
1.71347e-05
-3.54143e-05
1.39717e-05
1.10764e-05
-3.60757e-05
-1.74554e-06
-6.21364e-06
-4.69716e-06
-2.58125e-06
-9.43211e-06
4.04359e-06
-1.58339e-05
1.17313e-05
-2.1809e-05
1.84647e-05
-2.54179e-05
2.22473e-05
-2.68627e-05
2.28761e-05
-2.72598e-05
2.16832e-05
-2.71966e-05
1.97661e-05
-2.71029e-05
1.70409e-05
-2.71822e-05
1.40509e-05
1.11413e-05
-2.72472e-05
-3.66027e-06
-2.55324e-06
-8.51369e-06
2.27243e-06
-1.35304e-05
9.06071e-06
-1.78398e-05
1.60411e-05
-2.0365e-05
2.09902e-05
-2.09636e-05
2.28463e-05
-2.05915e-05
2.25041e-05
-1.99134e-05
2.10052e-05
-1.90601e-05
1.89128e-05
-1.83884e-05
1.63692e-05
-1.79559e-05
1.36184e-05
1.08388e-05
-1.76535e-05
-4.83508e-06
2.28217e-06
-9.69493e-06
7.13268e-06
-1.34822e-05
1.28485e-05
-1.55162e-05
1.80756e-05
-1.57017e-05
2.11762e-05
-1.47474e-05
2.18923e-05
-1.33791e-05
2.11361e-05
-1.19763e-05
1.96025e-05
-1.06938e-05
1.76304e-05
-9.66732e-06
1.53427e-05
-8.91586e-06
1.28669e-05
1.0299e-05
-8.37615e-06
-5.17417e-06
7.45698e-06
-9.26865e-06
1.12276e-05
-1.15105e-05
1.50907e-05
-1.16602e-05
1.82258e-05
-1.02719e-05
1.97883e-05
-8.24661e-06
1.98672e-05
-6.13338e-06
1.9023e-05
-4.18233e-06
1.76516e-05
-2.49994e-06
1.5948e-05
-1.14337e-06
1.39862e-05
-1.07742e-07
1.18312e-05
9.53586e-06
6.55421e-07
-5.1572e-06
1.26144e-05
-8.16891e-06
1.42396e-05
-8.78441e-06
1.57065e-05
-7.35845e-06
1.68e-05
-4.7873e-06
1.72173e-05
-1.88292e-06
1.6963e-05
9.14028e-07
1.62261e-05
3.40562e-06
1.516e-05
5.51679e-06
1.38369e-05
7.22736e-06
1.22756e-05
8.5612e-06
1.04974e-05
8.53034e-06
9.56672e-06
-4.57299e-06
1.71878e-05
-6.34114e-06
1.60079e-05
-5.22862e-06
1.4594e-05
-2.40628e-06
1.39777e-05
1.20339e-06
1.36076e-05
4.90039e-06
1.3266e-05
8.31684e-06
1.28097e-05
1.12989e-05
1.2178e-05
1.38011e-05
1.13347e-05
1.583e-05
1.02467e-05
1.7429e-05
8.8984e-06
7.3052e-06
1.86542e-05
-4.038e-06
2.12258e-05
-3.05684e-06
1.50267e-05
5.51139e-07
1.0986e-05
4.86396e-06
9.66483e-06
9.35737e-06
9.11415e-06
1.35939e-05
9.02942e-06
1.73474e-05
9.05613e-06
2.05456e-05
8.97966e-06
2.31937e-05
8.68664e-06
2.53307e-05
8.10964e-06
2.70222e-05
7.20693e-06
5.99497e-06
2.83324e-05
5.64589e-07
2.06613e-05
6.08924e-06
9.50205e-06
1.19662e-05
5.10909e-06
1.73079e-05
4.32307e-06
2.19976e-05
4.42432e-06
2.60214e-05
5.00559e-06
2.94181e-05
5.65942e-06
3.22366e-05
6.16111e-06
3.45357e-05
6.38753e-06
3.63768e-05
6.26856e-06
3.78378e-05
5.74595e-06
4.85212e-06
3.89807e-05
2.04033e-05
2.57895e-07
2.86864e-05
1.21891e-06
3.37471e-05
4.82928e-08
3.76089e-05
4.61241e-07
4.0584e-05
1.44915e-06
4.30201e-05
2.56951e-06
4.50584e-05
3.62113e-06
4.67432e-05
4.47631e-06
4.81078e-05
5.02288e-06
4.91867e-05
5.1897e-06
5.00457e-05
4.88706e-06
5.07292e-05
4.16865e-06
-5.16178e-05
5.88112e-06
-5.5558e-05
3.93991e-06
-5.73707e-05
1.81252e-06
-5.74098e-05
3.88518e-08
-5.56441e-05
-1.76582e-06
-5.2169e-05
-3.47515e-06
-4.67188e-05
-5.45035e-06
-3.93288e-05
-7.39e-06
-2.97998e-05
-9.52908e-06
-1.8375e-05
-1.14249e-05
-6.99369e-06
-1.13814e-05
-6.99373e-06
-4.6823e-05
7.52286e-06
-4.76483e-05
4.76507e-06
-4.79548e-05
2.11883e-06
-4.75493e-05
-3.66881e-07
-4.64648e-05
-2.85034e-06
-4.44243e-05
-5.51578e-06
-4.14193e-05
-8.45542e-06
-3.70713e-05
-1.1738e-05
-3.12186e-05
-1.53818e-05
-2.35497e-05
-1.90937e-05
-1.31242e-05
-2.1807e-05
-2.0118e-05
-3.66842e-05
8.13111e-06
-3.71581e-05
5.23879e-06
-3.7406e-05
2.36669e-06
-3.72377e-05
-5.3539e-07
-3.64976e-05
-3.5905e-06
-3.51196e-05
-6.89387e-06
-3.29987e-05
-1.05764e-05
-3.00033e-05
-1.47334e-05
-2.60474e-05
-1.93378e-05
-2.06512e-05
-2.449e-05
-1.27987e-05
-2.96595e-05
-3.29167e-05
-2.73084e-05
8.19211e-06
-2.73058e-05
5.23613e-06
-2.7178e-05
2.23877e-06
-2.68484e-05
-8.65078e-07
-2.62537e-05
-4.1852e-06
-2.5322e-05
-7.82568e-06
-2.39601e-05
-1.19382e-05
-2.20401e-05
-1.66535e-05
-1.93477e-05
-2.20302e-05
-1.53924e-05
-2.84453e-05
-9.41057e-06
-3.56414e-05
-4.23273e-05
-1.74589e-05
7.99745e-06
-1.73199e-05
5.0971e-06
-1.71814e-05
2.10019e-06
-1.69869e-05
-1.05968e-06
-1.6692e-05
-4.48011e-06
-1.62459e-05
-8.27178e-06
-1.55896e-05
-1.25946e-05
-1.46583e-05
-1.75848e-05
-1.32487e-05
-2.34398e-05
-1.11403e-05
-3.05537e-05
-7.44513e-06
-3.93366e-05
-4.97724e-05
-8.01308e-06
7.63434e-06
-7.78293e-06
4.86689e-06
-7.64459e-06
1.96181e-06
-7.56332e-06
-1.14099e-06
-7.51499e-06
-4.52847e-06
-7.47697e-06
-8.30984e-06
-7.44362e-06
-1.2628e-05
-7.37481e-06
-1.76536e-05
-7.15546e-06
-2.36592e-05
-6.60179e-06
-3.11075e-05
-4.88084e-06
-4.10576e-05
-5.46533e-05
1.18586e-06
7.10387e-06
1.52022e-06
4.5325e-06
1.6867e-06
1.79528e-06
1.7012e-06
-1.15552e-06
1.56484e-06
-4.39215e-06
1.26569e-06
-8.01072e-06
7.77e-07
-1.21393e-05
8.2846e-08
-1.69595e-05
-7.9142e-07
-2.2785e-05
-1.72463e-06
-3.01743e-05
-2.25184e-06
-4.05305e-05
-5.69052e-05
1.02898e-05
6.3808e-06
1.0764e-05
4.05829e-06
1.10094e-05
1.54984e-06
1.10282e-05
-1.17439e-06
1.08028e-05
-4.16672e-06
1.02917e-05
-7.49965e-06
9.42214e-06
-1.12698e-05
8.10244e-06
-1.56398e-05
6.23955e-06
-2.09221e-05
3.81651e-06
-2.77513e-05
1.21732e-06
-3.79313e-05
-5.56879e-05
1.95619e-05
5.47309e-06
2.0187e-05
3.43318e-06
2.05475e-05
1.18934e-06
2.06369e-05
-1.26381e-06
2.04235e-05
-3.95337e-06
1.98419e-05
-6.91805e-06
1.87699e-05
-1.01978e-05
1.70301e-05
-1.39e-05
1.43772e-05
-1.82692e-05
1.05559e-05
-2.39299e-05
5.66329e-06
-3.30388e-05
-5.00246e-05
2.93314e-05
4.47408e-06
3.0054e-05
2.71063e-06
3.05203e-05
7.22982e-07
3.07195e-05
-1.46305e-06
3.0609e-05
-3.8428e-06
3.01043e-05
-6.41336e-06
2.90406e-05
-9.13406e-06
2.71627e-05
-1.20221e-05
2.40597e-05
-1.51661e-05
1.92252e-05
-1.90954e-05
1.18455e-05
-2.56591e-05
-3.81791e-05
3.989e-05
3.56483e-06
4.05901e-05
2.01053e-06
4.11046e-05
2.08494e-07
4.14199e-05
-1.77843e-06
4.14839e-05
-3.90678e-06
4.11986e-05
-6.128e-06
4.03717e-05
-8.30708e-06
3.87043e-05
-1.03547e-05
3.56479e-05
-1.21097e-05
3.04625e-05
-1.391e-05
2.06269e-05
-1.58235e-05
-1.75521e-05
5.1344e-05
2.95002e-06
5.18886e-05
1.46588e-06
5.23881e-05
-2.91014e-07
5.28202e-05
-2.2105e-06
5.31177e-05
-4.20427e-06
5.31714e-05
-6.18161e-06
5.27862e-05
-7.92185e-06
5.16913e-05
-9.2598e-06
4.93617e-05
-9.78006e-06
4.48605e-05
-9.40879e-06
3.4544e-05
-5.50685e-06
1.69919e-05
5.25157e-06
-5.25184e-06
8.84311e-06
-3.59177e-06
1.15556e-05
-2.71247e-06
1.30078e-05
-1.45198e-06
1.31251e-05
-1.17341e-07
1.14804e-05
1.6459e-06
7.14608e-06
4.33412e-06
7.9626e-07
6.35092e-06
-1.21181e-05
1.29138e-05
-2.65633e-05
1.44453e-05
-3.73304e-05
1.07667e-05
8.40738e-06
-4.57381e-05
1.41733e-06
-6.66934e-06
3.65057e-06
-5.8252e-06
3.94612e-06
-3.00788e-06
2.32709e-06
1.675e-07
-1.66805e-06
3.87827e-06
-9.38378e-06
9.36215e-06
-2.08489e-05
1.57994e-05
-3.27797e-05
1.82819e-05
-3.85114e-05
1.86454e-05
-4.07511e-05
1.66848e-05
-4.31743e-05
1.31898e-05
1.0417e-05
-4.51841e-05
1.29327e-06
-7.96265e-06
1.00455e-06
-5.53651e-06
-1.30807e-06
-6.95025e-07
-6.46585e-06
5.32569e-06
-1.50739e-05
1.24866e-05
-2.43497e-05
1.86382e-05
-2.99844e-05
2.14343e-05
-3.29923e-05
2.12898e-05
-3.41798e-05
1.98328e-05
-3.46331e-05
1.71381e-05
-3.54176e-05
1.39742e-05
1.10783e-05
-3.60791e-05
-1.74561e-06
-6.21693e-06
-4.69626e-06
-2.5857e-06
-9.4296e-06
4.03868e-06
-1.58309e-05
1.17274e-05
-2.18079e-05
1.84638e-05
-2.54198e-05
2.22503e-05
-2.68658e-05
2.28804e-05
-2.72632e-05
2.16873e-05
-2.72001e-05
1.97697e-05
-2.71062e-05
1.70441e-05
-2.71854e-05
1.40533e-05
1.11432e-05
-2.72504e-05
-3.6598e-06
-2.55692e-06
-8.51222e-06
2.26721e-06
-1.3529e-05
9.05578e-06
-1.784e-05
1.60387e-05
-2.03673e-05
2.09915e-05
-2.0967e-05
2.28502e-05
-2.05947e-05
2.25084e-05
-1.99166e-05
2.10091e-05
-1.90631e-05
1.89162e-05
-1.83912e-05
1.6372e-05
-1.79585e-05
1.36206e-05
1.08404e-05
-1.76559e-05
-4.83413e-06
2.27833e-06
-9.69467e-06
7.12804e-06
-1.34832e-05
1.28448e-05
-1.55187e-05
1.80747e-05
-1.57051e-05
2.11782e-05
-1.47505e-05
2.1896e-05
-1.3382e-05
2.114e-05
-1.19787e-05
1.96061e-05
-1.0696e-05
1.76335e-05
-9.66921e-06
1.53453e-05
-8.91761e-06
1.28689e-05
1.03005e-05
-8.37772e-06
-5.1746e-06
7.4533e-06
-9.26993e-06
1.12239e-05
-1.1513e-05
1.50882e-05
-1.16635e-05
1.82255e-05
-1.0275e-05
1.97902e-05
-8.24914e-06
1.98704e-05
-6.13529e-06
1.90264e-05
-4.18386e-06
1.76547e-05
-2.50113e-06
1.59508e-05
-1.14437e-06
1.39885e-05
-1.08579e-07
1.18331e-05
9.53725e-06
6.54658e-07
-5.15807e-06
1.26118e-05
-8.17111e-06
1.4237e-05
-8.78746e-06
1.57048e-05
-7.36158e-06
1.67998e-05
-4.78987e-06
1.72187e-05
-1.88474e-06
1.69654e-05
9.12837e-07
1.62289e-05
3.40488e-06
1.51628e-05
5.51636e-06
1.38394e-05
7.22711e-06
1.22778e-05
8.56106e-06
1.04992e-05
8.53166e-06
9.56664e-06
-4.57451e-06
1.71863e-05
-6.3436e-06
1.60063e-05
-5.23153e-06
1.45927e-05
-2.40905e-06
1.39774e-05
1.20118e-06
1.36085e-05
4.89887e-06
1.32678e-05
8.31593e-06
1.28119e-05
1.12985e-05
1.21803e-05
1.3801e-05
1.13369e-05
1.58301e-05
1.02486e-05
1.74293e-05
8.90001e-06
7.30642e-06
1.86545e-05
-4.0393e-06
2.12259e-05
-3.05878e-06
1.50258e-05
5.48752e-07
1.09853e-05
4.86153e-06
9.66464e-06
9.35528e-06
9.11478e-06
1.35923e-05
9.03077e-06
1.73463e-05
9.05789e-06
2.0545e-05
8.98156e-06
2.31934e-05
8.68849e-06
2.53307e-05
8.1113e-06
2.70224e-05
7.20832e-06
5.99603e-06
2.83328e-05
5.64029e-07
2.06619e-05
6.08782e-06
9.50206e-06
1.19641e-05
5.10894e-06
1.73056e-05
4.32321e-06
2.19954e-05
4.42499e-06
2.60194e-05
5.00677e-06
2.94164e-05
5.6609e-06
3.22353e-05
6.16268e-06
3.45348e-05
6.38902e-06
3.63763e-05
6.26987e-06
3.78376e-05
5.74701e-06
4.8529e-06
3.89807e-05
2.04024e-05
2.59657e-07
2.86847e-05
1.21977e-06
3.37449e-05
4.88503e-08
3.76062e-05
4.61901e-07
4.05811e-05
1.45007e-06
4.30172e-05
2.57067e-06
4.50557e-05
3.62241e-06
4.67409e-05
4.47755e-06
4.8106e-05
5.02398e-06
4.91853e-05
5.19056e-06
5.00447e-05
4.88769e-06
5.07286e-05
4.169e-06
-5.16205e-05
5.88219e-06
-5.55614e-05
3.94069e-06
-5.73744e-05
1.81288e-06
-5.74135e-05
3.90532e-08
-5.56477e-05
-1.76585e-06
-5.21725e-05
-3.47531e-06
-4.67219e-05
-5.45063e-06
-3.93315e-05
-7.39037e-06
-2.9802e-05
-9.52954e-06
-1.83766e-05
-1.14254e-05
-6.99464e-06
-1.13821e-05
-6.99466e-06
-4.68264e-05
7.52431e-06
-4.76518e-05
4.76597e-06
-4.79583e-05
2.11931e-06
-4.75526e-05
-3.66728e-07
-4.64681e-05
-2.85048e-06
-4.44272e-05
-5.51617e-06
-4.14219e-05
-8.456e-06
-3.70735e-05
-1.17388e-05
-3.12203e-05
-1.53828e-05
-2.35509e-05
-1.90948e-05
-1.31248e-05
-2.18082e-05
-2.01195e-05
-3.66874e-05
8.13251e-06
-3.71612e-05
5.23968e-06
-3.74091e-05
2.36713e-06
-3.72406e-05
-5.3536e-07
-3.65003e-05
-3.59084e-06
-3.51219e-05
-6.89452e-06
-3.30007e-05
-1.05773e-05
-3.0005e-05
-1.47346e-05
-2.60487e-05
-1.93391e-05
-2.0652e-05
-2.44915e-05
-1.2799e-05
-2.96611e-05
-3.29185e-05
-2.73113e-05
8.19338e-06
-2.73086e-05
5.23689e-06
-2.71806e-05
2.23904e-06
-2.68508e-05
-8.65236e-07
-2.62559e-05
-4.18575e-06
-2.53239e-05
-7.82657e-06
-2.39617e-05
-1.19394e-05
-2.20414e-05
-1.66549e-05
-1.93487e-05
-2.20318e-05
-1.53932e-05
-2.8447e-05
-9.41095e-06
-3.56434e-05
-4.23295e-05
-1.74611e-05
7.99858e-06
-1.7322e-05
5.09769e-06
-1.71833e-05
2.10033e-06
-1.69887e-05
-1.05999e-06
-1.66936e-05
-4.48081e-06
-1.62474e-05
-8.27285e-06
-1.55908e-05
-1.2596e-05
-1.46593e-05
-1.75865e-05
-1.32494e-05
-2.34417e-05
-1.11407e-05
-3.05558e-05
-7.44527e-06
-3.93388e-05
-4.97748e-05
-8.01456e-06
7.63532e-06
-7.78428e-06
4.8674e-06
-7.64587e-06
1.96184e-06
-7.56449e-06
-1.14138e-06
-7.51608e-06
-4.52928e-06
-7.47792e-06
-8.31101e-06
-7.44445e-06
-1.26295e-05
-7.37546e-06
-1.76554e-05
-7.15593e-06
-2.36613e-05
-6.60207e-06
-3.11097e-05
-4.88096e-06
-4.106e-05
-5.46558e-05
1.18517e-06
7.10479e-06
1.51957e-06
4.53295e-06
1.68609e-06
1.79529e-06
1.70062e-06
-1.15594e-06
1.5643e-06
-4.39298e-06
1.2652e-06
-8.01193e-06
7.76584e-07
-1.21409e-05
8.25328e-08
-1.69614e-05
-7.91624e-07
-2.27871e-05
-1.72469e-06
-3.01766e-05
-2.25182e-06
-4.05329e-05
-5.69076e-05
1.02897e-05
6.38169e-06
1.07639e-05
4.05874e-06
1.10093e-05
1.54985e-06
1.10282e-05
-1.1748e-06
1.08027e-05
-4.16753e-06
1.02916e-05
-7.50085e-06
9.42211e-06
-1.12714e-05
8.10242e-06
-1.56417e-05
6.2396e-06
-2.09243e-05
3.81661e-06
-2.77537e-05
1.21743e-06
-3.79337e-05
-5.56902e-05
1.95622e-05
5.47392e-06
2.01873e-05
3.4336e-06
2.05478e-05
1.18935e-06
2.06372e-05
-1.2642e-06
2.04238e-05
-3.95415e-06
1.98422e-05
-6.91921e-06
1.87702e-05
-1.01993e-05
1.70304e-05
-1.39019e-05
1.43775e-05
-1.82714e-05
1.05561e-05
-2.39323e-05
5.66352e-06
-3.30411e-05
-5.00267e-05
2.93319e-05
4.4748e-06
3.00545e-05
2.71099e-06
3.05209e-05
7.2295e-07
3.07202e-05
-1.46346e-06
3.06096e-05
-3.84358e-06
3.01049e-05
-6.41448e-06
2.90412e-05
-9.13554e-06
2.71633e-05
-1.20239e-05
2.40601e-05
-1.51682e-05
1.92255e-05
-1.90977e-05
1.18458e-05
-2.56613e-05
-3.81808e-05
3.98902e-05
3.56532e-06
4.05905e-05
2.01071e-06
4.11051e-05
2.0833e-07
4.14206e-05
-1.77893e-06
4.14847e-05
-3.90761e-06
4.11994e-05
-6.12913e-06
4.03724e-05
-8.30852e-06
3.8705e-05
-1.03565e-05
3.56485e-05
-1.21117e-05
3.0463e-05
-1.39121e-05
2.06272e-05
-1.58254e-05
-1.75535e-05
5.13438e-05
2.95016e-06
5.18888e-05
1.46576e-06
5.23886e-05
-2.91413e-07
5.28209e-05
-2.21118e-06
5.31185e-05
-4.20522e-06
5.31722e-05
-6.18281e-06
5.27871e-05
-7.92329e-06
5.16921e-05
-9.2615e-06
4.93624e-05
-9.78194e-06
4.48611e-05
-9.41068e-06
3.45442e-05
-5.5086e-06
1.69908e-05
6.55711e-05
3.99325e-06
-6.93052e-05
6.49248e-05
1.86577e-06
6.36018e-05
1.37135e-06
6.28658e-05
1.19756e-06
6.26286e-05
1.68702e-06
6.26837e-05
2.51543e-06
6.28602e-05
3.44568e-06
6.30397e-05
4.29769e-06
6.31613e-05
4.90196e-06
6.32097e-05
5.14165e-06
6.32364e-05
4.86046e-06
4.12779e-06
6.3277e-05
8.4114e-05
3.09637e-06
-8.32172e-05
8.37983e-05
2.18146e-06
8.31403e-05
2.02929e-06
8.22829e-05
2.05491e-06
8.14357e-05
2.53426e-06
8.06175e-05
3.33363e-06
7.98001e-05
4.26314e-06
7.89567e-05
5.14116e-06
7.80889e-05
5.76982e-06
7.72349e-05
5.99564e-06
7.64976e-05
5.59781e-06
4.65846e-06
7.5967e-05
9.70543e-05
2.08924e-06
-9.60472e-05
9.73741e-05
1.86169e-06
9.73225e-05
2.08084e-06
9.69023e-05
2.47506e-06
9.6199e-05
3.23759e-06
9.52534e-05
4.27928e-06
9.40954e-05
5.42117e-06
9.27725e-05
6.4641e-06
9.13658e-05
7.17654e-06
9.00062e-05
7.35536e-06
8.88785e-05
6.72555e-06
5.33008e-06
8.82069e-05
0.000108815
-0.000108207
1.48102e-06
0.00010908
1.59661e-06
0.000109015
2.14516e-06
0.000108579
2.91101e-06
0.000107783
4.03417e-06
0.000106665
5.39747e-06
0.000105288
6.79758e-06
0.000103759
7.99296e-06
0.000102233
8.70287e-06
0.000100936
8.65224e-06
0.000100133
7.52838e-06
0.000100266
5.19761e-06
6.34938e-05
2.7329e-06
6.38401e-05
1.11921e-06
6.43378e-05
-7.89224e-07
6.49362e-05
-2.80948e-06
6.55375e-05
-4.8062e-06
6.60063e-05
-6.65108e-06
6.61622e-05
-8.07852e-06
6.58011e-05
-8.89963e-06
6.47004e-05
-8.68057e-06
6.26079e-05