/*--------------------------------*- C++ -*----------------------------------*\
  =========                 |
  \\      /  F ield         | OpenFOAM: The Open Source CFD Toolbox
   \\    /   O peration     | Website:  https://openfoam.org
    \\  /    A nd           | Version:  6
     \\/     M anipulation  |
\*---------------------------------------------------------------------------*/
FoamFile
{
    version     2.0;
    format      ascii;
    class       volVectorField;
    location    "450";
    object      U;
}
// * * * * * * * * * * * * * * * * * * * * * * * * * * * * * * * * * * * * * //

dimensions      [0 1 -1 0 0 0 0];

internalField   nonuniform List<vector> 
3072
(
(0.210935 2.21938 0)
(0.290366 1.93254 0)
(0.380427 1.76425 1.40391e-19)
(0.495417 1.65453 7.3592e-19)
(0.617157 1.58474 -1.23112e-18)
(0.745199 1.53492 7.20373e-19)
(0.870055 1.62732 3.8546e-19)
(1.20248 1.71749 1.44951e-18)
(2.08608 1.42761 -5.8643e-19)
(2.89395 1.65153 1.06009e-18)
(3.12868 2.047 8.53954e-19)
(3.40802 2.15938 7.53934e-19)
(-0.370417 2.66761 -2.00502e-19)
(-0.192827 2.40175 -4.64917e-19)
(0.0511468 2.3473 4.63533e-19)
(0.322666 2.34254 0)
(0.625793 2.40072 1.01423e-18)
(1.09301 2.39377 -1.39201e-18)
(1.93493 2.46578 0)
(2.64812 2.73889 0)
(2.98685 2.73401 0)
(3.12477 2.79725 8.27974e-19)
(3.14889 2.81237 -2.81233e-18)
(3.2441 2.79764 3.45017e-19)
(-0.347625 2.98886 1.85783e-19)
(-0.11138 2.70198 0)
(0.300266 2.7334 0)
(0.796246 2.76021 -3.67912e-18)
(1.45776 2.8441 1.38362e-18)
(2.18194 2.98743 -2.08488e-18)
(2.68339 3.01195 1.73801e-18)
(2.98174 2.9943 0)
(3.1423 2.86605 0)
(3.22724 2.76431 -9.99768e-19)
(3.27579 2.67803 -1.0876e-18)
(3.34759 2.59227 3.80982e-18)
(-0.300929 3.32023 -1.29891e-18)
(0.0931104 3.11566 -2.13926e-18)
(0.656647 3.21618 1.89601e-18)
(1.30785 3.28512 -1.85033e-18)
(1.96069 3.34545 3.65038e-18)
(2.47805 3.32307 -3.57649e-18)
(2.78403 3.20344 -2.12084e-18)
(2.95794 3.07288 -6.67856e-18)
(3.07285 2.91446 -3.14104e-19)
(3.13626 2.79256 3.59064e-18)
(3.18267 2.68576 4.02203e-18)
(3.23823 2.58381 -3.18896e-18)
(-0.092906 3.53552 0)
(0.355675 3.48985 1.23031e-18)
(0.958436 3.59849 -2.85281e-18)
(1.594 3.63475 3.26328e-18)
(2.14182 3.58752 6.1233e-19)
(2.50464 3.45149 2.10521e-18)
(2.71773 3.27871 2.36992e-18)
(2.85313 3.10803 2.38523e-18)
(2.94179 2.94011 -5.09474e-18)
(3.00477 2.79191 4.29987e-18)
(3.05891 2.6611 -5.80992e-18)
(3.1152 2.54028 7.67965e-18)
(0.120923 3.72716 -4.64965e-18)
(0.602699 3.7819 1.77754e-18)
(1.16618 3.86615 5.2133e-18)
(1.71629 3.83727 0)
(2.1437 3.70832 -7.17055e-18)
(2.41964 3.52315 7.725e-18)
(2.59635 3.32317 0)
(2.7184 3.12978 -5.82312e-18)
(2.80857 2.94711 4.9517e-18)
(2.87914 2.7829 0)
(2.94114 2.63636 2.85278e-19)
(3.00133 2.5028 4.50114e-18)
(0.333719 3.89347 0)
(0.79985 4.03917 -4.16756e-18)
(1.28762 4.07047 3.82242e-18)
(1.73113 3.9839 0)
(2.06683 3.80636 -4.42352e-18)
(2.29722 3.59088 7.1707e-19)
(2.45915 3.36939 6.24773e-18)
(2.58042 3.15763 5.78218e-18)
(2.67621 2.96061 -5.09158e-18)
(2.75559 2.78183 5.05754e-18)
(2.82591 2.62078 -4.3758e-18)
(2.89198 2.47453 -1.22708e-17)
(0.5367 4.07867 0)
(0.94121 4.28919 3.37179e-18)
(1.33278 4.25154 -4.88043e-18)
(1.68019 4.12034 4.88113e-18)
(1.95393 3.90843 0)
(2.16002 3.66741 -6.34422e-18)
(2.31776 3.42511 6.29091e-18)
(2.44346 3.19466 1.27058e-19)
(2.54722 2.98099 -1.05561e-17)
(2.63551 2.78634 -4.96108e-18)
(2.7136 2.61038 -2.79892e-19)
(2.78535 2.45096 8.94698e-18)
(0.700869 4.24976 0)
(1.02932 4.52404 -3.78111e-18)
(1.31727 4.40919 -5.31423e-18)
(1.58544 4.23469 -3.81187e-18)
(1.81537 3.99353 7.75917e-18)
(2.00676 3.73015 0)
(2.16523 3.46893 0)
(2.29811 3.2214 0)
(2.41122 2.99223 0)
(2.50888 2.78326 4.97219e-18)
(2.59486 2.59418 -5.01886e-18)
(2.67249 2.4231 4.81167e-18)
(0.831184 4.50883 0)
(1.02403 4.71923 2.66072e-18)
(1.21289 4.49866 -6.08406e-19)
(1.43029 4.26446 4.39817e-18)
(1.63367 3.99652 4.39433e-18)
(1.81839 3.71856 -7.06558e-18)
(1.98233 3.44874 0)
(2.12602 3.19507 -2.16848e-19)
(2.25149 2.96061 -1.7676e-17)
(2.36104 2.74642 0)
(2.45705 2.55207 1.10596e-17)
(2.54246 2.37575 -5.18988e-18)
(0.981225 4.56433 0)
(0.933712 4.68603 3.10925e-18)
(1.01647 4.37606 9.10834e-18)
(1.197 4.08443 -7.78327e-18)
(1.38876 3.81455 -1.08953e-17)
(1.57786 3.55122 1.72723e-17)
(1.75472 3.30091 -1.95994e-19)
(1.91492 3.06635 -6.80677e-18)
(2.05718 2.84805 5.58039e-18)
(2.18246 2.64658 -1.19193e-17)
(2.2918 2.46175 -1.65723e-17)
(2.38795 2.29211 1.68074e-17)
(0.40005 4.1796 -1.83783e-18)
(0.559603 4.10166 -1.22036e-17)
(0.685011 3.80081 2.34886e-18)
(0.877863 3.55653 0)
(1.09081 3.36583 0)
(1.30068 3.17722 3.59183e-19)
(1.49682 2.99111 1.84437e-17)
(1.67581 2.80985 1.14067e-17)
(1.83618 2.63465 0)
(1.97849 2.46778 1.079e-17)
(2.10254 2.31039 0)
(2.21111 2.16205 4.96199e-19)
(3.65803 2.25161 7.28095e-20)
(3.88433 2.17432 -3.26547e-19)
(4.04242 2.09921 -3.49637e-19)
(4.12818 1.94541 -5.82053e-19)
(4.14363 1.80515 -2.90878e-19)
(4.09584 1.61156 0)
(3.96998 1.43175 0)
(3.76577 1.22877 7.96344e-19)
(3.48416 1.02958 -9.34072e-19)
(3.10249 0.787613 0)
(2.68127 0.377739 0)
(2.53607 -0.222822 -6.58017e-20)
(3.34119 2.77338 1.68728e-18)
(3.43515 2.72396 0)
(3.5301 2.63948 -8.8975e-19)
(3.6224 2.51603 5.13134e-19)
(3.7016 2.35699 2.97391e-19)
(3.74035 2.19645 2.66138e-18)
(3.73501 2.03945 -4.33126e-18)
(3.67763 1.89527 6.74422e-19)
(3.56679 1.78349 0)
(3.32568 1.67974 0)
(3.04982 1.53924 0)
(3.19064 1.0224 7.23886e-19)
(3.41529 2.50572 1.59805e-18)
(3.4876 2.41528 -4.34233e-18)
(3.55783 2.32061 1.21159e-18)
(3.61809 2.22195 2.93038e-18)
(3.659 2.1254 -2.95901e-18)
(3.67536 2.03286 0)
(3.66126 1.95581 0)
(3.61782 1.90433 -2.37914e-19)
(3.55243 1.8817 1.09138e-18)
(3.41667 1.87361 0)
(3.19972 1.86293 0)
(3.41293 1.74303 -4.66132e-19)
(3.29186 2.48593 3.54382e-19)
(3.34712 2.39037 4.31763e-18)
(3.40099 2.29552 3.0463e-18)
(3.45023 2.20221 -3.02771e-18)
(3.49003 2.11508 0)
(3.51605 2.03991 1.74513e-18)
(3.52442 1.98459 0)
(3.51814 1.95866 2.49973e-18)
(3.49385 1.96266 -7.70672e-19)
(3.42647 2.02014 0)
(3.24909 2.10394 -5.49531e-19)
(3.54739 2.15313 6.57278e-19)
(3.17088 2.42769 -3.119e-18)
(3.22725 2.32187 0)
(3.28247 2.22217 0)
(3.33408 2.13002 0)
(3.37946 2.04918 0)
(3.4171 1.98449 -3.1581e-18)
(3.4455 1.94454 -1.41935e-19)
(3.46402 1.9361 -1.4073e-18)
(3.47929 1.96841 0)
(3.47611 2.05721 -1.23077e-18)
(3.36104 2.20063 4.90611e-19)
(3.7742 2.39963 -1.67964e-19)
(3.06018 2.38021 -2.48293e-19)
(3.11868 2.26722 -7.35957e-18)
(3.17626 2.16338 3.45644e-18)
(3.23194 2.06989 3.14847e-21)
(3.28482 1.98974 2.25984e-19)
(3.33467 1.92733 4.88874e-18)
(3.38238 1.88888 -1.56219e-19)
(3.42996 1.88157 -5.42136e-18)
(3.4795 1.91626 -2.17217e-18)
(3.53338 2.01011 1.08701e-18)
(3.47924 2.19969 -1.33847e-18)
(3.93858 2.52071 -5.39888e-19)
(2.9554 2.34112 1.17118e-17)
(3.01745 2.21914 3.82701e-18)
(3.07858 2.10819 0)
(3.13907 2.00912 0)
(3.19949 1.92422 2.12919e-19)
(3.26113 1.85711 -3.54147e-18)
(3.32641 1.81294 5.52381e-18)
(3.39892 1.79852 -1.30082e-19)
(3.48218 1.82489 1.85311e-18)
(3.58255 1.91171 0)
(3.60347 2.10066 -2.41123e-19)
(4.09854 2.50818 -7.9685e-20)
(2.85284 2.3061 -4.29049e-18)
(2.91789 2.17416 -3.94601e-18)
(2.9818 2.05445 4.22831e-18)
(3.0459 1.9473 -3.9452e-18)
(3.11189 1.85423 8.36588e-22)
(3.18237 1.77777 7.76236e-18)
(3.26132 1.72168 -3.54422e-18)
(3.35446 1.69182 1.99227e-18)
(3.46763 1.69848 0)
(3.61296 1.7627 1.19502e-18)
(3.71066 1.93718 6.09258e-19)
(4.20412 2.39051 -9.18054e-19)
(2.74398 2.26798 4.66875e-18)
(2.81165 2.1267 -4.52084e-18)
(2.87746 1.99821 -4.21567e-18)
(2.9435 1.88213 -8.75919e-18)
(3.01238 1.77915 8.39676e-18)
(3.08767 1.69069 -8.01724e-18)
(3.17487 1.61867 0)
(3.28208 1.56717 -1.88639e-18)
(3.41843 1.54422 0)
(3.60313 1.57022 0)
(3.78074 1.70871 0)
(4.26227 2.13241 4.37267e-19)
(2.61926 2.21551 5.03673e-18)
(2.69021 2.06869 -1.01261e-17)
(2.75766 1.9341 9.8617e-18)
(2.82417 1.81077 9.43831e-18)
(2.89282 1.69854 4.54195e-18)
(2.9682 1.59775 0)
(3.05703 1.50814 0)
(3.16932 1.43126 4.35122e-18)
(3.31809 1.37095 0)
(3.53271 1.3443 -1.21365e-18)
(3.77234 1.40797 7.91471e-19)
(4.24872 1.72274 -1.26936e-18)
(2.47215 2.13638 -1.10442e-17)
(2.54761 1.99134 1.0198e-17)
(2.61679 1.85636 -9.96029e-18)
(2.68243 1.72996 -2.49809e-17)
(2.74775 1.61164 -2.48349e-19)
(2.81779 1.50084 1.34799e-19)
(2.90073 1.39502 -4.74145e-18)
(3.00695 1.29245 -4.31007e-18)
(3.15339 1.19079 0)
(3.37779 1.10151 3.63032e-18)
(3.65025 1.03626 8.91865e-19)
(4.11868 1.02646 -1.78078e-18)
(2.30356 2.0229 -4.93515e-19)
(2.38362 1.88873 0)
(2.45346 1.7608 0)
(2.5156 1.63727 4.7723e-18)
(2.57388 1.51782 1.45393e-17)
(2.6331 1.40154 -4.74023e-18)
(2.7026 1.2843 -2.19861e-19)
(2.79083 1.16114 -2.40925e-18)
(2.91691 1.02224 -2.23057e-18)
(3.1086 0.86897 -2.24353e-18)
(3.39014 0.645641 0)
(3.71845 -0.0322178 2.32106e-18)
(2.21923 -0.211115 1.55466e-23)
(1.93236 -0.29038 0)
(1.76416 -0.380401 -1.4033e-19)
(1.65442 -0.495368 0)
(1.58464 -0.617146 -6.24526e-19)
(1.53484 -0.745132 7.19665e-19)
(1.62708 -0.869956 0)
(1.71748 -1.20211 1.07845e-18)
(1.42761 -2.08518 -4.97849e-19)
(1.65102 -2.89374 -3.92035e-20)
(2.04665 -3.12877 -8.40618e-19)
(2.15912 -3.40798 -7.53882e-19)
(2.6674 0.370366 -2.51971e-19)
(2.40167 0.192842 -1.3999e-19)
(2.34714 -0.0511327 5.21889e-19)
(2.34232 -0.322677 0)
(2.40039 -0.625699 -1.01334e-18)
(2.39371 -1.09251 5.95535e-19)
(2.46539 -1.93427 0)
(2.73858 -2.64797 9.37561e-19)
(2.73386 -2.98696 -2.33835e-18)
(2.79702 -3.12499 1.96174e-18)
(2.81228 -3.14909 1.52367e-18)
(2.79754 -3.2442 -3.86665e-18)
(2.98877 0.347602 -1.85761e-19)
(2.7019 0.111416 0)
(2.73328 -0.300156 -1.66064e-18)
(2.76006 -0.795958 0)
(2.84381 -1.45729 0)
(2.98716 -2.1816 -8.13527e-19)
(3.01175 -2.68338 3.9857e-18)
(2.99418 -2.9819 -2.76191e-18)
(2.86599 -3.14247 9.51941e-19)
(2.7642 -3.22745 0)
(2.67795 -3.27597 2.6624e-18)
(2.5922 -3.34773 -1.62163e-18)
(3.3202 0.301025 8.43764e-19)
(3.1156 -0.0929287 1.2554e-18)
(3.21607 -0.656323 1.38611e-18)
(3.28496 -1.30745 2.80531e-18)
(3.34527 -1.96039 -1.6853e-18)
(3.32298 -2.47805 -1.19601e-18)
(3.20338 -2.78421 0)
(3.07283 -2.95817 0)
(2.91441 -3.07306 2.16759e-18)
(2.79248 -3.13648 0)
(2.6857 -3.18285 5.01846e-19)
(2.58375 -3.23837 1.3888e-18)
(3.5355 0.0930255 1.2979e-18)
(3.4898 -0.35543 -9.85941e-19)
(3.59842 -0.958116 -2.85312e-18)
(3.63469 -1.59375 0)
(3.58752 -2.14177 0)
(3.45151 -2.5048 2.97935e-18)
(3.2787 -2.71795 0)
(3.10801 -2.85335 -5.73364e-18)
(2.94008 -2.94199 -2.44266e-18)
(2.79186 -3.00495 4.3005e-18)
(2.66104 -3.05906 -5.81066e-18)
(2.54023 -3.11531 3.64301e-18)
(3.72719 -0.120745 -2.62178e-18)
(3.7819 -0.602468 -1.52079e-18)
(3.86617 -1.16596 2.22623e-18)
(3.83735 -1.71618 3.94178e-19)
(3.70842 -2.14376 3.61747e-18)
(3.52322 -2.41981 -7.39644e-18)
(3.3232 -2.59655 6.76333e-18)
(3.12977 -2.71859 6.88481e-19)
(2.94709 -2.80873 0)
(2.78286 -2.87928 0)
(2.63631 -2.94125 8.76703e-18)
(2.50274 -3.00142 5.95971e-20)
(3.89353 -0.333585 -3.10581e-20)
(4.03922 -0.799685 -2.30377e-18)
(4.07057 -1.28749 0)
(3.98404 -1.7311 -4.5066e-18)
(3.80649 -2.0669 4.71309e-18)
(3.59096 -2.29736 1.12719e-17)
(3.36943 -2.4593 6.91038e-18)
(3.15762 -2.58057 8.85587e-19)
(2.96058 -2.67634 -1.07401e-17)
(2.78179 -2.75569 4.70101e-18)
(2.62073 -2.82599 5.03297e-18)
(2.47448 -2.89204 2.71725e-19)
(4.07874 -0.536586 2.19033e-19)
(4.28927 -0.941103 3.37169e-18)
(4.25168 -1.3327 0)
(4.1205 -1.68017 -4.88153e-18)
(3.90856 -1.95399 -3.55549e-18)
(3.6675 -2.16012 6.43548e-19)
(3.42515 -2.31787 -1.18806e-17)
(3.19466 -2.44356 4.29505e-19)
(2.98096 -2.54731 -2.75402e-19)
(2.78629 -2.63559 5.2157e-18)
(2.61032 -2.71366 -4.21193e-18)
(2.4509 -2.78539 2.24194e-19)
(4.24985 -0.700804 -3.42347e-18)
(4.52413 -1.02926 1.51221e-18)
(4.40932 -1.31722 -7.73429e-18)
(4.23483 -1.58543 3.8117e-18)
(3.99365 -1.81541 0)
(3.73024 -2.00683 0)
(3.46897 -2.16531 6.49716e-18)
(3.2214 -2.29819 1.19027e-17)
(2.99221 -2.41129 -5.45091e-18)
(2.78322 -2.50894 -4.97241e-18)
(2.59413 -2.5949 -4.77541e-18)
(2.42304 -2.67252 0)
(4.50889 -0.831178 7.20277e-20)
(4.71928 -1.02399 4.04574e-18)
(4.49874 -1.21286 9.16942e-18)
(4.26456 -1.43028 0)
(3.99661 -1.63369 7.66483e-18)
(3.71863 -1.81842 0)
(3.44878 -1.98237 3.38204e-19)
(3.19508 -2.12607 -5.70139e-18)
(2.9606 -2.25153 6.19468e-18)
(2.74639 -2.36108 0)
(2.55203 -2.45709 0)
(2.37569 -2.54248 -1.07115e-17)
(4.56435 -0.981215 -6.51003e-18)
(4.68604 -0.93369 3.10907e-18)
(4.37609 -1.01646 5.20207e-19)
(4.08448 -1.197 -8.58665e-18)
(3.81461 -1.38876 -3.36786e-18)
(3.55127 -1.57787 -3.45291e-18)
(3.30095 -1.75474 -6.73495e-18)
(3.06636 -1.91495 -1.90443e-17)
(2.84804 -2.05721 -5.58011e-18)
(2.64655 -2.18248 -1.19188e-17)
(2.46171 -2.29182 1.15885e-17)
(2.29206 -2.38797 1.06674e-17)
(4.17961 -0.400051 3.5175e-18)
(4.10166 -0.559601 -1.39911e-18)
(3.80082 -0.685016 3.52846e-19)
(3.55656 -0.877866 7.30996e-18)
(3.36587 -1.09082 0)
(3.17726 -1.30068 -6.62382e-18)
(2.99114 -1.49683 5.93875e-18)
(2.80986 -1.67583 5.29615e-18)
(2.63465 -1.8362 -1.72726e-17)
(2.46777 -1.97851 1.07895e-17)
(2.31037 -2.10257 -1.05825e-17)
(2.16202 -2.21113 0)
(2.25155 -3.65805 -3.94205e-19)
(2.17423 -3.88434 9.57664e-19)
(2.09921 -4.04249 -9.39829e-19)
(1.94539 -4.12822 -2.47848e-19)
(1.80518 -4.14373 -1.21535e-19)
(1.61157 -4.09591 7.89835e-20)
(1.43179 -3.97008 -1.28574e-19)
(1.22879 -3.76584 -3.18895e-19)
(1.02961 -3.48425 -9.34011e-19)
(0.787644 -3.10254 0)
(0.377783 -2.68132 0)
(-0.222725 -2.53614 -6.57863e-20)
(2.77328 -3.34131 -6.5203e-20)
(2.7239 -3.43524 2.16776e-18)
(2.63946 -3.53019 -8.89709e-19)
(2.51603 -3.62247 0)
(2.35701 -3.70167 1.74201e-18)
(2.19648 -3.74042 0)
(2.03948 -3.73508 1.29668e-18)
(1.89531 -3.67768 2.2301e-18)
(1.78353 -3.56684 -1.89601e-18)
(1.67978 -3.3257 0)
(1.53931 -3.04985 0)
(1.02253 -3.19067 -3.00743e-20)
(2.50565 -3.41542 1.14993e-18)
(2.41523 -3.4877 -1.07525e-18)
(2.32058 -3.55791 1.21165e-18)
(2.22194 -3.61815 0)
(2.1254 -3.65906 -1.3001e-18)
(2.03288 -3.67541 3.26202e-18)
(1.95584 -3.6613 -4.70894e-18)
(1.90437 -3.61785 -5.22152e-18)
(1.88175 -3.55246 3.06675e-18)
(1.87367 -3.41669 0)
(1.863 -3.19972 6.10551e-19)
(1.74313 -3.41293 1.51153e-19)
(2.48588 -3.29197 1.33363e-18)
(2.39033 -3.34721 -3.00918e-18)
(2.29549 -3.40106 3.04645e-18)
(2.2022 -3.45028 -3.02783e-18)
(2.11509 -3.49007 0)
(2.03993 -3.51608 1.74512e-18)
(1.98462 -3.52444 1.1684e-18)
(1.95871 -3.51816 6.87613e-19)
(1.96271 -3.49387 -1.56474e-18)
(2.02021 -3.42649 0)
(2.10403 -3.2491 -3.52913e-19)
(2.15325 -3.5474 5.89636e-19)
(2.42764 -3.17097 3.49648e-18)
(2.32184 -3.22732 -1.80454e-18)
(2.22215 -3.28252 0)
(2.13001 -3.33412 0)
(2.04918 -3.37948 1.72389e-18)
(1.98451 -3.41712 -1.44323e-18)
(1.94457 -3.44551 -2.57761e-19)
(1.93614 -3.46403 0)
(1.96847 -3.47929 -8.34497e-19)
(2.05727 -3.47611 1.23066e-18)
(2.20072 -3.36104 -1.07458e-18)
(2.39975 -3.7742 -2.71341e-19)
(2.38016 -3.06024 -7.43212e-18)
(2.26718 -3.11873 3.54833e-18)
(2.16335 -3.17629 7.1452e-18)
(2.06987 -3.23196 3.1482e-21)
(1.98973 -3.28483 -8.46449e-18)
(1.92734 -3.33468 -3.58183e-18)
(1.88891 -3.38238 -2.46371e-19)
(1.88161 -3.42996 0)
(1.91631 -3.4795 0)
(2.01019 -3.53338 -1.08697e-18)
(2.19978 -3.47923 -7.79272e-19)
(2.52082 -3.93859 2.36713e-19)
(2.34106 -2.95544 4.00249e-18)
(2.2191 -3.01748 -7.88445e-18)
(2.10816 -3.0786 -3.49413e-18)
(2.0091 -3.13908 -2.02679e-19)
(1.92421 -3.19948 3.3464e-18)
(1.85711 -3.26112 3.3016e-18)
(1.81296 -3.3264 1.86211e-18)
(1.79856 -3.39891 1.81232e-18)
(1.82494 -3.48217 -2.0105e-18)
(1.91177 -3.58254 0)
(2.10075 -3.60346 1.25152e-18)
(2.5083 -4.09854 -3.59868e-19)
(2.30605 -2.85287 0)
(2.17411 -2.9179 3.9462e-18)
(2.05441 -2.9818 0)
(1.94727 -3.04589 -2.01744e-19)
(1.85421 -3.11188 8.38108e-22)
(1.77776 -3.18235 7.76244e-18)
(1.72169 -3.2613 -7.47907e-18)
(1.69185 -3.35444 0)
(1.69853 -3.46761 -2.12903e-18)
(1.76276 -3.61295 1.19499e-18)
(1.93727 -3.71065 -2.33159e-18)
(2.39063 -4.20411 1.17167e-18)
(2.26792 -2.744 4.66893e-18)
(2.12665 -2.81166 -4.521e-18)
(1.99816 -2.87745 -4.57203e-18)
(1.8821 -2.94349 4.45996e-18)
(1.77913 -3.01236 4.20163e-18)
(1.69069 -3.08765 -1.2281e-17)
(1.61868 -3.17484 3.82485e-18)
(1.5672 -3.28206 0)
(1.54426 -3.41841 1.9412e-18)
(1.57028 -3.60311 0)
(1.70879 -3.78073 2.84458e-18)
(2.13251 -4.26226 -2.07935e-18)
(2.21546 -2.61927 0)
(2.06864 -2.69021 -1.01262e-17)
(1.93405 -2.75765 -5.25435e-18)
(1.81074 -2.82415 -9.15456e-18)
(1.69852 -2.8928 4.54197e-18)
(1.59774 -2.96817 4.27482e-18)
(1.50815 -3.057 0)
(1.43128 -3.16929 0)
(1.37098 -3.31806 0)
(1.34435 -3.53269 0)
(1.40803 -3.77232 -7.93763e-19)
(1.72283 -4.24871 -1.03909e-19)
(2.13633 -2.47216 5.38145e-18)
(1.9913 -2.54761 4.93993e-18)
(1.85632 -2.61679 2.05001e-17)
(1.72993 -2.68241 5.25804e-18)
(1.61162 -2.74773 1.97167e-17)
(1.50083 -2.81776 -4.74021e-18)
(1.39502 -2.90069 -4.74135e-18)
(1.29246 -3.00691 0)
(1.19081 -3.15336 -4.48242e-18)
(1.10155 -3.37775 -2.41428e-18)
(1.03632 -3.65023 -1.82788e-18)
(1.02653 -4.11866 -1.10651e-25)
(2.02287 -2.30357 0)
(1.8887 -2.38363 0)
(1.76077 -2.45346 -2.04143e-17)
(1.63725 -2.51559 -1.48494e-17)
(1.5178 -2.57387 -4.68867e-18)
(1.40153 -2.63307 0)
(1.2843 -2.70257 4.70539e-18)
(1.16115 -2.7908 0)
(1.02227 -2.91687 -1.96159e-19)
(0.869006 -3.10856 2.24345e-18)
(0.645683 -3.3901 6.5792e-19)
(-0.032181 -3.71842 4.59473e-18)
(-0.211284 -2.21927 1.03292e-19)
(-0.290534 -1.9324 2.00434e-19)
(-0.380572 -1.76426 -1.77468e-19)
(-0.495544 -1.65455 2.2727e-20)
(-0.61726 -1.58475 0)
(-0.7453 -1.53493 8.42318e-21)
(-0.870136 -1.62733 0)
(-1.20252 -1.71748 4.80411e-19)
(-2.08607 -1.42762 1.21442e-18)
(-2.89388 -1.65153 -5.5995e-20)
(-3.12861 -2.04698 7.29822e-19)
(-3.40795 -2.15936 7.9472e-19)
(0.370206 -2.66748 3.36594e-19)
(0.192696 -2.40177 -4.65302e-19)
(-0.051267 -2.34731 4.93277e-19)
(-0.322747 -2.34255 -3.41439e-20)
(-0.625823 -2.40075 -1.01547e-18)
(-1.09297 -2.39376 -2.07923e-19)
(-1.9349 -2.46576 -1.08433e-18)
(-2.64804 -2.73885 -1.47055e-18)
(-2.98676 -2.73396 2.16293e-18)
(-3.12469 -2.7972 -5.32133e-19)
(-3.14883 -2.81231 7.43562e-19)
(-3.24404 -2.79758 4.59327e-19)
(0.347364 -2.98877 -3.71758e-19)
(0.1112 -2.70196 0)
(-0.30037 -2.73335 0)
(-0.796289 -2.76017 -1.56792e-18)
(-1.45776 -2.84406 0)
(-2.18192 -2.9874 -1.27146e-18)
(-2.68331 -3.0119 6.62569e-19)
(-2.98165 -2.99425 2.43466e-18)
(-3.14221 -2.866 -1.21577e-18)
(-3.22716 -2.76427 -1.76729e-18)
(-3.27572 -2.67798 -3.75048e-18)
(-3.34752 -2.59223 3.81013e-18)
(0.300789 -3.3202 -1.68839e-18)
(-0.0932453 -3.11563 -1.25627e-18)
(-0.656732 -3.21611 2.4481e-18)
(-1.30788 -3.28507 9.54193e-19)
(-1.96068 -3.3454 0)
(-2.47798 -3.32301 -4.42604e-18)
(-2.78394 -3.20339 3.22077e-18)
(-2.95786 -3.07283 0)
(-3.07277 -2.91441 3.21341e-18)
(-3.13619 -2.79251 -5.15356e-18)
(-3.18261 -2.68572 3.52011e-18)
(-3.23817 -2.58377 4.86843e-19)
(0.0927822 -3.53547 1.97553e-18)
(-0.355802 -3.48981 3.01974e-18)
(-0.958516 -3.59844 9.48508e-19)
(-1.59402 -3.6347 0)
(-2.14179 -3.58746 -2.71672e-18)
(-2.50457 -3.45144 4.52645e-18)
(-2.71766 -3.27866 0)
(-2.85306 -3.10799 -3.13135e-18)
(-2.94172 -2.94006 -2.92644e-18)
(-3.00471 -2.79187 4.29957e-18)
(-3.05886 -2.66106 0)
(-3.11515 -2.54024 -3.29797e-18)
(-0.121011 -3.72711 2.02822e-18)
(-0.602799 -3.78188 7.25198e-19)
(-1.16625 -3.86611 -2.2258e-18)
(-1.7163 -3.83723 -8.91715e-18)
(-2.14367 -3.70828 -3.08292e-19)
(-2.41959 -3.52311 7.72481e-18)
(-2.59629 -3.32314 0)
(-2.71835 -3.12975 8.79454e-18)
(-2.80852 -2.94708 -5.1361e-18)
(-2.87909 -2.78287 4.49619e-18)
(-2.9411 -2.63633 2.85238e-19)
(-3.00129 -2.50276 -5.95828e-20)
(-0.3338 -3.89344 -1.88806e-18)
(-0.799928 -4.03916 -1.47785e-18)
(-1.28767 -4.07044 0)
(-1.73113 -3.98387 9.75345e-18)
(-2.0668 -3.80634 -1.32903e-17)
(-2.29717 -3.59086 -2.20175e-19)
(-2.45911 -3.36937 -1.31553e-17)
(-2.58038 -3.15761 5.46567e-19)
(-2.67617 -2.96059 -5.09106e-18)
(-2.75555 -2.78181 -5.05704e-18)
(-2.82588 -2.62076 5.03195e-18)
(-2.89194 -2.47451 -4.15874e-18)
(-0.536764 -4.07865 -1.68829e-19)
(-0.941274 -4.28918 -1.8229e-18)
(-1.33281 -4.25151 0)
(-1.68019 -4.12031 4.88037e-18)
(-1.95391 -3.90841 3.33802e-18)
(-2.15999 -3.6674 2.98114e-18)
(-2.31772 -3.4251 -5.19242e-19)
(-2.44342 -3.19465 -1.27054e-19)
(-2.54719 -2.98098 -5.66559e-18)
(-2.63548 -2.78633 -6.10092e-19)
(-2.71357 -2.61036 2.3745e-19)
(-2.78532 -2.45094 0)
(-0.700924 -4.24975 2.13069e-18)
(-1.02937 -4.52402 0)
(-1.31729 -4.40916 0)
(-1.58544 -4.23466 -3.81138e-18)
(-1.81535 -3.99351 3.39424e-18)
(-2.00673 -3.73014 -7.03448e-18)
(-2.16519 -3.46892 0)
(-2.29807 -3.22139 5.82632e-18)
(-2.41118 -2.99222 -2.47525e-19)
(-2.50885 -2.78324 4.97168e-18)
(-2.59483 -2.59416 -5.21391e-18)
(-2.67246 -2.42308 1.00283e-17)
(-0.831214 -4.5088 4.37136e-18)
(-1.02405 -4.71921 -1.38537e-18)
(-1.21291 -4.49861 -4.88897e-18)
(-1.43029 -4.26441 -8.44618e-18)
(-1.63365 -3.99648 0)
(-1.81835 -3.71853 6.39188e-18)
(-1.98228 -3.44872 -1.29782e-17)
(-2.12597 -3.19505 5.77466e-18)
(-2.25144 -2.96059 6.19404e-18)
(-2.361 -2.7464 0)
(-2.45701 -2.55205 -5.91639e-18)
(-2.54243 -2.37572 -9.98053e-18)
(-0.981232 -4.56432 -6.45755e-18)
(-0.933725 -4.68599 1.41396e-18)
(-1.01647 -4.376 4.29371e-18)
(-1.19699 -4.08436 3.63891e-18)
(-1.38873 -3.81448 -5.00357e-20)
(-1.57781 -3.55116 -1.06844e-17)
(-1.75466 -3.30086 1.27828e-17)
(-1.91486 -3.0663 2.50393e-17)
(-2.05712 -2.848 -1.75544e-17)
(-2.1824 -2.64654 -1.19179e-17)
(-2.29175 -2.46171 1.0926e-17)
(-2.38791 -2.29207 0)
(-0.400016 -4.17956 5.43264e-18)
(-0.559582 -4.10161 1.85103e-18)
(-0.684999 -3.80073 1.99591e-18)
(-0.877839 -3.55644 7.86198e-18)
(-1.09077 -3.36575 0)
(-1.30062 -3.17714 6.26438e-18)
(-1.49675 -2.99103 -1.25034e-17)
(-1.67574 -2.80978 -5.5419e-18)
(-1.83611 -2.63458 -5.68422e-18)
(-1.97843 -2.46772 1.07891e-17)
(-2.10249 -2.31034 5.65365e-18)
(-2.21107 -2.16201 1.62548e-17)
(-3.65796 -2.25158 1.08427e-19)
(-3.88427 -2.17431 6.02308e-19)
(-4.04236 -2.09919 2.69699e-19)
(-4.12813 -1.9454 -6.2559e-19)
(-4.14359 -1.80513 1.69022e-19)
(-4.09581 -1.61155 0)
(-3.96994 -1.43174 -5.0755e-19)
(-3.76575 -1.22876 3.84293e-19)
(-3.48415 -1.02957 0)
(-3.10249 -0.787606 1.15855e-19)
(-2.68127 -0.377745 0)
(-2.53609 0.222785 -2.96844e-19)
(-3.34113 -2.77332 -4.27565e-18)
(-3.4351 -2.7239 3.0289e-18)
(-3.53006 -2.63943 2.30598e-18)
(-3.62236 -2.51599 -9.72817e-19)
(-3.70155 -2.35695 0)
(-3.74031 -2.19642 0)
(-3.73498 -2.03942 1.48139e-18)
(-3.6776 -1.89525 -1.59672e-18)
(-3.56677 -1.78347 0)
(-3.32566 -1.67972 6.06449e-19)
(-3.04982 -1.53924 -3.80367e-20)
(-3.19064 -1.02245 -1.09662e-18)
(-3.41523 -2.50568 1.65236e-18)
(-3.48754 -2.41524 -2.8275e-18)
(-3.55777 -2.32057 0)
(-3.61803 -2.22192 -2.96239e-18)
(-3.65896 -2.12537 -3.03109e-18)
(-3.67533 -2.03283 6.45339e-18)
(-3.66123 -1.95578 -5.75e-18)
(-3.61779 -1.90431 0)
(-3.55241 -1.88168 0)
(-3.41665 -1.87359 0)
(-3.1997 -1.86291 -5.3308e-19)
(-3.41291 -1.74303 1.63817e-19)
(-3.2918 -2.48589 -1.33347e-18)
(-3.34707 -2.39033 -3.97964e-19)
(-3.40094 -2.29547 0)
(-3.45019 -2.20217 -3.75772e-19)
(-3.48999 -2.11504 0)
(-3.51601 -2.03987 0)
(-3.52439 -1.98455 1.32837e-18)
(-3.51812 -1.95863 -1.59074e-18)
(-3.49384 -1.96263 1.72491e-18)
(-3.42646 -2.02012 0)
(-3.24909 -2.10393 -5.49553e-19)
(-3.54738 -2.15314 -6.57317e-19)
(-3.17084 -2.42765 7.28528e-18)
(-3.22721 -2.32183 -1.80428e-18)
(-3.28243 -2.22214 3.23362e-18)
(-3.33405 -2.12998 1.45085e-18)
(-3.37943 -2.04914 -4.90107e-18)
(-3.41708 -1.98446 0)
(-3.44548 -1.9445 -1.65374e-18)
(-3.464 -1.93606 0)
(-3.47927 -1.96838 0)
(-3.4761 -2.05718 1.23075e-18)
(-3.36104 -2.20061 3.1475e-20)
(-3.77418 -2.39963 7.38298e-19)
(-3.06014 -2.38017 -3.46591e-18)
(-3.11865 -2.26718 -2.63361e-19)
(-3.17623 -2.16335 0)
(-3.23191 -2.06985 0)
(-3.2848 -1.9897 -5.35885e-18)
(-3.33465 -1.92729 3.35874e-18)
(-3.38236 -1.88885 3.41661e-18)
(-3.42995 -1.88153 1.77775e-18)
(-3.47949 -1.91622 -4.21281e-18)
(-3.53337 -2.01008 -1.08701e-18)
(-3.47924 -2.19967 0)
(-3.93857 -2.5207 8.43084e-19)
(-2.95537 -2.34109 -8.22056e-18)
(-3.01742 -2.21911 3.37289e-18)
(-3.07856 -2.10816 3.72566e-18)
(-3.13905 -2.00909 2.0427e-19)
(-3.19946 -1.92419 -4.18121e-19)
(-3.26111 -1.85707 -3.73809e-18)
(-3.32639 -1.8129 -5.42086e-18)
(-3.39891 -1.79849 -1.94417e-18)
(-3.48217 -1.82485 1.85298e-18)
(-3.58254 -1.91167 0)
(-3.60347 -2.10064 2.11671e-18)
(-4.09853 -2.50817 -5.38702e-19)
(-2.85281 -2.30608 8.38608e-18)
(-2.91787 -2.17413 -4.55912e-18)
(-2.98178 -2.05442 -4.22789e-18)
(-3.04587 -1.94727 -7.68789e-18)
(-3.11187 -1.8542 7.52138e-18)
(-3.18235 -1.77773 -1.94747e-19)
(-3.2613 -1.72164 1.12296e-17)
(-3.35444 -1.69178 1.78247e-18)
(-3.46762 -1.69844 2.12888e-18)
(-3.61295 -1.76266 0)
(-3.71066 -1.93716 -1.45007e-18)
(-4.2041 -2.3905 -6.92263e-19)
(-2.74395 -2.26796 0)
(-2.81163 -2.12668 4.33017e-18)
(-2.87743 -1.99818 4.21524e-18)
(-2.94348 -1.8821 -4.29888e-18)
(-3.01235 -1.77912 -1.6463e-19)
(-3.08765 -1.69066 -4.26317e-18)
(-3.17485 -1.61863 -3.82444e-18)
(-3.28206 -1.56713 0)
(-3.41841 -1.54417 -1.94105e-18)
(-3.60312 -1.57018 -1.20511e-18)
(-3.78074 -1.70868 4.65409e-18)
(-4.26226 -2.13239 -9.95741e-19)
(-2.61923 -2.21548 0)
(-2.69018 -2.06866 0)
(-2.75763 -1.93407 0)
(-2.82414 -1.81074 -1.42738e-17)
(-2.8928 -1.69851 9.05853e-18)
(-2.96818 -1.59772 8.70661e-18)
(-3.05701 -1.50811 0)
(-3.1693 -1.43122 -4.35068e-18)
(-3.31807 -1.3709 0)
(-3.5327 -1.34426 -2.47918e-18)
(-3.77233 -1.40793 -7.93743e-19)
(-4.24871 -1.72271 -1.2694e-18)
(-2.47211 -2.13634 0)
(-2.54758 -1.99131 0)
(-2.61677 -1.85633 1.05388e-17)
(-2.68241 -1.72993 1.47116e-17)
(-2.74773 -1.61161 4.07532e-19)
(-2.81777 -1.50081 4.87449e-18)
(-2.90071 -1.39498 -2.32288e-18)
(-3.00693 -1.29241 6.52655e-18)
(-3.15337 -1.19074 4.48196e-18)
(-3.37777 -1.10147 2.25327e-18)
(-3.65023 -1.03622 -1.82781e-18)
(-4.11867 -1.02643 -1.95204e-18)
(-2.30352 -2.02286 0)
(-2.38359 -1.8887 0)
(-2.45344 -1.76076 -9.96688e-18)
(-2.51558 -1.63724 5.243e-18)
(-2.57387 -1.51779 -4.68846e-18)
(-2.63308 -1.40151 -4.73988e-18)
(-2.70259 -1.28427 4.92499e-18)
(-2.79082 -1.1611 0)
(-2.9169 -1.0222 -4.38299e-18)
(-3.10859 -0.868926 -2.33411e-18)
(-3.39012 -0.645592 2.26039e-18)
(-3.71844 0.0322657 -4.61469e-18)
(-2.21923 0.211113 1.03202e-19)
(-1.93236 0.290381 0)
(-1.76416 0.3804 0)
(-1.65443 0.495373 5.94955e-19)
(-1.58466 0.617135 -6.49382e-19)
(-1.53487 0.745143 0)
(-1.6272 0.869991 0)
(-1.71748 1.20229 4.79958e-19)
(-1.4276 2.08567 1.20022e-18)
(-1.65129 2.89389 1.14749e-18)
(-2.04688 3.12876 -1.10985e-19)
(-2.15929 3.40805 7.31267e-19)
(-2.66741 -0.370358 -4.65706e-19)
(-2.40168 -0.192827 0)
(-2.34717 0.0511518 0)
(-2.34238 0.322698 -8.31636e-19)
(-2.40049 0.62577 2.16541e-18)
(-2.39371 1.09277 -2.43657e-18)
(-2.46558 1.9346 8.81593e-19)
(-2.73873 2.64808 8.47347e-19)
(-2.73394 2.98695 -2.70787e-19)
(-2.79714 3.12492 8.27897e-19)
(-2.81234 3.14903 0)
(-2.79761 3.24419 -1.77766e-18)
(-2.98878 -0.347577 3.71558e-19)
(-2.70192 -0.111367 0)
(-2.73331 0.300231 0)
(-2.76012 0.796111 -9.32743e-19)
(-2.84393 1.45752 7.12615e-19)
(-2.98725 2.18177 -1.59417e-18)
(-3.01183 2.68344 0)
(-2.99422 2.98188 -3.19259e-18)
(-2.86601 3.14244 3.89351e-18)
(-2.76426 3.22739 -9.99709e-19)
(-2.67799 3.27592 -2.64062e-18)
(-2.59225 3.34769 3.80971e-18)
(-3.3202 -0.300962 -8.4384e-19)
(-3.11563 0.0930244 1.25558e-18)
(-3.21611 0.656455 0)
(-3.28501 1.3076 9.54247e-19)
(-3.34532 1.96053 -6.4847e-19)
(-3.32299 2.4781 1.19612e-18)
(-3.20339 2.78419 0)
(-3.07284 2.95812 -2.4132e-18)
(-2.91443 3.07301 -5.38037e-18)
(-2.79252 3.13641 3.59075e-18)
(-2.68573 3.1828 3.52037e-18)
(-2.58379 3.23834 -6.86494e-18)
(-3.53549 -0.0929603 9.87337e-19)
(-3.4898 0.355536 -1.23006e-18)
(-3.59843 0.958239 2.85285e-18)
(-3.63469 1.59387 0)
(-3.5875 2.14183 -5.75912e-18)
(-3.45148 2.5048 5.39989e-18)
(-3.27869 2.71791 3.2162e-18)
(-3.10801 2.8533 2.38533e-18)
(-2.94008 2.94194 0)
(-2.79188 3.0049 0)
(-2.66107 3.05901 0)
(-2.54026 3.11528 -7.38854e-19)
(-3.72716 0.12082 5.2434e-18)
(-3.78189 0.602563 0)
(-3.86615 1.16606 -2.22605e-18)
(-3.83731 1.71625 4.6554e-18)
(-3.70837 2.14379 3.57446e-18)
(-3.52317 2.4198 -7.36241e-18)
(-3.32317 2.59651 3.45639e-18)
(-3.12976 2.71855 -1.20667e-17)
(-2.94708 2.80869 -1.84879e-19)
(-2.78286 2.87924 -4.4209e-19)
(-2.63632 2.94122 2.8529e-19)
(-2.50276 3.00139 1.17199e-17)
(-3.8935 0.333648 -6.76336e-18)
(-4.0392 0.799759 4.16773e-18)
(-4.07053 1.28756 -6.359e-18)
(-3.98399 1.73115 -4.50634e-18)
(-3.80643 2.06693 -8.26884e-18)
(-3.59091 2.29735 -4.40906e-18)
(-3.36939 2.45928 -6.51623e-18)
(-3.1576 2.58053 1.0833e-17)
(-2.96057 2.6763 0)
(-2.78178 2.75566 9.46989e-18)
(-2.62073 2.82596 -1.32936e-17)
(-2.47449 2.89201 4.45146e-18)
(-4.07871 0.536633 -3.14312e-18)
(-4.28925 0.94116 -5.34263e-18)
(-4.25163 1.33275 7.51225e-18)
(-4.12044 1.68021 0)
(-3.9085 1.954 -4.17983e-18)
(-3.66745 2.16012 6.34449e-18)
(-3.42511 2.31785 -3.21227e-19)
(-3.19463 2.44354 1.27076e-19)
(-2.98094 2.54729 -5.23419e-18)
(-2.78629 2.63556 -9.88149e-18)
(-2.61032 2.71363 4.42866e-18)
(-2.4509 2.78536 -4.4882e-18)
(-4.24982 0.70084 2.13088e-18)
(-4.5241 1.0293 0)
(-4.40928 1.31726 0)
(-4.23477 1.58546 0)
(-3.99359 1.81542 3.39452e-18)
(-3.73018 2.00683 0)
(-3.46893 2.16529 -4.11852e-19)
(-3.22137 2.29817 1.15715e-17)
(-2.99219 2.41126 2.82355e-19)
(-2.7832 2.50891 4.97212e-18)
(-2.59412 2.59487 -5.01877e-18)
(-2.42304 2.67248 1.48406e-17)
(-4.50888 0.831199 7.20205e-20)
(-4.71927 1.02402 7.3528e-18)
(-4.49871 1.21289 -2.25052e-18)
(-4.26451 1.4303 0)
(-3.99656 1.6337 0)
(-3.71858 1.81842 0)
(-3.44874 1.98236 0)
(-3.19504 2.12605 6.03614e-18)
(-2.96057 2.25151 -2.31871e-17)
(-2.74636 2.36105 -1.14608e-17)
(-2.55201 2.45705 1.10591e-17)
(-2.37568 2.54245 5.91942e-18)
(-4.56435 0.981239 -6.45741e-18)
(-4.68603 0.933706 -4.29716e-18)
(-4.37607 1.01647 -2.56516e-18)
(-4.08445 1.19701 0)
(-3.81456 1.38877 0)
(-3.55123 1.57788 7.17876e-18)
(-3.30091 1.75473 -1.32733e-17)
(-3.06632 1.91494 2.52597e-17)
(-2.84801 2.05719 1.78961e-17)
(-2.64653 2.18246 1.12205e-17)
(-2.4617 2.29179 -1.09262e-17)
(-2.29205 2.38794 6.34631e-19)
(-4.17961 0.400061 -1.83778e-18)
(-4.10165 0.559603 0)
(-3.80081 0.685018 3.82075e-18)
(-3.55654 0.877874 -1.16877e-17)
(-3.36585 1.09083 1.05801e-17)
(-3.17724 1.30069 3.59162e-19)
(-2.99112 1.49683 5.93855e-18)
(-2.80984 1.67582 -5.54194e-18)