/*--------------------------------*- C++ -*----------------------------------*\
  =========                 |
  \\      /  F ield         | OpenFOAM: The Open Source CFD Toolbox
   \\    /   O peration     | Website:  https://openfoam.org
    \\  /    A nd           | Version:  6
     \\/     M anipulation  |
\*---------------------------------------------------------------------------*/
FoamFile
{
    version     2.0;
    format      ascii;
    class       volScalarField;
    location    "500";
    object      epsilon;
}
// * * * * * * * * * * * * * * * * * * * * * * * * * * * * * * * * * * * * * //

dimensions      [0 2 -3 0 0 0 0];

internalField   nonuniform List<scalar> 
3072
(
2.41972
4.6784
4.63339
4.4308
3.92878
3.22496
3.11589
4.63236
20.2878
38.405
46.8321
51.8864
2.36502
4.89242
4.78801
4.88221
5.69777
10.3942
20.592
22.9949
28.3384
33.5866
34.9556
35.7217
8.26431
6.99398
9.15734
13.7181
17.7017
18.2558
19.5563
22.386
25.9503
27.6452
28.7479
29.8439
12.7275
10.2252
13.3422
15.3076
16.2664
16.804
19.3631
22.3438
24.5166
25.7081
26.6972
27.6347
14.6241
11.9044
13.847
14.4625
15.2044
17.2086
20.0471
22.7094
24.4702
25.3908
26.145
26.8574
15.5407
12.3303
13.4717
14.1136
15.8042
18.5421
21.4113
23.5458
24.8886
25.6947
26.3263
26.898
16.0239
12.0246
12.9213
14.6992
17.4609
20.6298
23.3246
25.2109
26.3194
26.9941
27.4863
27.9155
16.5642
11.9716
13.662
17.0929
21.2423
24.8774
27.4927
29.1307
29.9981
30.423
30.6368
30.782
17.9569
13.1176
17.6503
24.0891
30.1025
34.314
36.7613
37.8385
38.0036
37.6533
37.076
36.4447
20.4631
17.7968
30.0994
41.5216
49.5895
53.6648
54.675
53.832
51.9913
49.7243
47.4037
45.2278
25.4264
35.8337
61.2924
77.4762
83.6255
83.7793
80.6665
75.9658
70.7067
65.4564
60.569
56.1912
116.16
109.069
119.524
122.749
120.073
112.869
104.552
95.9584
87.6144
79.749
72.6037
66.2429
55.4669
57.2224
57.8922
57.6464
56.7583
53.8355
49.904
43.8771
36.8837
27.8768
18.4698
23.0632
36.2806
36.7881
37.2706
37.8806
38.6698
39.9892
42.4865
46.4468
51.5547
57.4253
61.4287
74.9706
30.6884
31.332
31.8196
32.3309
33.2399
34.9653
38.0071
43.0354
50.9449
62.9075
81.1852
120.05
28.3606
28.9551
29.4949
30.1153
31.0815
32.8061
35.8734
41.1465
49.9307
64.759
92.5705
152.305
27.4375
27.9225
28.3767
28.9348
29.8402
31.4623
34.3887
39.5611
48.6341
65.0433
99.1651
178.163
27.3697
27.7775
28.1849
28.711
29.5728
31.1199
33.9366
38.9747
47.9553
64.9178
102.817
201.501
28.2998
28.6633
29.0473
29.5406
30.3222
31.7189
34.297
39.0382
47.8006
64.688
104.938
222.507
30.9153
31.0636
31.2627
31.5811
32.1793
33.3332
35.5799
39.9098
48.2326
64.8408
105.9
247.816
35.8675
35.3961
35.0717
34.9807
35.2323
35.9909
37.7791
41.5638
49.3271
65.542
107.45
277.679
43.3159
41.7209
40.4661
39.6032
39.2658
39.6184
40.8391
43.948
50.9755
66.5642
109.045
309.547
52.4241
49.3064
46.82
44.9805
43.8393
43.6771
44.449
46.8314
52.9166
67.6243
111.152
349.489
60.7717
56.2665
52.6766
49.9992
48.2074
47.4888
47.9374
49.6414
54.3716
67.5791
111.414
416.508
2.42118
4.68133
4.63576
4.4326
3.93011
3.22604
3.11652
4.63254
20.2867
38.4061
46.8345
51.8893
2.3655
4.89341
4.78846
4.88228
5.69781
10.3926
20.5915
22.9957
28.3392
33.5883
34.9578
35.7239
8.26582
6.99456
9.15679
13.7157
17.7015
18.2573
19.5564
22.3864
25.9511
27.6463
28.7491
29.8453
12.7283
10.2254
13.342
15.308
16.2671
16.8046
19.3629
22.3443
24.5174
25.7091
26.6982
27.6359
14.6245
11.9046
13.8476
14.4631
15.2046
17.2087
20.0471
22.7101
24.4711
25.3918
26.1459
26.8585
15.5407
12.3307
13.4723
14.1139
15.8045
18.5424
21.412
23.5468
24.8897
25.6956
26.3273
26.8989
16.0248
12.0253
12.922
14.6998
17.4616
20.6309
23.3259
25.2124
26.3207
26.9953
27.4874
27.9166
16.5658
11.9728
13.6631
17.0943
21.2441
24.8795
27.495
29.133
30.0001
30.4247
30.6384
30.7835
17.9595
13.1192
17.6523
24.0917
30.1057
34.3176
36.7649
37.8419
38.0067
37.656
37.0785
36.4469
20.4664
17.799
30.1022
41.5253
49.594
53.6695
54.6796
53.8363
51.9952
49.7278
47.4069
45.2308
25.4299
35.8361
61.2948
77.4793
83.6293
83.7833
80.6706
75.9698
70.7106
65.4601
60.5725
56.1945
116.163
109.07
119.524
122.75
120.074
112.871
104.554
95.9612
87.6173
79.7521
72.6068
66.246
55.4703
57.2263
57.8963
57.6507
56.7628
53.8399
49.9081
43.8807
36.8866
27.8791
18.4717
23.0664
36.2829
36.7906
37.2732
37.8834
38.6727
39.9923
42.4898
46.4504
51.5588
57.4295
61.4338
74.9784
30.6899
31.3337
31.8214
32.3327
33.2419
34.9674
38.0094
43.038
50.9481
62.9116
81.1908
120.059
28.3618
28.9564
29.4963
30.1168
31.083
32.8078
35.8753
41.1488
49.9335
64.7628
92.5763
152.316
27.4386
27.9236
28.3779
28.936
29.8415
31.4637
34.3903
39.5631
48.6367
65.047
99.171
178.174
27.3707
27.7785
28.186
28.7121
29.574
31.1212
33.9381
38.9765
47.9578
64.9213
102.823
201.513
28.3009
28.6644
29.0484
29.5418
30.3234
31.7202
34.2984
39.0399
47.803
64.6915
104.943
222.521
30.9168
31.0651
31.2642
31.5824
32.1807
33.3346
35.5814
39.9116
48.235
64.8441
105.906
247.832
35.8696
35.398
35.0735
34.9824
35.234
35.9925
37.7808
41.5656
49.3294
65.5452
107.456
277.695
43.3186
41.7234
40.4685
39.6054
39.2678
39.6203
40.8409
43.95
50.9778
66.5673
109.05
309.565
52.4272
49.3093
46.8226
44.9829
43.8415
43.6791
44.451
46.8334
52.9188
67.6273
111.158
349.509
60.7747
56.2694
52.6793
50.0017
48.2097
47.491
47.9394
49.6434
54.3737
67.5818
111.419
416.531
2.42096
4.6803
4.63478
4.43165
3.92917
3.22503
3.11611
4.63374
20.2956
38.4122
46.8388
51.8936
2.36543
4.89328
4.78889
4.88327
5.69915
10.3996
20.5963
22.9977
28.3435
33.591
34.9597
35.726
8.26619
6.9957
9.16085
13.723
17.7028
18.2553
19.5591
22.3894
25.9542
27.649
28.7519
29.8477
12.7299
10.2273
13.3444
15.3081
16.2668
16.8055
19.3668
22.3471
24.52
25.7114
26.7008
27.6384
14.6264
11.9063
13.848
14.463
15.206
17.2109
20.0507
22.7125
24.4734
25.3942
26.1487
26.8611
15.5428
12.3317
13.4727
14.1149
15.8062
18.5451
21.4142
23.5486
24.8918
25.6981
26.3301
26.9018
16.0254
12.0257
12.9223
14.7006
17.4629
20.6321
23.3272
25.2137
26.3226
26.9979
27.4904
27.9197
16.5653
11.9721
13.6628
17.0942
21.244
24.8795
27.4953
29.1339
30.0019
30.4273
30.6415
30.7869
17.9573
13.1178
17.6508
24.0898
30.1037
34.3158
36.764
37.8422
38.0082
37.6584
37.0816
36.4504
20.4628
17.7966
30.0993
41.5216
49.5899
53.6662
54.6776
53.8358
51.9962
49.7299
47.4097
45.234
25.4264
35.8339
61.2923
77.4758
83.6254
83.7801
80.6684
75.969
70.7111
65.4616
60.5747
56.1972
116.17
109.073
119.527
122.75
120.073
112.869
104.553
95.9605
87.6176
79.753
72.6083
66.2478
55.4744
57.2298
57.8995
57.6535
56.7649
53.8413
49.9091
43.8813
36.887
27.8789
18.4712
23.0655
36.2849
36.7925
37.2747
37.8846
38.6737
39.993
42.4902
46.4507
51.5588
57.4296
61.4332
74.9769
30.6923
31.3359
31.8234
32.3346
33.2436
34.969
38.0108
43.0394
50.9494
62.9128
81.1913
120.059
28.3643
28.9589
29.4986
30.119
31.0852
32.8099
35.8774
41.1508
49.9355
64.7648
92.5784
152.318
27.4412
27.9262
28.3805
28.9386
29.8441
31.4663
34.3928
39.5656
48.6393
65.0496
99.1741
178.179
27.3736
27.7815
28.1889
28.715
29.5769
31.124
33.941
38.9794
47.9608
64.9246
102.827
201.52
28.304
28.6676
29.0516
29.5449
30.3266
31.7233
34.3015
39.0431
47.8062
64.6951
104.948
222.528
30.9203
31.0686
31.2676
31.5858
32.184
33.3378
35.5846
39.9149
48.2384
64.848
105.91
247.842
35.8732
35.4016
35.077
34.9858
35.2373
35.9958
37.784
41.569
49.3329
65.5492
107.461
277.707
43.322
41.7268
40.4718
39.6086
39.2709
39.6234
40.844
43.9532
50.9813
66.5713
109.056
309.58
52.43
49.3122
46.8255
44.9857
43.8442
43.6818
44.4537
46.8363
52.9221
67.6312
111.164
349.527
60.7767
56.2715
52.6814
50.0038
48.2118
47.4931
47.9416
49.6458
54.3764
67.5853
111.424
416.554
2.42144
4.68169
4.63617
4.43303
3.93047
3.22625
3.117
4.63406
20.2943
38.4128
46.8404
51.8954
2.36578
4.89399
4.78948
4.88377
5.69986
10.3991
20.5969
22.9988
28.344
33.5922
34.9611
35.7273
8.26752
6.99637
9.16061
13.7219
17.7045
18.2583
19.5599
22.3898
25.9547
27.6496
28.7524
29.8483
12.7307
10.2278
13.3451
15.3101
16.2688
16.8067
19.3665
22.3474
24.5203
25.7118
26.7011
27.6387
14.6269
11.9068
13.8495
14.4649
15.2068
17.2113
20.0503
22.7128
24.4737
25.3944
26.1488
26.8612
15.5428
12.3324
13.474
14.1158
15.8067
18.5449
21.4144
23.5489
24.8921
25.6983
26.3301
26.9017
16.026
12.0264
12.9233
14.7013
17.4634
20.6326
23.3277
25.2142
26.3229
26.9979
27.4902
27.9195
16.5662
11.9732
13.6639
17.0953
21.2451
24.8806
27.4962
29.1345
30.0021
30.4271
30.6411
30.7864
17.9592
13.1193
17.6525
24.0919
30.1059
34.3179
36.7655
37.843
38.0083
37.6581
37.081
36.4496
20.4656
17.7988
30.1022
41.5252
49.5936
53.6693
54.6798
53.8369
51.9964
49.7295
47.409
45.2331
25.4296
35.8369
61.2961
77.48
83.6294
83.7832
80.6706
75.9701
70.7113
65.4612
60.5739
56.1962
116.174
109.076
119.529
122.753
120.076
112.871
104.555
95.9615
87.6178
79.7527
72.6077
66.2471
55.4764
57.2321
57.9019
57.656
56.7676
53.8439
49.9116
43.8834
36.8886
27.8804
18.4724
23.0675
36.2862
36.7938
37.2761
37.8861
38.6753
39.9947
42.492
46.4528
51.5611
57.432
61.4362
74.9817
30.6929
31.3365
31.824
32.3353
33.2444
34.9698
38.0117
43.0404
50.9506
62.9145
81.1941
120.064
28.3646
28.9591
29.4989
30.1193
31.0855
32.8102
35.8778
41.1513
49.9362
64.766
92.5806
152.323
27.4413
27.9263
28.3806
28.9387
29.8441
31.4663
34.3929
39.5658
48.6396
65.0504
99.1757
178.183
27.3735
27.7813
28.1888
28.7149
29.5768
31.1239
33.9409
38.9795
47.961
64.925
102.828
201.524
28.3037
28.6673
29.0513
29.5446
30.3263
31.7231
34.3014
39.043
47.8063
64.6954
104.949
222.532
30.9197
31.068
31.2671
31.5853
32.1836
33.3375
35.5844
39.9148
48.2384
64.8482
105.911
247.845
35.8724
35.4009
35.0763
34.9852
35.2368
35.9954
37.7837
41.5688
49.3329
65.5494
107.461
277.71
43.3211
41.7259
40.471
39.608
39.2704
39.623
40.8438
43.953
50.9812
66.5714
109.056
309.582
52.429
49.3113
46.8248
44.9851
43.8438
43.6815
44.4535
46.8362
52.922
67.6311
111.164
349.527
60.776
56.2709
52.681
50.0035
48.2117
47.4931
47.9416
49.6458
54.3763
67.585
111.424
416.551
156.008
147.581
139.176
130.955
123.818
116.383
108.745
100.966
93.1427
85.3588
77.9971
71.1809
97.1063
98.4349
98.4615
97.8823
96.9204
95.2009
92.8508
89.6463
85.289
79.9537
74.484
68.9763
69.1747
70.5676
71.4254
71.8882
72.1897
72.0819
71.5854
70.5788
68.9973
67.0168
64.4928
61.2827
54.7252
55.2243
55.3818
55.3142
55.2212
55.0924
54.9022
54.604
54.1451
53.522
52.736
51.8353
65.1552
60.1838
56.2147
53.2564
51.2806
50.2749
50.4756
51.5361
54.6521
63.2122
86.4064
170.322
63.8833
59.732
56.4375
54.0113
52.3787
51.3951
51.3988
51.9521
53.6673
57.9153
68.3554
92.8468
58.1768
55.7886
53.8371
52.3414
51.2247
50.3907
50.0879
50.1931
51.0767
52.868
57.6289
66.325
51.1089
50.3117
49.3027
48.2498
47.2589
46.4231
46.0221
46.017
46.7143
47.6671
50.0769
53.4898
156
147.576
139.173
130.953
123.818
116.384
108.746
100.968
93.1448
85.361
77.9995
71.1834
97.1031
98.4327
98.4604
97.8818
96.9206
95.2016
92.8518
89.6475
85.2906
79.9554
74.4859
68.9784
69.173
70.5664
71.4248
71.8882
72.1903
72.0828
71.5865
70.5801
68.9987
67.0183
64.4945
61.2845
54.7231
55.2232
55.3817
55.3146
55.2221
55.0935
54.9036
54.6055
54.1467
53.5236
52.7377
51.837
65.1577
60.1864
56.2172
53.2588
51.2829
50.277
50.4776
51.538
54.6541
63.2145
86.4096
170.329
63.8855
59.7343
56.4398
54.0135
52.3809
51.3971
51.4007
51.9539
53.6691
57.9173
68.3577
92.85
58.1788
55.7906
53.8391
52.3434
51.2267
50.3926
50.0897
50.1949
51.0784
52.8698
57.6309
66.3272
51.1106
50.3135
49.3044
48.2515
47.2606
46.4247
46.0236
46.0185
46.7158
47.6686
50.0784
53.4913
156.006
147.582
139.177
130.956
123.818
116.384
108.746
100.967
93.1446
85.3613
78.0002
71.1843
97.1062
98.436
98.4632
97.8839
96.9217
95.202
92.8519
89.6472
85.2902
79.9552
74.4859
68.9785
69.1752
70.5686
71.4268
71.8899
72.1914
72.0834
71.5867
70.58
68.9985
67.0179
64.494
61.284
54.7246
55.2246
55.383
55.3157
55.2228
55.0939
54.9037
54.6054
54.1464
53.5232
52.7372
51.8365
65.1588
60.1875
56.2184
53.26
51.2841
50.2784
50.4791
51.5397
54.6562
63.2172
86.4138
170.339
63.8856
59.7345
56.4401
54.0139
52.3814
51.3979
51.4016
51.9551
53.6707
57.9194
68.3608
92.855
58.1783
55.7902
53.8388
52.3433
51.2268
50.3929
50.0905
50.1959
51.0798
52.8717
57.6336
66.3309
51.1102
50.3132
49.3043
48.2517
47.2611
46.4256
46.0251
46.0203
46.718
47.6713
50.0816
53.4951
156.013
147.586
139.18
130.959
123.822
116.387
108.748
100.969
93.1457
85.3618
78.0004
71.1843
97.1117
98.441
98.4678
97.8884
96.9261
95.2062
92.8558
89.6507
85.2928
79.9572
74.4875
68.9798
69.1794
70.573
71.4314
71.8945
72.1961
72.0881
71.5914
70.5844
69.0026
67.0217
64.4972
61.2866
54.7287
55.229
55.3875
55.3203
55.2275
55.0986
54.9083
54.6099
54.1507
53.5272
52.7408
51.8398
65.1588
60.1876
56.2186
53.2604
51.2845
50.2788
50.4794
51.5399
54.6561
63.2169
86.4129
170.336
63.8869
59.7357
56.4413
54.015
52.3824
51.3986
51.4021
51.9553
53.6706
57.919
68.3599
92.8536
58.1807
55.7925
53.8408
52.3449
51.228
50.3937
50.0907
50.1959
51.0795
52.8711
57.6325
66.3297
51.1131
50.3155
49.306
48.2528
47.2617
46.4256
46.0246
46.0196
46.717
47.6701
50.0803
53.4944
45.3192
44.9472
44.5329
44.1611
43.9445
43.8203
43.7624
43.7742
43.8423
43.9824
44.1765
44.3738
38.0494
37.6042
37.2411
37.0036
36.9163
36.9366
37.0626
37.342
37.7731
38.2982
38.7882
39.0293
32.6337
32.4213
32.2952
32.2552
32.2741
32.3286
32.4608
32.8169
33.4461
34.3327
35.4232
36.2487
28.478
28.5427
28.6454
28.7417
28.7796
28.7323
28.7033
28.8349
29.3613
30.4969
32.8997
37.2609
44.4264
42.6719
41.0607
40.2693
39.8672
39.9381
40.5232
41.426
42.6
43.7988
45.0745
45.7755
38.7889
35.3169
33.2595
32.7467
32.9582
33.765
34.9897
36.3595
37.5712
38.4604
39.062
38.8976
36.4947
29.7333
27.1391
26.7437
27.3044
28.4849
29.9901
31.4288
32.5239
33.2315
33.5492
33.241
41.5034
25.8596
22.3423
21.9173
22.6435
23.9502
25.495
26.8721
27.8773
28.5157
28.8023
28.6896
45.319
44.9478
44.5342
44.1626
43.9462
43.822
43.7641
43.7759
43.844
43.9842
44.1783
44.3755
38.0503
37.6056
37.2428
37.0054
36.9182
36.9384
37.0643
37.3437
37.7748
38.2999
38.7899
39.0309
32.635
32.4229
32.2971
32.2571
32.2759
32.3304
32.4625
32.8184
33.4476
34.3341
35.4247
36.2502
28.4795
28.5444
28.6473
28.7436
28.7815
28.7339
28.7047
28.8361
29.3624
30.4979
32.9009
37.2624
44.428
42.6734
41.0621
40.2706
39.8683
39.9392
40.5242
41.427
42.6009
43.7996
45.0753
45.7763
38.7904
35.3181
33.2605
32.7475
32.9589
33.7655
34.9902
36.3599
37.5715
38.4607
39.0623
38.8979
36.4961
29.7342
27.1396
26.744
27.3046
28.485
29.9901
31.4287
32.5238
33.2314
33.5491
33.241
41.5048
25.8601
22.3425
21.9173
22.6434
23.95
25.4946
26.8718
27.8769
28.5154
28.802
28.6894
45.3197
44.9484
44.5346
44.1629
43.9462
43.8219
43.7639
43.7757
43.8438
43.9842
44.1785
44.3761
38.0505
37.6057
37.2429
37.0054
36.9181
36.9383
37.0643
37.3439
37.7752
38.3008
38.7915
39.0331
32.635
32.4229
32.297
32.2571
32.276
32.3306
32.4628
32.8193
33.4488
34.336
35.4279
36.2545
28.4794
28.5444
28.6473
28.7437
28.7818
28.7345
28.7056
28.8377
29.3645
30.5009
32.9053
37.2686
44.429
42.6746
41.0636
40.2724
39.8707
39.9419
40.5273
41.4303
42.6045
43.8035
45.0795
45.7806
38.7933
35.3209
33.2634
32.7508
32.9625
33.7694
34.9943
36.3642
37.5759
38.4652
39.0669
38.9023
36.501
29.7383
27.1436
26.7481
27.3089
28.4895
29.9947
31.4333
32.5284
33.236
33.5536
33.2452
41.5134
25.8652
22.347
21.9218
22.6479
23.9547
25.4994
26.8764
27.8815
28.5198
28.8062
28.6932
45.3242
44.9528
44.539
44.1672
43.9504
43.8259
43.7677
43.7792
43.8469
43.9868
44.1805
44.3775
38.0548
37.6099
37.2468
37.0091
36.9215
36.9414
37.067
37.3461
37.7768
38.3017
38.7916
39.0325
32.6389
32.4265
32.3004
32.2601
32.2786
32.3327
32.4645
32.82
33.449
34.3354
35.4261
36.2519
28.4828
28.5474
28.6499
28.746
28.7836
28.7357
28.7061
28.8372
29.3633
30.4988
32.9021
37.2643
44.4297
42.6748
41.0633
40.2718
39.8696
39.9406
40.5258
41.4287
42.6028
43.8019
45.0783
45.7795
38.7919
35.3195
33.262
32.7491
32.9606
33.7675
34.9922
36.3622
37.574
38.4634
39.0654
38.9008
36.4979
29.7359
27.1414
26.746
27.3067
28.4872
29.9924
31.4312
32.5264
33.2342
33.552
33.2436
41.5077
25.8621
22.3444
21.9194
22.6456
23.9524
25.4971
26.8743
27.8795
28.518
28.8046
28.6916
25.0664
25.3558
25.6248
25.7892
25.757
25.4442
24.959
24.4109
23.9177
23.5586
23.752
27.4551
22.0692
22.518
22.8834
23.058
22.8753
22.2016
21.0736
19.4806
17.2792
13.9877
8.3397
3.36777
19.3215
19.8665
20.2718
20.4208
20.0738
19.0633
17.356
14.8999
11.5875
7.35696
3.20035
1.94666
16.7574
17.3457
17.7609
17.8747
17.4103
16.191
14.1605
11.3408
7.88384
4.35116
2.05807
1.82113
14.3762
14.9704
15.3801
15.4678
14.9607
13.6945
11.6263
8.88752
5.8464
3.24353
1.79656
1.78417
12.2084
12.7829
13.1795
13.2566
12.7758
11.5999
9.70085
7.28651
4.79747
2.86038
1.76613
1.70982
10.295
10.833
11.2122
11.2914
10.8813
9.88485
8.26019
6.2459
4.25487
2.75275
1.81552
1.55257
8.68026
9.17335
9.53209
9.6177
9.3003
8.51934
7.19375
5.56179
3.97068
2.74682
1.88302
1.34195
7.42211
7.87072
8.20846
8.306
8.08029
7.49518
6.44596
5.13857
3.8507
2.80084
1.92452
1.08108
6.64251
7.06356
7.39335
7.50772
7.35821
6.90909
6.07166
5.00885
3.89776
2.92056
1.9355
0.794145
6.83902
7.29733
7.66955
7.81946
7.70416
7.26953
6.52313
5.55857
4.42015
3.26829
1.90679
0.536233
12.7504
13.7495
14.6234
14.9888
14.7487
13.8864
12.4517
10.4352
7.8273
4.90701
2.1842
0.298673
68.2858
22.5276
18.2788
17.9255
18.7296
20.0286
21.4936
22.7816
23.7404
24.3799
24.758
24.9154
41.0396
17.4421
14.6662
14.5741
15.4148
16.6403
17.9769
19.1669
20.0927
20.7685
21.2608
21.6509
28.9567
13.4476
11.6686
11.7853
12.6145
13.7332
14.9259
16.0097
16.8907
17.5935
18.1847
18.7431
21.2419
10.4351
9.25842
9.48827
10.2687
11.2655
12.3126
13.2841
14.1078
14.8105
15.4541
16.1
15.7578
8.15634
7.33945
7.61409
8.3242
9.19704
10.1046
10.9589
11.7141
12.389
13.0344
13.6996
11.6267
6.40664
5.8153
6.09737
6.73228
7.48815
8.26553
9.00639
9.68278
10.3064
10.9182
11.5567
8.50632
5.06339
4.60555
4.87797
5.44826
6.10153
6.76241
7.39813
7.9924
8.55277
9.11079
9.69568
6.16032
3.99432
3.64302
3.9045
4.43364
5.00586
5.56874
6.11218
6.62995
7.12624
7.62396
8.14515
4.32014
3.07355
2.8654
3.14426
3.66411
4.18354
4.67229
5.14241
5.59819
6.04072
6.48471
6.947
2.83687
2.24562
2.23878
2.6095
3.1737
3.68308
4.129
4.54923
4.96216
5.36687
5.78018
6.20598
1.57991
1.54702
1.8306
2.43712
3.10974
3.66625
4.13149
4.57342
5.02001
5.46095
5.91312
6.37219
1.69674
1.83016
2.91707
4.33856
5.41583
6.28178
7.07484
7.93955
8.91837
9.89457
10.8379
11.777
25.0679
25.3574
25.6266
25.791
25.7588
25.4457
24.9603
24.412
23.9185
23.5593
23.7529
27.4571
22.0706
22.5196
22.885
23.0597
22.877
22.2031
21.0749
19.4816
17.28
13.9883
8.34046
3.36851
19.3227
19.8679
20.2734
20.4224
20.0754
19.0647
17.3572
14.9009
11.5884
7.35776
3.201
1.94727
16.7585
17.3469
17.7623
17.8762
17.4118
16.1924
14.1618
11.342
7.8848
4.35192
2.05859
1.82171
14.3772
14.9716
15.3814
15.4692
14.9621
13.6959
11.6276
8.88866
5.84734
3.24422
1.79701
1.78472
12.2094
12.784
13.1807
13.2579
12.7772
11.6012
9.70211
7.28761
4.79835
2.86101
1.76657
1.71033
10.2959
10.834
11.2133
11.2926
10.8825
9.8861
8.26138
6.24693
4.25569
2.75334
1.81594
1.55302
8.68114
9.17427
9.5331
9.6188
9.30145
8.52051
7.19487
5.56276
3.97145
2.7474
1.88343
1.34233
7.42297
7.87161
8.20942
8.30703
8.08137
7.49628
6.44702
5.13949
3.85145
2.8014
1.92494
1.08138
6.64341
7.06447
7.39432
7.50874
7.35927
6.91016
6.07269
5.00975
3.89852
2.92115
1.93592
0.794359
6.8399
7.29838
7.67065
7.82061
7.70536
7.27073
6.52429
5.5596
4.42103
3.26896
1.9072
0.536377
12.7525
13.7517
14.6257
14.9912
14.7512
13.8889
12.454
10.4372
7.82895
4.90807
2.18467
0.298727
68.2885
22.5279
18.2787
17.9254
18.7293
20.0282
21.4931
22.781
23.7399
24.3795
24.7576
24.9152
41.0405
17.4421
14.666
14.5738
15.4144
16.6397
17.9763
19.1663
20.0922
20.7681
21.2605
21.6508
28.9569
13.4476
11.6683
11.7849
12.6141
13.7326
14.9253
16.0092
16.8901
17.5931
18.1844
18.743
21.2419
10.435
9.25819
9.48793
10.2682
11.265
12.312
13.2836
14.1074
14.8102
15.4539
16.0999
15.7578
8.15621
7.33924
7.61379
8.32382
9.19661
10.1042
10.9584
11.7138
12.3888
13.0343
13.6996
11.6266
6.40652
5.81513
6.09714
6.73199
7.48782
8.26519
9.00607
9.68252
10.3062
10.9181
11.5568
8.50624
5.06328
4.60541
4.87781
5.44805
6.1013
6.76217
7.39791
7.99223
8.55267
9.11079
9.69581
6.16025
3.99423
3.64293
3.9044
4.43351
5.00571
5.56858
6.11204
6.62985
7.12621
7.62402
8.14532
4.32012
3.07346
2.86534
3.1442
3.66405
4.18345
4.6722
5.14233
5.59816
6.04074
6.48481
6.9472
2.83687
2.24556
2.23875
2.60949
3.17369
3.68305
4.12896
4.5492
4.96217
5.36693
5.78031
6.20621
1.57992
1.547
1.83059
2.43716
3.10976
3.66624
4.13146
4.5734
5.02004
5.46103
5.91328
6.37246
1.69673
1.83015
2.91707
4.33862
5.41584
6.28171
7.07469
7.93945
8.9184
9.8947
10.8382
11.7774
25.0678
25.3575
25.6268
25.7913
25.7594
25.4467
24.9616
24.4139
23.9209
23.5624
23.7565
27.4608
22.0706
22.5198
22.8854
23.0602
22.8779
22.2042
21.0763
19.4834
17.282
13.9902
8.34141
3.36862
19.3228
19.8682
20.2739
20.4231
20.0764
19.066
17.3587
14.9024
11.5897
7.35851
3.20114
1.94722
16.7586
17.3474
17.7629
17.877
17.4129
16.1936
14.163
11.3431
7.88555
4.35221
2.05864
1.82168
14.3774
14.972
15.3821
15.47
14.9631
13.697
11.6286
8.88949
5.84782
3.24439
1.79707
1.7847
12.2096
12.7845
13.1813
13.2587
12.7782
11.6022
9.70301
7.28827
4.79872
2.86117
1.76663
1.71035
10.2962
10.8344
11.2139
11.2934
10.8834
9.88699
8.26217
6.24748
4.25601
2.75351
1.81603
1.55304
8.68144
9.17473
9.5337
9.61952
9.30225
8.52129
7.19557
5.56325
3.97176
2.74759
1.88354
1.34236
7.42329
7.87204
8.20998
8.30769
8.0821
7.49697
6.44767
5.13994
3.85177
2.80162
1.92506
1.08142
6.64373
7.0649
7.39485
7.50936
7.35995
6.91082
6.0733
5.0102
3.89885
2.92138
1.93605
0.794391
6.84026
7.29884
7.67122
7.82127
7.70607
7.27141
6.52493
5.56008
4.42141
3.26923
1.90733
0.536409
12.7531
13.7525
14.6267
14.9925
14.7525
13.8902
12.4552
10.4382
7.82963
4.90846
2.18482
0.298743
68.3055
22.5335
18.2833
17.9298
18.7338
20.0328
21.4977
22.7855
23.7442
24.3835
24.7614
24.9185
41.0528
17.4472
14.6703
14.578
15.4186
16.644
17.9807
19.1705
20.0961
20.7717
21.2638
21.6536
28.9666
13.452
11.6722
11.7888
12.618
13.7366
14.9293
16.0129
16.8937
17.5963
18.1872
18.7453
21.2495
10.4388
9.26157
9.49133
10.2717
11.2685
12.3156
13.2869
14.1105
14.813
15.4563
16.1019
15.7637
8.15938
7.34214
7.61675
8.32689
9.19974
10.1073
10.9614
11.7165
12.3912
13.0363
13.7013
11.6312
6.40915
5.81758
6.09968
6.73464
7.49054
8.26788
9.00864
9.68487
10.3083
10.9199
11.5582
8.50964
5.06544
4.60746
4.87996
5.45033
6.10365
6.76451
7.40014
7.99428
8.55449
9.11233
9.69702
6.16275
3.99598
3.64462
3.9062
4.43546
5.00775
5.57063
6.11399
6.63164
7.1278
7.62537
8.14638
4.32184
3.07485
2.8667
3.14572
3.66574
4.18526
4.67401
5.14407
5.59976
6.04217
6.48603
6.94817
2.83798
2.24657
2.23984
2.6108
3.17521
3.68472
4.13066
4.55084
4.96368
5.36828
5.78148
6.20714
1.5805
1.54768
1.83153
2.43842
3.11132
3.668
4.13327
4.57516
5.02168
5.46252
5.91457
6.3735
1.69744
1.83098
2.91873
4.34096
5.41873
6.28493
7.07803
7.94272
8.9215
9.89758
10.8408
11.7796
25.0706
25.3599
25.6288
25.7929
25.7603
25.447
24.9613
24.4127
23.9191
23.5598
23.7536
27.4582
22.0728
22.5215
22.8868
23.0612
22.8782
22.204
21.0756
19.4821
17.2804
13.9886
8.34074
3.36868
19.3246
19.8695
20.2748
20.4236
20.0763
19.0655
17.3578
14.9013
11.5887
7.35799
3.20114
1.94735
16.76
17.3483
17.7635
17.8772
17.4125
16.193
14.1622
11.3423
7.88505
4.3521
2.05867
1.82178
14.3786
14.9727
15.3824
15.4699
14.9627
13.6963
11.6279
8.88892
5.84754
3.24434
1.79707
1.78478
12.2106
12.785
13.1815
13.2585
12.7776
11.6015
9.70238
7.28782
4.79851
2.8611
1.76661
1.71037
10.297
10.8349
11.214
11.2931
10.8829
9.8864
8.2616
6.24711
4.25581
2.75341
1.81597
1.55306
8.68217
9.17512
9.53378
9.61931
9.30185
8.52079
7.19507
5.56291
3.97155
2.74745
1.88345
1.34235
7.42397
7.87243
8.21008
8.30754
8.08177
7.49657
6.44721
5.13963
3.85154
2.80145
1.92495
1.08138
6.64442
7.06533
7.39501
7.50928
7.35971
6.91048
6.07292
5.00992
3.89861
2.92119
1.93593
0.794361
6.84107
7.29938
7.67147
7.82126
7.70587
7.27113
6.52458
5.5598
4.42114
3.269
1.9072
0.536375
12.7548
13.7538
14.6273
14.9924
14.7522
13.8897
12.4546
10.4376
7.82913
4.90813
2.18468
0.298726
68.2949
22.5301
18.2807
17.9274
18.7315
20.0305
21.4955
22.7835
23.7424
24.3819
24.76
24.9169
41.0452
17.4441
14.6678
14.5757
15.4165
16.6419
17.9786
19.1686
20.0945
20.7703
21.2627
21.6519
28.9607
13.4493
11.67
11.7867
12.616
13.7346
14.9274
16.0112
16.8922
17.5951
18.1862
18.7438
21.2448
10.4365
9.25959
9.48943
10.2699
11.2667
12.3138
13.2854
14.1091
14.8119
15.4554
16.1006
15.7601
8.15743
7.3404
7.61505
8.32522
9.19811
10.1057
10.96
11.7153
12.3901
13.0355
13.7004
11.6283
6.40752
5.81608
6.09817
6.73313
7.48906
8.26649
9.00737
9.68377
10.3074
10.9191
11.5574
8.50754
5.06409
4.60618
4.87863
5.44897
6.10232
6.76325
7.399
7.99328
8.55364
9.11162
9.69633
6.16121
3.99488
3.64353
3.90504
4.43424
5.00653
5.56947
6.11295
6.63074
7.12704
7.62473
8.14575
4.32079
3.07397
2.86581
3.14469
3.66462
4.18412
4.67294
5.1431
5.59893
6.04146
6.48543
6.94757
2.83732
2.24593
2.23911
2.60988
3.17415
3.68361
4.12961
4.54989
4.96287
5.3676
5.78089
6.20654
1.58016
1.54724
1.83088
2.4375
3.1102
3.6668
4.13212
4.57412
5.02078
5.46176
5.91393
6.37275
1.69701
1.83043
2.91754
4.33925
5.41669
6.2828
7.07599
7.94085
8.91981
9.89614
10.8395
11.7781
)
;

boundaryField
{
    rotor
    {
        Cmu             0.09;
        kappa           0.41;
        E               9.8;
        type            epsilonWallFunction;
        value           nonuniform List<scalar> 
192
(
2.41972
4.6784
4.63339
4.4308
3.92878
3.22496
3.11589
4.63236
20.2878
38.405
46.8321
51.8864
55.4669
57.2224
57.8922
57.6464
56.7583
53.8355
49.904
43.8771
36.8837
27.8768
18.4698
23.0632
2.42118
4.68133
4.63576
4.4326
3.93011
3.22604
3.11652
4.63254
20.2867
38.4061
46.8345
51.8893
55.4703
57.2263
57.8963
57.6507
56.7628
53.8399
49.9081
43.8807
36.8866
27.8791
18.4717
23.0664
2.42096
4.6803
4.63478
4.43165
3.92917
3.22503
3.11611
4.63374
20.2956
38.4122
46.8388
51.8936
55.4744
57.2298
57.8995
57.6535
56.7649
53.8413
49.9091
43.8813
36.887
27.8789
18.4712
23.0655
2.42144
4.68169
4.63617
4.43303
3.93047
3.22625
3.117
4.63406
20.2943
38.4128
46.8404
51.8954
55.4764
57.2321
57.9019
57.656
56.7676
53.8439
49.9116
43.8834
36.8886
27.8804
18.4724
23.0675
2.41972
2.36502
8.26431
12.7275
14.6241
15.5407
16.0239
16.5642
17.9569
20.4631
25.4264
116.16
23.0675
74.9817
120.064
152.323
178.183
201.524
222.532
247.845
277.71
309.582
349.527
416.551
2.42118
2.3655
8.26582
12.7283
14.6245
15.5407
16.0248
16.5658
17.9595
20.4664
25.4299
116.163
23.0632
74.9706
120.05
152.305
178.163
201.501
222.507
247.816
277.679
309.547
349.489
416.508
2.42096
2.36543
8.26619
12.7299
14.6264
15.5428
16.0254
16.5653
17.9573
20.4628
25.4264
116.17
23.0664
74.9784
120.059
152.316
178.174
201.513
222.521
247.832
277.695
309.565
349.509
416.531
2.42144
2.36578
8.26752
12.7307
14.6269
15.5428
16.026
16.5662
17.9592
20.4656
25.4296
116.174
23.0655
74.9769
120.059
152.318
178.179
201.52
222.528
247.842
277.707
309.58
349.527
416.554
)
;
    }
    stator
    {
        Cmu             0.09;
        kappa           0.41;
        E               9.8;
        type            epsilonWallFunction;
        value           nonuniform List<scalar> 
192
(
12.7504
13.7495
14.6234
14.9888
14.7487
13.8864
12.4517
10.4352
7.8273
4.90701
2.1842
0.298673
1.69674
1.83016
2.91707
4.33856
5.41583
6.28178
7.07484
7.93955
8.91837
9.89457
10.8379
11.777
12.7525
13.7517
14.6257
14.9912
14.7512
13.8889
12.454
10.4372
7.82895
4.90807
2.18467
0.298727
1.69673
1.83015
2.91707
4.33862
5.41584
6.28171
7.07469
7.93945
8.9184
9.8947
10.8382
11.7774
12.7531
13.7525
14.6267
14.9925
14.7525
13.8902
12.4552
10.4382
7.82963
4.90846
2.18482
0.298743
1.69744
1.83098
2.91873
4.34096
5.41873
6.28493
7.07803
7.94272
8.9215
9.89758
10.8408
11.7796
12.7548
13.7538
14.6273
14.9924
14.7522
13.8897
12.4546
10.4376
7.82913
4.90813
2.18468
0.298726
1.69701
1.83043
2.91754
4.33925
5.41669
6.2828
7.07599
7.94085
8.91981
9.89614
10.8395
11.7781
68.2858
41.0396
28.9567
21.2419
15.7578
11.6267
8.50632
6.16032
4.32014
2.83687
1.57991
1.69674
27.4551
3.36777
1.94666
1.82113
1.78417
1.70982
1.55257
1.34195
1.08108
0.794145
0.536233
0.298673
68.2885
41.0405
28.9569
21.2419
15.7578
11.6266
8.50624
6.16025
4.32012
2.83687
1.57992
1.69673
27.4571
3.36851
1.94727
1.82171
1.78472
1.71033
1.55302
1.34233
1.08138
0.794359
0.536377
0.298727
68.3055
41.0528
28.9666
21.2495
15.7637
11.6312
8.50964
6.16275
4.32184
2.83798
1.5805
1.69744
27.4608
3.36862
1.94722
1.82168
1.7847
1.71035
1.55304
1.34236
1.08142
0.794391
0.536409
0.298743
68.2949
41.0452
28.9607
21.2448
15.7601
11.6283
8.50754
6.16121
4.32079
2.83732
1.58016
1.69701
27.4582
3.36868
1.94735
1.82178
1.78478
1.71037
1.55306
1.34235
1.08138
0.794361
0.536375
0.298726
)
;
    }
    front
    {
        type            empty;
    }
    back
    {
        type            empty;
    }
}


// ************************************************************************* //
