/*--------------------------------*- C++ -*----------------------------------*\
  =========                 |
  \\      /  F ield         | OpenFOAM: The Open Source CFD Toolbox
   \\    /   O peration     | Website:  https://openfoam.org
    \\  /    A nd           | Version:  6
     \\/     M anipulation  |
\*---------------------------------------------------------------------------*/
FoamFile
{
    version     2.0;
    format      ascii;
    class       volScalarField;
    location    "500";
    object      k;
}
// * * * * * * * * * * * * * * * * * * * * * * * * * * * * * * * * * * * * * //

dimensions      [0 2 -2 0 0 0 0];

internalField   nonuniform List<scalar> 
3072
(
0.0585379
0.060456
0.0600665
0.0583012
0.0538096
0.047175
0.0461013
0.0600464
0.16074
0.246034
0.280842
0.300709
0.0714359
0.108991
0.112535
0.109132
0.0944733
0.0970637
0.168716
0.193995
0.255548
0.333989
0.397102
0.465526
0.0679292
0.124362
0.165205
0.196336
0.208755
0.198718
0.227627
0.302122
0.392036
0.478836
0.55517
0.622473
0.0962547
0.187132
0.21908
0.222489
0.221672
0.243902
0.326407
0.422099
0.511662
0.590007
0.657994
0.716035
0.111634
0.218247
0.240014
0.239425
0.260082
0.333862
0.430502
0.522849
0.604077
0.672778
0.731633
0.782095
0.122375
0.238598
0.264436
0.279084
0.338042
0.429093
0.522736
0.607262
0.678762
0.738442
0.789465
0.833468
0.131003
0.257889
0.297548
0.348083
0.432594
0.527718
0.616036
0.691922
0.754587
0.805982
0.849299
0.886505
0.140035
0.286943
0.358135
0.452125
0.55848
0.656243
0.737769
0.802986
0.854088
0.894248
0.926918
0.954453
0.154083
0.334589
0.470192
0.613933
0.742521
0.841733
0.912914
0.962379
0.995952
1.01875
1.03499
1.04756
0.174837
0.415012
0.662348
0.863437
1.00763
1.09934
1.15157
1.17721
1.18536
1.18329
1.17624
1.16747
0.209693
0.566708
0.969471
1.21619
1.34823
1.41035
1.42976
1.42335
1.3997
1.36802
1.33376
1.30016
0.597883
0.971941
1.3922
1.58665
1.66089
1.67479
1.66318
1.6265
1.57818
1.52355
1.46772
1.41363
0.314393
0.321
0.323503
0.322591
0.319273
0.308221
0.293027
0.268935
0.239543
0.198757
0.151057
0.117039
0.526652
0.57662
0.612914
0.629727
0.629415
0.621139
0.606953
0.582519
0.537592
0.443736
0.32628
0.276555
0.676074
0.714996
0.738679
0.748979
0.750824
0.749132
0.743634
0.732705
0.706633
0.642602
0.488025
0.404602
0.762148
0.797005
0.821492
0.837268
0.847336
0.85505
0.862743
0.86961
0.867025
0.833796
0.697254
0.503775
0.823133
0.855384
0.879806
0.898162
0.913357
0.928893
0.947913
0.970835
0.986921
0.979147
0.875658
0.591232
0.870288
0.90048
0.925036
0.945754
0.965576
0.988372
1.01799
1.05583
1.09646
1.11596
1.05864
0.67556
0.918205
0.94512
0.968335
0.9897
1.01222
1.04015
1.07821
1.12932
1.18961
1.23615
1.22018
0.756924
0.978067
0.998721
1.01762
1.03663
1.05868
1.08838
1.13165
1.19365
1.27287
1.34563
1.36094
0.850243
1.05815
1.06796
1.0784
1.09127
1.10911
1.13652
1.18068
1.25004
1.34715
1.4477
1.48222
0.956265
1.15929
1.15331
1.15135
1.15493
1.16529
1.18656
1.2269
1.29879
1.41118
1.54453
1.6143
1.06921
1.27004
1.24552
1.22811
1.22033
1.22479
1.23903
1.27241
1.33959
1.45994
1.62943
1.766
1.20306
1.36494
1.32501
1.29528
1.27769
1.27789
1.28852
1.31582
1.37399
1.48565
1.67641
1.91682
1.40061
0.0585733
0.0604812
0.0600868
0.0583169
0.0538216
0.0471854
0.0461074
0.0600481
0.160735
0.24604
0.280852
0.30072
0.0714501
0.109011
0.112549
0.109143
0.0944825
0.0970644
0.168705
0.19399
0.255543
0.333988
0.397107
0.465536
0.0679372
0.124373
0.165206
0.196328
0.208753
0.198719
0.22761
0.302103
0.392024
0.478832
0.555172
0.622482
0.0962583
0.187136
0.219083
0.222489
0.22167
0.243886
0.326375
0.42208
0.511653
0.590006
0.657998
0.716043
0.111635
0.218251
0.240017
0.239423
0.260068
0.333826
0.430477
0.522835
0.604071
0.672776
0.731636
0.782103
0.122375
0.2386
0.264435
0.27907
0.338017
0.42907
0.522723
0.607256
0.678761
0.738443
0.789468
0.833475
0.131008
0.257896
0.297551
0.348079
0.432587
0.527716
0.61604
0.691929
0.754595
0.80599
0.849308
0.886516
0.140044
0.286965
0.358155
0.452145
0.558503
0.656268
0.737795
0.803012
0.854112
0.89427
0.926938
0.954474
0.154098
0.334626
0.470234
0.61398
0.742572
0.841786
0.912966
0.962428
0.995996
1.01879
1.03503
1.0476
0.174856
0.415056
0.662399
0.863499
1.0077
1.09942
1.15164
1.17728
1.18542
1.18335
1.17629
1.16752
0.209712
0.566744
0.969514
1.21625
1.34829
1.41042
1.42983
1.42342
1.39977
1.36809
1.33383
1.30023
0.597894
0.971959
1.39222
1.58668
1.66094
1.67484
1.66325
1.62656
1.57825
1.52362
1.46779
1.4137
0.314407
0.321015
0.323519
0.322607
0.31929
0.308237
0.293043
0.26895
0.239556
0.198768
0.151067
0.11705
0.526666
0.576638
0.612937
0.629753
0.629442
0.621169
0.606983
0.582549
0.537622
0.44376
0.3263
0.276574
0.676087
0.715014
0.7387
0.749004
0.750852
0.749162
0.743665
0.732737
0.706666
0.642634
0.48805
0.404622
0.762161
0.797021
0.821511
0.837291
0.847362
0.855078
0.862774
0.869642
0.867059
0.833831
0.697287
0.503799
0.823144
0.855398
0.879823
0.898182
0.91338
0.92892
0.947942
0.970869
0.986957
0.979187
0.875696
0.591258
0.870298
0.900493
0.925052
0.945773
0.965598
0.988397
1.01802
1.05587
1.0965
1.116
1.05868
0.675588
0.918218
0.945135
0.968352
0.98972
1.01225
1.04017
1.07824
1.12936
1.18965
1.2362
1.22023
0.756955
0.978088
0.998742
1.01765
1.03665
1.05871
1.08841
1.13168
1.19369
1.27291
1.34569
1.36099
0.850278
1.05819
1.06799
1.07844
1.0913
1.10914
1.13655
1.18072
1.25008
1.3472
1.44775
1.48228
0.956304
1.15934
1.15336
1.15139
1.15497
1.16533
1.1866
1.22695
1.29884
1.41123
1.54459
1.61436
1.06926
1.2701
1.24558
1.22817
1.22038
1.22484
1.23908
1.27246
1.33964
1.46
1.62949
1.76607
1.2031
1.36501
1.32507
1.29535
1.27775
1.27795
1.28858
1.31588
1.37405
1.48571
1.67647
1.91689
1.40067
0.0585689
0.060473
0.0600791
0.0583092
0.0538136
0.0471761
0.0461038
0.0600588
0.160782
0.246066
0.280869
0.300737
0.0714491
0.109008
0.112546
0.109138
0.094468
0.0970782
0.168752
0.194025
0.255594
0.33404
0.397159
0.465586
0.0679403
0.124385
0.165236
0.196359
0.208753
0.198721
0.227675
0.302185
0.392109
0.478912
0.55525
0.622552
0.0962678
0.187156
0.219094
0.222494
0.221679
0.243942
0.326489
0.422179
0.511745
0.59009
0.658081
0.716122
0.111646
0.218266
0.240028
0.239441
0.260121
0.33395
0.430589
0.522935
0.604165
0.672868
0.731727
0.78219
0.122387
0.238621
0.264462
0.27913
0.338119
0.429179
0.522821
0.607349
0.678853
0.738538
0.789565
0.833571
0.131012
0.25791
0.297583
0.348139
0.432666
0.527797
0.61612
0.692011
0.754684
0.806086
0.849409
0.886617
0.140041
0.286957
0.358165
0.452172
0.558541
0.656315
0.737851
0.803079
0.854192
0.894361
0.927037
0.954576
0.154085
0.334593
0.470212
0.613966
0.742568
0.841796
0.912994
0.962474
0.996061
1.01887
1.03512
1.04769
0.174835
0.415009
0.66236
0.86346
1.00767
1.0994
1.15164
1.1773
1.18547
1.18342
1.17637
1.1676
0.209692
0.566711
0.969485
1.21621
1.34826
1.4104
1.42982
1.42344
1.3998
1.36814
1.33389
1.30029
0.597918
0.971981
1.39223
1.58668
1.66093
1.67483
1.66324
1.62657
1.57827
1.52365
1.46783
1.41375
0.314422
0.321028
0.323531
0.322618
0.319298
0.308243
0.293047
0.268952
0.239557
0.198767
0.151065
0.117047
0.526718
0.576686
0.61298
0.62979
0.629476
0.621195
0.607005
0.582566
0.537632
0.443766
0.3263
0.276571
0.676155
0.715078
0.738759
0.749057
0.7509
0.749203
0.743701
0.732768
0.706691
0.642652
0.488058
0.404622
0.762237
0.797095
0.821582
0.837357
0.847423
0.855134
0.862825
0.869687
0.867098
0.83386
0.697305
0.503804
0.823229
0.855481
0.879905
0.89826
0.913455
0.92899
0.948007
0.970927
0.987009
0.979228
0.875723
0.591267
0.870392
0.900586
0.925143
0.945862
0.965683
0.988479
1.01809
1.05594
1.09657
1.11606
1.05872
0.675603
0.918318
0.945234
0.96845
0.989816
1.01234
1.04026
1.07833
1.12944
1.18972
1.23626
1.22028
0.756973
0.978191
0.998845
1.01775
1.03675
1.05881
1.0885
1.13177
1.19378
1.273
1.34576
1.36105
0.8503
1.05829
1.06809
1.07854
1.0914
1.10924
1.13665
1.18081
1.25017
1.34728
1.44783
1.48234
0.956331
1.15943
1.15345
1.15148
1.15506
1.16542
1.18669
1.22704
1.29893
1.41132
1.54468
1.61443
1.06929
1.27017
1.24566
1.22825
1.22045
1.22492
1.23916
1.27254
1.33973
1.46009
1.62958
1.76614
1.20314
1.36506
1.32513
1.29541
1.27781
1.27801
1.28865
1.31595
1.37413
1.48581
1.67657
1.91697
1.40072
0.0585799
0.0604846
0.0600906
0.0583209
0.053825
0.0471875
0.0461123
0.0600614
0.160775
0.246068
0.280876
0.300743
0.071459
0.109022
0.112562
0.109156
0.0944904
0.0970895
0.168751
0.194022
0.255588
0.334036
0.397157
0.465588
0.067947
0.124395
0.165244
0.19637
0.208778
0.198741
0.227659
0.302166
0.392093
0.478901
0.555242
0.622549
0.0962714
0.187165
0.219111
0.222514
0.221697
0.243933
0.326452
0.422156
0.511727
0.590078
0.658071
0.716115
0.111648
0.218276
0.240043
0.239453
0.260113
0.333906
0.430556
0.522912
0.604147
0.672853
0.731714
0.782179
0.122387
0.238625
0.264465
0.279115
0.338081
0.429142
0.522794
0.607328
0.678835
0.738521
0.789549
0.833556
0.131015
0.257913
0.297577
0.348118
0.432637
0.527772
0.616099
0.691993
0.754665
0.806066
0.849388
0.886598
0.140046
0.286968
0.358168
0.452169
0.558535
0.656307
0.737841
0.803066
0.854175
0.894341
0.927015
0.954554
0.154096
0.334618
0.470238
0.613992
0.742591
0.841812
0.913001
0.962473
0.996052
1.01885
1.0351
1.04767
0.17485
0.415049
0.662405
0.86351
1.00772
1.09944
1.15166
1.17732
1.18547
1.18341
1.17636
1.16759
0.20971
0.566754
0.969537
1.21627
1.34832
1.41045
1.42986
1.42346
1.39981
1.36814
1.33389
1.30029
0.597933
0.972017
1.39228
1.58674
1.66099
1.67488
1.66329
1.62661
1.57829
1.52367
1.46784
1.41375
0.31443
0.321036
0.32354
0.322627
0.319308
0.308253
0.293057
0.268961
0.239564
0.198774
0.151071
0.117054
0.526721
0.576692
0.612989
0.629801
0.629487
0.621208
0.607019
0.582581
0.537648
0.443779
0.326311
0.276582
0.676154
0.715079
0.738762
0.749062
0.750906
0.749212
0.743711
0.732779
0.706703
0.642665
0.488069
0.404633
0.762232
0.797092
0.82158
0.837358
0.847425
0.855138
0.86283
0.869693
0.867106
0.833871
0.697317
0.503815
0.82322
0.855474
0.879899
0.898256
0.913451
0.928989
0.948008
0.97093
0.987014
0.979236
0.875734
0.591277
0.870378
0.900574
0.925132
0.945852
0.965676
0.988473
1.01809
1.05594
1.09657
1.11606
1.05873
0.675612
0.9183
0.945218
0.968435
0.989803
1.01233
1.04025
1.07832
1.12944
1.18972
1.23626
1.22028
0.756981
0.97817
0.998825
1.01773
1.03673
1.05879
1.08849
1.13177
1.19377
1.273
1.34576
1.36105
0.850309
1.05827
1.06807
1.07852
1.09138
1.10923
1.13664
1.18081
1.25017
1.34728
1.44783
1.48235
0.956338
1.15941
1.15343
1.15147
1.15505
1.16541
1.18668
1.22703
1.29892
1.41132
1.54468
1.61444
1.06929
1.27016
1.24565
1.22824
1.22045
1.22492
1.23916
1.27254
1.33973
1.46009
1.62958
1.76614
1.20315
1.36506
1.32513
1.29541
1.27781
1.27802
1.28865
1.31595
1.37413
1.4858
1.67656
1.91696
1.40071
1.73041
1.72593
1.74158
1.75766
1.7671
1.75988
1.73909
1.7002
1.65075
1.59274
1.53172
1.47059
1.75355
1.70674
1.68586
1.67791
1.676
1.66971
1.65662
1.63519
1.60253
1.55692
1.50685
1.45388
1.66644
1.62569
1.59043
1.56281
1.54193
1.52389
1.50708
1.4895
1.46921
1.44421
1.41405
1.3798
1.53747
1.50579
1.46656
1.42731
1.39458
1.36749
1.34461
1.32625
1.312
1.30111
1.29247
1.28724
1.41467
1.36967
1.33682
1.31803
1.3182
1.32807
1.35247
1.40196
1.49157
1.65932
1.93822
1.85704
1.40563
1.3702
1.34701
1.33753
1.34128
1.35346
1.37735
1.41809
1.48384
1.59142
1.81383
1.81406
1.35303
1.34045
1.33642
1.33897
1.34767
1.36297
1.38445
1.41497
1.46125
1.5216
1.66148
1.69415
1.29284
1.30616
1.31406
1.3228
1.3325
1.34542
1.3633
1.38656
1.4208
1.45553
1.5334
1.55803
1.73038
1.72593
1.74158
1.75768
1.76713
1.75993
1.73915
1.70026
1.65081
1.5928
1.53179
1.47066
1.75352
1.70674
1.68587
1.67793
1.67604
1.66976
1.65667
1.63524
1.60259
1.55698
1.50692
1.45395
1.6664
1.6257
1.59045
1.56284
1.54197
1.52394
1.50713
1.48955
1.46927
1.44427
1.41411
1.37987
1.53742
1.50579
1.4666
1.42736
1.39463
1.36754
1.34467
1.3263
1.31206
1.30117
1.29253
1.2873
1.41474
1.36974
1.33689
1.3181
1.31826
1.32814
1.35253
1.40202
1.49163
1.65939
1.93829
1.85711
1.4057
1.37027
1.34708
1.3376
1.34135
1.35353
1.37742
1.41816
1.48391
1.59148
1.8139
1.81413
1.3531
1.34053
1.33649
1.33904
1.34774
1.36304
1.38451
1.41503
1.46131
1.52166
1.66155
1.69421
1.29291
1.30622
1.31412
1.32286
1.33256
1.34548
1.36335
1.38661
1.42086
1.45558
1.53345
1.55808
1.73045
1.72599
1.74164
1.75772
1.76715
1.75994
1.73915
1.70027
1.65083
1.59282
1.53181
1.47069
1.75359
1.7068
1.68593
1.67798
1.67607
1.66978
1.65669
1.63525
1.6026
1.55699
1.50693
1.45396
1.66645
1.62576
1.5905
1.56289
1.542
1.52397
1.50715
1.48956
1.46928
1.44427
1.41411
1.37987
1.53747
1.50584
1.46664
1.42739
1.39466
1.36756
1.34468
1.32632
1.31207
1.30117
1.29254
1.2873
1.41477
1.36977
1.33693
1.31814
1.31831
1.32819
1.35259
1.40209
1.49171
1.65949
1.93837
1.85718
1.40571
1.37029
1.3471
1.33763
1.34138
1.35357
1.37747
1.41822
1.48399
1.59158
1.814
1.81421
1.3531
1.34054
1.33651
1.33907
1.34777
1.36308
1.38457
1.4151
1.46139
1.52175
1.66165
1.69431
1.29292
1.30625
1.31416
1.3229
1.33262
1.34554
1.36343
1.3867
1.42096
1.45569
1.53357
1.55819
1.7305
1.72603
1.74168
1.75777
1.76721
1.76
1.73921
1.70032
1.65087
1.59286
1.53184
1.47071
1.75367
1.70687
1.686
1.67805
1.67614
1.66985
1.65676
1.63532
1.60266
1.55705
1.50698
1.454
1.66655
1.62585
1.59059
1.56297
1.54209
1.52405
1.50723
1.48965
1.46936
1.44434
1.41417
1.37993
1.53758
1.50594
1.46674
1.42749
1.39475
1.36765
1.34477
1.3264
1.31215
1.30125
1.2926
1.28736
1.41479
1.36979
1.33695
1.31816
1.31832
1.3282
1.3526
1.40209
1.4917
1.65947
1.93835
1.85717
1.40575
1.37033
1.34714
1.33766
1.3414
1.35359
1.37748
1.41822
1.48397
1.59155
1.81396
1.81418
1.35315
1.34058
1.33655
1.33909
1.34779
1.36309
1.38456
1.41508
1.46137
1.52172
1.6616
1.69427
1.29297
1.30628
1.31417
1.32291
1.33261
1.34552
1.3634
1.38667
1.42091
1.45565
1.53352
1.55815
1.37471
1.33309
1.29153
1.25429
1.22483
1.20204
1.18551
1.17577
1.17324
1.17821
1.19236
1.21774
1.24457
1.20494
1.16798
1.1358
1.10978
1.08935
1.07503
1.06762
1.06752
1.07424
1.08933
1.11568
1.14261
1.11027
1.07994
1.05216
1.02708
1.00467
0.985968
0.971881
0.96259
0.957786
0.959329
0.975394
1.05945
1.03578
1.01196
0.987125
0.960501
0.932123
0.903033
0.874006
0.844763
0.814513
0.787068
0.782954
1.24629
1.25997
1.2604
1.26807
1.28097
1.30059
1.32585
1.35409
1.38409
1.41073
1.43423
1.41959
1.14734
1.16229
1.1568
1.16578
1.18582
1.21442
1.24767
1.27981
1.30455
1.31952
1.32215
1.29181
1.01841
1.04908
1.04483
1.05665
1.08293
1.11786
1.15602
1.18782
1.20876
1.21876
1.21299
1.18206
0.840354
0.924022
0.931895
0.948941
0.98002
1.01861
1.05853
1.0895
1.10918
1.11796
1.112
1.08794
1.37472
1.33313
1.29159
1.25435
1.22489
1.2021
1.18557
1.17583
1.1733
1.17827
1.19242
1.2178
1.24461
1.20499
1.16805
1.13587
1.10985
1.08941
1.07508
1.06768
1.06757
1.07429
1.08939
1.11573
1.14266
1.11033
1.08001
1.05223
1.02715
1.00473
0.986024
0.971932
0.962636
0.95783
0.959372
0.975435
1.05951
1.03585
1.01203
0.987199
0.96057
0.932185
0.903087
0.874053
0.844803
0.814547
0.787098
0.782982
1.24634
1.26003
1.26045
1.26812
1.28102
1.30063
1.3259
1.35413
1.38413
1.41077
1.43426
1.41963
1.14738
1.16234
1.15684
1.16582
1.18585
1.21445
1.24769
1.27984
1.30458
1.31954
1.32217
1.29183
1.01844
1.04911
1.04486
1.05668
1.08296
1.11788
1.15603
1.18783
1.20877
1.21878
1.21301
1.18207
0.84038
0.924045
0.931913
0.948955
0.98003
1.01861
1.05853
1.08951
1.10919
1.11796
1.112
1.08795
1.37475
1.33315
1.29161
1.25437
1.2249
1.20211
1.18558
1.17584
1.1733
1.17828
1.19244
1.21783
1.24463
1.20501
1.16806
1.13588
1.10985
1.08942
1.07509
1.06769
1.06758
1.07432
1.08942
1.11579
1.14268
1.11034
1.08002
1.05224
1.02716
1.00474
0.986037
0.97195
0.962664
0.957872
0.959424
0.975511
1.05952
1.03585
1.01204
0.987207
0.960579
0.932198
0.903105
0.874078
0.844839
0.814596
0.787159
0.783058
1.24639
1.26009
1.26052
1.26821
1.28112
1.30074
1.32601
1.35425
1.38425
1.41089
1.43439
1.41975
1.14747
1.16243
1.15695
1.16594
1.18598
1.21459
1.24783
1.27998
1.30472
1.31968
1.32231
1.29195
1.01855
1.04923
1.045
1.05682
1.08311
1.11803
1.15619
1.18799
1.20892
1.21892
1.21314
1.18219
0.840495
0.924184
0.932066
0.949115
0.980195
1.01878
1.05869
1.08966
1.10934
1.11811
1.11213
1.08806
1.37486
1.33326
1.29171
1.25446
1.22499
1.2022
1.18566
1.17591
1.17336
1.17832
1.19248
1.21785
1.24474
1.20512
1.16815
1.13597
1.10993
1.08949
1.07515
1.06774
1.06762
1.07433
1.08942
1.11577
1.14278
1.11044
1.08011
1.05232
1.02723
1.00479
0.986078
0.971975
0.962671
0.95786
0.959401
0.975467
1.05962
1.03594
1.01212
0.987271
0.960631
0.932236
0.903129
0.874086
0.844828
0.814568
0.787119
0.783006
1.24639
1.26007
1.2605
1.26817
1.28107
1.30068
1.32595
1.3542
1.3842
1.41084
1.43435
1.41972
1.14743
1.16238
1.15689
1.16587
1.18591
1.21452
1.24776
1.27991
1.30465
1.31962
1.32226
1.29191
1.01849
1.04916
1.04492
1.05674
1.08302
1.11795
1.15611
1.18791
1.20885
1.21886
1.21309
1.18215
0.840422
0.924097
0.931974
0.949022
0.980103
1.01869
1.05861
1.08959
1.10927
1.11804
1.11209
1.08802
0.986296
0.970999
0.952992
0.930065
0.90045
0.863638
0.81984
0.768717
0.707146
0.625237
0.49167
0.294387
0.916934
0.909051
0.896134
0.874719
0.841993
0.796403
0.736872
0.661785
0.566161
0.437778
0.241425
0.074377
0.847772
0.846118
0.837722
0.817987
0.783222
0.730788
0.65865
0.565307
0.448442
0.307567
0.150926
0.0527732
0.77733
0.780611
0.77635
0.758815
0.723849
0.668093
0.589315
0.487783
0.366872
0.239683
0.130186
0.0515771
0.7057
0.71268
0.711999
0.697261
0.664128
0.608998
0.529994
0.429757
0.316672
0.209022
0.126187
0.0519474
0.633463
0.643134
0.645338
0.633839
0.604269
0.553189
0.479067
0.38642
0.286013
0.194873
0.125207
0.0515241
0.561372
0.572821
0.577298
0.569079
0.544206
0.499648
0.433618
0.351661
0.264624
0.186232
0.12356
0.0492707
0.489873
0.502292
0.508424
0.503121
0.48352
0.446869
0.390519
0.320179
0.245576
0.17721
0.118622
0.0455665
0.418592
0.431181
0.438383
0.435567
0.420832
0.392297
0.346681
0.287666
0.224158
0.16416
0.108383
0.0401881
0.34489
0.356879
0.364553
0.363636
0.35295
0.331787
0.297544
0.249641
0.196066
0.14371
0.0906812
0.0333129
0.258843
0.269163
0.276461
0.276835
0.269807
0.254532
0.231713
0.197991
0.153759
0.109921
0.0616683
0.0260937
0.116198
0.122189
0.127313
0.129425
0.12804
0.123
0.114375
0.101667
0.0839303
0.0614776
0.035839
0.0231256
0.540512
0.783766
0.818136
0.8444
0.879344
0.919814
0.959916
0.990669
1.0105
1.02044
1.01852
1.00383
0.393913
0.652037
0.70847
0.744331
0.782295
0.823415
0.863072
0.893943
0.914762
0.927004
0.930189
0.92481
0.319236
0.544357
0.608642
0.65036
0.690157
0.730942
0.769646
0.800537
0.8228
0.837488
0.845428
0.847729
0.265312
0.45538
0.519832
0.563649
0.603914
0.643522
0.680712
0.711273
0.734678
0.751552
0.763419
0.771444
0.222005
0.380525
0.441133
0.484617
0.52409
0.561821
0.596934
0.626638
0.65048
0.669052
0.683719
0.695675
0.184977
0.315741
0.37124
0.413025
0.450793
0.486074
0.518649
0.546944
0.570535
0.589923
0.60633
0.620799
0.153164
0.257604
0.308641
0.348186
0.383732
0.416137
0.44582
0.472213
0.49496
0.514381
0.531491
0.547194
0.125901
0.204165
0.251839
0.289149
0.322182
0.351417
0.377945
0.402044
0.423474
0.442294
0.459254
0.475149
0.101219
0.155229
0.19952
0.234684
0.264845
0.290642
0.31379
0.335279
0.355017
0.372743
0.388886
0.404161
0.0779495
0.111017
0.150446
0.182749
0.209054
0.230873
0.250322
0.26892
0.286681
0.302923
0.317638
0.33156
0.0551008
0.0716122
0.102283
0.128176
0.148054
0.164459
0.179273
0.194308
0.209599
0.223806
0.236143
0.247691
0.0261939
0.0311181
0.0437162
0.0566646
0.0656932
0.0725161
0.0784898
0.0847535
0.091576
0.0981362
0.104274
0.110209
0.986359
0.971069
0.953066
0.930139
0.900519
0.863701
0.819893
0.768761
0.707182
0.625265
0.49169
0.2944
0.916997
0.909119
0.896206
0.874792
0.842062
0.796466
0.736927
0.66183
0.566198
0.437807
0.241448
0.0743878
0.847832
0.846183
0.837792
0.818059
0.783291
0.730852
0.658707
0.565356
0.448482
0.307602
0.150952
0.052784
0.777387
0.780673
0.776416
0.758884
0.723917
0.668157
0.589374
0.487835
0.366916
0.239719
0.130211
0.0515879
0.705755
0.712738
0.712062
0.697326
0.664193
0.609061
0.530053
0.429809
0.316717
0.209057
0.126211
0.0519581
0.633515
0.643188
0.645396
0.6339
0.604331
0.55325
0.479124
0.386471
0.286056
0.194907
0.125231
0.0515344
0.561421
0.572871
0.577351
0.569135
0.544263
0.499705
0.433672
0.35171
0.264665
0.186264
0.123583
0.0492803
0.489919
0.502338
0.508473
0.503172
0.483573
0.446921
0.390569
0.320224
0.245614
0.177239
0.118643
0.045575
0.418634
0.431222
0.438426
0.435612
0.420878
0.392344
0.346726
0.287707
0.224192
0.164186
0.108402
0.0401954
0.344926
0.356915
0.364589
0.363675
0.35299
0.331827
0.297583
0.249676
0.196096
0.143733
0.090697
0.0333187
0.25887
0.269191
0.27649
0.276865
0.269837
0.254563
0.231743
0.198019
0.153782
0.109939
0.0616791
0.0260983
0.116211
0.122202
0.127325
0.129439
0.128054
0.123014
0.114389
0.10168
0.083942
0.0614863
0.035844
0.0231297
0.540526
0.783778
0.818145
0.844407
0.879347
0.919815
0.959916
0.990669
1.0105
1.02044
1.01852
1.00383
0.393918
0.652042
0.708473
0.744332
0.782293
0.823411
0.863067
0.893939
0.914759
0.927003
0.93019
0.924813
0.319239
0.544358
0.608641
0.650357
0.690152
0.730936
0.769639
0.800531
0.822796
0.837486
0.845429
0.847732
0.265312
0.455379
0.51983
0.563644
0.603908
0.643514
0.680704
0.711267
0.734674
0.751551
0.763421
0.771448
0.222004
0.380523
0.44113
0.484612
0.524085
0.561814
0.596927
0.626633
0.650477
0.669051
0.683721
0.695681
0.184976
0.315739
0.371238
0.413021
0.450788
0.486068
0.518644
0.54694
0.570533
0.589924
0.606333
0.620806
0.153163
0.257602
0.308639
0.348184
0.383729
0.416132
0.445815
0.47221
0.494959
0.514383
0.531496
0.547203
0.125899
0.204164
0.251838
0.289148
0.32218
0.351414
0.377942
0.402043
0.423475
0.442297
0.45926
0.475159
0.101218
0.155227
0.19952
0.234684
0.264845
0.29064
0.313789
0.335279
0.355019
0.372747
0.388893
0.40417
0.077948
0.111016
0.150446
0.182749
0.209055
0.230872
0.250321
0.26892
0.286683
0.302927
0.317644
0.331569
0.0550993
0.0716115
0.102283
0.128177
0.148055
0.164458
0.179272
0.194308
0.2096
0.223809
0.236148
0.247698
0.0261935
0.0311181
0.0437159
0.0566649
0.065693
0.0725155
0.0784887
0.0847528
0.0915762
0.098137
0.104275
0.110212
0.986365
0.971076
0.953075
0.930149
0.900533
0.863718
0.819916
0.768791
0.707219
0.625308
0.49173
0.294427
0.917003
0.909127
0.896218
0.874806
0.84208
0.796487
0.736952
0.661859
0.566228
0.437833
0.241458
0.0743893
0.847838
0.846193
0.837806
0.818077
0.783312
0.730875
0.658732
0.56538
0.448504
0.307614
0.150951
0.0527833
0.777395
0.780684
0.776433
0.758905
0.72394
0.668182
0.589398
0.487855
0.36693
0.239724
0.13021
0.0515873
0.705764
0.712751
0.71208
0.697349
0.664219
0.609087
0.530076
0.429827
0.316728
0.209061
0.126211
0.0519576
0.633526
0.643204
0.645416
0.633924
0.604357
0.553275
0.479146
0.386487
0.286066
0.194911
0.125232
0.0515347
0.561433
0.572887
0.577372
0.56916
0.54429
0.49973
0.433694
0.351726
0.264675
0.186269
0.123585
0.0492807
0.489932
0.502354
0.508493
0.503196
0.483598
0.446946
0.39059
0.320239
0.245624
0.177245
0.118645
0.0455759
0.418646
0.431238
0.438446
0.435634
0.420902
0.392366
0.346747
0.287721
0.224203
0.164193
0.108404
0.0401964
0.344937
0.35693
0.364607
0.363695
0.353011
0.331847
0.297602
0.24969
0.196106
0.143739
0.0906997
0.0333197
0.258879
0.269203
0.276504
0.276881
0.269854
0.254579
0.231757
0.19803
0.153791
0.109944
0.0616812
0.0260993
0.116214
0.122207
0.127331
0.129446
0.128062
0.123022
0.114396
0.101686
0.0839468
0.0614895
0.0358457
0.0231309
0.540615
0.783923
0.818305
0.844573
0.879517
0.919984
0.960079
0.990824
1.01065
1.02058
1.01864
1.00394
0.393997
0.652182
0.70863
0.744497
0.782462
0.823579
0.863228
0.89409
0.9149
0.927134
0.930307
0.924913
0.319309
0.544489
0.608791
0.650516
0.690315
0.731098
0.769794
0.800676
0.822929
0.837608
0.845536
0.847823
0.265375
0.455497
0.519969
0.563794
0.604062
0.643668
0.680851
0.711404
0.734798
0.751662
0.763518
0.771531
0.222059
0.380629
0.441257
0.48475
0.524227
0.561956
0.597065
0.62676
0.650592
0.669153
0.683809
0.695754
0.185024
0.315832
0.37135
0.413145
0.450917
0.486198
0.518769
0.547056
0.570638
0.590017
0.606412
0.620871
0.153203
0.25768
0.308736
0.348293
0.383845
0.416249
0.445929
0.472315
0.495054
0.514466
0.531567
0.54726
0.125934
0.204228
0.251921
0.289242
0.322281
0.351517
0.378042
0.402136
0.423559
0.442371
0.459323
0.475209
0.101246
0.155278
0.199588
0.234763
0.264931
0.290729
0.313875
0.335359
0.355092
0.372811
0.388947
0.404214
0.0779696
0.111053
0.150499
0.182813
0.209125
0.230945
0.250392
0.268987
0.286744
0.302981
0.31769
0.331605
0.0551144
0.071635
0.102321
0.128223
0.148106
0.164513
0.179325
0.194359
0.209646
0.22385
0.236182
0.247726
0.0262001
0.0311273
0.0437326
0.0566853
0.0657164
0.0725402
0.0785133
0.0847759
0.0915972
0.0981559
0.104292
0.110226
0.986458
0.971153
0.953138
0.9302
0.900571
0.863743
0.819927
0.768787
0.7072
0.625279
0.491701
0.294408
0.917087
0.909194
0.896269
0.874844
0.842106
0.796501
0.736955
0.661851
0.566213
0.437818
0.241457
0.0743902
0.847914
0.846251
0.837847
0.818104
0.783328
0.730882
0.658731
0.565374
0.448496
0.307612
0.150958
0.0527855
0.777462
0.780734
0.776465
0.758923
0.723949
0.668183
0.589394
0.48785
0.366928
0.239727
0.130216
0.0515892
0.705823
0.712794
0.712106
0.697361
0.664221
0.609083
0.53007
0.429823
0.316727
0.209064
0.126215
0.0519592
0.633577
0.643239
0.645436
0.63393
0.604356
0.553269
0.479139
0.386483
0.286065
0.194913
0.125234
0.0515352
0.561477
0.572918
0.577387
0.569163
0.544285
0.499722
0.433685
0.35172
0.264673
0.186269
0.123585
0.0492809
0.48997
0.50238
0.508506
0.503198
0.483593
0.446937
0.390581
0.320233
0.24562
0.177243
0.118645
0.0455755
0.418679
0.43126
0.438456
0.435635
0.420897
0.392358
0.346736
0.287714
0.224197
0.164189
0.108403
0.0401956
0.344965
0.356948
0.364615
0.363695
0.353006
0.331839
0.297592
0.249683
0.1961
0.143735
0.090698
0.0333188
0.2589
0.269217
0.27651
0.27688
0.26985
0.254573
0.23175
0.198024
0.153785
0.10994
0.0616796
0.0260982
0.116225
0.122214
0.127335
0.129446
0.12806
0.123019
0.114393
0.101682
0.0839433
0.0614868
0.0358441
0.0231296
0.54056
0.783833
0.818208
0.844475
0.879421
0.919892
0.959994
0.990747
1.01058
1.02052
1.0186
1.0039
0.393949
0.652094
0.708534
0.744399
0.782365
0.823487
0.863143
0.894013
0.914832
0.927074
0.93026
0.924872
0.319266
0.544407
0.608699
0.65042
0.690221
0.731007
0.769711
0.800601
0.822864
0.837551
0.845493
0.847785
0.265337
0.455423
0.519882
0.563702
0.603971
0.64358
0.680771
0.711332
0.734736
0.75161
0.763478
0.771495
0.222026
0.380561
0.441176
0.484663
0.524141
0.561873
0.596988
0.626692
0.650534
0.669106
0.683772
0.69572
0.184994
0.315772
0.371277
0.413065
0.450836
0.48612
0.518697
0.546992
0.570584
0.589974
0.606381
0.620834
0.153178
0.257628
0.308671
0.348221
0.38377
0.416178
0.445862
0.472257
0.495005
0.514427
0.531538
0.547225
0.125913
0.204185
0.251864
0.289178
0.322214
0.351452
0.377982
0.402083
0.423514
0.442335
0.459295
0.475177
0.101229
0.155244
0.199541
0.234707
0.264872
0.290671
0.313822
0.335312
0.355052
0.372779
0.388921
0.404185
0.0779562
0.111027
0.150461
0.182767
0.209076
0.230897
0.250348
0.268948
0.286711
0.302953
0.317667
0.331579
0.0551051
0.0716189
0.102294
0.128189
0.14807
0.164476
0.179292
0.194329
0.209621
0.223829
0.236165
0.247705
0.0261963
0.0311213
0.0437206
0.0566704
0.0657
0.072524
0.0784984
0.0847627
0.0915859
0.0981465
0.104284
0.110216
)
;

boundaryField
{
    rotor
    {
        type            kqRWallFunction;
        value           nonuniform List<scalar> 
192
(
0.0585379
0.060456
0.0600665
0.0583012
0.0538096
0.047175
0.0461013
0.0600464
0.16074
0.246034
0.280842
0.300709
0.314393
0.321
0.323503
0.322591
0.319273
0.308221
0.293027
0.268935
0.239543
0.198757
0.151057
0.117039
0.0585733
0.0604812
0.0600868
0.0583169
0.0538216
0.0471854
0.0461074
0.0600481
0.160735
0.24604
0.280852
0.30072
0.314407
0.321015
0.323519
0.322607
0.31929
0.308237
0.293043
0.26895
0.239556
0.198768
0.151067
0.11705
0.0585689
0.060473
0.0600791
0.0583092
0.0538136
0.0471761
0.0461038
0.0600588
0.160782
0.246066
0.280869
0.300737
0.314422
0.321028
0.323531
0.322618
0.319298
0.308243
0.293047
0.268952
0.239557
0.198767
0.151065
0.117047
0.0585799
0.0604846
0.0600906
0.0583209
0.053825
0.0471875
0.0461123
0.0600614
0.160775
0.246068
0.280876
0.300743
0.31443
0.321036
0.32354
0.322627
0.319308
0.308253
0.293057
0.268961
0.239564
0.198774
0.151071
0.117054
0.0585379
0.0714359
0.0679292
0.0962547
0.111634
0.122375
0.131003
0.140035
0.154083
0.174837
0.209693
0.597883
0.117054
0.276582
0.404633
0.503815
0.591277
0.675612
0.756981
0.850309
0.956338
1.06929
1.20315
1.40071
0.0585733
0.0714501
0.0679372
0.0962583
0.111635
0.122375
0.131008
0.140044
0.154098
0.174856
0.209712
0.597894
0.117039
0.276555
0.404602
0.503775
0.591232
0.67556
0.756924
0.850243
0.956265
1.06921
1.20306
1.40061
0.0585689
0.0714491
0.0679403
0.0962678
0.111646
0.122387
0.131012
0.140041
0.154085
0.174835
0.209692
0.597918
0.11705
0.276574
0.404622
0.503799
0.591258
0.675588
0.756955
0.850278
0.956304
1.06926
1.2031
1.40067
0.0585799
0.071459
0.067947
0.0962714
0.111648
0.122387
0.131015
0.140046
0.154096
0.17485
0.20971
0.597933
0.117047
0.276571
0.404622
0.503804
0.591267
0.675603
0.756973
0.8503
0.956331
1.06929
1.20314
1.40072
)
;
    }
    stator
    {
        type            kqRWallFunction;
        value           nonuniform List<scalar> 
192
(
0.116198
0.122189
0.127313
0.129425
0.12804
0.123
0.114375
0.101667
0.0839303
0.0614776
0.035839
0.0231256
0.0261939
0.0311181
0.0437162
0.0566646
0.0656932
0.0725161
0.0784898
0.0847535
0.091576
0.0981362
0.104274
0.110209
0.116211
0.122202
0.127325
0.129439
0.128054
0.123014
0.114389
0.10168
0.083942
0.0614863
0.035844
0.0231297
0.0261935
0.0311181
0.0437159
0.0566649
0.065693
0.0725155
0.0784887
0.0847528
0.0915762
0.098137
0.104275
0.110212
0.116214
0.122207
0.127331
0.129446
0.128062
0.123022
0.114396
0.101686
0.0839468
0.0614895
0.0358457
0.0231309
0.0262001
0.0311273
0.0437326
0.0566853
0.0657164
0.0725402
0.0785133
0.0847759
0.0915972
0.0981559
0.104292
0.110226
0.116225
0.122214
0.127335
0.129446
0.12806
0.123019
0.114393
0.101682
0.0839433
0.0614868
0.0358441
0.0231296
0.0261963
0.0311213
0.0437206
0.0566704
0.0657
0.072524
0.0784984
0.0847627
0.0915859
0.0981465
0.104284
0.110216
0.540512
0.393913
0.319236
0.265312