/*--------------------------------*- C++ -*----------------------------------*\
  =========                 |
  \\      /  F ield         | OpenFOAM: The Open Source CFD Toolbox
   \\    /   O peration     | Website:  https://openfoam.org
    \\  /    A nd           | Version:  6
     \\/     M anipulation  |
\*---------------------------------------------------------------------------*/
FoamFile
{
    version     2.0;
    format      ascii;
    class       volScalarField;
    location    "500";
    object      nut;
}
// * * * * * * * * * * * * * * * * * * * * * * * * * * * * * * * * * * * * * //

dimensions      [0 2 -1 0 0 0 0];

internalField   nonuniform List<scalar> 
3072
(
0.000127454
7.03112e-05
7.00822e-05
6.90424e-05
6.63292e-05
6.21073e-05
6.13885e-05
7.0051e-05
0.000114618
0.000141856
0.000151574
0.000156849
0.000194196
0.000218523
0.000238047
0.000219549
0.00014098
8.15762e-05
0.000124411
0.000147297
0.000207401
0.000298911
0.000406004
0.000546007
5.02515e-05
0.000199018
0.000268239
0.0002529
0.000221564
0.000194678
0.000238455
0.000366969
0.00053303
0.000746443
0.000964913
0.0011685
6.55155e-05
0.000308224
0.000323758
0.000291039
0.000271879
0.00031861
0.000495205
0.000717651
0.000961056
0.00121867
0.00145956
0.00166976
7.66946e-05
0.000360108
0.000374421
0.000356729
0.000400401
0.00058295
0.000832032
0.0010834
0.00134211
0.00160439
0.00184264
0.00204973
8.67283e-05
0.000415532
0.000467155
0.000496678
0.000650747
0.000893688
0.00114859
0.00140956
0.00166601
0.00191
0.00213068
0.00232435
9.63915e-05
0.000497777
0.000616668
0.000741851
0.000964578
0.00121493
0.00146434
0.00170911
0.00194709
0.00216583
0.00236182
0.00253372
0.000106548
0.00061899
0.000844933
0.00107632
0.00132147
0.001558
0.00178183
0.00199208
0.00218854
0.00236569
0.00252395
0.00266351
0.000118993
0.000768091
0.0011273
0.0014082
0.00164838
0.00185832
0.00204038
0.00220293
0.00234906
0.00248069
0.00260029
0.00270998
0.000134442
0.000871011
0.00131177
0.00161596
0.00184271
0.00202684
0.00218288
0.00231692
0.00243226
0.00253431
0.00262676
0.00271223
0.000155641
0.000806622
0.00138008
0.00171822
0.00195628
0.00213679
0.00228074
0.0024002
0.00249373
0.00257322
0.00264332
0.0027075
0.000276962
0.000779506
0.00145945
0.0018458
0.00206766
0.00223659
0.00238116
0.00248122
0.00255847
0.00261958
0.00267036
0.00271503
0.000160382
0.000162064
0.000162697
0.000162471
0.000161636
0.000158817
0.000154854
0.000148354
0.000140015
0.00012754
0.000111189
5.34546e-05
0.000688044
0.000813417
0.000907143
0.000942173
0.000922028
0.000868314
0.000780373
0.000657516
0.000504521
0.000308595
0.000155974
9.18154e-05
0.00134047
0.00146846
0.00154333
0.00156158
0.00152637
0.00144452
0.00130947
0.00112273
0.000882124
0.000590777
0.000264028
0.000122726
0.00184334
0.00197442
0.00205922
0.002095
0.00207899
0.00200572
0.00186738
0.00165409
0.001355
0.000966189
0.000472664
0.000149969
0.00222248
0.00235837
0.00245502
0.00250918
0.00251606
0.00246822
0.0023516
0.0021442
0.00180246
0.00132659
0.000695909
0.00017658
0.00249057
0.00262723
0.00273239
0.00280382
0.00283741
0.00282518
0.00274826
0.00257425
0.00225629
0.00172654
0.000981006
0.000203842
0.00268126
0.00280472
0.00290528
0.00298422
0.00304113
0.00306981
0.00305068
0.00294029
0.00266451
0.00212599
0.00127691
0.000231741
0.00278487
0.00288987
0.00298119
0.00306239
0.00313472
0.00319834
0.00323938
0.00321303
0.00302321
0.00251333
0.00157408
0.000262542
0.00280956
0.00289998
0.00298435
0.00306392
0.00314233
0.00323
0.0033209
0.00338356
0.0033112
0.00287792
0.0018402
0.000296385
0.00279241
0.00286936
0.00294825
0.00303125
0.00311241
0.00319835
0.00331731
0.00345446
0.00351596
0.00322549
0.00215084
0.000332387
0.00276914
0.00283168
0.00289927
0.00297968
0.00307967
0.00316339
0.00327819
0.00344866
0.00362512
0.00353353
0.00252526
0.000372719
0.0027591
0.0028082
0.00286652
0.00293852
0.00304872
0.00314656
0.0032506
0.00342268
0.00365347
0.00374273
0.00296802
0.000423893
0.000127531
7.03257e-05
7.00938e-05
6.90513e-05
6.63362e-05
6.21137e-05
6.13923e-05
7.0052e-05
0.000114617
0.000141858
0.000151577
0.000156852
0.000194234
0.000218561
0.000238085
0.000219589
0.000141006
8.15899e-05
0.000124398
0.000147283
0.000207387
0.000298894
0.000405988
0.000545995
5.02541e-05
0.000199036
0.000268257
0.000252924
0.000221564
0.000194664
0.000238417
0.000366917
0.000532981
0.0007464
0.000964879
0.00116848
6.55164e-05
0.000308232
0.000323772
0.000291032
0.000271861
0.000318559
0.000495116
0.000717573
0.00096099
0.00121862
0.00145952
0.00166973
7.66948e-05
0.000360115
0.000374414
0.000356707
0.00040035
0.000582818
0.00083194
0.00108331
0.00134204
0.00160432
0.00184259
0.00204969
8.67281e-05
0.000415525
0.000467131
0.000496618
0.000650638
0.000893583
0.0011485
0.00140946
0.00166593
0.00190993
0.00213062
0.0023243
9.63933e-05
0.000497778
0.000616643
0.0007418
0.000964504
0.00121486
0.00146427
0.00170904
0.00194703
0.00216577
0.00236178
0.00253369
0.000106551
0.000619021
0.000844962
0.00107634
0.00132146
0.00155799
0.00178181
0.00199205
0.00218851
0.00236566
0.00252393
0.0026635
0.000118999
0.000768162
0.00112738
0.00140826
0.00164843
0.00185836
0.00204041
0.00220296
0.00234908
0.00248071
0.00260031
0.00271
0.00013445
0.000871084
0.00131185
0.00161604
0.00184279
0.00202693
0.00218297
0.002317
0.00243234
0.00253438
0.00262683
0.0027123
0.000155648
0.000806669
0.00138015
0.0017183
0.00195638
0.0021369
0.00228086
0.00240033
0.00249385
0.00257334
0.00264344
0.00270761
0.000276965
0.000779534
0.0014595
0.00184587
0.00206777
0.0022367
0.00238129
0.00248136
0.00255861
0.00261972
0.0026705
0.00271517
0.000160386
0.000162068
0.000162701
0.000162475
0.00016164
0.000158822
0.000154858
0.000148358
0.000140019
0.000127543
0.000111193
5.34569e-05
0.000688035
0.000813417
0.000907148
0.000942182
0.00092204
0.000868331
0.00078039
0.000657533
0.000504538
0.000308606
0.00015598
9.18185e-05
0.00134045
0.00146845
0.00154333
0.00156159
0.00152639
0.00144454
0.0013095
0.00112276
0.000882151
0.000590798
0.000264037
0.000122729
0.00184332
0.00197441
0.00205922
0.00209501
0.00207901
0.00200575
0.00186741
0.00165412
0.00135503
0.000966212
0.000472678
0.000149973
0.00222245
0.00235835
0.00245501
0.00250919
0.00251608
0.00246825
0.00235164
0.00214424
0.0018025
0.00132662
0.000695928
0.000176584
0.00249053
0.00262721
0.00273238
0.00280383
0.00283743
0.0028252
0.0027483
0.0025743
0.00225634
0.00172658
0.00098103
0.000203846
0.00268123
0.0028047
0.00290527
0.00298422
0.00304114
0.00306985
0.00305072
0.00294035
0.00266457
0.00212604
0.00127694
0.000231746
0.00278486
0.00288986
0.00298119
0.0030624
0.00313473
0.00319838
0.00323943
0.0032131
0.00302329
0.00251339
0.00157412
0.000262547
0.00280958
0.00289999
0.00298437
0.00306394
0.00314236
0.00323004
0.00332097
0.00338365
0.00331129
0.002878
0.00184024
0.000296391
0.00279247
0.00286941
0.0029483
0.0030313
0.00311247
0.00319842
0.00331739
0.00345456
0.00351607
0.00322558
0.00215089
0.000332394
0.00276924
0.00283177
0.00289937
0.00297977
0.00307976
0.00316349
0.0032783
0.00344878
0.00362524
0.00353365
0.00252532
0.000372726
0.00275924
0.00280834
0.00286665
0.00293864
0.00304884
0.0031467
0.00325074
0.00342283
0.00365362
0.00374287
0.0029681
0.000423901
0.000127523
7.03222e-05
7.00906e-05
6.90481e-05
6.63324e-05
6.21087e-05
6.13907e-05
7.00591e-05
0.000114635
0.000141865
0.000151581
0.000156856
0.000194234
0.000218555
0.000238049
0.000219525
0.00014093
8.15587e-05
0.000124437
0.000147324
0.000207439
0.000298962
0.000406072
0.000546082
5.02565e-05
0.000199044
0.000268235
0.000252869
0.000221546
0.000194689
0.000238519
0.000367067
0.000533148
0.000746577
0.000965058
0.00116864
6.55209e-05
0.000308238
0.000323748
0.000291042
0.000271888
0.000318685
0.00049536
0.000717819
0.000961234
0.00121885
0.00145974
0.00166995
7.66995e-05
0.000360112
0.000374437
0.000356764
0.000400477
0.000583178
0.000832222
0.00108361
0.00134233
0.0016046
0.00184285
0.00204995
8.67328e-05
0.000415563
0.000467214
0.000496793
0.000650958
0.000893904
0.00114881
0.00140979
0.00166624
0.00191024
0.00213092
0.00232459
9.63949e-05
0.000497817
0.000616763
0.000742016
0.000964788
0.00121516
0.00146457
0.00170935
0.00194735
0.00216609
0.00236208
0.00253398
0.00010655
0.000619018
0.000845023
0.00107647
0.00132165
0.00155821
0.00178206
0.00199233
0.0021888
0.00236595
0.00252421
0.00266377
0.000118993
0.000768093
0.00112737
0.00140831
0.00164853
0.0018585
0.00204059
0.00220315
0.0023493
0.00248094
0.00260055
0.00271024
0.000134441
0.000871007
0.00131182
0.00161604
0.00184283
0.00202699
0.00218306
0.00231712
0.00243249
0.00253455
0.00262702
0.00271249
0.00015564
0.000806626
0.00138013
0.00171829
0.00195637
0.00213691
0.00228089
0.00240039
0.00249394
0.00257345
0.00264357
0.00270776
0.00027697
0.000779542
0.0014595
0.00184588
0.00206776
0.00223671
0.00238131
0.00248139
0.00255866
0.0026198
0.00267059
0.00271527
0.000160389
0.000162071
0.000162704
0.000162477
0.000161642
0.000158823
0.000154859
0.000148359
0.000140019
0.000127543
0.000111192
5.34563e-05
0.000688132
0.000813507
0.000907238
0.000942263
0.000922113
0.000868389
0.000780439
0.000657568
0.000504557
0.000308614
0.000155981
9.1818e-05
0.00134062
0.00146861
0.00154348
0.00156173
0.0015265
0.00144464
0.00130958
0.00112282
0.000882191
0.00059082
0.000264044
0.000122729
0.00184353
0.00197461
0.00205941
0.00209519
0.00207917
0.00200589
0.00186753
0.00165421
0.00135509
0.000966252
0.000472692
0.000149974
0.00222269
0.00235858
0.00245524
0.0025094
0.00251628
0.00246842
0.00235179
0.00214436
0.00180259
0.00132668
0.000695949
0.000176585
0.00249081
0.00262747
0.00273263
0.00280407
0.00283765
0.00282541
0.00274848
0.00257445
0.00225645
0.00172665
0.000981061
0.000203848
0.00268151
0.00280498
0.00290554
0.00298448
0.00304139
0.00307008
0.00305093
0.00294053
0.00266471
0.00212613
0.00127698
0.000231749
0.00278513
0.00289013
0.00298145
0.00306266
0.00313499
0.00319863
0.00323966
0.00321331
0.00302346
0.0025135
0.00157416
0.000262551
0.00280982
0.00290024
0.00298462
0.00306419
0.00314261
0.00323029
0.00332121
0.00338388
0.00331149
0.00287814
0.0018403
0.000296396
0.00279268
0.00286963
0.00294852
0.00303153
0.0031127
0.00319866
0.00331764
0.0034548
0.0035163
0.00322575
0.00215096
0.000332399
0.0027694
0.00283194
0.00289955
0.00297996
0.00307997
0.00316371
0.00327853
0.00344903
0.00362549
0.00353385
0.0025254
0.000372732
0.00275936
0.00280847
0.00286679
0.0029388
0.00304902
0.00314688
0.00325095
0.00342307
0.00365389
0.00374312
0.0029682
0.000423909
0.000127546
7.03281e-05
7.00965e-05
6.90541e-05
6.63386e-05
6.21153e-05
6.13957e-05
7.00603e-05
0.000114632
0.000141866
0.000151583
0.000156858
0.000194259
0.000218578
0.000238088
0.000219574
0.000140979
8.15813e-05
0.000124432
0.000147312
0.000207426
0.000298945
0.000406053
0.000546066
5.02583e-05
0.000199055
0.000268267
0.000252917
0.000221578
0.000194695
0.000238476
0.000367015
0.000533095
0.000746527
0.000965014
0.00116861
6.55215e-05
0.000308255
0.000323778
0.000291058
0.000271897
0.000318642
0.000495259
0.000717731
0.000961156
0.00121879
0.00145969
0.0016699
7.66996e-05
0.000360132
0.000374444
0.000356753
0.000400432
0.00058301
0.000832109
0.0010835
0.00134224
0.00160452
0.00184278
0.00204989
8.67324e-05
0.000415556
0.000467181
0.000496712
0.000650797
0.000893756
0.00114868
0.00140967
0.00166613
0.00191014
0.00213083
0.00232451
9.63959e-05
0.000497795
0.000616695
0.000741889
0.000964633
0.00121501
0.00146444
0.00170923
0.00194723
0.00216598
0.00236198
0.0025339
0.000106552
0.000619012
0.000844971
0.00107639
0.00132155
0.0015581
0.00178195
0.00199222
0.00218869
0.00236585
0.00252413
0.0026637
0.000118997
0.000768127
0.00112738
0.0014083
0.0016485
0.00185846
0.00204054
0.0022031
0.00234924
0.00248088
0.00260049
0.00271019
0.000134447
0.000871064
0.00131187
0.00161609
0.00184286
0.00202701
0.00218307
0.00231712
0.00243248
0.00253454
0.002627
0.00271247
0.000155647
0.000806678
0.00138019
0.00171836
0.00195645
0.00213698
0.00228096
0.00240044
0.00249398
0.00257348
0.00264359
0.00270778
0.000276974
0.000779579
0.00145956
0.00184596
0.00206785
0.0022368
0.0023814
0.00248148
0.00255874
0.00261986
0.00267065
0.00271532
0.000160391
0.000162073
0.000162706
0.00016248
0.000161644
0.000158825
0.000154862
0.000148361
0.000140021
0.000127545
0.000111195
5.34578e-05
0.000688117
0.000813496
0.000907231
0.000942258
0.000922109
0.000868389
0.000780441
0.000657571
0.000504564
0.000308619
0.000155985
9.18198e-05
0.00134059
0.00146859
0.00154346
0.00156172
0.0015265
0.00144464
0.00130958
0.00112282
0.000882199
0.000590828
0.000264047
0.00012273
0.00184349
0.00197457
0.00205938
0.00209517
0.00207916
0.00200588
0.00186753
0.00165421
0.0013551
0.000966257
0.000472697
0.000149975
0.00222264
0.00235854
0.0024552
0.00250936
0.00251625
0.00246841
0.00235178
0.00214436
0.0018026
0.00132668
0.000695955
0.000176587
0.00249074
0.00262741
0.00273259
0.00280402
0.00283762
0.00282539
0.00274847
0.00257444
0.00225645
0.00172666
0.000981067
0.00020385
0.00268144
0.00280491
0.00290548
0.00298443
0.00304135
0.00307005
0.00305091
0.00294052
0.00266471
0.00212614
0.00127699
0.00023175
0.00278507
0.00289007
0.0029814
0.00306262
0.00313495
0.0031986
0.00323964
0.0032133
0.00302345
0.0025135
0.00157417
0.000262552
0.00280978
0.0029002
0.00298458
0.00306416
0.00314259
0.00323027
0.00332119
0.00338386
0.00331148
0.00287813
0.00184031
0.000296397
0.00279266
0.00286961
0.00294851
0.00303152
0.00311269
0.00319865
0.00331763
0.00345479
0.00351628
0.00322574
0.00215096
0.0003324
0.00276942
0.00283196
0.00289956
0.00297998
0.00307997
0.00316371
0.00327853
0.00344902
0.00362547
0.00353382
0.0025254
0.000372733
0.00275941
0.00280851
0.00286684
0.00293884
0.00304905
0.0031469
0.00325096
0.00342306
0.00365385
0.00374307
0.00296818
0.000423908
0.00172741
0.00181661
0.00196139
0.0021232
0.00226975
0.00239507
0.0025031
0.00257673
0.00263303
0.00267475
0.00270722
0.00273439
0.0028499
0.00266336
0.00259788
0.00258865
0.00260842
0.00263563
0.00266013
0.00268439
0.00270996
0.00272858
0.0027436
0.00275803
0.00361304
0.00337062
0.00318725
0.00305771
0.00296411
0.00289952
0.00285555
0.00282909
0.00281566
0.00280103
0.00279034
0.00279601
0.00388749
0.00369525
0.00349521
0.00331469
0.00316973
0.0030549
0.00296378
0.00289913
0.00286124
0.00284668
0.00285087
0.00287696
0.00276442
0.00280539
0.00286114
0.00293577
0.00304964
0.00315745
0.00326147
0.00343244
0.0036637
0.00392016
0.00391292
0.00182227
0.00278353
0.00282881
0.00289345
0.00298103
0.00309119
0.00320783
0.00332185
0.00348376
0.00369241
0.00393565
0.00433175
0.00318991
0.00283208
0.00289869
0.00298571
0.00308275
0.00319102
0.00331791
0.00344399
0.00358999
0.00376243
0.00394138
0.00431115
0.00389466
0.00294332
0.00305186
0.00315211
0.00326388
0.00338139
0.00350932
0.0036346
0.00376011
0.00388919
0.00400006
0.00422586
0.00408433
0.00172743
0.00181666
0.00196145
0.00212327
0.00226986
0.00239518
0.00250323
0.00257686
0.00263318
0.0026749
0.00270738
0.00273455
0.00284992
0.00266342
0.00259795
0.00258875
0.00260853
0.00263575
0.00266026
0.00268452
0.00271011
0.00272874
0.00274377
0.00275821
0.00361295
0.00337076
0.00318739
0.00305785
0.00296424
0.00289966
0.00285569
0.00282924
0.00281582
0.00280119
0.00279052
0.0027962
0.00388737
0.00369532
0.00349541
0.00331489
0.00316991
0.00305507
0.00296395
0.0028993
0.00286141
0.00284685
0.00285105
0.00287714
0.00276458
0.00280556
0.00286131
0.00293593
0.00304981
0.00315762
0.00326165
0.00343261
0.00366388
0.00392034
0.00391306
0.00182233
0.00278371
0.00282899
0.00289364
0.00298122
0.00309138
0.00320803
0.00332204
0.00348395
0.00369259
0.00393584
0.00433192
0.00319003
0.00283227
0.00289889
0.00298591
0.00308295
0.00319122
0.00331811
0.00344419
0.00359018
0.00376262
0.00394156
0.00431133
0.00389481
0.00294351
0.00305206
0.00315231
0.00326407
0.00338158
0.0035095
0.00363478
0.00376029
0.00388937
0.00400023
0.00422603
0.00408447
0.0017275
0.00181672
0.00196151
0.00212332
0.00226989
0.00239522
0.00250326
0.0025769
0.00263322
0.00267496
0.00270744
0.00273462
0.00285003
0.00266352
0.00259805
0.00258882
0.0026086
0.00263581
0.00266032
0.00268457
0.00271015
0.00272879
0.00274382
0.00275826
0.00361308
0.00337088
0.0031875
0.00305794
0.00296434
0.00289974
0.00285576
0.0028293
0.00281586
0.00280123
0.00279056
0.00279624
0.0038875
0.00369544
0.00349552
0.00331498
0.00316999
0.00305515
0.00296402
0.00289935
0.00286145
0.00284689
0.0028511
0.00287719
0.00276466
0.00280565
0.00286141
0.00293607
0.00304996
0.00315778
0.00326184
0.00343285
0.00366416
0.00392063
0.00391322
0.00182237
0.00278377
0.00282906
0.00289373
0.00298134
0.00309151
0.00320819
0.00332225
0.0034842
0.00369289
0.00393617
0.0043322
0.00319017
0.00283232
0.00289896
0.00298602
0.00308308
0.00319139
0.00331832
0.00344442
0.00359046
0.00376294
0.00394192
0.0043117
0.00389507
0.0029436
0.00305218
0.00315247
0.00326428
0.00338183
0.00350979
0.00363508
0.00376063
0.00388973
0.00400061
0.00422642
0.0040848
0.00172752
0.00181675
0.00196156
0.0021234
0.00226998
0.00239532
0.00250337
0.00257701
0.00263332
0.00267505
0.00270753
0.00273471
0.00285013
0.0026636
0.00259814
0.00258892
0.0026087
0.00263593
0.00266043
0.00268469
0.00271027
0.00272891
0.00274392
0.00275836
0.0036133
0.00337105
0.00318765
0.00305808
0.00296447
0.00289988
0.0028559
0.00282944
0.00281599
0.00280135
0.00279067
0.00279635
0.00388778
0.00369567
0.00349571
0.00331515
0.00317015
0.0030553
0.00296416
0.00289949
0.00286157
0.002847
0.00285119
0.00287728
0.00276474
0.00280573
0.00286148
0.00293612
0.00305
0.00315781
0.00326185
0.00343282
0.0036641
0.00392056
0.00391317
0.00182237
0.00278387
0.00282916
0.0028938
0.00298139
0.00309155
0.00320821
0.00332223
0.00348415
0.0036928
0.00393606
0.00433207
0.0031901
0.00283242
0.00289904
0.00298607
0.00308311
0.00319138
0.00331829
0.00344437
0.00359037
0.00376282
0.00394177
0.00431152
0.00389494
0.00294364
0.0030522
0.00315245
0.00326422
0.00338174
0.00350968
0.00363496
0.00376048
0.00388957
0.00400044
0.00422621
0.00408463
0.00375303
0.00355842
0.00337107
0.00320624
0.00307246
0.00296761
0.00289036
0.0028423
0.00282568
0.00284058
0.00289647
0.00300763
0.0036638
0.00347484
0.00329677
0.00313763
0.0030026
0.00289149
0.00280637
0.00274714
0.00271524
0.00271184
0.00275337
0.00287035
0.00360057
0.00342189
0.00325015
0.00308891
0.00294172
0.00280996
0.00269531
0.00259042
0.00249332
0.00240476
0.00233824
0.00236217
0.00354725
0.00338281
0.00321747
0.00305122
0.00288505
0.00272156
0.00255692
0.00238426
0.00218744
0.00195787
0.00169463
0.00148068
0.00314656
0.00334829
0.00348203
0.00359381
0.00370431
0.00381183
0.00390419
0.00398351
0.00404726
0.00408946
0.00410721
0.00396222
0.00305434
0.00344263
0.00362112
0.00373517
0.00383985
0.00393111
0.00400404
0.00405431
0.00407671
0.00407435
0.00402762
0.00386113
0.00255774
0.0033313
0.00362028
0.0037574
0.00386558
0.00394825
0.00401044
0.00404032
0.00404312
0.00402282
0.0039471
0.00378308
0.00153138
0.00297157
0.00349823
0.00369772
0.0038174
0.00389892
0.0039554
0.00397554
0.00397188
0.00394465
0.00386387
0.00371303
0.00375309
0.00355858
0.00337129
0.00320645
0.00307266
0.00296779
0.00289054
0.00284247
0.00282584
0.00284075
0.00289663
0.0030078
0.00366394
0.00347505
0.00329701
0.00313786
0.00300281
0.00289168
0.00280654
0.0027473
0.00271539
0.00271198
0.00275351
0.00287048
0.00360076
0.00342213
0.0032504
0.00308915
0.00294193
0.00281015
0.00269548
0.00259058
0.00249346
0.00240488
0.00233835
0.00236227
0.00354746
0.00338307
0.00321774
0.00305148
0.00288528
0.00272177
0.0025571
0.00238441
0.00218757
0.00195796
0.0016947
0.00148073
0.00314673
0.00334846
0.0034822
0.00359397
0.00370447
0.00381198
0.00390434
0.00398366
0.00404741
0.00408961
0.00410735
0.00396234
0.00305447
0.00344278
0.00362126
0.00373531
0.00383999
0.00393124
0.00400417
0.00405444
0.00407684
0.00407447
0.00402774
0.00386123
0.00255782
0.00333142
0.0036204
0.00375753
0.0038657
0.00394836
0.00401056
0.00404043
0.00404323
0.00402293
0.0039472
0.00378317
0.00153143
0.00297165
0.00349833
0.00369782
0.00381751
0.00389903
0.00395551
0.00397564
0.00397198
0.00394474
0.00386396
0.0037131
0.0037532
0.00355868
0.00337138
0.00320653
0.00307272
0.00296785
0.00289059
0.00284252
0.00282588
0.00284081
0.00289671
0.00300792
0.00366403
0.00347513
0.00329708
0.00313792
0.00300286
0.00289172
0.00280658
0.00274734
0.00271543
0.00271206
0.00275359
0.00287063
0.00360084
0.00342219
0.00325046
0.0030892
0.00294197
0.00281019
0.00269552
0.0025906
0.00249351
0.00240496
0.00233839
0.00236236
0.00354752
0.00338312
0.00321778
0.00305151
0.0028853
0.00272179
0.00255712
0.00238441
0.0021876
0.001958
0.00169473
0.00148077
0.00314693
0.00334869
0.00348248
0.00359429
0.00370482
0.00381235
0.00390471
0.00398404
0.00404779
0.00408999
0.00410771
0.00396265
0.00305469
0.00344307
0.00362163
0.00373571
0.00384041
0.00393167
0.00400459
0.00405485
0.00407724
0.00407485
0.00402809
0.00386153
0.00255802
0.00333173
0.00362083
0.00375798
0.00386617
0.00394883
0.00401101
0.00404086
0.00404365
0.00402332
0.00394754
0.00378347
0.00153153
0.00297196
0.00349878
0.00369832
0.00381802
0.00389953
0.00395597
0.00397608
0.00397241
0.00394514
0.0038643
0.00371341
0.00375346
0.0035589
0.00337156
0.0032067
0.00307288
0.00296799
0.00289072
0.00284263
0.00282598
0.00284086
0.00289675
0.00300791
0.00366429
0.00347534
0.00329726
0.00313808
0.00300301
0.00289185
0.00280669
0.00274743
0.00271549
0.00271207
0.00275359
0.00287057
0.0036011
0.00342241
0.00325064
0.00308937
0.00294212
0.00281031
0.0026956
0.00259068
0.00249354
0.00240494
0.0023384
0.00236231
0.00354779
0.00338334
0.00321796
0.00305167
0.00288544
0.00272191
0.00255721
0.0023845
0.00218763
0.00195801
0.00169473
0.00148075
0.00314685
0.0033486
0.00348235
0.00359414
0.00370465
0.00381217
0.00390453
0.00398386
0.00404761
0.00408981
0.00410755
0.00396255
0.00305458
0.00344291
0.00362142
0.00373548
0.00384017
0.00393143
0.00400437
0.00405464
0.00407704
0.00407467
0.00402795
0.00386143
0.00255791
0.00333153
0.00362056
0.0037577
0.00386589
0.00394856
0.00401076
0.00404063
0.00404343
0.00402313
0.00394742
0.00378336
0.00153147
0.00297176
0.00349849
0.003698
0.0038177
0.00389922
0.0039557
0.00397583
0.00397217
0.00394494
0.00386418
0.00371329
0.00349273
0.00334659
0.00318978
0.00301878
0.00283313
0.00263826
0.00242367
0.00217867
0.00188166
0.00149342
0.000915988
0.00028409
0.00342871
0.00330284
0.00315841
0.00298647
0.00278928
0.00257113
0.00231893
0.00202336
0.00166954
0.00123312
0.000629009
0.000147835
0.00334781
0.00324327
0.00311566
0.00294893
0.00275032
0.00252132
0.00224959
0.00193032
0.00156194
0.00115724
0.000640579
0.00012876
0.00324525
0.0031617
0.00305416
0.00289918
0.00270852
0.00248109
0.00220729
0.00188821
0.00153651
0.00118826
0.000741156
0.000131466
0.00311773
0.0030535
0.00296648
0.00282882
0.00265336
0.00243741
0.00217442
0.00187028
0.00154374
0.00121229
0.000797678
0.000136124
0.00295818
0.00291216
0.00284393
0.00272752
0.00257226
0.00237431
0.00212924
0.00184434
0.00153462
0.00119488
0.000798874
0.000139738
0.00275498
0.00272603
0.00267518
0.00258131
0.00244956
0.00227301
0.00204864
0.00178196
0.00148121
0.00113393
0.000756828
0.000140724
0.00248816
0.00247529
0.00244066
0.00236873
0.00226243
0.00210959
0.00190797
0.00165887
0.00136694
0.00102894
0.000672537
0.000139251
0.0021247
0.00212592
0.00210712
0.0020557
0.00197257
0.00184795
0.00167809
0.00144936
0.00117439
0.00086594
0.000549339
0.000134456
0.00161165
0.00162279
0.00161779
0.00158515
0.00152369
0.00143397
0.00131232
0.00111979
0.000887633
0.000636428
0.00038237
0.000125767
0.000881701
0.000893532
0.000896896
0.000882082
0.000850398
0.000802086
0.000740775
0.000634701
0.000481375
0.000332725
0.0001795
0.000114277
9.53055e-05
9.77287e-05
9.97553e-05
0.00010058
0.000100041
9.80536e-05
9.45534e-05
8.91453e-05
8.09968e-05
6.93201e-05
5.2925e-05
0.00016115
0.000385054
0.00245415
0.00329569
0.00357987
0.00371562
0.00380182
0.00385833
0.00387718
0.00387104
0.00384401
0.00377106
0.00363994
0.000340283
0.00219376
0.00308013
0.00342131
0.0035731
0.00366708
0.00372925
0.00375241
0.00374817
0.00372392
0.00366273
0.00355525
0.000316751
0.00198319
0.00285726
0.00323005
0.00339834
0.00350136
0.00357177
0.00360264
0.00360732
0.00358796
0.00353745
0.00345076
0.000298239
0.00178852
0.00262683
0.00301351
0.00319653
0.00330841
0.00338704
0.00342756
0.00344332
0.00343234
0.00339411
0.00332679
0.000281495
0.00159777
0.00238626
0.00277601
0.0029697
0.0030888
0.00317377
0.00322486
0.00325087
0.00325181
0.0032278
0.00317941
0.000264863
0.00140047
0.00213295
0.00251798
0.00271665
0.0028397
0.002929
0.00298935
0.00302557
0.00303897
0.00303047
0.0030013
0.000248207
0.00117952
0.00186152
0.0022368
0.00243244
0.00255432
0.0026452
0.00271267
0.00275871
0.00278423
0.00279048
0.00277938
0.000231579
0.000939209
0.00156685
0.00192717
0.0021071
0.00222028
0.00230857
0.00238009
0.00243437
0.00247061
0.00248982
0.00249462
0.000213438
0.000705581
0.00125035
0.00157649
0.00172289
0.00181725
0.00189667
0.00196738
0.00202625
0.00207002
0.00209893
0.00211618
0.000192765
0.000493951
0.000909896
0.00115184
0.00123935
0.0013025
0.00136582
0.00143071
0.00149063
0.00153882
0.00157096
0.00159425
0.000172952
0.000298345
0.000514346
0.000606708
0.000634397
0.000663951
0.000700107
0.000742992
0.000787618
0.000825502
0.000848739
0.00086651
3.63938e-05
4.76189e-05
5.89631e-05
6.66072e-05
7.17162e-05
7.53406e-05
7.83705e-05
8.14257e-05
8.46293e-05
8.76e-05
9.02911e-05
9.28207e-05
0.00349298
0.00334686
0.00319005
0.00301905
0.00283337
0.00263848
0.00242386
0.00217883
0.00188179
0.00149351
0.000916026
0.000284094
0.00342898
0.00330311
0.00315869
0.00298675
0.00278954
0.00257136
0.00231914
0.00202354
0.00166968
0.00123322
0.000629073
0.000147845
0.00334807
0.00324354
0.00311594
0.00294921
0.00275059
0.00252157
0.00224982
0.00193051
0.00156211
0.00115738
0.000640671
0.000128772
0.00324551
0.00316197
0.00305444
0.00289946
0.00270879
0.00248135
0.00220753
0.00188842
0.00153669
0.00118841
0.000741258
0.00013148
0.003118
0.00305376
0.00296675
0.0028291
0.00265362
0.00243767
0.00217466
0.0018705
0.00154393
0.00121244
0.000797786
0.000136137
0.00295844
0.00291241
0.00284418
0.00272778
0.00257251
0.00237455
0.00212947
0.00184455
0.0015348
0.00119503
0.00079898
0.000139751
0.00275522
0.00272627
0.00267541
0.00258154
0.0024498
0.00227324
0.00204886
0.00178215
0.00148138
0.00113407
0.000756931
0.000140738
0.00248837
0.0024755
0.00244086
0.00236894
0.00226264
0.00210979
0.00190816
0.00165905
0.0013671
0.00102906
0.000672627
0.000139264
0.00212487
0.00212609
0.00210728
0.00205587
0.00197274
0.00184812
0.00167825
0.00144951
0.00117452
0.000866044
0.000549412
0.000134468
0.00161177
0.0016229
0.0016179
0.00158526
0.00152381
0.00143409
0.00131244
0.0011199
0.00088773
0.000636503
0.00038242
0.000125778
0.00088177
0.000893588
0.00089695
0.000882138
0.000850458
0.000802147
0.000740834
0.000634762
0.000481429
0.000332764
0.000179524
0.000114287
9.53103e-05
9.77338e-05
9.97601e-05
0.000100585
0.000100047
9.80591e-05
9.4559e-05
8.91507e-05
8.10022e-05
6.93247e-05
5.29285e-05
0.000161178
0.00038506
0.00245419
0.00329577
0.00357996
0.00371572
0.00380191
0.00385843
0.00387727
0.00387112
0.00384409
0.00377113
0.00364
0.000340285
0.00219379
0.00308019
0.00342139
0.00357319
0.00366716
0.00372933
0.00375249
0.00374825
0.00372399
0.0036628
0.0035553
0.000316753
0.00198321
0.00285731
0.00323012
0.00339842
0.00350144
0.00357185
0.00360271
0.0036074
0.00358803
0.00353751
0.00345081
0.000298239
0.00178853
0.00262688
0.00301357
0.0031966
0.00330848
0.00338711
0.00342763
0.00344339
0.00343241
0.00339416
0.00332684
0.000281494
0.00159778
0.0023863
0.00277607
0.00296977
0.00308887
0.00317384
0.00322493
0.00325094
0.00325187
0.00322786
0.00317946
0.000264863
0.00140048
0.00213298
0.00251803
0.00271671
0.00283976
0.00292906
0.00298941
0.00302563
0.00303903
0.00303053
0.00300135
0.000248205
0.00117953
0.00186155
0.00223684
0.00243249
0.00255437
0.00264525
0.00271272
0.00275876
0.00278429
0.00279053
0.00277943
0.000231575
0.000939218
0.00156688
0.0019272
0.00210714
0.00222031
0.0023086
0.00238013
0.00243441
0.00247065
0.00248987
0.00249466
0.000213434
0.000705589
0.00125037
0.00157651
0.00172291
0.00181727
0.00189669
0.00196741
0.00202629
0.00207005
0.00209896
0.00211622
0.000192759
0.000493956
0.000909912
0.00115186
0.00123936
0.0013025
0.00136582
0.00143072
0.00149065
0.00153884
0.00157099
0.00159428
0.000172942
0.000298345
0.000514353
0.000606708
0.000634393
0.000663946
0.000700102
0.000742995
0.000787625
0.000825514
0.000848754
0.000866526
3.63928e-05
4.76191e-05
5.89622e-05
6.66069e-05
7.17158e-05
7.53401e-05
7.837e-05
8.14254e-05
8.46294e-05
8.76003e-05
9.02918e-05
9.28218e-05
0.00349303
0.0033469
0.00319009
0.00301908
0.00283339
0.00263849
0.00242387
0.00217882
0.0018818
0.00149352
0.000916037
0.000284108
0.00342902
0.00330314
0.00315872
0.00298677
0.00278955
0.00257136
0.00231913
0.00202353
0.00166968
0.00123321
0.000629051
0.000147847
0.0033481
0.00324357
0.00311597
0.00294924
0.0027506
0.00252156
0.0022498
0.00193049
0.00156208
0.00115735
0.000640636
0.000128772
0.00324554
0.00316199
0.00305447
0.00289949
0.0027088
0.00248135
0.00220751
0.0018884
0.00153666
0.00118838
0.000741228
0.000131479
0.00311803
0.00305378
0.00296679
0.00282913
0.00265364
0.00243767
0.00217465
0.00187048
0.0015439
0.00121242
0.000797763
0.000136137
0.00295848
0.00291244
0.00284422
0.00272782
0.00257254
0.00237457
0.00212947
0.00184454
0.00153479
0.00119501
0.000798963
0.000139752
0.00275526
0.0027263
0.00267545
0.00258159
0.00244984
0.00227326
0.00204888
0.00178216
0.00148138
0.00113406
0.000756916
0.000140738
0.00248841
0.00247554
0.00244091
0.00236899
0.00226268
0.00210983
0.00190819
0.00165906
0.0013671
0.00102906
0.000672617
0.000139265
0.00212491
0.00212613
0.00210733
0.00205592
0.00197279
0.00184816
0.00167828
0.00144953
0.00117453
0.000866046
0.000549405
0.000134469
0.0016118
0.00162294
0.00161794
0.00158531
0.00152386
0.00143413
0.00131247
0.00111993
0.000887744
0.000636508
0.000382418
0.000125779
0.000881789
0.00089361
0.000896975
0.000882168
0.000850487
0.000802174
0.000740855
0.000634783
0.00048144
0.000332769
0.000179524
0.000114289
9.53116e-05
9.77356e-05