/*--------------------------------*- C++ -*----------------------------------*\
  =========                 |
  \\      /  F ield         | OpenFOAM: The Open Source CFD Toolbox
   \\    /   O peration     | Website:  https://openfoam.org
    \\  /    A nd           | Version:  6
     \\/     M anipulation  |
\*---------------------------------------------------------------------------*/
FoamFile
{
    version     2.0;
    format      ascii;
    class       volScalarField;
    location    "500";
    object      p;
}
// * * * * * * * * * * * * * * * * * * * * * * * * * * * * * * * * * * * * * //

dimensions      [0 2 -2 0 0 0 0];

internalField   nonuniform List<scalar> 
3072
(
-6.69627e-05
-0.119764
-0.225432
-0.294241
-0.327959
-0.312137
-0.271202
-0.214381
-0.101012
0.0918999
0.0580896
-0.166189
0.657377
0.47352
0.339777
0.264551
0.256895
0.339301
0.567732
0.796257
1.31271
1.983
2.30775
2.47871
1.35088
1.07742
0.942312
0.920407
1.01676
1.24695
1.68063
2.12698
2.52653
2.90231
3.13957
3.32346
2.23746
1.96363
1.89141
1.972
2.24321
2.67113
3.13981
3.56905
3.94182
4.25566
4.48291
4.66612
3.24461
3.07583
3.09875
3.30172
3.68011
4.13417
4.57274
4.95672
5.28834
5.55375
5.75107
5.90371
4.3113
4.25772
4.38959
4.69137
5.10675
5.53773
5.92702
6.25739
6.52844
6.74321
6.90666
7.03186
5.37773
5.45495
5.68175
6.04434
6.46054
6.85507
7.1915
7.46582
7.68405
7.85374
7.98232
8.07943
6.43776
6.66884
6.96255
7.35066
7.74255
8.08652
8.36603
8.5853
8.75352
8.88023
8.97439
9.04418
7.50353
7.90976
8.24235
8.62289
8.96714
9.24775
9.46301
9.62302
9.73955
9.82335
9.88376
9.92752
8.60425
9.14628
9.50192
9.85348
10.1349
10.3375
10.4783
10.5735
10.6365
10.678
10.7067
10.727
9.75017
10.4518
10.7653
11.0071
11.1973
11.3096
11.3719
11.4044
11.4192
11.4255
11.4299
11.4334
10.7714
11.7728
11.9566
12.0075
12.0753
12.0962
12.0913
12.0763
12.0595
12.0467
12.0415
12.04
-0.380732
-0.520443
-0.488483
-0.325952
-0.0234094
0.376553
0.864841
1.36784
1.82306
2.16858
2.31876
2.19146
2.56987
2.64279
2.68261
2.73686
2.81001
2.91688
3.03186
3.14985
3.24433
3.3899
3.3425
2.68587
3.44875
3.5368
3.6134
3.69902
3.79202
3.88115
3.96036
4.00205
3.97516
3.94995
3.80635
2.84801
4.80301
4.90626
4.9857
5.04649
5.0852
5.09986
5.08553
5.00983
4.85152
4.65711
4.38326
3.1532
6.01511
6.09442
6.14791
6.17928
6.18733
6.16774
6.10954
5.99847
5.80501
5.52666
5.1951
3.76333
7.12354
7.18778
7.22844
7.24737
7.24357
7.2132
7.14612
7.02925
6.83866
6.55052
6.20462
4.78024
8.15016
8.19909
8.22932
8.24242
8.23811
8.21394
8.16368
8.07666
7.93411
7.71117
7.43571
6.15426
9.09485
9.13019
9.15328
9.16613
9.16968
9.16351
9.14501
9.10904
9.04783
8.94245
8.82711
7.88096
9.95951
9.98254
9.99998
10.0146
10.0295
10.0465
10.0666
10.0921
10.1301
10.1813
10.3122
9.89187
10.7428
10.7552
10.7677
10.7836
10.8085
10.8479
10.9056
10.991
11.125
11.339
11.824
12.1214
11.4388
11.4439
11.4534
11.4697
11.5
11.5545
11.64
11.7717
11.9768
12.3243
13.2046
14.3803
12.0445
12.0472
12.056
12.0724
12.103
12.1604
12.2545
12.4047
12.6291
13.0188
14
15.8693
-0.000127984
-0.119844
-0.225544
-0.294356
-0.328071
-0.312244
-0.271307
-0.214491
-0.101123
0.0917922
0.0579907
-0.166297
0.657291
0.473405
0.339653
0.264419
0.25677
0.339161
0.56755
0.796117
1.31258
1.98295
2.30769
2.47863
1.35081
1.07731
0.942172
0.920246
1.01658
1.24675
1.68039
2.12675
2.52634
2.90213
3.13944
3.32334
2.23739
1.9635
1.89123
1.97178
2.24295
2.67088
3.13961
3.56889
3.94169
4.25556
4.48281
4.66603
3.24455
3.0757
3.09857
3.30148
3.67987
4.13396
4.57259
4.95661
5.28826
5.55369
5.751
5.90365
4.31126
4.25762
4.38944
4.69119
5.10658
5.5376
5.92693
6.25733
6.5284
6.74317
6.90661
7.03182
5.37771
5.45487
5.68164
6.04423
6.46045
6.85501
7.19146
7.4658
7.68403
7.85372
7.9823
8.0794
6.43776
6.66879
6.96249
7.3506
7.7425
8.0865
8.36602
8.5853
8.75352
8.88023
8.97438
9.04416
7.50353
7.90972
8.24231
8.62285
8.96712
9.24775
9.46301
9.62302
9.73955
9.82335
9.88375
9.92751
8.60425
9.14626
9.5019
9.85346
10.1349
10.3375
10.4783
10.5735
10.6365
10.678
10.7067
10.727
9.75017
10.4518
10.7653
11.0071
11.1973
11.3096
11.3719
11.4044
11.4192
11.4255
11.4299
11.4334
10.7714
11.7727
11.9566
12.0075
12.0753
12.0962
12.0913
12.0763
12.0595
12.0467
12.0415
12.04
-0.380868
-0.520601
-0.488653
-0.326119
-0.0235658
0.376422
0.86474
1.36778
1.82303
2.1686
2.31881
2.19149
2.56979
2.6427
2.68253
2.73678
2.80993
2.91682
3.03182
3.14982
3.24431
3.38993
3.34252
2.68586
3.44865
3.53671
3.61331
3.69894
3.79195
3.88108
3.96031
4.00201
3.97513
3.94992
3.80633
2.84795
4.80293
4.90619
4.98563
5.04642
5.08514
5.09981
5.08548
5.00978
4.85147
4.65707
4.38322
3.15311
6.01505
6.09437
6.14786
6.17923
6.18728
6.16769
6.1095
5.99843
5.80496
5.52661
5.19505
3.76324
7.1235
7.18774
7.22839
7.24733
7.24352
7.21316
7.14608
7.02921
6.83861
6.55048
6.20457
4.78016
8.15013
8.19906
8.22928
8.24239
8.23808
8.2139
8.16364
8.07662
7.93408
7.71112
7.43567
6.15419
9.09482
9.13016
9.15326
9.16611
9.16965
9.16348
9.14498
9.10901
9.0478
8.94242
8.82709
7.88092
9.95949
9.98252
9.99996
10.0146
10.0295
10.0465
10.0666
10.0921
10.1301
10.1813
10.3122
9.89187
10.7428
10.7551
10.7677
10.7836
10.8085
10.8479
10.9055
10.991
11.125
11.339
11.824
12.1214
11.4388
11.4439
11.4533
11.4697
11.5
11.5545
11.64
11.7717
11.9768
12.3244
13.2047
14.3804
12.0445
12.0471
12.056
12.0724
12.1029
12.1604
12.2545
12.4046
12.6291
13.0188
14.0001
15.8694
-0.000109288
-0.119828
-0.225533
-0.294358
-0.328086
-0.312272
-0.271348
-0.214519
-0.101138
0.0918098
0.0579682
-0.166337
0.65732
0.473435
0.339686
0.264457
0.256801
0.339246
0.567734
0.796205
1.31273
1.98291
2.30771
2.4787
1.35087
1.07741
0.942316
0.920435
1.01682
1.24706
1.68083
2.12717
2.5267
2.90249
3.13967
3.32353
2.23752
1.96373
1.89156
1.97219
2.24347
2.67139
3.14003
3.56921
3.94192
4.25573
4.48299
4.66619
3.24471
3.07599
3.09899
3.30201
3.68042
4.13443
4.57294
4.95686
5.28843
5.55382
5.75114
5.90378
4.31139
4.25788
4.38983
4.69164
5.10701
5.53793
5.92717
6.2575
6.52852
6.74328
6.90672
7.03193
5.37779
5.4551
5.68194
6.04456
6.46073
6.85521
7.1916
7.4659
7.68411
7.85379
7.98238
8.07948
6.43777
6.66895
6.9627
7.35082
7.74268
8.08662
8.3661
8.58535
8.75356
8.88028
8.97444
9.04422
7.50352
7.90983
8.24246
8.62299
8.96722
9.24781
9.46305
9.62305
9.73958
9.82338
9.88379
9.92756
8.60423
9.14634
9.50199
9.85355
10.135
10.3376
10.4783
10.5735
10.6365
10.678
10.7067
10.727
9.75016
10.4519
10.7654
11.0072
11.1974
11.3096
11.3719
11.4044
11.4192
11.4255
11.4299
11.4335
10.7714
11.7728
11.9567
12.0075
12.0753
12.0962
12.0913
12.0763
12.0595
12.0467
12.0415
12.04
-0.380844
-0.520523
-0.488521
-0.325959
-0.0233844
0.376601
0.864909
1.36793
1.82315
2.1687
2.31889
2.19158
2.56987
2.6428
2.68264
2.73691
2.81008
2.91696
3.03195
3.14994
3.24443
3.39002
3.34261
2.68597
3.4488
3.53685
3.61345
3.69908
3.79209
3.88123
3.96045
4.00214
3.97526
3.95004
3.80644
2.84809
4.80307
4.90633
4.98577
5.04656
5.08527
5.09994
5.08562
5.00992
4.85161
4.65721
4.38335
3.15328
6.01517
6.09449
6.14798
6.17935
6.18741
6.16782
6.10963
5.99856
5.80511
5.52676
5.1952
3.76343
7.1236
7.18784
7.2285
7.24744
7.24364
7.21328
7.14621
7.02935
6.83876
6.55063
6.20473
4.78035
8.15022
8.19915
8.22938
8.24249
8.23818
8.21401
8.16376
8.07675
7.93421
7.71128
7.43583
6.15439
9.0949
9.13024
9.15334
9.1662
9.16975
9.16358
9.14509
9.10912
9.04793
8.94257
8.82726
7.88112
9.95955
9.98259
10
10.0147
10.0296
10.0466
10.0667
10.0922
10.1302
10.1814
10.3124
9.89206
10.7428
10.7552
10.7678
10.7837
10.8085
10.848
10.9056
10.9911
11.1251
11.3391
11.8242
12.1216
11.4389
11.4439
11.4534
11.4697
11.5001
11.5546
11.6401
11.7718
11.9768
12.3244
13.2048
14.3806
12.0445
12.0472
12.056
12.0724
12.103
12.1604
12.2546
12.4047
12.6292
13.0189
14.0001
15.8695
-0.000153772
-0.119885
-0.225604
-0.294431
-0.328156
-0.31234
-0.271413
-0.214593
-0.101211
0.0917418
0.0579019
-0.16643
0.657252
0.473348
0.339583
0.264344
0.256694
0.339129
0.567583
0.7961
1.31262
1.98288
2.30765
2.47863
1.35079
1.07729
0.942164
0.920261
1.01663
1.24685
1.68059
2.12695
2.52651
2.90231
3.13953
3.3234
2.23742
1.96356
1.89134
1.97194
2.24318
2.67111
3.13981
3.56904
3.94179
4.25562
4.48288
4.66609
3.24461
3.07582
3.09875
3.30172
3.68013
4.13419
4.57276
4.95673
5.28833
5.55374
5.75106
5.9037
4.3113
4.25773
4.38961
4.6914
5.10679
5.53777
5.92706
6.25742
6.52846
6.74322
6.90666
7.03187
5.37772
5.45496
5.68177
6.04438
6.46059
6.85512
7.19154
7.46586
7.68408
7.85376
7.98234
8.07944
6.43774
6.66885
6.96258
7.35071
7.7426
8.08658
8.36608
8.58534
8.75355
8.88026
8.97441
9.04419
7.5035
7.90976
8.24237
8.62293
8.96718
9.2478
9.46305
9.62305
9.73958
9.82337
9.88377
9.92753
8.60422
9.14628
9.50194
9.85351
10.1349
10.3376
10.4783
10.5735
10.6365
10.678
10.7067
10.727
9.75014
10.4518
10.7653
11.0071
11.1974
11.3097
11.3719
11.4044
11.4192
11.4255
11.4299
11.4334
10.7713
11.7728
11.9566
12.0075
12.0753
12.0962
12.0913
12.0763
12.0595
12.0467
12.0415
12.04
-0.380976
-0.520687
-0.488703
-0.326146
-0.0235643
0.37644
0.864775
1.36782
1.82308
2.16866
2.31888
2.19156
2.56979
2.6427
2.68253
2.7368
2.80997
2.91686
3.03187
3.14987
3.24437
3.39
3.34258
2.68592
3.44868
3.53674
3.61334
3.69897
3.79198
3.88113
3.96036
4.00206
3.97518
3.94998
3.80638
2.848
4.80298
4.90623
4.98567
5.04646
5.08518
5.09985
5.08553
5.00983
4.85153
4.65712
4.38327
3.15316
6.0151
6.09441
6.1479
6.17927
6.18733
6.16773
6.10954
5.99848
5.80501
5.52666
5.1951
3.7633
7.12354
7.18777
7.22843
7.24737
7.24356
7.2132
7.14612
7.02926
6.83867
6.55053
6.20463
4.78022
8.15017
8.19909
8.22932
8.24242
8.23811
8.21394
8.16368
8.07667
7.93413
7.71119
7.43574
6.15427
9.09485
9.13019
9.15329
9.16614
9.16968
9.16351
9.14501
9.10905
9.04785
8.94249
8.82717
7.88102
9.95951
9.98254
9.99998
10.0146
10.0295
10.0465
10.0666
10.0922
10.1302
10.1813
10.3123
9.89199
10.7428
10.7552
10.7677
10.7836
10.8085
10.8479
10.9056
10.991
11.1251
11.3391
11.8241
12.1215
11.4388
11.4439
11.4533
11.4697
11.5
11.5545
11.64
11.7717
11.9768
12.3244
13.2047
14.3805
12.0445
12.0471
12.056
12.0724
12.1029
12.1604
12.2545
12.4047
12.6291
13.0188
14.0001
15.8695
12.8305
12.9796
12.8639
12.746
12.6929
12.6484
12.6054
12.5685
12.5444
12.5338
12.5376
12.5463
13.218
13.0739
13.0583
13.0079
12.9764
12.943
12.9097
12.8862
12.8816
12.8958
12.9285
12.9637
13.3927
13.2931
13.2533
13.1906
13.1437
13.1062
13.0827
13.0816
13.1091
13.1636
13.2417
13.3194
13.5273
13.439
13.3638
13.2813
13.2133
13.1662
13.1505
13.177
13.2516
13.3713
13.5256
13.6834
12.5625
12.5683
12.5799
12.5955
12.6212
12.6697
12.7525
12.8891
13.0726
13.3419
13.6624
14.6084
13.0051
13.0174
13.0344
13.0458
13.0596
13.0882
13.1442
13.2478
13.3793
13.5694
13.6434
13.94
13.3967
13.4112
13.4343
13.4346
13.4278
13.4252
13.4393
13.4916
13.5604
13.6887
13.6916
13.783
13.8102
13.8063
13.8306
13.8065
13.7633
13.7093
13.6566
13.6288
13.6144
13.6709
13.6456
13.7104
12.8305
12.9796
12.8639
12.746
12.6929
12.6484
12.6054
12.5686
12.5444
12.5338
12.5376
12.5463
13.218
13.0739
13.0583
13.0079
12.9765
12.943
12.9097
12.8862
12.8816
12.8958
12.9285
12.9636
13.3927
13.2931
13.2534
13.1907
13.1437
13.1062
13.0827
13.0816
13.1092
13.1636
13.2417
13.3194
13.5273
13.439
13.3639
13.2814
13.2133
13.1663
13.1506
13.177
13.2517
13.3714
13.5256
13.6834
12.5625
12.5683
12.5799
12.5954
12.6211
12.6696
12.7525
12.8891
13.0726
13.3419
13.6624
14.6085
13.0051
13.0174
13.0343
13.0457
13.0596
13.0881
13.1442
13.2478
13.3793
13.5694
13.6434
13.94
13.3967
13.4112
13.4343
13.4346
13.4277
13.4252
13.4393
13.4915
13.5604
13.6887
13.6916
13.783
13.8102
13.8062
13.8306
13.8065
13.7633
13.7093
13.6566
13.6288
13.6144
13.6709
13.6455
13.7104
12.8305
12.9796
12.864
12.746
12.6929
12.6483
12.6054
12.5685
12.5443
12.5337
12.5376
12.5463
13.218
13.0739
13.0583
13.0079
12.9764
12.9429
12.9097
12.8862
12.8816
12.8958
12.9285
12.9636
13.3927
13.2931
13.2533
13.1906
13.1437
13.1061
13.0826
13.0815
13.1091
13.1635
13.2416
13.3194
13.5273
13.439
13.3638
13.2813
13.2133
13.1662
13.1505
13.1769
13.2516
13.3713
13.5256
13.6834
12.5625
12.5683
12.5799
12.5955
12.6212
12.6697
12.7526
12.8892
13.0727
13.342
13.6625
14.6085
13.0051
13.0174
13.0344
13.0458
13.0596
13.0882
13.1442
13.2479
13.3794
13.5694
13.6435
13.94
13.3967
13.4112
13.4343
13.4346
13.4278
13.4253
13.4393
13.4916
13.5605
13.6887
13.6916
13.783
13.8102
13.8063
13.8306
13.8065
13.7633
13.7094
13.6566
13.6288
13.6144
13.6709
13.6456
13.7105
12.8305
12.9796
12.864
12.7461
12.6929
12.6484
12.6054
12.5686
12.5444
12.5338
12.5376
12.5463
13.218
13.0739
13.0583
13.0079
12.9765
12.943
12.9097
12.8863
12.8816
12.8958
12.9285
12.9636
13.3927
13.2931
13.2534
13.1907
13.1438
13.1063
13.0827
13.0816
13.1092
13.1636
13.2417
13.3194
13.5274
13.4391
13.3639
13.2814
13.2134
13.1663
13.1507
13.1771
13.2517
13.3714
13.5256
13.6834
12.5625
12.5683
12.5799
12.5954
12.6211
12.6696
12.7525
12.8891
13.0726
13.3419
13.6624
14.6085
13.0051
13.0174
13.0343
13.0457
13.0596
13.0881
13.1442
13.2478
13.3793
13.5694
13.6434
13.94
13.3967
13.4112
13.4343
13.4345
13.4277
13.4252
13.4392
13.4915
13.5604
13.6887
13.6916
13.783
13.8102
13.8062
13.8305
13.8064
13.7632
13.7093
13.6565
13.6287
13.6144
13.6709
13.6456
13.7105
13.649
13.5808
13.5019
13.421
13.3484
13.2941
13.2699
13.2873
13.3527
13.4652
13.6142
13.7845
13.7641
13.7038
13.6362
13.5687
13.5061
13.455
13.4246
13.4241
13.4598
13.5325
13.636
13.7631
13.8532
13.7979
13.7375
13.6768
13.6175
13.5645
13.5257
13.5102
13.5263
13.5773
13.6625
13.7761
13.9197
13.8676
13.8105
13.7515
13.6903
13.631
13.5811
13.5508
13.5522
13.5934
13.6761
13.7391
13.9796
13.9955
14.0328
14.0116
13.9706
13.9112
13.8454
13.7889
13.7402
13.7399
13.6936
13.7253
14.0039
14.0145
14.0644
14.0601
14.0434
14.0121
13.9761
13.9437
13.9117
13.8995
13.8529
13.8387
14.0961
14.0599
14.1115
14.115
14.1094
14.0913
14.0687
14.0452
14.0182
13.9976
13.9521
13.9205
14.3099
14.1467
14.1684
14.1692
14.1659
14.1533
14.1362
14.1155
14.0892
14.0623
14.0174
13.9792
13.649
13.5808
13.502
13.4211
13.3485
13.2942
13.27
13.2873
13.3528
13.4652
13.6142
13.7845
13.7641
13.7038
13.6363
13.5688
13.5062
13.4551
13.4246
13.4241
13.4599
13.5325
13.636
13.763
13.8532
13.798
13.7375
13.6769
13.6176
13.5646
13.5257
13.5102
13.5263
13.5773
13.6625
13.7761
13.9197
13.8677
13.8106
13.7516
13.6903
13.631
13.5811
13.5508
13.5522
13.5934
13.6761
13.7391
13.9796
13.9955
14.0328
14.0115
13.9705
13.9111
13.8454
13.7888
13.7402
13.7399
13.6936
13.7253
14.0038
14.0144
14.0644
14.0601
14.0434
14.012
13.9761
13.9436
13.9117
13.8995
13.8529
13.8386
14.096
14.0598
14.1115
14.1149
14.1094
14.0913
14.0686
14.0452
14.0182
13.9975
13.952
13.9205
14.3098
14.1467
14.1684
14.1691
14.1658
14.1532
14.1361
14.1155
14.0892
14.0623
14.0174
13.9792
13.6489
13.5808
13.5019
13.421
13.3484
13.2941
13.2699
13.2872
13.3527
13.4651
13.6141
13.7845
13.7641
13.7038
13.6362
13.5687
13.5061
13.455
13.4245
13.424
13.4598
13.5324
13.636
13.763
13.8531
13.7979
13.7375
13.6768
13.6175
13.5645
13.5256
13.5101
13.5262
13.5772
13.6624
13.776
13.9197
13.8676
13.8105
13.7515
13.6903
13.631
13.581
13.5507
13.5521
13.5933
13.676
13.7391
13.9796
13.9955
14.0328
14.0116
13.9706
13.9112
13.8454
13.7889
13.7402
13.74
13.6937
13.7253
14.0039
14.0144
14.0644
14.0601
14.0434
14.0121
13.9762
13.9437
13.9117
13.8995
13.853
13.8387
14.0961
14.0599
14.1115
14.115
14.1094
14.0914
14.0687
14.0452
14.0183
13.9976
13.9521
13.9205
14.3099
14.1467
14.1684
14.1692
14.1659
14.1533
14.1362
14.1156
14.0892
14.0624
14.0175
13.9793
13.649
13.5809
13.502
13.4211
13.3486
13.2942
13.27
13.2874
13.3528
13.4652
13.6142
13.7845
13.7642
13.7039
13.6363
13.5688
13.5062
13.4551
13.4247
13.4242
13.4599
13.5326
13.6361
13.7631
13.8532
13.798
13.7376
13.6769
13.6176
13.5646
13.5258
13.5102
13.5263
13.5773
13.6625
13.7761
13.9198
13.8677
13.8106
13.7516
13.6904
13.6311
13.5811
13.5508
13.5522
13.5934
13.6761
13.7392
13.9795
13.9955
14.0327
14.0115
13.9705
13.9111
13.8453
13.7888
13.7402
13.7399
13.6936
13.7253
14.0038
14.0144
14.0643
14.0601
14.0434
14.012
13.9761
13.9436
13.9117
13.8995
13.8529
13.8387
14.0961
14.0598
14.1115
14.1149
14.1094
14.0913
14.0686
14.0452
14.0182
13.9975
13.952
13.9205
14.3098
14.1467
14.1684
14.1691
14.1658
14.1532
14.1361
14.1155
14.0892
14.0623
14.0174
13.9792
13.9675
13.9162
13.8592
13.798
13.7312
13.6623
13.5985
13.5509
13.5317
13.5432
13.5853
13.4808
13.9997
13.9471
13.8878
13.8217
13.747
13.6671
13.5888
13.524
13.4856
13.473
13.5125
13.4967
14.0198
13.9647
13.9014
13.8291
13.7462
13.6559
13.5656
13.4891
13.4423
13.4301
13.4669
13.4882
14.0309
13.9729
13.9053
13.8269
13.7368
13.6385
13.5407
13.4596
13.4135
13.4093
13.4479
13.4866
14.0361
13.9753
13.9037
13.8203
13.7249
13.6216
13.5207
13.4406
13.3995
13.4035
13.4481
13.4962
14.0377
13.9747
13.9001
13.8131
13.7144
13.609
13.5084
13.4323
13.3977
13.4098
13.4625
13.5149
14.0379
13.9733
13.8969
13.8078
13.7076
13.6021
13.5036
13.4328
13.4046
13.4241
13.4841
13.539
14.0383
13.9729
13.8958
13.8059
13.7056
13.6011
13.5054
13.4398
13.417
13.443
13.509
13.5645
14.0402
13.975
13.8983
13.8088
13.7092
13.6059
13.5125
13.4511
13.4316
13.4625
13.5323
13.5879
14.0456
13.9821
13.907
13.8189
13.7205
13.6178
13.5248
13.4652
13.445
13.4779
13.5496
13.6079
14.0564
13.9965
13.9249
13.8393
13.7422
13.639
13.5435
13.4818
13.4559
13.488
13.5621
13.6218
14.0668
14.0112
13.944
13.8625
13.7685
13.6663
13.5716
13.4978
13.4701
13.4991
13.5693
13.6223
14.7001
14.3276
14.2312
14.2174
14.2107
14.1998
14.185
14.1653
14.1388
14.1082
14.0639
14.0224
14.6738
14.4033
14.2764
14.253
14.2448
14.234
14.2199
14.1999
14.1727
14.14
14.0962
14.0527
14.6062
14.3969
14.3046
14.2775
14.2697
14.259
14.2445
14.2236
14.1953
14.161
14.1175
14.0724
14.5369
14.375
14.3209
14.2948
14.2876
14.2771
14.2618
14.2395
14.2099
14.1741
14.1305
14.0842
14.4813
14.3581
14.3308
14.3075
14.3006
14.2902
14.2738
14.25
14.2189
14.1817
14.1379
14.0904
14.4461
14.3497
14.3378
14.3175
14.3108
14.2996
14.2819
14.2566
14.2242
14.1858
14.1416
14.0931
14.4316
14.3515
14.3445
14.3263
14.3188
14.3063
14.2872
14.2606
14.2269
14.1877
14.1432
14.0941
14.4328
14.3643
14.3522
14.3346
14.3249
14.3106
14.2904
14.2626
14.228
14.1884
14.144
14.0948
14.4443
14.386
14.3613
14.3422
14.3287
14.3125
14.2914
14.2631
14.2282
14.1886
14.145
14.0963
14.4608
14.412
14.3719
14.3475
14.3284
14.3102
14.2892
14.2614
14.2272
14.1889
14.1469
14.1
14.4792
14.4334
14.3838
14.3501
14.3245
14.3041
14.2832
14.2569
14.2249
14.1894
14.1505
14.107
14.4997
14.4526
14.3939
14.3536
14.3234
14.3008
14.2789
14.2528
14.2227
14.1899
14.1539
14.1136
13.9675
13.9162
13.8593
13.7981
13.7312
13.6624
13.5986
13.5509
13.5317
13.5432
13.5853
13.4808
13.9998
13.9472
13.8878
13.8217
13.7471
13.6671
13.5888
13.524
13.4856
13.473
13.5125
13.4967
14.0198
13.9647
13.9014
13.8292
13.7462
13.6559
13.5657
13.4892
13.4423
13.4301
13.4669
13.4882
14.0309
13.9729
13.9053
13.8269
13.7368
13.6385
13.5407
13.4596
13.4135
13.4093
13.4479
13.4866
14.0361
13.9753
13.9037
13.8203
13.7249
13.6217
13.5208
13.4406
13.3995
13.4035
13.4481
13.4962
14.0378
13.9747
13.9002
13.8131
13.7145
13.6091
13.5084
13.4323
13.3977
13.4098
13.4625
13.5149
14.038
13.9733
13.897
13.8078
13.7077
13.6021
13.5036
13.4328
13.4046
13.4241
13.4842
13.539
14.0383
13.9729
13.8958
13.806
13.7056
13.6011
13.5054
13.4398
13.417
13.4431
13.509
13.5645
14.0403
13.975
13.8983
13.8088
13.7093
13.6059
13.5126
13.4511
13.4316
13.4625
13.5323
13.5879
14.0457
13.9821
13.9071
13.8189
13.7206
13.6179
13.5248
13.4652
13.445
13.4779
13.5496
13.6079
14.0564
13.9966
13.9249
13.8393
13.7423
13.639
13.5436
13.4818
13.456
13.488
13.5621
13.6218
14.0668
14.0113
13.944
13.8625
13.7685
13.6663
13.5717
13.4978
13.4701
13.4992
13.5693
13.6223
14.7
14.3276
14.2312
14.2173
14.2107
14.1997
14.185
14.1652
14.1387
14.1082
14.0639
14.0224
14.6738
14.4032
14.2764
14.2529
14.2448
14.234
14.2198
14.1998
14.1727
14.1399
14.0962
14.0526
14.6061
14.3968
14.3046
14.2774
14.2697
14.2589
14.2445
14.2235
14.1953
14.1609
14.1174
14.0724
14.5368
14.3749
14.3209
14.2947
14.2875
14.2771
14.2618
14.2395
14.2099
14.174
14.1305
14.0842
14.4812
14.3581
14.3307
14.3074
14.3006
14.2902
14.2738
14.25
14.2189
14.1817
14.1378
14.0904
14.446
14.3497
14.3377
14.3175
14.3107
14.2996
14.2819
14.2566
14.2241
14.1858
14.1415
14.0931
14.4315
14.3515
14.3444
14.3262
14.3188
14.3062
14.2872
14.2605
14.2268
14.1876
14.1432
14.0941
14.4328
14.3643
14.3522
14.3345
14.3249
14.3106
14.2904
14.2626
14.228
14.1883
14.144
14.0948
14.4443
14.3859
14.3612
14.3421
14.3286
14.3124
14.2914
14.2631
14.2281
14.1885
14.1449
14.0963
14.4607
14.412
14.3718
14.3474
14.3284
14.3102
14.2891
14.2614
14.2272
14.1889
14.1469
14.1
14.4792
14.4333
14.3838
14.3501
14.3244
14.304
14.2832
14.2568
14.2249
14.1893
14.1505
14.107
14.4997
14.4526
14.3939
14.3536
14.3234
14.3008
14.2788
14.2527
14.2227
14.1899
14.1539
14.1136
13.9675
13.9162
13.8592
13.798
13.7312
13.6623
13.5985
13.5508
13.5316
13.5431
13.5852
13.4807
13.9997
13.9471
13.8878
13.8217
13.747
13.667
13.5888
13.524
13.4855
13.4729
13.5124
13.4966
14.0198
13.9647
13.9014
13.8291
13.7462
13.6558
13.5656
13.4891
13.4422
13.43
13.4668
13.4881
14.0309
13.9729
13.9052
13.8269
13.7368
13.6384
13.5406
13.4595
13.4134
13.4092
13.4478
13.4865
14.0361
13.9753
13.9037
13.8203
13.7249
13.6216
13.5207
13.4405
13.3994
13.4034
13.448
13.4962
14.0377
13.9747
13.9001
13.8131
13.7144
13.609
13.5083
13.4322
13.3976
13.4097
13.4624
13.5148
14.0379
13.9733
13.8969
13.8078
13.7076
13.6021
13.5035
13.4327
13.4045
13.4241
13.4841
13.539
14.0383
13.9729
13.8958
13.8059
13.7056
13.601
13.5053
13.4397
13.4169
13.443
13.5089
13.5644
14.0402
13.975
13.8983
13.8088
13.7092
13.6059
13.5125
13.451
13.4315
13.4624
13.5322
13.5878
14.0457
13.9821
13.907
13.8189
13.7205
13.6178
13.5248
13.4651
13.4449
13.4778
13.5495
13.6078
14.0564
13.9965
13.9249
13.8393
13.7422
13.639
13.5435
13.4817
13.4559
13.4879
13.562
13.6217
14.0668
14.0112
13.944
13.8625
13.7685
13.6662
13.5716
13.4977
13.47
13.4991
13.5692
13.6222
14.7002
14.3277
14.2313
14.2174
14.2108
14.1998
14.185
14.1653
14.1388
14.1082
14.0639
14.0225
14.674
14.4033
14.2765
14.253
14.2449
14.2341
14.2199
14.1999
14.1728
14.14
14.0962
14.0527
14.6063
14.397
14.3047
14.2775
14.2698
14.259
14.2446
14.2236
14.1954
14.161
14.1175
14.0725
14.537
14.375
14.321
14.2948
14.2876
14.2772
14.2619
14.2396
14.21
14.1741
14.1306
14.0842
14.4814
14.3582
14.3308
14.3075
14.3007
14.2903
14.2738
14.25
14.219
14.1818
14.1379
14.0904
14.4462
14.3498
14.3378
14.3176
14.3108
14.2997
14.282
14.2567
14.2242
14.1858
14.1416
14.0932
14.4317
14.3516
14.3446
14.3263
14.3189
14.3063
14.2873
14.2606
14.2269
14.1877
14.1433
14.0942
14.4329
14.3644
14.3523
14.3347
14.325
14.3107
14.2905
14.2627
14.2281
14.1884
14.1441
14.0948
14.4444
14.3861
14.3614
14.3423
14.3287
14.3125
14.2915
14.2631
14.2282
14.1886
14.145
14.0964
14.4609
14.4121
14.3719
14.3475
14.3285
14.3103
14.2892
14.2615
14.2273
14.1889
14.1469
14.1001
14.4793
14.4335
14.3839
14.3502
14.3246
14.3041
14.2833
14.2569
14.2249
14.1894
14.1505
14.1071
14.4998
14.4527
14.394
14.3537
14.3235
14.3009
14.2789
14.2528
14.2228
14.19
14.1539
14.1137
13.9676
13.9162
13.8593
13.7981
13.7313
13.6624
13.5986
13.5509
13.5317
13.5432
13.5853
13.4808
13.9998
13.9472
13.8879
13.8217
13.7471
13.6671
13.5889
13.524
13.4856
13.473
13.5125
13.4967
14.0198
13.9647
13.9015
13.8292
13.7463
13.6559
13.5657
13.4892
13.4423
13.4301
13.4669
13.4882
14.031
13.9729
13.9053
13.827
13.7369
13.6385
13.5407
13.4596
13.4135
13.4093
13.4479
13.4866
14.0361
13.9753
13.9038
13.8204
13.7249
13.6217
13.5208
13.4406
13.3995
13.4035
13.4481
13.4963
14.0378
13.9747
13.9002
13.8131
13.7145
13.6091
13.5084
13.4323
13.3977
13.4098
13.4625
13.5149
14.038
13.9734
13.897
13.8078
13.7077
13.6022
13.5036
13.4328
13.4046
13.4242
13.4842
13.539
14.0383
13.9729
13.8959
13.806
13.7057
13.6011
13.5054
13.4398
13.417
13.4431
13.509
13.5645
14.0403
13.975
13.8983
13.8088
13.7093
13.606
13.5126
13.4511
13.4316
13.4625
13.5323
13.5879
14.0457
13.9821
13.9071
13.8189
13.7206
13.6179
13.5249
13.4652
13.445
13.4779
13.5496
13.6079
14.0564
13.9966
13.9249
13.8393
13.7423
13.639
13.5436
13.4818
13.456
13.488
13.5621
13.6218
14.0668
14.0113
13.944
13.8625
13.7685
13.6663
13.5717
13.4978
13.4701
13.4992
13.5693
13.6223
14.7
14.3276
14.2312
14.2173
14.2107
14.1997
14.1849
14.1652
14.1387
14.1082
14.0639
14.0224
14.6738
14.4032
14.2764
14.2529
14.2448
14.234
14.2198
14.1998
14.1727
14.1399
14.0962
14.0527
14.6061
14.3969
14.3046
14.2774
14.2697
14.2589
14.2445
14.2235
14.1953
14.1609
14.1174
14.0724
14.5368
14.3749
14.3209
14.2947
14.2875
14.2771
14.2618
14.2395
14.2099
14.174
14.1305
14.0842
14.4813
14.3581
14.3307
14.3074
14.3006
14.2902
14.2737
14.25
14.2189
14.1817
14.1378
14.0904
14.4461
14.3497
14.3377
14.3175
14.3107
14.2996
14.2819
14.2566
14.2241
14.1858
14.1415
14.0931
14.4316
14.3515
14.3445
14.3262
14.3188
14.3062
14.2872
14.2605
14.2268
14.1876
14.1432
14.0941
14.4328
14.3643
14.3522
14.3345
14.3249
14.3106
14.2904
14.2626
14.228
14.1883
14.144
14.0948
14.4443
14.386
14.3612
14.3422
14.3286
14.3124
14.2914
14.263
14.2281
14.1885
14.1449
14.0963
14.4608
14.412
14.3718
14.3474
14.3284
14.3102
14.2891
14.2614
14.2272
14.1888
14.1469
14.1
14.4792
14.4334
14.3838
14.3501
14.3245
14.304
14.2832
14.2568
14.2249
14.1893
14.1505
14.107
14.4997
14.4526
14.3939
14.3536
14.3234
14.3008
14.2788
14.2527
14.2227
14.1899
14.1539
14.1136
)
;

boundaryField
{
    rotor
    {
        type            zeroGradient;
    }
    stator
    {
        type            zeroGradient;
    }
    front
    {
        type            empty;
    }
    back
    {
        type            empty;
    }
}


// ************************************************************************* //
