/*--------------------------------*- C++ -*----------------------------------*\
  =========                 |
  \\      /  F ield         | OpenFOAM: The Open Source CFD Toolbox
   \\    /   O peration     | Website:  https://openfoam.org
    \\  /    A nd           | Version:  6
     \\/     M anipulation  |
\*---------------------------------------------------------------------------*/
FoamFile
{
    version     2.0;
    format      ascii;
    class       surfaceScalarField;
    location    "500";
    object      phi;
}
// * * * * * * * * * * * * * * * * * * * * * * * * * * * * * * * * * * * * * //

dimensions      [0 3 -1 0 0 0 0];

internalField   nonuniform List<scalar> 
5952
(
5.21696e-06
-5.21289e-06
8.80769e-06
-3.59057e-06
1.15074e-05
-2.69981e-06
1.29639e-05
-1.45634e-06
1.30948e-05
-1.30936e-07
1.16205e-05
1.47433e-06
7.53938e-06
4.08096e-06
1.44131e-06
6.09798e-06
-1.10412e-05
1.24824e-05
-2.55319e-05
1.44907e-05
-3.65928e-05
1.10608e-05
8.56795e-06
-4.51608e-05
1.424e-06
-6.63672e-06
3.69019e-06
-5.85666e-06
4.06219e-06
-3.07167e-06
2.5682e-06
3.7794e-08
-1.163e-06
3.6004e-06
-8.50717e-06
8.81855e-06
-1.98091e-05
1.53829e-05
-3.19882e-05
1.82771e-05
-3.81972e-05
1.86913e-05
-4.06627e-05
1.69562e-05
-4.30179e-05
1.34159e-05
1.05534e-05
-4.50033e-05
1.37558e-06
-8.01215e-06
1.20065e-06
-5.68155e-06
-9.45699e-07
-9.25142e-07
-5.81994e-06
4.91222e-06
-1.42089e-05
1.19894e-05
-2.37375e-05
1.83472e-05
-2.97615e-05
2.1407e-05
-3.29245e-05
2.14401e-05
-3.42303e-05
1.99971e-05
-3.4669e-05
1.73949e-05
-3.53952e-05
1.41421e-05
1.1206e-05
-3.60478e-05
-1.62886e-06
-6.38315e-06
-4.43213e-06
-2.87807e-06
-9.01385e-06
3.65679e-06
-1.54035e-05
1.13021e-05
-2.15709e-05
1.81568e-05
-2.54159e-05
2.21923e-05
-2.69812e-05
2.29723e-05
-2.739e-05
2.18489e-05
-2.73248e-05
1.99319e-05
-2.71678e-05
1.72379e-05
-2.72142e-05
1.41885e-05
1.12504e-05
-2.72586e-05
-3.59653e-06
-2.78635e-06
-8.4132e-06
1.93883e-06
-1.346e-05
8.70382e-06
-1.78958e-05
1.5738e-05
-2.05674e-05
2.08286e-05
-2.12233e-05
2.28483e-05
-2.08368e-05
2.25858e-05
-2.01184e-05
2.11306e-05
-1.92228e-05
1.90363e-05
-1.84834e-05
1.64985e-05
-1.80115e-05
1.37166e-05
1.09174e-05
-1.76785e-05
-4.84667e-06
2.06067e-06
-9.80658e-06
6.89901e-06
-1.37055e-05
1.2603e-05
-1.58258e-05
1.78585e-05
-1.60492e-05
2.10522e-05
-1.50711e-05
2.18704e-05
-1.36567e-05
2.11714e-05
-1.21943e-05
1.96682e-05
-1.08585e-05
1.77005e-05
-9.77509e-06
1.54151e-05
-8.98222e-06
1.29238e-05
1.03437e-05
-8.40855e-06
-5.28514e-06
7.34626e-06
-9.48586e-06
1.11e-05
-1.18167e-05
1.49342e-05
-1.20158e-05
1.80578e-05
-1.06299e-05
1.96664e-05
-8.56927e-06
1.98099e-05
-6.40722e-06
1.90094e-05
-4.40098e-06
1.7662e-05
-2.66668e-06
1.59662e-05
-1.25919e-06
1.40076e-05
-1.81733e-07
1.18463e-05
9.5451e-06
6.16856e-07
-5.29968e-06
1.26461e-05
-8.39708e-06
1.41976e-05
-9.06902e-06
1.56063e-05
-7.67996e-06
1.66689e-05
-5.11397e-06
1.71005e-05
-2.18421e-06
1.68802e-05
6.54447e-07
1.61708e-05
3.19524e-06
1.51213e-05
5.35567e-06
1.38058e-05
7.114e-06
1.22493e-05
8.48926e-06
1.0471e-05
8.50411e-06
9.53025e-06
-4.69231e-06
1.73386e-05
-6.50885e-06
1.60142e-05
-5.43735e-06
1.45348e-05
-2.64938e-06
1.38809e-05
9.50175e-07
1.3501e-05
4.66303e-06
1.31674e-05
8.11182e-06
1.2722e-05
1.11341e-05
1.2099e-05
1.3678e-05
1.12619e-05
1.57476e-05
1.01798e-05
1.73826e-05
8.83601e-06
7.24833e-06
1.86384e-05
-4.05834e-06
2.13968e-05
-3.1018e-06
1.50577e-05
4.68845e-07
1.09641e-05
4.75255e-06
9.59721e-06
9.23492e-06
9.01863e-06
1.34783e-05
8.924e-06
1.72496e-05
8.9507e-06
2.04719e-05
8.87672e-06
2.31462e-05
8.58758e-06
2.53096e-05
8.01646e-06
2.70248e-05
7.12075e-06
5.9181e-06
2.8355e-05
6.21812e-07
2.07749e-05
6.14115e-06
9.53824e-06
1.20036e-05
5.1016e-06
1.73336e-05
4.26722e-06
2.2014e-05
4.33822e-06
2.60351e-05
4.90293e-06
2.94359e-05
5.5499e-06
3.22628e-05
6.0498e-06
3.45722e-05
6.27815e-06
3.64241e-05
6.16458e-06
3.78947e-05
5.65018e-06
4.76799e-06
3.90448e-05
2.04678e-05
3.06937e-07
2.87799e-05
1.22605e-06
3.38457e-05
3.56895e-08
3.77004e-05
4.12524e-07
4.0668e-05
1.37055e-06
4.31019e-05
2.46907e-06
4.51416e-05
3.5102e-06
4.68292e-05
4.36214e-06
4.81963e-05
4.91108e-06
4.92764e-05
5.08451e-06
5.01346e-05
4.79193e-06
5.08153e-05
4.08729e-06
-5.11772e-05
6.01642e-06
-5.52211e-05
4.04392e-06
-5.71048e-05
1.88365e-06
-5.72034e-05
9.85594e-08
-5.54786e-05
-1.72481e-06
-5.20373e-05
-3.44127e-06
-4.66152e-05
-5.42213e-06
-3.92489e-05
-7.3663e-06
-2.97435e-05
-9.50539e-06
-1.83375e-05
-1.1406e-05
-6.97777e-06
-1.13598e-05
-6.97778e-06
-4.66737e-05
7.68683e-06
-4.75076e-05
4.8778e-06
-4.78311e-05
2.20715e-06
-4.74342e-05
-2.98327e-07
-4.63604e-05
-2.79865e-06
-4.43308e-05
-5.47091e-06
-4.1339e-05
-8.41389e-06
-3.70059e-05
-1.16995e-05
-3.11682e-05
-1.5343e-05
-2.35175e-05
-1.90568e-05
-1.31079e-05
-2.17694e-05
-2.00857e-05
-3.66185e-05
8.25752e-06
-3.70803e-05
5.33957e-06
-3.73224e-05
2.44925e-06
-3.71529e-05
-4.67884e-07
-3.64173e-05
-3.53426e-06
-3.50459e-05
-6.84232e-06
-3.29339e-05
-1.05259e-05
-2.99499e-05
-1.46834e-05
-2.60068e-05
-1.92862e-05
-2.0625e-05
-2.44386e-05
-1.27858e-05
-2.96086e-05
-3.28715e-05
-2.72916e-05
8.29047e-06
-2.72688e-05
5.31675e-06
-2.71242e-05
2.30465e-06
-2.67837e-05
-8.08447e-07
-2.61854e-05
-4.13249e-06
-2.52555e-05
-7.77229e-06
-2.39003e-05
-1.18811e-05
-2.19909e-05
-1.65928e-05
-1.9311e-05
-2.19661e-05
-1.53687e-05
-2.83809e-05
-9.39965e-06
-3.55777e-05
-4.22711e-05
-1.74533e-05
8.06523e-06
-1.72899e-05
5.15337e-06
-1.71337e-05
2.1484e-06
-1.69277e-05
-1.01437e-06
-1.66275e-05
-4.43269e-06
-1.61817e-05
-8.21812e-06
-1.5531e-05
-1.25318e-05
-1.46107e-05
-1.75131e-05
-1.32156e-05
-2.33611e-05
-1.11225e-05
-3.0474e-05
-7.43976e-06
-3.92605e-05
-4.97109e-05
-8.01485e-06
7.67153e-06
-7.75984e-06
4.89835e-06
-7.60285e-06
1.99141e-06
-7.50894e-06
-1.10829e-06
-7.45368e-06
-4.48795e-06
-7.4143e-06
-8.25752e-06
-7.38499e-06
-1.25611e-05
-7.32615e-06
-1.7572e-05
-7.12133e-06
-2.3566e-05
-6.58419e-06
-3.10112e-05
-4.87581e-06
-4.09688e-05
-5.45867e-05
1.17813e-06
7.11025e-06
1.53784e-06
4.53864e-06
1.72384e-06
1.80539e-06
1.75204e-06
-1.13649e-06
1.62377e-06
-4.3597e-06
1.32724e-06
-7.96101e-06
8.35464e-07
-1.20694e-05
1.32038e-07
-1.68686e-05
-7.57025e-07
-2.26769e-05
-1.70767e-06
-3.00605e-05
-2.24783e-06
-4.04287e-05
-5.68346e-05
1.02835e-05
6.35703e-06
1.07822e-05
4.03985e-06
1.10467e-05
1.54096e-06
1.10789e-05
-1.16877e-06
1.08616e-05
-4.14235e-06
1.03536e-05
-7.45302e-06
9.48178e-06
-1.11976e-05
8.15359e-06
-1.55404e-05
6.27614e-06
-2.07995e-05
3.83503e-06
-2.76195e-05
1.22181e-06
-3.78155e-05
-5.56128e-05
1.95715e-05
5.42387e-06
2.02168e-05
3.39452e-06
2.05927e-05
1.16507e-06
2.06927e-05
-1.26877e-06
2.04853e-05
-3.93497e-06
1.99055e-05
-6.87328e-06
1.88311e-05
-1.01233e-05
1.70836e-05
-1.37929e-05
1.44169e-05
-1.81329e-05
1.05776e-05
-2.37803e-05
5.66889e-06
-3.29069e-05
-4.9944e-05
2.93702e-05
4.40874e-06
3.01046e-05
2.66013e-06
3.05792e-05
6.90465e-07
3.07833e-05
-1.47296e-06
3.06745e-05
-3.82618e-06
3.01688e-05
-6.36754e-06
2.91015e-05
-9.05596e-06
2.7216e-05
-1.19075e-05
2.41012e-05
-1.50181e-05
1.92517e-05
-1.89308e-05
1.1854e-05
-2.55093e-05
-3.80901e-05
3.9959e-05
3.49451e-06
4.06609e-05
1.95826e-06
4.11747e-05
1.7662e-07
4.14878e-05
-1.78603e-06
4.1548e-05
-3.88637e-06
4.12576e-05
-6.07711e-06
4.04247e-05
-8.22308e-06
3.87492e-05
-1.0232e-05
3.56841e-05
-1.1953e-05
3.04897e-05
-1.37365e-05
2.06395e-05
-1.56591e-05
-1.74507e-05
5.14264e-05
2.88341e-06
5.19649e-05
1.4198e-06
5.24567e-05
-3.15223e-07
5.28804e-05
-2.20965e-06
5.31686e-05
-4.17456e-06
5.3212e-05
-6.1205e-06
5.28165e-05
-7.82766e-06
5.17119e-05
-9.12736e-06
4.9375e-05
-9.6162e-06
4.48731e-05
-9.23453e-06
3.45538e-05
-5.33982e-06
1.71031e-05
5.21555e-06
-5.21558e-06
8.8066e-06
-3.59096e-06
1.15068e-05
-2.70022e-06
1.29634e-05
-1.45647e-06
1.30943e-05
-1.309e-07
1.16205e-05
1.47392e-06
7.54006e-06
4.08031e-06
1.44202e-06
6.09805e-06
-1.10403e-05
1.24821e-05
-2.55317e-05
1.44914e-05
-3.65935e-05
1.10618e-05
8.56844e-06
-4.5162e-05
1.42299e-06
-6.6385e-06
3.68984e-06
-5.85776e-06
4.06214e-06
-3.07238e-06
2.56849e-06
3.73101e-08
-1.16201e-06
3.59975e-06
-8.50539e-06
8.81736e-06
-1.98073e-05
1.53822e-05
-3.19872e-05
1.8278e-05
-3.81977e-05
1.86925e-05
-4.06638e-05
1.69575e-05
-4.30192e-05
1.34172e-05
1.0554e-05
-4.50049e-05
1.37535e-06
-8.01369e-06
1.20092e-06
-5.68316e-06
-9.44707e-07
-9.26588e-07
-5.81776e-06
4.91054e-06
-1.42059e-05
1.19879e-05
-2.37355e-05
1.8347e-05
-2.97614e-05
2.14082e-05
-3.29255e-05
2.1442e-05
-3.4232e-05
1.9999e-05
-3.4671e-05
1.73965e-05
-3.53969e-05
1.4143e-05
1.12066e-05
-3.60495e-05
-1.62859e-06
-6.38486e-06
-4.43127e-06
-2.88026e-06
-9.01221e-06
3.65458e-06
-1.54018e-05
1.13003e-05
-2.15702e-05
1.81563e-05
-2.54165e-05
2.21935e-05
-2.69826e-05
2.29742e-05
-2.73917e-05
2.18511e-05
-2.73265e-05
1.99337e-05
-2.71694e-05
1.72394e-05
-2.72157e-05
1.41893e-05
1.12509e-05
-2.72601e-05
-3.59629e-06
-2.78817e-06
-8.41269e-06
1.93648e-06
-1.34596e-05
8.70177e-06
-1.7896e-05
1.57369e-05
-2.05686e-05
2.0829e-05
-2.1225e-05
2.28499e-05
-2.08385e-05
2.25878e-05
-2.012e-05
2.11326e-05
-1.92242e-05
1.90379e-05
-1.84846e-05
1.64997e-05
-1.80127e-05
1.37173e-05
1.09177e-05
-1.76796e-05
-4.84647e-06
2.05911e-06
-9.80684e-06
6.89725e-06
-1.37064e-05
1.26016e-05
-1.58272e-05
1.7858e-05
-1.60509e-05
2.10528e-05
-1.50727e-05
2.18719e-05
-1.36582e-05
2.11731e-05
-1.21955e-05
1.96699e-05
-1.08595e-05
1.77019e-05
-9.77592e-06
1.54161e-05
-8.98298e-06
1.29243e-05
1.0344e-05
-8.40921e-06
-5.28554e-06
7.345e-06
-9.48673e-06
1.10988e-05
-1.18181e-05
1.49332e-05
-1.20174e-05
1.80575e-05
-1.06315e-05
1.9667e-05
-8.57067e-06
1.98111e-05
-6.40832e-06
1.90109e-05
-4.40183e-06
1.76634e-05
-2.66731e-06
1.59673e-05
-1.25968e-06
1.40084e-05
-1.82113e-07
1.18467e-05
9.54527e-06
6.16553e-07
-5.30021e-06
1.26455e-05
-8.39815e-06
1.41968e-05
-9.07039e-06
1.56057e-05
-7.68145e-06
1.66687e-05
-5.11533e-06
1.7101e-05
-2.1853e-06
1.68812e-05
6.5365e-07
1.61719e-05
3.1947e-06
1.51224e-05
5.35534e-06
1.38067e-05
7.11382e-06
1.22499e-05
8.48919e-06
1.04714e-05
8.50417e-06
9.53026e-06
-4.69294e-06
1.73384e-05
-6.50974e-06
1.60137e-05
-5.43845e-06
1.45344e-05
-2.65054e-06
1.38809e-05
9.49124e-07
1.35014e-05
4.66222e-06
1.31681e-05
8.11127e-06
1.27229e-05
1.11338e-05
1.20998e-05
1.36779e-05
1.12626e-05
1.57476e-05
1.01802e-05
1.73828e-05
8.8362e-06
7.24828e-06
1.86386e-05
-4.05853e-06
2.13971e-05
-3.10223e-06
1.50574e-05
4.68186e-07
1.0964e-05
4.75177e-06
9.59726e-06
9.2342e-06
9.01893e-06
1.34778e-05
8.92453e-06
1.72493e-05
8.95134e-06
2.04718e-05
8.87734e-06
2.31463e-05
8.58806e-06
2.53098e-05
8.01673e-06
2.70252e-05
7.1208e-06
5.91794e-06
2.83555e-05
6.21938e-07
2.07751e-05
6.14104e-06
9.53831e-06
1.20033e-05
5.1017e-06
1.73331e-05
4.26741e-06
2.20135e-05
4.33854e-06
2.60346e-05
4.90336e-06
2.94356e-05
5.55037e-06
3.22627e-05
6.05021e-06
3.45723e-05
6.27843e-06
3.64244e-05
6.16467e-06
3.78951e-05
5.65007e-06
4.76771e-06
3.90453e-05
2.04678e-05
3.07294e-07
2.87796e-05
1.22637e-06
3.38453e-05
3.6057e-08
3.76998e-05
4.12873e-07
4.06674e-05
1.37089e-06
4.31013e-05
2.4694e-06
4.51412e-05
3.51049e-06
4.68291e-05
4.36234e-06
4.81963e-05
4.91113e-06
4.92766e-05
5.08439e-06
5.0135e-05
4.79165e-06
5.08159e-05
4.08687e-06
-5.11789e-05
6.0168e-06
-5.52231e-05
4.04416e-06
-5.71069e-05
1.88376e-06
-5.72054e-05
9.8587e-08
-5.54806e-05
-1.72488e-06
-5.20392e-05
-3.44138e-06
-4.6617e-05
-5.42228e-06
-3.92505e-05
-7.36647e-06
-2.97449e-05
-9.50561e-06
-1.83386e-05
-1.14063e-05
-6.97855e-06
-1.13602e-05
-6.97856e-06
-4.66754e-05
7.68734e-06
-4.75093e-05
4.87807e-06
-4.78329e-05
2.20724e-06
-4.74359e-05
-2.98367e-07
-4.6362e-05
-2.7988e-06
-4.43322e-05
-5.47115e-06
-4.13403e-05
-8.41421e-06
-3.7007e-05
-1.16998e-05
-3.11691e-05
-1.53435e-05
-2.35181e-05
-1.90573e-05
-1.31083e-05
-2.177e-05
-2.00868e-05
-3.66201e-05
8.25792e-06
-3.70818e-05
5.33975e-06
-3.73238e-05
2.44926e-06
-3.71542e-05
-4.68032e-07
-3.64185e-05
-3.53454e-06
-3.50469e-05
-6.8427e-06
-3.29348e-05
-1.05263e-05
-2.99507e-05
-1.4684e-05
-2.60073e-05
-1.92868e-05
-2.06253e-05
-2.44394e-05
-1.27858e-05
-2.96095e-05
-3.28727e-05
-2.72929e-05
8.29074e-06
-2.727e-05
5.31682e-06
-2.71253e-05
2.30454e-06
-2.67846e-05
-8.08708e-07
-2.61863e-05
-4.13288e-06
-2.52562e-05
-7.77279e-06
-2.39009e-05
-1.18817e-05
-2.19914e-05
-1.65935e-05
-1.93114e-05
-2.19669e-05
-1.53691e-05
-2.83818e-05
-9.39984e-06
-3.55788e-05
-4.22725e-05
-1.74542e-05
8.06539e-06
-1.72907e-05
5.15331e-06
-1.71344e-05
2.14818e-06
-1.69284e-05
-1.01473e-06
-1.66281e-05
-4.43317e-06
-1.61822e-05
-8.2187e-06
-1.55314e-05
-1.25325e-05
-1.4611e-05
-1.75139e-05
-1.32159e-05
-2.3362e-05
-1.11227e-05
-3.0475e-05
-7.4398e-06
-3.92616e-05
-4.97123e-05
-8.01542e-06
7.67156e-06
-7.76031e-06
4.8982e-06
-7.60325e-06
1.99109e-06
-7.50926e-06
-1.10873e-06
-7.45396e-06
-4.4885e-06
-7.41451e-06
-8.25815e-06
-7.38517e-06
-1.25619e-05
-7.32628e-06
-1.75728e-05
-7.12145e-06
-2.35669e-05
-6.58426e-06
-3.10122e-05
-4.87589e-06
-4.097e-05
-5.45882e-05
1.17791e-06
7.11018e-06
1.53769e-06
4.53839e-06
1.72376e-06
1.80501e-06
1.752e-06
-1.137e-06
1.62378e-06
-4.36029e-06
1.32728e-06
-7.96168e-06
8.35518e-07
-1.20701e-05
1.32083e-07
-1.68694e-05
-7.56969e-07
-2.26778e-05
-1.70764e-06
-3.00616e-05
-2.24779e-06
-4.04299e-05
-5.6836e-05
1.02836e-05
6.35687e-06
1.07824e-05
4.03953e-06
1.10469e-05
1.5405e-06
1.10792e-05
-1.16932e-06
1.08618e-05
-4.14298e-06
1.03538e-05
-7.4537e-06
9.48203e-06
-1.11984e-05
8.15382e-06
-1.55412e-05
6.27631e-06
-2.08004e-05
3.83517e-06
-2.76205e-05
1.22187e-06
-3.78166e-05
-5.56142e-05
1.95718e-05
5.42363e-06
2.02172e-05
3.39413e-06
2.05931e-05
1.16456e-06
2.06931e-05
-1.26935e-06
2.04857e-05
-3.9356e-06
1.9906e-05
-6.87396e-06
1.88316e-05
-1.0124e-05
1.7084e-05
-1.37937e-05
1.44172e-05
-1.81337e-05
1.05779e-05
-2.37812e-05
5.66903e-06
-3.2908e-05
-4.99453e-05
2.93707e-05
4.4084e-06
3.01052e-05
2.65967e-06
3.05798e-05
6.89917e-07
3.0784e-05
-1.47357e-06
3.06752e-05
-3.82681e-06
3.01694e-05
-6.3682e-06
2.9102e-05
-9.05665e-06
2.72165e-05
-1.19082e-05
2.41016e-05
-1.50188e-05
1.9252e-05
-1.89317e-05
1.18542e-05
-2.55102e-05
-3.80912e-05
3.99597e-05
3.49408e-06
4.06616e-05
1.95774e-06
4.11755e-05
1.76042e-07
4.14885e-05
-1.78664e-06
4.15487e-05
-3.887e-06
4.12583e-05
-6.07775e-06
4.04253e-05
-8.22373e-06
3.87498e-05
-1.02327e-05
3.56847e-05
-1.19538e-05
3.04902e-05
-1.37372e-05
2.06398e-05
-1.56599e-05
-1.74515e-05
5.14271e-05
2.88289e-06
5.19656e-05
1.41923e-06
5.24575e-05
-3.15818e-07
5.28811e-05
-2.21026e-06
5.31693e-05
-4.17516e-06
5.32127e-05
-6.1211e-06
5.28172e-05
-7.82828e-06
5.17125e-05
-9.128e-06
4.93756e-05
-9.61687e-06
4.48736e-05
-9.23526e-06
3.45542e-05
-5.3405e-06
1.71026e-05
5.21561e-06
-5.21548e-06
8.80652e-06
-3.5907e-06
1.15067e-05
-2.70013e-06
1.29634e-05
-1.45642e-06
1.30944e-05
-1.3086e-07
1.16192e-05
1.47534e-06
7.53717e-06
4.08215e-06
1.43885e-06
6.09844e-06
-1.10453e-05
1.24842e-05
-2.55359e-05
1.44906e-05
-3.65955e-05
1.10596e-05
8.56737e-06
-4.51629e-05
1.42275e-06
-6.63808e-06
3.689e-06
-5.85685e-06
4.06049e-06
-3.07141e-06
2.56578e-06
3.85137e-08
-1.16665e-06
3.60182e-06
-8.51249e-06
8.82129e-06
-1.98154e-05
1.53851e-05
-3.19938e-05
1.82769e-05
-3.82001e-05
1.86905e-05
-4.06643e-05
1.69549e-05
-4.3019e-05
1.34142e-05
1.05525e-05
-4.50041e-05
1.37433e-06
-8.01231e-06
1.19833e-06
-5.68071e-06
-9.49372e-07
-9.23523e-07
-5.82563e-06
4.91496e-06
-1.4216e-05
1.19923e-05
-2.37432e-05
1.83485e-05
-2.97644e-05
2.14063e-05
-3.29259e-05
2.14383e-05
-3.42305e-05
1.99951e-05
-3.46684e-05
1.73928e-05
-3.53953e-05
1.4141e-05
1.12051e-05
-3.60479e-05
-1.63027e-06
-6.38189e-06
-4.43515e-06
-2.87564e-06
-9.01837e-06
3.6599e-06
-1.54083e-05
1.13051e-05
-2.15743e-05
1.81584e-05
-2.54175e-05
2.21917e-05
-2.69816e-05
2.29705e-05
-2.739e-05
2.18467e-05
-2.73246e-05
1.99296e-05
-2.71678e-05
1.7236e-05
-2.72141e-05
1.41873e-05
1.12495e-05
-2.72585e-05
-3.59771e-06
-2.7839e-06
-8.41537e-06
1.94228e-06
-1.34624e-05
8.70718e-06
-1.78973e-05
1.57402e-05
-2.05677e-05
2.08289e-05
-2.12229e-05
2.2847e-05
-2.08362e-05
2.25838e-05
-2.01179e-05
2.11284e-05
-1.92225e-05
1.90342e-05
-1.84833e-05
1.64968e-05
-1.80115e-05
1.37155e-05
1.09164e-05
-1.76784e-05
-4.84745e-06
2.06403e-06
-9.80723e-06
6.90236e-06
-1.37056e-05
1.26059e-05
-1.58253e-05
1.786e-05
-1.60481e-05
2.1052e-05
-1.50701e-05
2.18691e-05
-1.36559e-05
2.11696e-05
-1.21938e-05
1.96663e-05
-1.08582e-05
1.76987e-05
-9.77504e-06
1.54136e-05
-8.98218e-06
1.29226e-05
1.03427e-05
-8.40847e-06
-5.28489e-06
7.3494e-06
-9.48524e-06
1.11031e-05
-1.18156e-05
1.49365e-05
-1.20143e-05
1.8059e-05
-1.06285e-05
1.96663e-05
-8.56821e-06
1.9809e-05
-6.40652e-06
1.9008e-05
-4.40061e-06
1.76605e-05
-2.66655e-06
1.59647e-05
-1.25919e-06
1.40062e-05
-1.81732e-07
1.18451e-05
9.54409e-06
6.16899e-07
-5.29906e-06
1.26487e-05
-8.39583e-06
1.42e-05
-9.06734e-06
1.56082e-05
-7.6782e-06
1.667e-05
-5.11247e-06
1.71007e-05
-2.18312e-06
1.68797e-05
6.55145e-07
1.61698e-05
3.19562e-06
1.512e-05
5.35582e-06
1.38045e-05
7.11405e-06
1.2248e-05
8.48931e-06
1.04699e-05
8.50305e-06
9.53034e-06
-4.69141e-06
1.73403e-05
-6.50731e-06
1.6016e-05
-5.43547e-06
1.45364e-05
-2.64748e-06
1.3882e-05
9.51818e-07
1.35014e-05
4.66431e-06
1.31672e-05
8.11273e-06
1.27214e-05
1.11347e-05
1.2098e-05
1.36784e-05
1.12608e-05
1.57478e-05
1.01786e-05
1.73828e-05
8.83486e-06
7.24725e-06
1.86386e-05
-4.0574e-06
2.13976e-05
-3.10038e-06
1.5059e-05
4.70636e-07
1.09654e-05
4.75445e-06
9.59818e-06
9.2367e-06
9.01915e-06
1.34799e-05
8.92403e-06
1.72509e-05
8.95032e-06
2.04729e-05
8.87602e-06
2.3147e-05
8.58666e-06
2.53102e-05
8.01542e-06
2.70254e-05
7.11967e-06
5.91705e-06
2.83556e-05
6.22363e-07
2.07752e-05
6.14234e-06
9.53893e-06
1.20052e-05
5.10243e-06
1.73354e-05
4.26797e-06
2.20158e-05
4.33869e-06
2.60368e-05
4.90303e-06
2.94374e-05
5.54965e-06
3.22642e-05
6.04925e-06
3.45735e-05
6.27739e-06
3.64252e-05
6.16367e-06
3.78957e-05
5.6492e-06
4.76702e-06
3.90457e-05
2.04684e-05
3.06652e-07
2.87809e-05
1.22633e-06
3.3847e-05
3.62251e-08
3.77019e-05
4.13021e-07
4.06697e-05
1.37084e-06
4.31036e-05
2.46909e-06
4.51433e-05
3.50994e-06
4.68309e-05
4.36164e-06
4.81978e-05
4.9104e-06
4.92778e-05
5.08371e-06
5.01359e-05
4.79108e-06
5.08165e-05
4.08644e-06
-5.11788e-05
6.01586e-06
-5.52223e-05
4.04351e-06
-5.71057e-05
1.88337e-06
-5.72041e-05
9.83342e-08
-5.54791e-05
-1.72496e-06
-5.20377e-05
-3.44137e-06
-4.66156e-05
-5.42217e-06
-3.92493e-05
-7.3663e-06
-2.97439e-05
-9.50535e-06
-1.8338e-05
-1.1406e-05
-6.97823e-06
-1.13598e-05
-6.97825e-06
-4.66743e-05
7.68601e-06
-4.7508e-05
4.87724e-06
-4.78314e-05
2.20673e-06
-4.74344e-05
-2.98641e-07
-4.63606e-05
-2.79885e-06
-4.43309e-05
-5.47105e-06
-4.13391e-05
-8.41396e-06
-3.70059e-05
-1.16995e-05
-3.11683e-05
-1.5343e-05
-2.35175e-05
-1.90567e-05
-1.31079e-05
-2.17694e-05
-2.00862e-05
-3.66187e-05
8.25675e-06
-3.70804e-05
5.33896e-06
-3.73225e-05
2.44877e-06
-3.71529e-05
-4.68243e-07
-3.64172e-05
-3.5345e-06
-3.50458e-05
-6.84246e-06
-3.29338e-05
-1.05259e-05
-2.99499e-05
-1.46835e-05
-2.60067e-05
-1.92862e-05
-2.06249e-05
-2.44386e-05
-1.27856e-05
-2.96087e-05
-3.28718e-05
-2.72915e-05
8.2897e-06
-2.72687e-05
5.31613e-06
-2.71241e-05
2.30417e-06
-2.67835e-05
-8.08799e-07
-2.61853e-05
-4.13273e-06
-2.52553e-05
-7.77243e-06
-2.39002e-05
-1.18811e-05
-2.19908e-05
-1.65928e-05
-1.9311e-05
-2.19661e-05
-1.53687e-05
-2.83809e-05
-9.39966e-06
-3.55778e-05
-4.22715e-05
-1.74531e-05
8.06445e-06
-1.72897e-05
5.15273e-06
-1.71335e-05
2.1479e-06
-1.69275e-05
-1.01474e-06
-1.66273e-05
-4.43294e-06
-1.61815e-05
-8.21826e-06
-1.55308e-05
-1.25319e-05
-1.46105e-05
-1.75131e-05
-1.32155e-05
-2.33611e-05
-1.11224e-05
-3.0474e-05
-7.43969e-06
-3.92605e-05
-4.97112e-05
-8.01473e-06
7.67071e-06
-7.75968e-06
4.89767e-06
-7.60265e-06
1.99087e-06
-7.50869e-06
-1.1087e-06
-7.45341e-06
-4.48823e-06
-7.41402e-06
-8.25767e-06
-7.38472e-06
-1.25612e-05
-7.32591e-06
-1.75719e-05
-7.12115e-06
-2.35658e-05
-6.58409e-06
-3.10111e-05
-4.87578e-06
-4.09688e-05
-5.4587e-05
1.17824e-06
7.10937e-06
1.53801e-06
4.53789e-06
1.72407e-06
1.80479e-06
1.75232e-06
-1.13696e-06
1.6241e-06
-4.36002e-06
1.3276e-06
-7.96119e-06
8.35817e-07
-1.20694e-05
1.32355e-07
-1.68685e-05
-7.56776e-07
-2.26767e-05
-1.70751e-06
-3.00603e-05
-2.24774e-06
-4.04286e-05
-5.68347e-05
1.02836e-05
6.35608e-06
1.07825e-05
4.03903e-06
1.1047e-05
1.54028e-06
1.10793e-05
-1.1693e-06
1.0862e-05
-4.14273e-06
1.0354e-05
-7.45323e-06
9.48221e-06
-1.11976e-05
8.15399e-06
-1.55403e-05
6.27646e-06
-2.07992e-05
3.83524e-06
-2.76192e-05
1.22191e-06
-3.78153e-05
-5.56129e-05
1.95718e-05
5.42288e-06
2.02172e-05
3.39365e-06
2.05931e-05
1.16434e-06
2.06932e-05
-1.26934e-06
2.04858e-05
-3.93537e-06
1.9906e-05
-6.8735e-06
1.88317e-05
-1.01233e-05
1.70841e-05
-1.37927e-05
1.44173e-05
-1.81325e-05
1.05779e-05
-2.37798e-05
5.66905e-06
-3.29066e-05
-4.99439e-05
2.93708e-05
4.40775e-06
3.01051e-05
2.65925e-06
3.05798e-05
6.89726e-07
3.07839e-05
-1.47354e-06
3.06751e-05
-3.82659e-06
3.01694e-05
-6.36776e-06
2.9102e-05
-9.05598e-06
2.72166e-05
-1.19073e-05
2.41017e-05
-1.50177e-05
1.92521e-05
-1.89303e-05
1.18542e-05
-2.55088e-05
-3.80898e-05
3.99599e-05
3.49359e-06
4.06617e-05
1.95743e-06
4.11755e-05
1.75925e-07
4.14885e-05
-1.78657e-06
4.15487e-05
-3.88675e-06
4.12582e-05
-6.0773e-06
4.04253e-05
-8.22306e-06
3.87498e-05
-1.02318e-05
3.56847e-05
-1.19526e-05
3.04902e-05
-1.37359e-05
2.06398e-05
-1.56584e-05
-1.74501e-05
5.14275e-05
2.8826e-06
5.19659e-05
1.41907e-06
5.24576e-05
-3.15826e-07
5.28812e-05
-2.21011e-06
5.31693e-05
-4.17486e-06
5.32126e-05
-6.12062e-06
5.28172e-05
-7.82759e-06
5.17124e-05
-9.12705e-06
4.93755e-05
-9.61569e-06
4.48735e-05
-9.2339e-06
3.45542e-05
-5.33904e-06
1.7104e-05
5.21587e-06
-5.21589e-06
8.80697e-06
-3.59101e-06
1.15073e-05
-2.70037e-06
1.2964e-05
-1.45651e-06
1.30948e-05
-1.30895e-07
1.16202e-05
1.47479e-06
7.53856e-06
4.08147e-06
1.43992e-06
6.09862e-06
-1.10442e-05
1.2484e-05
-2.55356e-05
1.44915e-05
-3.65963e-05
1.10606e-05
8.56791e-06
-4.51642e-05
1.42308e-06
-6.63891e-06
3.68979e-06
-5.85766e-06
4.06165e-06
-3.07208e-06
2.5673e-06
3.798e-08
-1.16465e-06
3.6012e-06
-8.50997e-06
8.82015e-06
-1.9813e-05
1.53845e-05
-3.19924e-05
1.8278e-05
-3.82003e-05
1.86919e-05
-4.06652e-05
1.69563e-05
-4.30203e-05
1.34155e-05
1.05532e-05
-4.50056e-05
1.37476e-06
-8.01352e-06
1.19944e-06
-5.68217e-06
-9.4749e-07
-9.24984e-07
-5.82258e-06
4.91324e-06
-1.42122e-05
1.19909e-05
-2.37406e-05
1.83486e-05
-2.97641e-05
2.1408e-05
-3.29266e-05
2.14405e-05
-3.42319e-05
1.99971e-05
-3.46703e-05
1.73946e-05
-3.53969e-05
1.41421e-05
1.12059e-05
-3.60495e-05
-1.62966e-06
-6.38362e-06
-4.43362e-06
-2.87798e-06
-9.01586e-06
3.65748e-06
-1.54057e-05
1.13033e-05
-2.15729e-05
1.81582e-05
-2.54177e-05
2.21934e-05
-2.69827e-05
2.2973e-05
-2.73914e-05
2.18492e-05
-2.73261e-05
1.99318e-05
-2.71693e-05
1.72377e-05
-2.72156e-05
1.41884e-05
1.12502e-05
-2.726e-05
-3.59715e-06
-2.78608e-06
-8.41423e-06
1.93944e-06
-1.34613e-05
8.7048e-06
-1.7897e-05
1.57392e-05
-2.05686e-05
2.08299e-05
-2.12243e-05
2.28492e-05
-2.08377e-05
2.25864e-05
-2.01194e-05
2.11308e-05
-1.92238e-05
1.90362e-05
-1.84845e-05
1.64983e-05
-1.80126e-05
1.37165e-05
1.09171e-05
-1.76795e-05
-4.84698e-06
2.06172e-06
-9.80711e-06
6.89996e-06
-1.37062e-05
1.26042e-05
-1.58265e-05
1.78598e-05
-1.60498e-05
2.10533e-05
-1.50716e-05
2.18712e-05
-1.36572e-05
2.11719e-05
-1.21948e-05
1.96685e-05
-1.08592e-05
1.77005e-05
-9.7758e-06
1.5415e-05
-8.98291e-06
1.29235e-05
1.03433e-05
-8.40916e-06
-5.28523e-06
7.34729e-06
-9.48608e-06
1.11012e-05
-1.1817e-05
1.49353e-05
-1.2016e-05
1.8059e-05
-1.063e-05
1.96674e-05
-8.56943e-06
1.98107e-05
-6.4074e-06
1.90099e-05
-4.40124e-06
1.76623e-05
-2.66699e-06
1.59662e-05
-1.25952e-06
1.40075e-05
-1.82016e-07
1.1846e-05
9.54465e-06
6.16626e-07
-5.29965e-06
1.26472e-05
-8.39712e-06
1.41987e-05
-9.06898e-06
1.56074e-05
-7.67984e-06
1.66699e-05
-5.11379e-06
1.71015e-05
-2.18402e-06
1.6881e-05
6.54613e-07
1.61713e-05
3.19536e-06
1.51216e-05
5.35575e-06
1.38058e-05
7.11408e-06
1.22491e-05
8.48938e-06
1.04707e-05
8.50359e-06
9.53043e-06
-4.6923e-06
1.73396e-05
-6.50865e-06
1.60152e-05
-5.43702e-06
1.45357e-05
-2.64894e-06
1.38819e-05
9.50679e-07
1.35019e-05
4.66356e-06
1.31682e-05
8.11234e-06
1.27226e-05
1.11346e-05
1.20993e-05
1.36785e-05
1.12619e-05
1.5748e-05
1.01796e-05
1.73831e-05
8.8356e-06
7.24775e-06
1.86389e-05
-4.05805e-06
2.13977e-05
-3.10138e-06
1.50585e-05
4.69413e-07
1.0965e-05
4.75321e-06
9.59808e-06
9.23566e-06
9.01946e-06
1.34791e-05
8.92471e-06
1.72504e-05
8.95122e-06
2.04727e-05
8.877e-06
2.3147e-05
8.5876e-06
2.53104e-05
8.01623e-06
2.70257e-05
7.1203e-06
5.91747e-06
2.83559e-05
6.22147e-07
2.07755e-05
6.14169e-06
9.53895e-06
1.20042e-05
5.10237e-06
1.73343e-05
4.26803e-06
2.20147e-05
4.33899e-06
2.60358e-05
4.90359e-06
2.94367e-05
5.55036e-06
3.22637e-05
6.05002e-06
3.45731e-05
6.27811e-06
3.64251e-05
6.16428e-06
3.78957e-05
5.64966e-06
4.7673e-06
3.90459e-05
2.0468e-05
3.07495e-07
2.87801e-05
1.22678e-06
3.3846e-05
3.65357e-08
3.77006e-05
4.13342e-07
4.06683e-05
1.37126e-06
4.31022e-05
2.46962e-06
4.51421e-05
3.51054e-06
4.68298e-05
4.36223e-06
4.8197e-05
4.9109e-06
4.92772e-05
5.08408e-06
5.01356e-05
4.7913e-06
5.08164e-05
4.0865e-06
-5.11805e-05
6.01624e-06
-5.52243e-05
4.04374e-06
-5.71077e-05
1.88344e-06
-5.72061e-05
9.83344e-08
-5.5481e-05
-1.72505e-06
-5.20395e-05
-3.44151e-06
-4.66172e-05
-5.42235e-06
-3.92507e-05
-7.36651e-06
-2.97451e-05
-9.50561e-06
-1.83389e-05
-1.14062e-05
-6.97878e-06
-1.13602e-05
-6.9788e-06
-4.6676e-05
7.68655e-06
-4.75097e-05
4.87751e-06
-4.78331e-05
2.20682e-06
-4.74361e-05
-2.98696e-07
-4.63622e-05
-2.79903e-06
-4.43323e-05
-5.47132e-06
-4.13404e-05
-8.41432e-06
-3.7007e-05
-1.16999e-05
-3.11691e-05
-1.53435e-05
-2.35181e-05
-1.90573e-05
-1.31083e-05
-2.177e-05
-2.00871e-05
-3.66203e-05
8.25725e-06
-3.7082e-05
5.3392e-06
-3.7324e-05
2.44881e-06
-3.71543e-05
-4.68386e-07
-3.64185e-05
-3.5348e-06
-3.5047e-05
-6.8429e-06
-3.29348e-05
-1.05265e-05
-2.99507e-05
-1.46841e-05
-2.60073e-05
-1.92869e-05
-2.06252e-05
-2.44394e-05
-1.27857e-05
-2.96095e-05
-3.28728e-05
-2.72929e-05
8.29013e-06
-2.727e-05
5.31631e-06
-2.71253e-05
2.30412e-06
-2.67847e-05
-8.09043e-07
-2.61863e-05
-4.13314e-06
-2.52563e-05
-7.773e-06
-2.39009e-05
-1.18818e-05
-2.19914e-05
-1.65936e-05
-1.93114e-05
-2.19669e-05
-1.5369e-05
-2.83818e-05
-9.39983e-06
-3.55788e-05
-4.22726e-05
-1.74542e-05
8.06482e-06
-1.72907e-05
5.15284e-06
-1.71344e-05
2.14778e-06
-1.69284e-05
-1.01507e-06
-1.66281e-05
-4.43344e-06
-1.61822e-05
-8.21893e-06
-1.55314e-05
-1.25327e-05
-1.4611e-05
-1.7514e-05
-1.32158e-05
-2.33621e-05
-1.11226e-05
-3.04751e-05
-7.43973e-06
-3.92616e-05
-4.97124e-05
-8.0154e-06
7.67103e-06
-7.7603e-06
4.89774e-06
-7.60325e-06
1.9907e-06
-7.50924e-06
-1.10907e-06
-7.45392e-06
-4.48879e-06
-7.41445e-06
-8.2584e-06
-7.3851e-06
-1.2562e-05
-7.32619e-06
-1.75729e-05
-7.12137e-06
-2.35669e-05
-6.58418e-06
-3.10122e-05
-4.87584e-06
-4.097e-05
-5.45882e-05
1.17798e-06
7.10966e-06
1.53775e-06
4.53794e-06
1.72383e-06
1.80461e-06
1.75208e-06
-1.13735e-06
1.62388e-06
-4.36061e-06
1.3274e-06
-7.96195e-06
8.3566e-07
-1.20703e-05
1.32234e-07
-1.68695e-05
-7.56824e-07
-2.26779e-05
-1.70752e-06
-3.00616e-05
-2.24769e-06
-4.04298e-05
-5.68359e-05
1.02837e-05
6.35637e-06
1.07825e-05
4.03908e-06
1.1047e-05
1.5401e-06
1.10793e-05
-1.16969e-06
1.0862e-05
-4.14331e-06
1.0354e-05
-7.45399e-06
9.48225e-06
-1.11986e-05
8.15404e-06
-1.55414e-05
6.27652e-06
-2.08004e-05
3.83534e-06
-2.76204e-05
1.22198e-06
-3.78165e-05
-5.5614e-05
1.95721e-05
5.42315e-06
2.02175e-05
3.39369e-06
2.05934e-05
1.16416e-06
2.06934e-05
-1.26972e-06
2.0486e-05
-3.93594e-06
1.99063e-05
-6.87425e-06
1.88319e-05
-1.01242e-05
1.70843e-05
-1.37938e-05
1.44175e-05
-1.81337e-05
1.05781e-05
-2.37811e-05
5.66918e-06
-3.29078e-05
-4.99449e-05
2.93711e-05
4.40796e-06
3.01055e-05
2.65925e-06
3.05802e-05
6.89531e-07
3.07844e-05
-1.47393e-06
3.06755e-05
-3.82715e-06
3.01698e-05
-6.3685e-06
2.91024e-05
-9.05687e-06
2.72169e-05
-1.19083e-05
2.41019e-05
-1.50188e-05
1.92523e-05
-1.89315e-05
1.18544e-05
-2.55099e-05
-3.80907e-05
3.99602e-05
3.49368e-06
4.06621e-05
1.95736e-06
4.11759e-05
1.7567e-07
4.1489e-05
-1.787e-06
4.15492e-05
-3.88733e-06
4.12587e-05
-6.07803e-06
4.04257e-05
-8.22393e-06
3.87502e-05
-1.02328e-05
3.5685e-05
-1.19537e-05
3.04905e-05
-1.3737e-05
2.06399e-05
-1.56595e-05
-1.74508e-05
5.14276e-05
2.88251e-06
5.19661e-05
1.41885e-06
5.2458e-05
-3.16193e-07
5.28816e-05
-2.21061e-06
5.31698e-05
-4.17549e-06
5.32131e-05
-6.12136e-06
5.28176e-05
-7.82844e-06
5.17128e-05
-9.128e-06
4.93759e-05
-9.61672e-06
4.48738e-05
-9.23497e-06
3.45543e-05
-5.34001e-06
1.71034e-05
6.55522e-05
4.03826e-06
-6.92836e-05
6.49118e-05
1.8664e-06
6.36141e-05
1.3333e-06
6.29013e-05
1.12525e-06
6.26833e-05
1.5885e-06
6.2754e-05
2.3984e-06
6.2942e-05
3.32212e-06
6.31288e-05
4.17532e-06
6.32525e-05
4.78742e-06
6.32986e-05
5.0384e-06
6.33196e-05
4.77097e-06
4.05454e-06
6.33523e-05
8.40517e-05
3.13307e-06
-8.31466e-05
8.37489e-05
2.16914e-06
8.31102e-05
1.972e-06
8.22743e-05
1.9611e-06
8.1448e-05
2.41473e-06
8.06478e-05
3.19859e-06
7.98436e-05
4.12624e-06
7.90072e-05
5.01176e-06
7.81396e-05
5.65504e-06
7.7281e-05
5.89698e-06
7.65361e-05
5.51585e-06
4.59313e-06
7.59975e-05
9.69681e-05
2.09957e-06
-9.59347e-05
9.73096e-05
1.82754e-06
9.72772e-05
2.00441e-06
9.68737e-05
2.36451e-06
9.61844e-05
3.10397e-06
9.52489e-05
4.13404e-06
9.40961e-05
5.27907e-06
9.27719e-05
6.33597e-06
9.13578e-05
7.06905e-06
8.99884e-05
7.26638e-06
8.88516e-05
6.65266e-06
5.26941e-06
8.81753e-05
0.000108733
-0.000108091
1.457e-06
0.000109024
1.5366e-06
0.000108978
2.05058e-06
0.000108553
2.78993e-06
0.00010776
3.89684e-06
0.000106638
5.25541e-06
0.000105252
6.66504e-06
0.000103708
7.88047e-06
0.000102163
8.61412e-06
0.00010085
8.57942e-06
0.000100037
7.46478e-06
0.000100168
5.13865e-06
6.3562e-05
2.67376e-06
6.38988e-05
1.083e-06
6.43856e-05
-8.01961e-07
6.49715e-05
-2.7956e-06
6.55586e-05
-4.76158e-06
6.60113e-05
-6.57316e-06
6.61511e-05
-7.96753e-06
6.57761e-05
-8.75234e-06
6.46661e-05
-8.50619e-06
6.25747e-05
-7.1431e-06
6.09471e-05