/*--------------------------------*- C++ -*----------------------------------*\
  =========                 |
  \\      /  F ield         | OpenFOAM: The Open Source CFD Toolbox
   \\    /   O peration     | Website:  https://openfoam.org
    \\  /    A nd           | Version:  6
     \\/     M anipulation  |
\*---------------------------------------------------------------------------*/
FoamFile
{
    version     2.0;
    format      ascii;
    class       volVectorField;
    location    "500";
    object      U;
}
// * * * * * * * * * * * * * * * * * * * * * * * * * * * * * * * * * * * * * //

dimensions      [0 1 -1 0 0 0 0];

internalField   nonuniform List<vector> 
3072
(
(0.215951 2.2188 0)
(0.293708 1.93276 0)
(0.384878 1.76505 1.40865e-19)
(0.49831 1.65568 7.24336e-19)
(0.625515 1.58429 -1.20846e-18)
(0.748252 1.53329 6.58917e-19)
(0.875251 1.60866 3.87441e-19)
(1.18283 1.71191 1.47744e-18)
(2.01023 1.43155 -5.92787e-19)
(2.86721 1.60841 1.11464e-18)
(3.12835 2.00627 8.80333e-19)
(3.39637 2.1315 7.54867e-19)
(-0.367575 2.66663 -2.02159e-19)
(-0.191721 2.40083 -4.71295e-19)
(0.0522243 2.34323 4.63192e-19)
(0.323647 2.33542 0)
(0.616863 2.38509 1.01841e-18)
(1.04641 2.39391 -1.43172e-18)
(1.87064 2.4353 0)
(2.62048 2.71069 0)
(2.98006 2.71918 0)
(3.13098 2.77905 8.52084e-19)
(3.16159 2.80147 -2.82797e-18)
(3.24502 2.78581 3.42132e-19)
(-0.346737 2.98599 1.8571e-19)
(-0.116445 2.69673 0)
(0.289017 2.72458 0)
(0.768139 2.74821 -3.7239e-18)
(1.41157 2.82009 1.39658e-18)
(2.14797 2.96728 -2.11808e-18)
(2.67241 2.99854 1.72515e-18)
(2.98729 2.98615 0)
(3.14947 2.86291 0)
(3.24307 2.75565 -1.05344e-18)
(3.2847 2.67161 -1.08699e-18)
(3.35254 2.58563 3.81471e-18)
(-0.309791 3.31963 -1.2878e-18)
(0.0769149 3.1091 -2.09745e-18)
(0.633074 3.20688 1.87696e-18)
(1.27909 3.27317 -1.89934e-18)
(1.93648 3.33543 3.67801e-18)
(2.47148 3.32168 -3.55604e-18)
(2.78933 3.20436 -2.10073e-18)
(2.96925 3.0734 -6.62419e-18)
(3.08395 2.91373 -3.19839e-19)
(3.14849 2.78876 3.6379e-18)
(3.19034 2.68176 4.07951e-18)
(3.24363 2.57978 -3.22755e-18)
(-0.102907 3.53764 0)
(0.339168 3.48803 1.23259e-18)
(0.939776 3.59737 -2.90176e-18)
(1.57819 3.63675 3.27102e-18)
(2.1349 3.59518 6.17922e-19)
(2.5093 3.46054 2.07334e-18)
(2.72683 3.2858 2.3323e-18)
(2.86424 3.1126 2.41377e-18)
(2.95182 2.94259 -5.18602e-18)
(3.0139 2.79163 4.36506e-18)
(3.06506 2.65967 -5.8905e-18)
(3.11954 2.53832 7.77398e-18)
(0.110031 3.73379 -4.64963e-18)
(0.590303 3.78576 1.79667e-18)
(1.15493 3.87446 5.30167e-18)
(1.70884 3.84986 0)
(2.14295 3.7228 -7.09811e-18)
(2.42439 3.53585 7.80609e-18)
(2.6038 3.33312 0)
(2.7267 3.1366 -5.89295e-18)
(2.81616 2.95138 5.00441e-18)
(2.8858 2.78472 0)
(2.9459 2.63674 2.88095e-19)
(3.00463 2.5023 4.54394e-18)
(0.327381 3.89994 0)
(0.793559 4.04614 -4.18041e-18)
(1.28175 4.08229 3.87557e-18)
(1.72658 3.99868 0)
(2.06589 3.82174 -4.43747e-18)
(2.3001 3.60449 7.22204e-19)
(2.46419 3.38032 6.26265e-18)
(2.58622 3.16569 5.80684e-18)
(2.68169 2.96625 -5.11541e-18)
(2.76033 2.7853 5.086e-18)
(2.82936 2.62271 -4.40126e-18)
(2.89426 2.47536 -1.23481e-17)
(0.534871 4.08508 0)
(0.939313 4.29677 3.3302e-18)
(1.32967 4.26255 -4.81276e-18)
(1.67704 4.13382 4.82425e-18)
(1.95293 3.92257 0)
(2.16163 3.68044 -6.298e-18)
(2.32101 3.43609 6.26689e-18)
(2.44726 3.20331 1.2833e-19)
(2.55082 2.98749 -1.05566e-17)
(2.63852 2.79088 -4.96858e-18)
(2.71567 2.61336 -2.81077e-19)
(2.78648 2.45275 8.97755e-18)
(0.70528 4.25565 0)
(1.02939 4.52951 -3.70865e-18)
(1.31562 4.41712 -5.22086e-18)
(1.58346 4.24462 -3.75406e-18)
(1.81435 4.00444 7.66687e-18)
(2.00705 3.74073 0)
(2.16637 3.47825 0)
(2.29953 3.22905 0)
(2.41249 2.99822 0)
(2.50973 2.78765 4.9625e-18)
(2.59509 2.59723 -5.01521e-18)
(2.67209 2.42507 4.81231e-18)
(0.837412 4.51064 0)
(1.02488 4.71983 2.62504e-18)
(1.21199 4.50144 -6.00768e-19)
(1.42847 4.26896 4.34419e-18)
(1.63162 4.00213 4.34538e-18)
(1.8166 3.72442 -6.99057e-18)
(1.98081 3.45416 0)
(2.12459 3.19972 -2.14444e-19)
(2.24999 2.96438 -1.75395e-17)
(2.35935 2.74926 0)
(2.45509 2.55408 1.10025e-17)
(2.54025 2.37703 -5.16924e-18)
(0.985955 4.56338 0)
(0.934746 4.68343 3.07964e-18)
(1.01579 4.37426 9.01128e-18)
(1.19469 4.08363 -7.69791e-18)
(1.38545 3.81452 -1.07623e-17)
(1.57426 3.55197 1.70577e-17)
(1.75103 3.30187 -1.92993e-19)
(1.91121 3.06729 -6.72213e-18)
(2.05342 2.84886 5.51704e-18)
(2.17866 2.64717 -1.17932e-17)
(2.28799 2.46209 -1.64176e-17)
(2.38422 2.2922 1.66677e-17)
(0.402285 4.17846 -1.82888e-18)
(0.559521 4.098 -1.21307e-17)
(0.684008 3.79665 2.33733e-18)
(0.875473 3.55308 0)
(1.08743 3.36307 0)
(1.29662 3.17516 3.56129e-19)
(1.49232 2.98942 1.82862e-17)
(1.67107 2.80845 1.13078e-17)
(1.83132 2.63344 0)
(1.97366 2.46675 1.07007e-17)
(2.09787 2.3095 0)
(2.20674 2.16126 4.90785e-19)
(3.64856 2.2374 1.2728e-20)
(3.87395 2.15899 -3.02302e-19)
(4.03604 2.09099 -3.67258e-19)
(4.12049 1.93641 -5.87035e-19)
(4.13969 1.80023 -2.95387e-19)
(4.08986 1.60655 0)
(3.96732 1.42899 0)
(3.76151 1.22604 8.03295e-19)
(3.48263 1.0279 -9.41949e-19)
(3.10006 0.786313 0)
(2.68099 0.376393 0)
(2.53498 -0.224096 -6.60459e-20)
(3.34572 2.75917 1.70388e-18)
(3.43579 2.71359 0)
(3.52962 2.63131 -8.87443e-19)
(3.62058 2.50966 5.22321e-19)
(3.69919 2.35211 3.01672e-19)
(3.73767 2.19232 2.67601e-18)
(3.73258 2.03602 -4.35501e-18)
(3.6753 1.89242 6.78242e-19)
(3.56497 1.78089 0)
(3.32431 1.67758 0)
(3.04912 1.53724 0)
(3.19037 1.02081 7.27613e-19)
(3.4194 2.49875 1.61848e-18)
(3.48904 2.40854 -4.38041e-18)
(3.55812 2.31459 1.2249e-18)
(3.61732 2.21651 2.96229e-18)
(3.65758 2.12083 -2.98471e-18)
(3.67369 2.02887 0)
(3.65957 1.95221 0)
(3.61626 1.90108 -2.38608e-19)
(3.55114 1.87868 1.0947e-18)
(3.41578 1.8708 0)
(3.19926 1.86025 0)
(3.41266 1.74079 -4.68543e-19)
(3.29599 2.48125 3.58092e-19)
(3.34949 2.38564 4.35399e-18)
(3.40183 2.29101 3.07407e-18)
(3.44988 2.198 -3.05368e-18)
(3.48899 2.11114 0)
(3.51469 2.03614 1.75498e-18)
(3.52299 1.98093 0)
(3.51686 1.95516 2.50406e-18)
(3.49286 1.9592 -7.73122e-19)
(3.42574 2.01686 0)
(3.24886 2.10083 -5.51666e-19)
(3.54709 2.15034 6.60696e-19)
(3.1738 2.42501 -3.15388e-18)
(3.22867 2.31882 0)
(3.2827 2.21897 0)
(3.33348 2.12672 0)
(3.37835 2.04579 0)
(3.41576 1.98098 -3.17634e-18)
(3.44418 1.94085 -1.42331e-19)
(3.46287 1.93233 -1.41259e-18)
(3.47844 1.96464 0)
(3.47567 2.05359 -1.23582e-18)
(3.36114 2.1972 4.92178e-19)
(3.77393 2.39676 -1.68928e-19)
(3.06221 2.3789 -2.50294e-19)
(3.11952 2.26534 -7.42128e-18)
(3.17616 2.16112 3.48288e-18)
(3.23117 2.0673 3.55031e-21)
(3.28365 1.98682 2.2719e-19)
(3.33334 1.92405 4.9105e-18)
(3.38108 1.88522 -1.56265e-19)
(3.42886 1.87755 -5.43416e-18)
(3.47874 1.91201 -2.17557e-18)
(3.53295 2.00593 1.0899e-18)
(3.47945 2.1959 -1.34215e-18)
(3.93823 2.51774 -5.42172e-19)
(2.95662 2.34104 1.17873e-17)
(3.01772 2.21836 3.85162e-18)
(3.0781 2.10682 0)
(3.13808 2.00721 0)
(3.19821 1.92177 2.13843e-19)
(3.25976 1.85409 -3.55311e-18)
(3.32512 1.80933 5.5356e-18)
(3.39786 1.79435 -1.29979e-19)
(3.48147 1.82032 1.85387e-18)
(3.58218 1.90712 0)
(3.60371 2.09661 -2.41414e-19)
(4.0982 2.50525 -7.98144e-20)
(2.85314 2.30691 -4.3074e-18)
(2.91746 2.17416 -3.96313e-18)
(2.98083 2.05374 4.24672e-18)
(3.04458 1.94592 -3.96096e-18)
(3.11042 1.85217 5.54119e-22)
(3.18089 1.77499 7.77776e-18)
(3.25998 1.71814 -3.54731e-18)
(3.35336 1.68752 1.99146e-18)
(3.46691 1.69359 0)
(3.61258 1.75768 1.1935e-18)
(3.71084 1.93282 6.10888e-19)
(4.20375 2.38756 -9.20452e-19)
(2.74303 2.26906 4.67297e-18)
(2.81026 2.12702 -4.52768e-18)
(2.87578 1.99783 -4.22431e-18)
(2.94171 1.88105 -8.77546e-18)
(3.0106 1.77733 8.40695e-18)
(3.08603 1.68809 -8.01943e-18)
(3.17344 1.61521 0)
(3.28094 1.56279 -1.8826e-18)
(3.41766 1.53906 0)
(3.60268 1.56481 0)
(3.78074 1.70404 0)
(4.26192 2.12943 4.3851e-19)
(2.61686 2.21618 5.02159e-18)
(2.68772 2.0688 -1.01042e-17)
(2.7552 1.93366 9.84822e-18)
(2.82187 1.80971 9.42677e-18)
(2.89075 1.6968 4.53379e-18)
(2.96642 1.59524 0)
(3.05558 1.50475 0)
(3.16821 1.42686 4.33256e-18)
(3.31735 1.36562 0)
(3.53218 1.33858 -1.20807e-18)
(3.77208 1.40297 7.89185e-19)
(4.24828 1.71963 -1.27209e-18)
(2.46855 2.13623 -1.09639e-17)
(2.54426 1.99091 1.01354e-17)
(2.61379 1.85561 -9.90783e-18)
(2.67987 1.72878 -2.48614e-17)
(2.74566 1.60988 -2.46412e-19)
(2.81615 1.49839 1.33907e-19)
(2.89953 1.39173 -4.71182e-18)
(3.00618 1.28812 -4.27998e-18)
(3.15296 1.18549 0)
(3.37736 1.09574 3.60405e-18)
(3.64969 1.03096 8.88499e-19)
(4.11824 1.02326 -1.78374e-18)
(2.29956 2.02216 -4.88467e-19)
(2.38013 1.8879 0)
(2.45055 1.75983 0)
(2.51331 1.63601 4.7472e-18)
(2.57226 1.51609 1.44631e-17)
(2.63213 1.39921 -4.71361e-18)
(2.70222 1.2812 -2.18106e-19)
(2.791 1.15703 -2.38383e-18)
(2.91742 1.01721 -2.20578e-18)
(3.10903 0.863482 -2.22074e-18)
(3.38985 0.640238 0)
(3.71803 -0.035585 2.32226e-18)
(2.21889 -0.21578 -2.04874e-23)
(1.93285 -0.293645 0)
(1.76508 -0.384841 -1.40868e-19)
(1.65571 -0.498288 0)
(1.5843 -0.625539 -6.13025e-19)
(1.5333 -0.74826 6.59019e-19)
(1.60862 -0.875299 0)
(1.71186 -1.18286 1.10354e-18)
(1.43155 -2.01016 -5.01236e-19)
(1.60837 -2.86721 -4.14616e-20)
(2.00625 -3.1284 -8.58285e-19)
(2.13151 -3.39642 -7.54813e-19)
(2.6667 0.367644 -2.55704e-19)
(2.40083 0.191742 -1.43532e-19)
(2.34324 -0.0522236 5.26071e-19)
(2.33541 -0.323676 0)
(2.38504 -0.616871 -1.01788e-18)
(2.39391 -1.04632 6.17542e-19)
(2.43526 -1.87049 0)
(2.71064 -2.62044 9.63122e-19)
(2.71917 -2.98008 -2.33967e-18)
(2.77905 -3.13104 1.98288e-18)
(2.80145 -3.16169 1.53631e-18)
(2.78583 -3.24508 -3.91388e-18)
(2.98602 0.346838 -1.85661e-19)
(2.69672 0.116524 0)
(2.72457 -0.288952 -1.63957e-18)
(2.74818 -0.768032 0)
(2.82001 -1.41142 0)
(2.96718 -2.14787 -8.18255e-19)
(2.99849 -2.67244 3.96841e-18)
(2.98612 -2.98741 -2.72258e-18)
(2.8629 -3.14959 9.40279e-19)
(2.75564 -3.24322 0)
(2.67163 -3.28479 2.66123e-18)
(2.58565 -3.35261 -1.62435e-18)
(3.31964 0.309878 8.37948e-19)
(3.10909 -0.0768003 1.2347e-18)
(3.20685 -0.632948 1.37248e-18)
(3.27312 -1.27897 2.88321e-18)
(3.33538 -1.93642 -1.69811e-18)
(3.32166 -2.47152 -1.18419e-18)
(3.20436 -2.78943 0)
(3.07341 -2.96938 0)
(2.91373 -3.08408 2.14522e-18)
(2.78877 -3.1486 0)
(2.68178 -3.19041 5.10005e-19)
(2.5798 -3.24369 1.40565e-18)
(3.53766 0.102997 1.26973e-18)
(3.48803 -0.33905 -9.87699e-19)
(3.59736 -0.939666 -2.90199e-18)
(3.63675 -1.57813 0)
(3.5952 -2.13492 0)
(3.46056 -2.5094 2.94974e-18)
(3.28582 -2.72695 0)
(3.11261 -2.86436 -5.81447e-18)
(2.9426 -2.95193 -2.48871e-18)
(2.79164 -3.01399 4.36519e-18)
(2.65969 -3.06512 -5.8906e-18)
(2.53834 -3.11959 3.68675e-18)
(3.73382 -0.109948 -2.62521e-18)
(3.78578 -0.590209 -1.53442e-18)
(3.87449 -1.15486 2.26012e-18)
(3.84991 -1.70882 3.99186e-19)
(3.72286 -2.143 3.58223e-18)
(3.53589 -2.42448 -7.47022e-18)
(3.33314 -2.60391 6.84803e-18)
(3.13661 -2.7268 7.0266e-19)
(2.95138 -2.81624 0)
(2.78472 -2.88586 0)
(2.63675 -2.94594 8.8537e-18)
(2.50231 -3.00466 6.11523e-20)
(3.89997 -0.327325 -2.94923e-20)
(4.04617 -0.793501 -2.31069e-18)
(4.08234 -1.28171 0)
(3.99874 -1.72658 -4.52725e-18)
(3.8218 -2.06594 4.72874e-18)
(3.60452 -2.30017 1.12922e-17)
(3.38034 -2.46428 6.93078e-18)
(3.1657 -2.58629 8.93075e-19)
(2.96625 -2.68175 -1.07929e-17)
(2.7853 -2.76037 4.72577e-18)
(2.62271 -2.82939 5.06355e-18)
(2.47537 -2.89428 2.73888e-19)
(4.08511 -0.534833 2.18448e-19)
(4.2968 -0.939278 3.33e-18)
(4.26261 -1.32965 0)
(4.13388 -1.67704 -4.82417e-18)
(3.92262 -1.95297 -3.51911e-18)
(3.68047 -2.16169 6.43276e-19)
(3.4361 -2.32107 -1.18294e-17)
(3.20331 -2.44731 4.30603e-19)
(2.98748 -2.55086 -2.75646e-19)
(2.79087 -2.63855 5.22323e-18)
(2.61336 -2.71568 -4.222e-18)
(2.45275 -2.78649 2.24881e-19)
(4.25568 -0.705268 -3.38359e-18)
(4.52954 -1.02937 1.48275e-18)
(4.41716 -1.31561 -7.59821e-18)
(4.24467 -1.58346 3.75387e-18)
(4.00448 -1.81438 0)
(3.74075 -2.00709 0)
(3.47826 -2.16641 6.45235e-18)
(3.22905 -2.29957 1.18436e-17)
(2.99821 -2.41252 -5.43201e-18)
(2.78764 -2.50975 -4.96246e-18)
(2.59722 -2.59509 -4.77149e-18)
(2.42506 -2.67208 0)
(4.51065 -0.837417 7.11701e-20)
(4.71983 -1.02487 3.99173e-18)
(4.50146 -1.21199 9.04263e-18)
(4.26899 -1.42847 0)
(4.00216 -1.63164 7.5781e-18)
(3.72443 -1.81663 0)
(3.45416 -1.98084 3.35729e-19)
(3.19972 -2.12462 -5.64974e-18)
(2.96437 -2.25001 6.14654e-18)
(2.74925 -2.35936 0)
(2.55406 -2.45509 0)
(2.37702 -2.54024 -1.06676e-17)
(4.56338 -0.985961 -6.45289e-18)
(4.68343 -0.934741 3.07953e-18)
(4.37427 -1.01579 5.15056e-19)
(4.08365 -1.1947 -8.4935e-18)
(3.81453 -1.38546 -3.32637e-18)
(3.55198 -1.57428 -3.40996e-18)
(3.30187 -1.75106 -6.65133e-18)
(3.06729 -1.91123 -1.88111e-17)
(2.84885 -2.05343 -5.51677e-18)
(2.64715 -2.17866 -1.17927e-17)
(2.46208 -2.28798 1.14786e-17)
(2.29219 -2.3842 1.058e-17)
(4.17847 -0.402298 3.50021e-18)
(4.098 -0.55953 -1.39079e-18)
(3.79666 -0.68402 3.51703e-19)
(3.5531 -0.875488 7.25912e-18)
(3.36309 -1.08744 0)
(3.17518 -1.29664 -6.56993e-18)
(2.98943 -1.49234 5.88848e-18)
(2.80846 -1.67108 5.25131e-18)
(2.63344 -1.83133 -1.7123e-17)
(2.46674 -1.97366 1.07003e-17)
(2.30949 -2.09785 -1.04994e-17)
(2.16125 -2.20672 0)
(2.23742 -3.64861 -3.70836e-19)
(2.15903 -3.87402 9.01153e-19)
(2.09102 -4.03611 -9.26302e-19)
(1.93645 -4.12056 -2.24626e-19)
(1.80026 -4.13977 -1.44229e-19)
(1.60659 -4.08994 8.27697e-20)
(1.42902 -3.96739 -1.29114e-19)
(1.22607 -3.76157 -3.23214e-19)
(1.02792 -3.48269 -9.41884e-19)
(0.786332 -3.1001 0)
(0.37642 -2.68103 0)
(-0.224026 -2.53503 -6.60356e-20)
(2.75919 -3.34579 -6.86997e-20)
(2.71363 -3.43585 2.17953e-18)
(2.63135 -3.52968 -8.87433e-19)
(2.5097 -3.62064 0)
(2.35215 -3.69924 1.75493e-18)
(2.19236 -3.73772 0)
(2.03606 -3.73263 1.30469e-18)
(1.89245 -3.67534 2.24172e-18)
(1.78092 -3.56501 -1.90454e-18)
(1.67761 -3.32433 0)
(1.53728 -3.04914 0)
(1.02089 -3.19038 -3.02774e-20)
(2.49877 -3.41947 1.16599e-18)
(2.40857 -3.48909 -1.08538e-18)
(2.31462 -3.55817 1.22487e-18)
(2.21655 -3.61736 0)
(2.12087 -3.65762 -1.31193e-18)
(2.02891 -3.67372 3.28338e-18)
(1.95224 -3.6596 -4.73642e-18)
(1.90111 -3.61628 -5.24664e-18)
(1.87872 -3.55115 3.07632e-18)
(1.87084 -3.41579 0)
(1.8603 -3.19926 6.12888e-19)
(1.74085 -3.41266 1.51912e-19)
(2.48127 -3.29604 1.34962e-18)
(2.38567 -3.34953 -3.03491e-18)
(2.29104 -3.40187 3.07403e-18)
(2.19803 -3.44991 -3.05362e-18)
(2.11117 -3.48902 0)
(2.03617 -3.51471 1.75494e-18)
(1.98097 -3.52301 1.17215e-18)
(1.9552 -3.51687 6.89218e-19)
(1.95924 -3.49287 -1.56955e-18)
(2.01691 -3.42575 0)
(2.10088 -3.24886 -3.54628e-19)
(2.15041 -3.54709 5.92238e-19)
(2.42503 -3.17384 3.53591e-18)
(2.31885 -3.2287 -1.82216e-18)
(2.219 -3.28272 0)
(2.12675 -3.33349 0)
(2.04582 -3.37836 1.73496e-18)
(1.98102 -3.41577 -1.45172e-18)
(1.94089 -3.44418 -2.58667e-19)
(1.93237 -3.46287 0)
(1.96469 -3.47844 -8.37126e-19)
(2.05363 -3.47567 1.23572e-18)
(2.19725 -3.36114 -1.07794e-18)
(2.39683 -3.77393 -2.72624e-19)
(2.37891 -3.06224 -7.49902e-18)
(2.26536 -3.11954 3.57772e-18)
(2.16114 -3.17616 7.19913e-18)
(2.06732 -3.23117 3.55018e-21)
(1.98684 -3.28365 -8.51059e-18)
(1.92408 -3.33334 -3.59715e-18)
(1.88525 -3.38107 -2.46879e-19)
(1.87759 -3.42886 0)
(1.91205 -3.47873 0)
(2.00598 -3.53295 -1.08986e-18)
(2.19595 -3.47944 -7.81318e-19)
(2.51781 -3.93823 2.37794e-19)
(2.34105 -2.95662 4.02831e-18)
(2.21837 -3.01772 -7.93404e-18)
(2.10684 -3.0781 -3.51529e-18)
(2.00723 -3.13807 -2.03444e-19)
(1.9218 -3.1982 3.36172e-18)
(1.85412 -3.25975 3.31306e-18)
(1.80936 -3.3251 1.86615e-18)
(1.79439 -3.39785 1.81445e-18)
(1.82036 -3.48146 -2.01095e-18)
(1.90716 -3.58217 0)
(2.09666 -3.60371 1.25465e-18)
(2.50532 -4.09819 -3.61098e-19)
(2.30691 -2.85313 0)
(2.17417 -2.91745 3.96313e-18)
(2.05375 -2.98082 0)
(1.94593 -3.04456 -2.0253e-19)
(1.85218 -3.1104 5.54487e-22)
(1.77501 -3.18087 7.77765e-18)
(1.71817 -3.25996 -7.48497e-18)
(1.68755 -3.35335 0)
(1.69363 -3.46689 -2.1264e-18)
(1.75771 -3.61257 1.19346e-18)
(1.93287 -3.71083 -2.33585e-18)
(2.38761 -4.20374 1.17511e-18)
(2.26906 -2.74301 4.67293e-18)
(2.12702 -2.81024 -4.52765e-18)
(1.99784 -2.87576 -4.5808e-18)
(1.88106 -2.94168 4.46791e-18)
(1.77734 -3.01057 4.20676e-18)
(1.68811 -3.086 -1.22838e-17)
(1.61523 -3.17341 3.82159e-18)
(1.56281 -3.28091 0)
(1.53909 -3.41764 1.93589e-18)
(1.56484 -3.60267 0)
(1.70408 -3.78073 2.84826e-18)
(2.12948 -4.26191 -2.08459e-18)
(2.21617 -2.61683 0)
(2.06879 -2.68769 -1.0104e-17)
(1.93366 -2.75517 -5.24643e-18)
(1.80972 -2.82184 -9.14404e-18)
(1.6968 -2.89072 4.53369e-18)
(1.59525 -2.96639 4.26497e-18)
(1.50477 -3.05555 0)
(1.42688 -3.16819 0)
(1.36565 -3.31732 0)
(1.33861 -3.53216 0)
(1.40301 -3.77206 -7.91411e-19)
(1.71967 -4.24827 -1.03806e-19)
(2.13622 -2.46853 5.34277e-18)
(1.9909 -2.54423 4.90993e-18)
(1.85561 -2.61376 2.039e-17)
(1.72878 -2.67983 5.23183e-18)
(1.60989 -2.74563 1.96133e-17)
(1.49839 -2.81612 -4.7126e-18)
(1.39174 -2.8995 -4.71165e-18)
(1.28814 -3.00615 0)
(1.18551 -3.15294 -4.44707e-18)
(1.09576 -3.37734 -2.39657e-18)
(1.03098 -3.64967 -1.8197e-18)
(1.0233 -4.11823 -1.10848e-25)
(2.02215 -2.29953 0)
(1.8879 -2.3801 0)
(1.75983 -2.45051 -2.02937e-17)
(1.63601 -2.51327 -1.47707e-17)
(1.5161 -2.57223 -4.66478e-18)
(1.39922 -2.63209 0)
(1.28121 -2.70218 4.67816e-18)
(1.15704 -2.79097 0)
(1.01722 -2.91739 -1.93468e-19)
(0.863501 -3.109 2.22066e-18)
(0.640259 -3.38983 6.54577e-19)
(-0.0355686 -3.71802 4.59724e-18)
(-0.21578 -2.21889 1.03214e-19)
(-0.293651 -1.93285 1.99063e-19)
(-0.384834 -1.76509 -1.75418e-19)
(-0.498286 -1.65571 1.89688e-20)
(-0.625465 -1.58431 0)
(-0.748234 -1.53331 7.65053e-21)
(-0.875202 -1.60876 0)
(-1.18286 -1.71199 4.91983e-19)
(-2.01049 -1.43155 1.19187e-18)
(-2.86736 -1.60855 -6.26137e-20)
(-3.12838 -2.00643 7.98112e-19)
(-3.3964 -2.13158 7.70501e-19)
(0.367642 -2.66672 3.38919e-19)
(0.191733 -2.40086 -4.71176e-19)
(-0.0522169 -2.3433 4.94668e-19)
(-0.323643 -2.3355 -2.78697e-20)
(-0.61691 -2.38522 -1.01814e-18)
(-1.04667 -2.39392 -2.04027e-19)
(-1.87101 -2.43545 -1.13035e-18)
(-2.62069 -2.71084 -1.49358e-18)
(-2.98018 -2.71929 2.16224e-18)
(-3.13104 -2.77914 -5.19107e-19)
(-3.16154 -2.80158 7.39151e-19)
(-3.24501 -2.78586 4.60008e-19)
(0.346797 -2.98605 -3.71377e-19)
(0.116427 -2.69679 0)
(-0.2891 -2.72468 0)
(-0.768344 -2.74834 -1.58658e-18)
(-1.41189 -2.8203 0)
(-2.14819 -2.96748 -1.29952e-18)
(-2.67247 -2.9987 6.56952e-19)
(-2.98723 -2.98627 2.41007e-18)
(-3.14936 -2.86301 -1.20567e-18)
(-3.24289 -2.75574 -1.8565e-18)
(-3.28464 -2.67166 -3.7485e-18)
(-3.3525 -2.58567 3.81472e-18)
(0.309725 -3.31964 -1.6762e-18)
(-0.0770464 -3.10918 -1.23507e-18)
(-0.633269 -3.20699 2.42167e-18)
(-1.27932 -3.27331 9.83377e-19)
(-1.93665 -3.33558 0)
(-2.47151 -3.32177 -4.41054e-18)
(-2.78927 -3.20442 3.17403e-18)
(-2.96915 -3.07346 0)
(-3.08385 -2.91379 3.17499e-18)
(-3.1484 -2.78881 -5.22121e-18)
(-3.19029 -2.6818 3.56922e-18)
(-3.24359 -2.57981 4.95095e-19)
(0.102812 -3.53763 1.93663e-18)
(-0.339328 -3.48808 3.02817e-18)
(-0.939954 -3.59743 9.70135e-19)
(-1.57832 -3.63681 0)
(-2.13494 -3.5952 -2.70257e-18)
(-2.50923 -3.46055 4.46167e-18)
(-2.72673 -3.28582 0)
(-2.86413 -3.11263 -3.17689e-18)
(-2.95173 -2.94264 -2.98257e-18)
(-3.01383 -2.79167 4.36455e-18)
(-3.06502 -2.65971 0)
(-3.1195 -2.53834 -3.33776e-18)
(-0.11017 -3.73373 2.0242e-18)
(-0.590461 -3.78577 7.35771e-19)
(-1.15506 -3.87445 -2.25976e-18)
(-1.70891 -3.84984 -8.88794e-18)
(-2.14293 -3.72277 -3.0944e-19)
(-2.42431 -3.53584 7.80568e-18)
(-2.60371 -3.33312 0)
(-2.72661 -3.13663 8.89749e-18)
(-2.81608 -2.95141 -5.19389e-18)
(-2.88574 -2.78476 4.54176e-18)
(-2.94586 -2.63677 2.8806e-19)
(-3.0046 -2.50232 -6.11439e-20)
(-0.327511 -3.89988 -1.90793e-18)
(-0.793688 -4.04611 -1.47809e-18)
(-1.28185 -4.08224 0)
(-1.72662 -3.99862 9.80665e-18)
(-2.06587 -3.82169 -1.33308e-17)
(-2.30003 -3.60446 -2.20303e-19)
(-2.46412 -3.38031 -1.31913e-17)
(-2.58615 -3.16571 5.52256e-19)
(-2.68163 -2.96628 -5.1148e-18)
(-2.76028 -2.78533 -5.08543e-18)
(-2.82933 -2.62274 5.06293e-18)
(-2.89423 -2.47539 -4.18471e-18)
(-0.534981 -4.08502 -1.69149e-19)
(-0.939415 -4.29673 -1.80201e-18)
(-1.32974 -4.26248 0)
(-1.67706 -4.13374 4.82368e-18)
(-1.95291 -3.92251 3.30352e-18)
(-2.16159 -3.6804 2.95856e-18)
(-2.32095 -3.43608 -5.20035e-19)
(-2.4472 -3.20332 -1.28307e-19)
(-2.55077 -2.98751 -5.6675e-18)
(-2.63848 -2.7909 -6.12409e-19)
(-2.71563 -2.61339 2.381e-19)
(-2.78645 -2.45277 0)
(-0.705365 -4.25559 2.10606e-18)
(-1.02946 -4.52946 0)
(-1.31567 -4.41704 0)
(-1.58348 -4.24454 -3.75381e-18)
(-1.81434 -4.00436 3.35251e-18)
(-2.00701 -3.74068 -6.96874e-18)
(-2.16632 -3.47822 0)
(-2.29949 -3.22904 5.79783e-18)
(-2.41244 -2.99822 -2.46789e-19)
(-2.50969 -2.78767 4.96203e-18)
(-2.59505 -2.59725 -5.20992e-18)
(-2.67205 -2.42509 1.00295e-17)
(-0.83745 -4.51058 4.32988e-18)
(-1.02493 -4.71978 -1.36692e-18)
(-1.21203 -4.50136 -4.82185e-18)
(-1.42849 -4.26888 -8.3432e-18)
(-1.63162 -4.00205 0)
(-1.81658 -3.72435 6.32346e-18)
(-1.98078 -3.45411 -1.28521e-17)
(-2.12455 -3.19969 5.72353e-18)
(-2.24994 -2.96437 6.14617e-18)
(-2.35931 -2.74926 0)
(-2.45505 -2.55408 -5.88537e-18)
(-2.54021 -2.37704 -9.94121e-18)
(-0.985974 -4.56335 -6.40134e-18)
(-0.934778 -4.68339 1.40036e-18)
(-1.01581 -4.3742 4.24797e-18)
(-1.19471 -4.08355 3.59877e-18)
(-1.38545 -3.81444 -4.99627e-20)
(-1.57424 -3.5519 -1.05529e-17)
(-1.751 -3.30181 1.26246e-17)
(-1.91117 -3.06725 2.47336e-17)
(-2.05337 -2.84883 -1.73538e-17)
(-2.17861 -2.64715 -1.17922e-17)
(-2.28794 -2.46208 1.08245e-17)
(-2.38417 -2.29219 0)
(-0.40228 -4.17844 5.40581e-18)
(-0.55953 -4.09797 1.84105e-18)
(-0.684022 -3.7966 1.98557e-18)
(-0.87548 -3.55302 7.8084e-18)
(-1.08742 -3.36301 0)
(-1.2966 -3.1751 6.21363e-18)
(-1.49229 -2.98936 -1.23969e-17)
(-1.67102 -2.8084 -5.49437e-18)
(-1.83127 -2.6334 -5.63528e-18)
(-1.97361 -2.46672 1.07001e-17)
(-2.09781 -2.30948 5.60802e-18)
(-2.20669 -2.16124 1.61335e-17)
(-3.6486 -2.23748 9.93123e-20)
(-3.87397 -2.15904 6.09341e-19)
(-4.03606 -2.09103 2.54346e-19)
(-4.1205 -1.93644 -5.81263e-19)
(-4.13971 -1.80025 1.50977e-19)
(-4.08987 -1.60657 0)
(-3.96734 -1.429 -5.14492e-19)
(-3.76153 -1.22604 3.89917e-19)
(-3.48265 -1.0279 0)
(-3.10008 -0.78631 1.1606e-19)
(-2.68101 -0.376399 0)
(-2.53501 0.224053 -2.98295e-19)
(-3.34571 -2.75922 -4.29667e-18)
(-3.43578 -2.71363 3.03708e-18)
(-3.52962 -2.63134 2.32045e-18)
(-3.62058 -2.50967 -9.80556e-19)
(-3.69919 -2.35212 0)
(-3.73767 -2.19233 0)
(-3.73259 -2.03603 1.48911e-18)
(-3.67531 -1.89242 -1.60466e-18)
(-3.56498 -1.78089 0)
(-3.32431 -1.67758 6.08472e-19)
(-3.04912 -1.53725 -3.78259e-20)
(-3.19037 -1.02086 -1.10137e-18)
(-3.41937 -2.49878 1.67199e-18)
(-3.48902 -2.40857 -2.85321e-18)
(-3.55811 -2.31461 0)
(-3.6173 -2.21653 -2.99424e-18)
(-3.65757 -2.12085 -3.05707e-18)
(-3.67368 -2.02888 6.49606e-18)
(-3.65956 -1.95221 -5.78337e-18)
(-3.61626 -1.90108 0)
(-3.55113 -1.87868 0)
(-3.41578 -1.8708 0)
(-3.19925 -1.86026 -5.3502e-19)
(-3.41265 -1.7408 1.64706e-19)
(-3.29596 -2.48128 -1.34953e-18)
(-3.34946 -2.38566 -4.00623e-19)
(-3.40181 -2.29103 0)
(-3.44987 -2.19801 -3.78164e-19)
(-3.48898 -2.11115 0)
(-3.51468 -2.03614 0)
(-3.52299 -1.98093 1.33227e-18)
(-3.51686 -1.95516 -1.59378e-18)
(-3.49285 -1.9592 1.73005e-18)
(-3.42574 -2.01686 0)
(-3.24886 -2.10083 -5.51672e-19)
(-3.54708 -2.15036 -6.60704e-19)
(-3.17378 -2.42503 7.36748e-18)
(-3.22865 -2.31884 -1.822e-18)
(-3.28268 -2.21899 3.26264e-18)
(-3.33346 -2.12673 1.46265e-18)
(-3.37834 -2.0458 -4.93287e-18)
(-3.41575 -1.98098 0)
(-3.44417 -1.94085 -1.66151e-18)
(-3.46286 -1.93233 0)
(-3.47843 -1.96464 0)
(-3.47567 -2.05358 1.23576e-18)
(-3.36114 -2.1972 3.13099e-20)
(-3.77392 -2.39677 7.41567e-19)
(-3.06219 -2.37892 -3.49812e-18)
(-3.1195 -2.26536 -2.65839e-19)
(-3.17614 -2.16114 0)
(-3.23115 -2.06731 0)
(-3.28364 -1.98682 -5.38829e-18)
(-3.33333 -1.92405 3.37331e-18)
(-3.38107 -1.88521 3.42794e-18)
(-3.42885 -1.87755 1.78216e-18)
(-3.47873 -1.91201 -4.21944e-18)
(-3.53294 -2.00593 -1.08988e-18)
(-3.47945 -2.1959 0)
(-3.93822 -2.51775 8.46548e-19)
(-2.95659 -2.34106 -8.27394e-18)
(-3.01769 -2.21838 3.39434e-18)
(-3.07808 -2.10684 3.74848e-18)
(-3.13806 -2.00722 2.05375e-19)
(-3.19819 -1.92178 -4.19624e-19)
(-3.25975 -1.85409 -3.75039e-18)
(-3.3251 -1.80933 -5.43255e-18)
(-3.39785 -1.79435 -1.94621e-18)
(-3.48146 -1.82031 1.85375e-18)
(-3.58217 -1.90711 0)
(-3.60371 -2.09661 2.1218e-18)
(-4.09819 -2.50526 -5.40644e-19)
(-2.85311 -2.30693 8.41971e-18)
(-2.91744 -2.17418 -4.57854e-18)
(-2.98081 -2.05376 -4.24637e-18)
(-3.04456 -1.94593 -7.71877e-18)
(-3.1104 -1.85217 7.5452e-18)
(-3.18087 -1.77499 -1.95109e-19)
(-3.25996 -1.71814 1.12388e-17)
(-3.35335 -1.68751 1.78205e-18)
(-3.4669 -1.69358 2.1263e-18)
(-3.61257 -1.75766 0)
(-3.71084 -1.93282 -1.45279e-18)
(-4.20374 -2.38756 -6.9451e-19)
(-2.743 -2.26908 0)
(-2.81023 -2.12704 4.337e-18)
(-2.87575 -1.99784 4.22395e-18)
(-2.94168 -1.88106 -4.30715e-18)
(-3.01058 -1.77733 -1.64729e-19)
(-3.08601 -1.68809 -4.26419e-18)
(-3.17342 -1.6152 -3.82135e-18)
(-3.28092 -1.56278 0)
(-3.41765 -1.53905 -1.9358e-18)
(-3.60267 -1.56479 -1.20184e-18)
(-3.78073 -1.70403 4.65977e-18)
(-4.26191 -2.12943 -9.98181e-19)
(-2.61682 -2.21619 0)
(-2.68768 -2.06881 0)
(-2.75517 -1.93366 0)
(-2.82184 -1.80972 -1.4257e-17)
(-2.89073 -1.6968 9.0424e-18)
(-2.9664 -1.59524 8.68657e-18)
(-3.05555 -1.50474 0)
(-3.16819 -1.42685 -4.33216e-18)
(-3.31733 -1.36561 0)
(-3.53216 -1.33856 -2.46719e-18)
(-3.77207 -1.40296 -7.91395e-19)
(-4.24827 -1.71962 -1.2721e-18)
(-2.46851 -2.13623 0)
(-2.54422 -1.99091 0)
(-2.61375 -1.85561 1.04819e-17)
(-2.67983 -1.72878 1.46423e-17)
(-2.74563 -1.60988 4.04688e-19)
(-2.81613 -1.49838 4.8462e-18)
(-2.89951 -1.39172 -2.3086e-18)
(-3.00616 -1.28811 6.48104e-18)
(-3.15295 -1.18547 4.44679e-18)
(-3.37735 -1.09572 2.23729e-18)
(-3.64967 -1.03094 -1.81966e-18)
(-4.11823 -1.02325 -1.95522e-18)
(-2.29951 -2.02215 0)
(-2.38008 -1.8879 0)
(-2.45051 -1.75983 -9.90892e-18)
(-2.51327 -1.63601 5.21406e-18)
(-2.57223 -1.51609 -4.66465e-18)
(-2.6321 -1.3992 -4.71331e-18)
(-2.70219 -1.28119 4.8961e-18)
(-2.79098 -1.15701 0)
(-2.9174 -1.01719 -4.33467e-18)
(-3.10901 -0.86346 -2.31e-18)
(-3.38983 -0.640212 2.2489e-18)
(-3.71802 0.0356109 -4.61653e-18)
(-2.21889 0.215741 1.0328e-19)
(-1.93284 0.293616 0)
(-1.76507 0.384802 0)
(-1.65569 0.498256 5.86178e-19)
(-1.58429 0.625466 -6.35441e-19)
(-1.5333 0.748212 0)
(-1.6087 0.875206 0)
(-1.71195 1.18284 4.9181e-19)
(-1.43155 2.01039 1.17473e-18)
(-1.60849 2.86736 1.20802e-18)
(-2.00641 3.12844 -6.02818e-20)
(-2.13159 3.39645 7.18812e-19)
(-2.6667 -0.367672 -4.69386e-19)
(-2.40083 -0.191758 0)
(-2.34326 0.0522037 0)
(-2.33544 0.323652 -8.11629e-19)
(-2.38513 0.6169 2.16446e-18)
(-2.39391 1.04655 -2.49602e-18)
(-2.43538 1.87084 9.19366e-19)
(-2.71078 2.62065 8.69573e-19)
(-2.71926 2.9802 -2.6629e-19)
(-2.77912 3.13109 8.52954e-19)
(-2.80156 3.16163 0)
(-2.78588 3.24508 -1.8102e-18)
(-2.98604 -0.346855 3.71304e-19)
(-2.69676 -0.116491 0)
(-2.72463 0.289032 0)
(-2.74827 0.768225 -9.39067e-19)
(-2.82019 1.41172 7.1386e-19)
(-2.96736 2.14809 -1.62765e-18)
(-2.99862 2.67251 0)
(-2.98622 2.98735 -3.16083e-18)
(-2.86298 3.1495 3.87899e-18)
(-2.75572 3.24305 -1.05278e-18)
(-2.67167 3.28474 -2.63895e-18)
(-2.58569 3.35258 3.81446e-18)
(-3.31965 -0.309817 -8.37963e-19)
(-3.10915 0.0769228 1.2348e-18)
(-3.20694 0.633123 0)
(-3.27323 1.27918 9.8345e-19)
(-3.33549 1.93658 -6.52815e-19)
(-3.32173 2.47156 1.18422e-18)
(-3.2044 2.78939 0)
(-3.07345 2.96929 -2.39485e-18)
(-2.91378 3.08398 -5.31996e-18)
(-2.78881 3.14851 3.6376e-18)
(-2.68181 3.19037 3.56924e-18)
(-2.57982 3.24366 -6.9497e-18)
(-3.53765 -0.102911 9.68094e-19)
(-3.48806 0.339189 -1.2325e-18)
(-3.5974 0.939822 2.90152e-18)
(-3.63679 1.57825 0)
(-3.59521 2.13497 -5.73471e-18)
(-3.46056 2.50936 5.33767e-18)
(-3.28582 2.72687 3.178e-18)
(-3.11263 2.86426 2.41354e-18)
(-2.94263 2.95184 0)
(-2.79167 3.01392 0)
(-2.65971 3.06509 0)
(-2.53836 3.11956 -7.49167e-19)
(-3.73378 0.11006 5.24995e-18)
(-3.78578 0.590338 0)
(-3.87447 1.15498 -2.25985e-18)
(-3.84988 1.70889 4.64333e-18)
(-3.72281 2.14301 3.53745e-18)
(-3.53586 2.42443 -7.4386e-18)
(-3.33313 2.60383 3.49738e-18)
(-3.13662 2.72672 -1.22104e-17)
(-2.9514 2.81617 -1.90129e-19)
(-2.78475 2.88581 -4.49023e-19)
(-2.63677 2.94591 2.88079e-19)
(-2.50233 3.00464 1.18293e-17)
(-3.89992 0.327421 -6.83786e-18)
(-4.04614 0.793602 4.18026e-18)
(-4.08229 1.2818 -6.43847e-18)
(-3.99868 1.72663 -4.52691e-18)
(-3.82174 2.06594 -8.28651e-18)
(-3.60448 2.30013 -4.42203e-18)
(-3.38032 2.46422 -6.53456e-18)
(-3.1657 2.58623 1.08718e-17)
(-2.96626 2.6817 0)
(-2.78531 2.76033 9.52086e-18)
(-2.62272 2.82936 -1.33714e-17)
(-2.47538 2.89425 4.47945e-18)
(-4.08506 0.534911 -3.12934e-18)
(-4.29677 0.939358 -5.27639e-18)
(-4.26255 1.32971 7.40958e-18)
(-4.13381 1.67708 0)
(-3.92256 1.95296 -4.14096e-18)
(-3.68042 2.16166 6.29762e-18)
(-3.43607 2.32102 -3.20236e-19)
(-3.2033 2.44727 1.28316e-19)
(-2.98748 2.55082 -5.23345e-18)
(-2.79088 2.63851 -9.89492e-18)
(-2.61337 2.71565 4.43915e-18)
(-2.45276 2.78647 -4.50343e-18)
(-4.25564 0.705323 2.10611e-18)
(-4.5295 1.02943 0)
(-4.4171 1.31566 0)
(-4.2446 1.58349 0)
(-4.00441 1.81438 3.35255e-18)
(-3.7407 2.00707 0)
(-3.47822 2.16637 -4.10598e-19)
(-3.22903 2.29953 1.15131e-17)
(-2.9982 2.41248 2.81829e-19)
(-2.78764 2.50971 4.96213e-18)
(-2.59723 2.59506 -5.01483e-18)
(-2.42507 2.67206 1.48416e-17)
(-4.51062 0.837444 7.1163e-20)
(-4.71981 1.02491 7.25522e-18)
(-4.50141 1.21202 -2.21952e-18)
(-4.26893 1.42849 0)
(-4.00209 1.63164 0)
(-3.72438 1.81662 0)
(-3.45412 1.98082 0)
(-3.19969 2.12458 5.98258e-18)
(-2.96435 2.24997 -2.30075e-17)
(-2.74924 2.35933 -1.13867e-17)
(-2.55406 2.45506 1.10015e-17)
(-2.37702 2.54021 5.89449e-18)
(-4.56337 0.985979 -6.40117e-18)
(-4.68341 0.934768 -4.2563e-18)
(-4.37423 1.01581 -2.53811e-18)
(-4.0836 1.19471 0)
(-3.81448 1.38547 0)
(-3.55193 1.57427 7.08991e-18)
(-3.30183 1.75103 -1.31091e-17)
(-3.06726 1.9112 2.49505e-17)
(-2.84883 2.0534 1.76904e-17)
(-2.64714 2.17863 1.11035e-17)
(-2.46207 2.28795 -1.08244e-17)
(-2.29218 2.38417 6.27599e-19)
(-4.17846 0.402302 -1.82883e-18)
(-4.09799 0.55954 0)
(-3.79663 0.684031 3.8008e-18)
(-3.55307 0.875497 -1.16077e-17)
(-3.36306 1.08745 1.04943e-17)
(-3.17514 1.29663 3.56112e-19)
(-2.9894 1.49233 5.88828e-18)
(-2.80843 1.67106 -5.49433e-18)