/*--------------------------------*- C++ -*----------------------------------*\
| =========                 |                                                 |
| \\      /  F ield         | foam-extend: Open Source CFD                    |
|  \\    /   O peration     | Version:     4.0                                |
|   \\  /    A nd           | Web:         http://www.foam-extend.org         |
|    \\/     M anipulation  |                                                 |
\*---------------------------------------------------------------------------*/
FoamFile
{
    version     2.0;
    format      ascii;
    class       volScalarField;
    location    "1650";
    object      alphat;
}
// * * * * * * * * * * * * * * * * * * * * * * * * * * * * * * * * * * * * * //

dimensions      [1 -1 -1 0 0 0 0];

internalField   nonuniform List<scalar> 
34480
(
0.00188849
0.00188724
0.00188707
0.0018879
0.00189002
0.00189392
0.00190145
0.00191972
0.00195899
0.00203025
0.015931
0.0151228
0.0148229
0.0145525
0.0129297
0.00824577
0.00340764
0.00134861
0.000985092
0.00145529
0.0442761
0.0426177
0.0409298
0.0374847
0.0286756
0.0146856
0.00511997
0.00182892
0.00124103
0.00181197
0.0484245
0.0462669
0.0443255
0.0402859
0.0297131
0.0141643
0.00479463
0.00177586
0.00128745
0.00197763
0.0477449
0.0453254
0.0435604
0.0397189
0.0288523
0.0131912
0.00440939
0.00168479
0.00129897
0.00209656
0.0459938
0.04351
0.0418493
0.0380622
0.0268365
0.0116162
0.00385838
0.00155351
0.00130546
0.0022242
0.0438629
0.0415402
0.0400801
0.0364656
0.0252692
0.0105517
0.00349415
0.00146128
0.00131304
0.00233389
0.0364098
0.0347178
0.0336879
0.0309397
0.0214238
0.00863791
0.00281204
0.0012399
0.00123635
0.00234104
0.0124291
0.0121092
0.0120059
0.0117291
0.00993051
0.00512504
0.00167723
0.000736843
0.000834562
0.00178681
0.00180099
0.00180089
0.00180255
0.00180582
0.00181059
0.0018167
0.00182474
0.00183598
0.00185255
0.00181383
0.00188852
0.00188666
0.00188606
0.00188658
0.00188843
0.00189188
0.00189738
0.00190684
0.00192454
0.00196539
0.0149633
0.0143283
0.014136
0.014319
0.0147296
0.0147772
0.0129485
0.007645
0.00249519
0.00204581
0.0407507
0.0395223
0.0388556
0.0383173
0.0367032
0.0319912
0.0230085
0.0112963
0.00328158
0.00280266
0.0448264
0.0431573
0.0423535
0.04178
0.0399368
0.0344376
0.0242103
0.0114404
0.00330075
0.00316946
0.0446586
0.0427017
0.0419559
0.0415972
0.0401138
0.0348426
0.024457
0.011285
0.00323809
0.00345044
0.0434423
0.0413752
0.0406475
0.0404231
0.0392086
0.0342134
0.0239602
0.0108499
0.00316571
0.00378154
0.0418367
0.0398523
0.039215
0.0390746
0.0380981
0.0334677
0.0235394
0.0105537
0.00312933
0.00409818
0.0351449
0.0336723
0.0332032
0.0331854
0.0326766
0.0293614
0.0210954
0.00938454
0.00285485
0.00417123
0.0123674
0.0120602
0.0119989
0.0120567
0.0121869
0.0120297
0.0106117
0.00545472
0.00170713
0.00280185
0.00179643
0.00179396
0.00179346
0.00179464
0.00179744
0.00180154
0.00180771
0.00181754
0.00184181
0.00188911
0.00188401
0.00188241
0.00188188
0.00188234
0.00188393
0.00188669
0.00189067
0.00189667
0.00190561
0.00191914
0.0140664
0.0136502
0.0135159
0.0136662
0.0141046
0.0147437
0.0151444
0.0142162
0.0101116
0.00583788
0.0372179
0.0362502
0.0359114
0.0360571
0.0363734
0.0359528
0.0330179
0.025365
0.0133441
0.00710022
0.0410875
0.0397834
0.039353
0.0395785
0.0400751
0.0397223
0.0362011
0.0266199
0.0125402
0.00720399
0.0413145
0.0397989
0.039383
0.0397226
0.040527
0.0406573
0.0373651
0.0266946
0.0114197
0.00717546
0.0405716
0.0389638
0.0385279
0.0389317
0.0399609
0.0405801
0.0377006
0.0261781
0.0103052
0.00724695
0.0394645
0.0378977
0.0375047
0.0379129
0.0390449
0.0400242
0.0376536
0.0255313
0.0093812
0.00733093
0.033623
0.0324595
0.0321499
0.0324672
0.0334087
0.0345707
0.0334166
0.0226406
0.00796953
0.00704294
0.0122605
0.012005
0.0119607
0.0120212
0.0122172
0.0124493
0.0126051
0.0106468
0.00448894
0.00445733
0.00178912
0.00178621
0.00178533
0.00178622
0.00178891
0.00179326
0.00180029
0.00181211
0.00183884
0.00189233
0.00187583
0.0018747
0.00187432
0.00187467
0.00187583
0.00187769
0.00188002
0.0018831
0.00188705
0.00189172
0.013475
0.0132276
0.0131367
0.0132324
0.013523
0.0139777
0.0144507
0.014866
0.0145954
0.0128628
0.0340442
0.0333607
0.033165
0.033367
0.0339327
0.0346109
0.0346359
0.0324131
0.025687
0.0173835
0.0376489
0.0367076
0.0364391
0.0367303
0.0375387
0.0385449
0.0386031
0.0352961
0.025793
0.0167223
0.0381942
0.0371018
0.0368334
0.03719
0.0382033
0.0395841
0.0399787
0.0361472
0.0246343
0.0158798
0.0378717
0.0366956
0.0363939
0.0367899
0.03795
0.0396941
0.0405433
0.0363535
0.023143
0.0153328
0.0372106
0.0360353
0.0357542
0.0361429
0.0373464
0.0392869
0.0405206
0.0360624
0.0215244
0.0148441
0.032207
0.0313253
0.031095
0.0313823
0.0322905
0.0339222
0.0354104
0.032001
0.0185287
0.0137225
0.0121945
0.0119841
0.0119515
0.0119978
0.0121469
0.012337
0.0125444
0.0126734
0.00958845
0.00831962
0.00178022
0.00177718
0.00177616
0.00177697
0.00177967
0.00178433
0.00179192
0.00180463
0.00183077
0.00187811
0.00186475
0.00186406
0.00186383
0.00186407
0.00186482
0.00186593
0.00186711
0.00186854
0.00187012
0.00187159
0.0131918
0.0130553
0.0129954
0.0130547
0.0132338
0.0134928
0.0137231
0.0140119
0.0142934
0.014416
0.0315097
0.0311089
0.0310023
0.0311271
0.0315104
0.0321241
0.0328108
0.0330925
0.0316404
0.0274622
0.0347759
0.0341737
0.0340045
0.0342
0.0347956
0.0357805
0.0368814
0.037112
0.0340967
0.0274699
0.0355174
0.034794
0.0346177
0.0348585
0.0356023
0.0368686
0.0383297
0.0385857
0.034234
0.0263041
0.0355148
0.0347043
0.0344892
0.0347654
0.0356261
0.037167
0.0390515
0.0394601
0.0338291
0.0253939
0.0352047
0.0343609
0.034153
0.0344297
0.0353334
0.0370055
0.0391575
0.0396423
0.0328225
0.0244417
0.0309625
0.030315
0.0301395
0.0303475
0.0310179
0.0323238
0.0341969
0.0350317
0.0289295
0.0222922
0.0121763
0.0120028
0.0119792
0.0120106
0.0121122
0.0122297
0.0123008
0.0126967
0.0125746
0.0122114
0.00176989
0.00176683
0.00176575
0.00176649
0.00176916
0.00177391
0.00178155
0.00179392
0.00181663
0.00185325
0.00185131
0.00185097
0.00185086
0.001851
0.00185144
0.001852
0.00185252
0.00185311
0.00185368
0.00185408
0.0131489
0.0130836
0.0130463
0.0130849
0.0131962
0.0133329
0.0134247
0.0135398
0.0136597
0.0137519
0.02975
0.0295569
0.0295092
0.0295689
0.0297621
0.0300903
0.0305454
0.0310964
0.0314196
0.0310589
0.032608
0.0322673
0.0321685
0.0322755
0.0326213
0.0332441
0.0341545
0.035195
0.0354811
0.0339465
0.0333897
0.0329522
0.0328446
0.0329835
0.0334382
0.0342708
0.0355132
0.0369083
0.0369222
0.0340656
0.0335752
0.0330519
0.0329058
0.0330776
0.0336329
0.0346867
0.0363103
0.0381538
0.0378599
0.0338485
0.0334995
0.032924
0.0327772
0.032956
0.0335623
0.0347336
0.0365795
0.0386928
0.0379512
0.0331003
0.0299096
0.0294544
0.0293268
0.0294673
0.0299213
0.0308172
0.0322766
0.034219
0.0337679
0.0299534
0.0122092
0.012067
0.0120518
0.0120718
0.0121354
0.0121877
0.0121404
0.0123357
0.0127474
0.0136384
0.00175798
0.00175501
0.00175393
0.00175461
0.00175717
0.00176177
0.00176902
0.00178028
0.00179875
0.00182522
0.00183592
0.0018358
0.00183577
0.00183585
0.00183608
0.00183629
0.00183648
0.00183668
0.00183685
0.0018369
0.0132702
0.0132526
0.0132324
0.0132586
0.0133272
0.0133892
0.0134289
0.0134714
0.0135023
0.0134925
0.0286879
0.0286111
0.0285959
0.0286209
0.0287029
0.0288369
0.0290291
0.0292937
0.029575
0.0297932
0.0311297
0.0309527
0.0308984
0.030951
0.0311291
0.0314538
0.0319544
0.0326511
0.0333504
0.0337461
0.0318274
0.0315817
0.0315209
0.0315936
0.0318442
0.0323075
0.0330433
0.0341017
0.0350964
0.0353908
0.032082
0.0317623
0.0316679
0.0317674
0.0320981
0.0327301
0.0337656
0.035306
0.036664
0.0367236
0.0321328
0.0317577
0.0316591
0.031767
0.0321477
0.0328837
0.0341079
0.0359747
0.0374835
0.0371058
0.0290755
0.0287687
0.0286803
0.02877
0.0290588
0.0296195
0.0305439
0.0321169
0.0335597
0.0335478
0.012302
0.0121847
0.012177
0.0121881
0.0122226
0.0122207
0.0120997
0.0121033
0.0122903
0.0129853
0.00174433
0.00174156
0.00174053
0.00174116
0.00174353
0.00174777
0.00175431
0.00176404
0.00177844
0.00179701
0.00181878
0.0018188
0.00181882
0.00181886
0.00181896
0.001819
0.00181904
0.00181907
0.00181908
0.00181901
0.0134979
0.013515
0.0135085
0.0135265
0.0135661
0.0135906
0.0136098
0.0136264
0.0136272
0.0135853
0.0281295
0.0281078
0.028108
0.028118
0.0281486
0.0281936
0.0282585
0.0283469
0.0284441
0.0285286
0.0302042
0.0301155
0.0300864
0.0301113
0.0301991
0.0303566
0.0305946
0.0309247
0.0312989
0.0316318
0.0307588
0.0306278
0.0305958
0.0306315
0.0307619
0.0309989
0.0313701
0.0319175
0.0325593
0.0331306
0.0310026
0.0308155
0.0307571
0.030812
0.0309999
0.0313531
0.0319255
0.032815
0.0338853
0.0348231
0.0310996
0.0308641
0.0308006
0.0308625
0.0310913
0.0315257
0.0322388
0.0333912
0.034778
0.0359141
0.0284646
0.028266
0.028208
0.0282622
0.0284355
0.0287606
0.0292757
0.0302088
0.0314673
0.0327025
0.0124606
0.0123624
0.012361
0.0123659
0.0123786
0.012335
0.0121781
0.0120712
0.0120513
0.0123136
0.00172883
0.00172635
0.0017254
0.00172596
0.00172808
0.00173183
0.00173747
0.0017455
0.00175637
0.00176917
0.00180001
0.00180012
0.00180016
0.00180018
0.0018002
0.00180018
0.00180016
0.00180012
0.00180008
0.00179997
0.0137986
0.0138423
0.0138476
0.0138598
0.0138774
0.0138883
0.0138991
0.0139058
0.0138959
0.0138431
0.0278891
0.0278914
0.0278979
0.0279023
0.0279115
0.0279238
0.0279421
0.0279658
0.0279888
0.0280035
0.029666
0.029621
0.0296051
0.0296171
0.0296611
0.0297382
0.0298501
0.0299962
0.0301559
0.0302909
0.0300734
0.0300052
0.0299892
0.0300062
0.0300727
0.0301907
0.0303687
0.0306184
0.0309112
0.0311782
0.0302683
0.030162
0.0301268
0.0301564
0.0302606
0.0304518
0.0307514
0.0311983
0.0317577
0.0323104
0.0303636
0.0302195
0.0301801
0.0302144
0.0303483
0.0305964
0.0309892
0.0316038
0.0323952
0.0331921
0.0280631
0.0279393
0.0279033
0.0279343
0.0280318
0.028205
0.0284641
0.0289354
0.029639
0.0304969
0.01269
0.0126058
0.0126097
0.0126102
0.0126069
0.0125342
0.0123678
0.0122139
0.0120876
0.0121462
0.00171139
0.00170925
0.00170842
0.00170891
0.00171073
0.0017139
0.00171857
0.00172493
0.0017329
0.00174157
0.00177966
0.00177979
0.00177985
0.00177985
0.00177984
0.00177981
0.00177977
0.00177972
0.00177967
0.00177954
0.01417
0.0142232
0.0142388
0.0142468
0.0142531
0.0142602
0.014267
0.0142689
0.0142542
0.014196
0.027837
0.0278465
0.0278555
0.0278578
0.0278595
0.027862
0.0278658
0.0278699
0.0278712
0.0278668
0.0293748
0.0293505
0.0293413
0.0293475
0.0293708
0.0294109
0.0294668
0.0295351
0.0296048
0.0296572
0.0296595
0.0296235
0.0296154
0.0296237
0.0296582
0.0297181
0.0298048
0.0299183
0.0300441
0.0301486
0.0297978
0.029738
0.0297172
0.0297332
0.0297907
0.0298937
0.0300493
0.030267
0.0305308
0.0307782
0.029871
0.0297836
0.0297596
0.0297783
0.0298562
0.0299964
0.0302102
0.0305247
0.0309188
0.0312945
0.0278437
0.027769
0.0277481
0.0277648
0.0278151
0.027896
0.0280122
0.0282246
0.0285534
0.0289705
0.0129946
0.0129201
0.0129285
0.0129259
0.012911
0.0128215
0.0126624
0.0125004
0.0123349
0.0123333
0.00169195
0.00169018
0.00168948
0.00168989
0.0016914
0.00169397
0.00169769
0.00170254
0.00170823
0.001714
0.0017577
0.00175783
0.00175789
0.00175789
0.00175787
0.00175784
0.0017578
0.00175776
0.00175771
0.00175759
0.0146084
0.0146655
0.0146836
0.0146905
0.0146955
0.0147006
0.0147049
0.014704
0.0146863
0.014624
0.0278897
0.0279006
0.0279088
0.027911
0.0279115
0.0279114
0.0279114
0.0279105
0.0279064
0.0278976
0.0292295
0.0292152
0.0292097
0.0292131
0.0292263
0.0292488
0.0292791
0.0293143
0.0293481
0.0293708
0.0294238
0.0294038
0.0293993
0.0294036
0.0294225
0.0294548
0.0294997
0.0295547
0.0296116
0.029655
0.0295137
0.02948
0.0294676
0.0294764
0.0295086
0.0295649
0.029647
0.0297548
0.0298793
0.0299906
0.0295622
0.0295087
0.0294941
0.0295046
0.0295504
0.0296306
0.0297486
0.0299115
0.0301045
0.0302737
0.0277718
0.0277279
0.027717
0.0277253
0.0277477
0.0277765
0.0278195
0.0279025
0.0280376
0.0282315
0.013379
0.0133111
0.0133235
0.0133188
0.0132946
0.0132009
0.0130589
0.01291
0.0127424
0.0127412
0.00167048
0.00166906
0.0016685
0.00166883
0.00167002
0.00167204
0.00167489
0.00167846
0.00168243
0.0016862
0.00173407
0.00173419
0.00173424
0.00173424
0.00173423
0.0017342
0.00173417
0.00173414
0.00173409
0.00173398
0.0151186
0.0151793
0.0151988
0.0152055
0.0152097
0.0152134
0.0152159
0.0152132
0.0151932
0.0151271
0.0279991
0.0280099
0.0280173
0.0280195
0.0280198
0.0280195
0.0280187
0.0280169
0.028012
0.0280022
0.0291648
0.029156
0.0291524
0.0291545
0.0291624
0.0291757
0.0291931
0.0292128
0.029231
0.0292422
0.0292974
0.0292853
0.0292824
0.0292849
0.0292961
0.0293151
0.0293405
0.02937
0.0293986
0.0294193
0.0293524
0.029333
0.0293255
0.0293306
0.029349
0.0293806
0.0294251
0.0294804
0.0295414
0.0295954
0.0293825
0.0293488
0.0293397
0.029346
0.0293738
0.0294211
0.0294885
0.0295763
0.0296741
0.0297557
0.0278117
0.0277865
0.0277819
0.0277854
0.0277921
0.0277956
0.0278042
0.0278279
0.0278732
0.027971
0.01385
0.0137865
0.0138028
0.0137965
0.0137641
0.0136785
0.0135588
0.0134328
0.0132812
0.013303
0.00164694
0.00164586
0.00164543
0.00164568
0.00164659
0.00164811
0.00165021
0.00165276
0.00165545
0.00165789
0.00170869
0.0017088
0.00170885
0.00170885
0.00170884
0.00170882
0.00170879
0.00170877
0.00170873
0.00170862
0.0157119
0.0157764
0.015797
0.0158037
0.0158073
0.0158099
0.0158111
0.0158071
0.0157855
0.0157153
0.0281391
0.0281495
0.0281559
0.0281581
0.0281585
0.0281584
0.0281578
0.028156
0.0281514
0.0281415
0.0291418
0.0291363
0.0291341
0.0291353
0.02914
0.0291479
0.0291582
0.0291697
0.0291802
0.0291861
0.029234
0.029226
0.0292237
0.0292254
0.0292326
0.0292447
0.0292605
0.0292781
0.0292943
0.0293058
0.0292664
0.0292549
0.0292503
0.0292533
0.0292642
0.0292824
0.0293073
0.0293369
0.0293682
0.0293969
0.0292866
0.0292645
0.0292587
0.0292629
0.0292805
0.0293097
0.02935
0.0294002
0.0294529
0.0294971
0.0279315
0.0279167
0.0279158
0.0279168
0.027915
0.0279096
0.0279044
0.0279039
0.0279115
0.0279695
0.0144184
0.0143574
0.0143781
0.0143701
0.0143327
0.0142652
0.0141694
0.0140692
0.0139404
0.0139911
0.00162133
0.00162054
0.00162022
0.00162041
0.00162106
0.00162217
0.00162368
0.00162544
0.00162722
0.00162876
0.00168148
0.00168158
0.00168162
0.00168162
0.00168162
0.0016816
0.00168158
0.00168156
0.00168154
0.00168143
0.0164063
0.0164749
0.0164965
0.0165031
0.0165062
0.016508
0.0165084
0.0165035
0.0164805
0.0164061
0.0282956
0.0283054
0.0283109
0.028313
0.0283135
0.0283136
0.0283133
0.0283119
0.0283078
0.0282982
0.0291386
0.0291353
0.0291341
0.0291347
0.0291375
0.0291419
0.0291478
0.0291544
0.0291607
0.029164
0.0292045
0.0291989
0.029197
0.0291981
0.029203
0.0292112
0.0292217
0.0292331
0.0292433
0.0292505
0.0292233
0.0292162
0.0292134
0.0292152
0.0292217
0.0292326
0.029247
0.0292634
0.0292803
0.0292968
0.0292409
0.0292259
0.029222
0.029225
0.0292366
0.0292556
0.029281
0.0293114
0.029342
0.0293696
0.0281058
0.0280942
0.0280955
0.0280951
0.028091
0.0280843
0.0280755
0.0280674
0.0280613
0.0281027
0.0151139
0.0150442
0.0150668
0.015057
0.0150281
0.0149779
0.0149055
0.0148301
0.014725
0.0148032
0.00159365
0.00159308
0.00159286
0.00159299
0.00159346
0.00159424
0.00159527
0.00159644
0.00159759
0.00159856
0.00165237
0.00165245
0.00165249
0.00165249
0.00165249
0.00165248
0.00165246
0.00165245
0.00165242
0.00165232
0.0172277
0.0173008
0.0173231
0.0173295
0.0173324
0.0173336
0.0173334
0.017328
0.0173041
0.017225
0.0284604
0.0284695
0.0284742
0.0284759
0.0284766
0.0284768
0.0284768
0.0284759
0.0284726
0.0284634
0.0291439
0.0291421
0.0291414
0.0291418
0.0291432
0.0291455
0.0291485
0.0291522
0.0291558
0.0291579
0.0291919
0.0291879
0.0291863
0.029187
0.0291904
0.029196
0.0292032
0.029211
0.0292178
0.0292227
0.0292028
0.0291983
0.0291964
0.0291974
0.0292015
0.0292081
0.0292166
0.0292261
0.0292356
0.0292456
0.0292223
0.0292116
0.029209
0.0292113
0.0292192
0.029232
0.0292486
0.029268
0.029287
0.0293064
0.028312
0.0283011
0.0283022
0.0283019
0.0282988
0.0282934
0.0282857
0.0282772
0.0282678
0.0283016
0.0159628
0.0158856
0.0159024
0.0158962
0.0158768
0.0158425
0.0157918
0.0157382
0.0156551
0.0157562
0.00156389
0.00156351
0.00156336
0.00156345
0.00156376
0.00156429
0.00156498
0.00156573
0.00156644
0.00156704
0.00162131
0.00162138
0.00162141
0.00162141
0.00162141
0.0016214
0.00162139
0.00162138
0.00162136
0.00162127
0.0182129
0.0182912
0.0183138
0.0183199
0.0183227
0.0183235
0.0183229
0.0183174
0.0182931
0.0182089
0.0286275
0.0286357
0.0286395
0.028641
0.0286416
0.028642
0.0286423
0.0286418
0.0286394
0.0286311
0.0291516
0.0291508
0.0291505
0.0291507
0.0291512
0.0291522
0.0291536
0.0291553
0.0291574
0.0291589
0.0291866
0.0291837
0.0291823
0.0291828
0.0291851
0.0291889
0.0291939
0.0291991
0.0292038
0.0292072
0.0291926
0.0291896
0.0291883
0.0291889
0.0291914
0.0291955
0.0292006
0.0292062
0.0292117
0.029218
0.0292154
0.0292078
0.029206
0.0292077
0.0292133
0.029222
0.029233
0.0292456
0.0292578
0.0292725
0.0285311
0.0285207
0.0285214
0.0285214
0.0285197
0.0285164
0.0285112
0.0285049
0.0284963
0.0285256
0.0170034
0.0169206
0.0169315
0.0169285
0.0169177
0.0168977
0.0168668
0.0168315
0.016768
0.0168856
0.00153209
0.00153183
0.00153173
0.00153179
0.001532
0.00153234
0.00153278
0.00153324
0.00153368
0.00153404
0.00158836
0.00158842
0.00158845
0.00158845
0.00158845
0.00158844
0.00158843
0.00158842
0.0015884
0.00158831
0.0194163
0.0195003
0.0195229
0.0195286
0.0195309
0.0195314
0.0195306
0.0195253
0.0195013
0.0194115
0.0287909
0.0287979
0.0288007
0.0288017
0.0288023
0.0288028
0.0288033
0.0288033
0.0288019
0.0287951
0.0291588
0.0291585
0.0291585
0.0291586
0.0291587
0.0291589
0.0291593
0.0291599
0.029161
0.0291623
0.0291833
0.0291812
0.0291801
0.0291803
0.0291817
0.0291843
0.0291875
0.029191
0.0291943
0.0291968
0.0291861
0.0291841
0.0291831
0.0291834
0.0291849
0.0291874
0.0291904
0.0291937
0.029197
0.029201
0.0292105
0.0292053
0.029204
0.0292053
0.029209
0.0292148
0.0292219
0.02923
0.0292378
0.029249
0.0287454
0.0287359
0.0287362
0.0287364
0.0287359
0.0287345
0.0287319
0.0287283
0.0287218
0.0287469
0.0182927
0.0182069
0.0182115
0.0182114
0.0182083
0.0182013
0.0181887
0.0181684
0.0181233
0.0182491
0.00149831
0.00149816
0.00149809
0.00149813
0.00149825
0.00149847
0.00149874
0.00149901
0.00149928
0.00149948
0.00155374
0.0015538
0.00155382
0.00155382
0.00155382
0.00155382
0.00155381
0.00155379
0.00155377
0.00155369
0.0209203
0.0210097
0.0210322
0.0210373
0.0210383
0.0210384
0.0210377
0.0210329
0.0210103
0.020915
0.0289419
0.0289471
0.0289487
0.0289492
0.0289496
0.0289502
0.0289509
0.0289515
0.0289511
0.0289467
0.0291637
0.0291636
0.0291637
0.0291637
0.0291637
0.0291636
0.0291635
0.0291636
0.029164
0.0291652
0.0291794
0.0291778
0.029177
0.029177
0.0291779
0.0291794
0.0291814
0.0291837
0.0291859
0.0291877
0.02918
0.0291786
0.029178
0.0291781
0.029179
0.0291803
0.0291821
0.0291839
0.0291858
0.0291882
0.0292015
0.029198
0.0291972
0.029198
0.0292003
0.0292039
0.0292082
0.029213
0.0292177
0.0292259
0.0289355
0.0289274
0.0289275
0.0289278
0.0289279
0.0289278
0.0289269
0.0289253
0.0289211
0.0289418
0.0199141
0.0198287
0.0198262
0.0198282
0.0198322
0.0198377
0.0198432
0.0198362
0.0198108
0.0199333
0.00146277
0.00146267
0.00146263
0.00146265
0.00146273
0.00146286
0.00146302
0.00146318
0.00146335
0.00146346
0.00151767
0.00151771
0.00151771
0.00151771
0.00151771
0.00151771
0.0015177
0.0015177
0.00151769
0.00151764
0.0228579
0.0229498
0.0229696
0.0229736
0.0229744
0.0229743
0.0229734
0.0229694
0.0229495
0.0228514
0.0290683
0.0290709
0.0290713
0.0290713
0.0290715
0.029072
0.0290729
0.0290739
0.0290746
0.0290733
0.0291655
0.0291654
0.0291655
0.0291656
0.0291655
0.0291654
0.0291652
0.0291652
0.0291652
0.0291662
0.0291746
0.0291735
0.029173
0.0291729
0.0291734
0.0291743
0.0291754
0.0291768
0.0291782
0.0291795
0.0291741
0.0291732
0.0291728
0.0291729
0.0291733
0.029174
0.0291749
0.0291759
0.0291769
0.0291782
0.0291866
0.0291846
0.0291841
0.0291845
0.0291858
0.0291878
0.0291901
0.0291926
0.0291952
0.0292003
0.0290801
0.029074
0.0290739
0.0290742
0.0290744
0.0290745
0.0290743
0.0290739
0.0290719
0.0290874
0.0220136
0.0219352
0.0219332
0.0219349
0.0219381
0.0219422
0.0219465
0.0219494
0.0219504
0.0220536
0.00142558
0.00142552
0.00142549
0.0014255
0.00142555
0.00142563
0.00142573
0.00142583
0.00142595
0.00142601
0.00147926
0.00147926
0.00147925
0.00147924
0.00147924
0.00147924
0.00147925
0.00147926
0.00147929
0.00147931
0.0254664
0.0255468
0.0255606
0.0255635
0.0255641
0.0255638
0.0255627
0.0255594
0.0255446
0.0254564
0.0291566
0.0291563
0.0291556
0.0291552
0.0291552
0.0291556
0.0291565
0.0291578
0.0291594
0.0291611
0.0291651
0.0291651
0.0291652
0.0291652
0.0291652
0.0291652
0.0291652
0.0291651
0.0291651
0.0291655
0.0291707
0.0291701
0.0291697
0.0291697
0.02917
0.0291705
0.0291712
0.029172
0.0291728
0.0291737
0.0291702
0.0291697
0.0291694
0.0291695
0.0291697
0.0291702
0.0291707
0.0291713
0.0291719
0.0291725
0.0291724
0.0291714
0.0291711
0.0291713
0.0291721
0.0291731
0.0291744
0.0291757
0.029177
0.0291793
0.0291675
0.0291637
0.0291633
0.0291632
0.0291632
0.0291632
0.0291631
0.0291632
0.0291634
0.0291731
0.0249081
0.0248493
0.0248482
0.0248494
0.0248514
0.0248542
0.024857
0.0248588
0.0248591
0.0249361
0.00138598
0.00138593
0.00138591
0.00138592
0.00138596
0.00138602
0.0013861
0.00138618
0.00138626
0.0013863
0.0023442
0.00236508
0.00235485
0.00232094
0.0014108
0.0014338
0.00143114
0.00142631
0.00188727
0.00192932
0.00192017
0.0018955
0.00227418
0.00233232
0.00231278
0.00226655
0.00262165
0.00269277
0.00266075
0.00259627
0.00296314
0.00304542
0.00300518
0.00293168
0.00324528
0.00333573
0.00329342
0.0032201
0.00341309
0.0035099
0.00346988
0.00340123
0.00304498
0.00313453
0.0030957
0.00303998
0.00237481
0.00239146
0.00235659
0.00227534
0.00202757
0.00203327
0.00203439
0.00203137
0.00235383
0.00243402
0.00233392
0.00214205
0.00330808
0.00342245
0.00329191
0.00305404
0.00407149
0.00423982
0.00408112
0.00378316
0.00485335
0.00508923
0.00489464
0.00451894
0.00582851
0.00615451
0.00591297
0.00542832
0.00679516
0.00720888
0.00690728
0.00630934
0.00749359
0.0079917
0.00763355
0.00693857
0.00591837
0.00635513
0.00600219
0.00540534
0.00218168
0.00221403
0.00220716
0.00217138
0.0019332
0.00193526
0.00193541
0.00193415
0.00406687
0.00404218
0.00405238
0.00414333
0.00499149
0.00497262
0.00499257
0.00509679
0.00549584
0.00551538
0.00553511
0.00558486
0.00601059
0.00606464
0.00606787
0.00602628
0.00675377
0.00685057
0.00681083
0.00663297
0.00751222
0.00763578
0.00752208
0.00718421
0.00805128
0.00821193
0.00802448
0.00752564
0.00612568
0.00626553
0.00608929
0.00560814
0.00204804
0.00206514
0.00206323
0.00204546
0.00189446
0.00189468
0.00189481
0.00189484
0.0102413
0.00996243
0.0100981
0.0106127
0.0119483
0.0116138
0.0119164
0.0128097
0.0114405
0.0112592
0.0116312
0.0125261
0.0110896
0.0110285
0.0114254
0.0122558
0.0112075
0.0112503
0.0116406
0.0123677
0.011404
0.011506
0.0118447
0.0124235
0.011355
0.0115325
0.0118027
0.0121738
0.00801911
0.00820391
0.00832691
0.0083681
0.00195682
0.00196727
0.00196824
0.00196024
0.00187253
0.00187257
0.0018726
0.00187262
0.0144912
0.014431
0.014459
0.0145683
0.0238427
0.0235189
0.0237064
0.0243333
0.0222462
0.021954
0.0223065
0.0232333
0.0203809
0.0202015
0.0206814
0.021789
0.0193305
0.0193005
0.0198716
0.0210702
0.0185178
0.0185933
0.0191864
0.0203783
0.0173315
0.0175441
0.0180995
0.0191122
0.0108809
0.0111165
0.011358
0.0116715
0.00189359
0.00190008
0.00190154
0.00189814
0.0018545
0.00185447
0.00185446
0.00185445
0.0140869
0.014013
0.0140035
0.0140584
0.0304045
0.0302976
0.0303234
0.0304704
0.0317984
0.0315596
0.0316501
0.032027
0.0304327
0.0301456
0.0303662
0.031025
0.0290255
0.0288079
0.0291974
0.0301271
0.0274495
0.0273224
0.0278376
0.0289661
0.0247761
0.0248419
0.0253996
0.0264769
0.0131745
0.0134072
0.0135829
0.0137435
0.00184568
0.0018496
0.00185088
0.00184952
0.0018372
0.00183716
0.00183714
0.00183713
0.0137853
0.0136945
0.0136768
0.0137311
0.0299166
0.0299195
0.0299338
0.0299594
0.0336763
0.0336797
0.0337122
0.0337711
0.0348258
0.0347798
0.0348409
0.0349972
0.0353474
0.0352629
0.0353995
0.035727
0.0347095
0.0345966
0.0348293
0.0353637
0.0311009
0.0311334
0.0314457
0.0320107
0.013317
0.0135946
0.0136559
0.013548
0.00180735
0.00180974
0.00181069
0.00181017
0.00181928
0.00181923
0.0018192
0.00181919
0.0138649
0.0137677
0.0137475
0.0138031
0.0286257
0.0286189
0.0286218
0.0286347
0.0317601
0.0317863
0.0318037
0.0318126
0.033318
0.0333635
0.0333965
0.0334181
0.0350543
0.0351277
0.0351892
0.0352406
0.0359213
0.0359862
0.0360724
0.0361806
0.0326241
0.0327829
0.0329096
0.0330079
0.0123934
0.0126502
0.0126906
0.0125516
0.00177453
0.00177604
0.00177668
0.00177644
0.00180023
0.00180018
0.00180014
0.00180014
0.0141242
0.0140237
0.0140026
0.0140594
0.0280683
0.0280555
0.0280541
0.0280643
0.0303421
0.0303501
0.0303553
0.0303575
0.0312815
0.031303
0.0313158
0.0313206
0.0325595
0.0326166
0.0326481
0.0326555
0.0334958
0.0335747
0.0336184
0.0336317
0.0307764
0.0309446
0.0310132
0.0309897
0.0119581
0.012183
0.0122247
0.0121027
0.00174445
0.00174548
0.00174589
0.00174571
0.00177981
0.00177975
0.00177972
0.00177971
0.0144824
0.0143791
0.0143572
0.0144154
0.0279213
0.0279078
0.0279056
0.0279149
0.0296748
0.0296759
0.0296769
0.0296778
0.03018
0.0301853
0.0301887
0.0301902
0.0308828
0.0309058
0.0309182
0.0309202
0.0314163
0.0314496
0.0314677
0.031472
0.0290437
0.0291542
0.0291943
0.0291652
0.0120329
0.0122525
0.0122941
0.0121715
0.0017156
0.00171634
0.0017166
0.00171642
0.00175786
0.00175779
0.00175776
0.00175776
0.0149177
0.0148111
0.0147885
0.0148482
0.0279476
0.0279346
0.0279323
0.027941
0.0293784
0.029378
0.0293781
0.0293787
0.0296641
0.029665
0.0296657
0.0296662
0.0300336
0.0300427
0.0300474
0.0300478
0.030302
0.0303128
0.0303191
0.0303212
0.0281864
0.0282615
0.0282861
0.0282595
0.012398
0.0126289
0.0126716
0.0125397
0.0016871
0.00168767
0.00168784
0.00168764
0.00173426
0.00173419
0.00173415
0.00173416
0.0154297
0.0153194
0.0152958
0.0153573
0.0280485
0.0280362
0.028034
0.028042
0.0292465
0.0292458
0.0292457
0.0292463
0.0294226
0.0294226
0.0294227
0.0294228
0.0296168
0.0296212
0.0296233
0.0296233
0.0297562
0.0297599
0.0297622
0.0297631
0.0278897
0.0279488
0.0279664
0.0279416
0.0129394
0.0131892
0.0132347
0.0130906
0.00165838
0.00165885
0.00165896
0.00165876
0.00170892
0.00170883
0.0017088
0.00170881
0.0160285
0.0159139
0.0158892
0.0159528
0.0281839
0.0281723
0.0281701
0.0281775
0.0291889
0.0291882
0.0291882
0.0291887
0.0293075
0.0293074
0.0293074
0.0293074
0.0294097
0.0294123
0.0294135
0.0294134
0.0294921
0.0294941
0.0294952
0.0294954
0.027883
0.027934
0.0279483
0.0279254
0.013613
0.0138858
0.013935
0.0137774
0.00162902
0.00162943
0.00162949
0.00162929
0.00168174
0.00168164
0.00168161
0.00168162
0.016732
0.0166119
0.0165858
0.016652
0.0283363
0.0283255
0.0283233
0.02833
0.029166
0.0291654
0.0291653
0.0291658
0.0292516
0.0292515
0.0292515
0.0292515
0.0293054
0.0293072
0.029308
0.0293077
0.0293656
0.0293672
0.029368
0.0293678
0.0280218
0.0280673
0.0280797
0.0280588
0.0144109
0.0147094
0.0147631
0.0145904
0.00159867
0.00159903
0.00159908
0.00159888
0.00165264
0.00165254
0.00165251
0.00165253
0.0175659
0.0174392
0.0174114
0.0174805
0.0284968
0.0284869
0.0284848
0.0284907
0.0291593
0.0291588
0.0291588
0.0291592
0.0292234
0.0292234
0.0292233
0.0292233
0.0292518
0.029253
0.0292535
0.0292533
0.0293048
0.0293065
0.0293072
0.0293068
0.0282308
0.0282717
0.0282826
0.0282634
0.0153476
0.0156749
0.0157332
0.0155439
0.00156707
0.00156739
0.00156742
0.00156723
0.0016216
0.00162149
0.00162145
0.00162148
0.0185675
0.0184325
0.0184023
0.0184752
0.0286593
0.0286504
0.0286484
0.0286536
0.0291599
0.0291595
0.0291595
0.0291599
0.0292078
0.0292078
0.0292078
0.0292078
0.0292226
0.0292234
0.0292238
0.0292235
0.0292734
0.0292751
0.0292757
0.0292751
0.0284678
0.0285043
0.0285136
0.0284961
0.0164568
0.0168161
0.0168791
0.016671
0.00153402
0.0015343
0.00153432
0.00153415
0.00158867
0.00158855
0.00158851
0.00158855
0.0197915
0.0196454
0.019612
0.0196896
0.0288176
0.0288098
0.028808
0.0288125
0.029163
0.0291628
0.0291629
0.0291631
0.0291973
0.0291974
0.0291974
0.0291974
0.0292043
0.0292049
0.0292051
0.0292049
0.0292517
0.0292534
0.0292538
0.0292532
0.0287047
0.0287368
0.0287445
0.0287284
0.0177928
0.0181862
0.0182536
0.0180253
0.00149944
0.00149968
0.0014997
0.00149955
0.00155408
0.00155395
0.00155391
0.00155396
0.021318
0.0211564
0.0211186
0.0212027
0.0289649
0.0289588
0.0289574
0.0289608
0.0291658
0.0291658
0.0291658
0.0291659
0.0291884
0.0291885
0.0291886
0.0291886
0.0291905
0.0291909
0.029191
0.0291908
0.0292294
0.0292308
0.0292312
0.0292305
0.0289167
0.0289442
0.0289502
0.0289354
0.0194351
0.0198584
0.0199284
0.0196821
0.00146343
0.00146363
0.00146364
0.00146352
0.00151805
0.00151793
0.0015179
0.00151795
0.0232725
0.0230883
0.0230449
0.0231387
0.0290883
0.0290845
0.0290835
0.0290857
0.0291664
0.0291665
0.0291665
0.0291664
0.0291803
0.0291804
0.0291805
0.0291806
0.0291795
0.0291797
0.0291798
0.0291797
0.0292034
0.0292045
0.0292047
0.0292042
0.0290789
0.0291006
0.0291047
0.0290921
0.0215239
0.0219765
0.0220435
0.0217757
0.0014261
0.00142626
0.00142627
0.00142618
0.00147976
0.00147967
0.00147966
0.00147971
0.0258489
0.0256401
0.0255944
0.0257017
0.0291712
0.0291696
0.0291691
0.0291701
0.0291651
0.029165
0.029165
0.0291649
0.0291743
0.0291744
0.0291745
0.0291745
0.029173
0.029173
0.0291731
0.0291731
0.0291807
0.0291811
0.0291813
0.0291811
0.0291752
0.0291876
0.0291895
0.0291818
0.0244733
0.0248984
0.024948
0.0246883
0.00138667
0.00138681
0.00138681
0.00138671
0.00215552
0.00203896
0.00197453
0.00194199
0.00192286
0.00191048
0.0019023
0.0018971
0.00189377
0.00189149
0.00174746
0.00158316
0.00476528
0.00942413
0.0139354
0.0171239
0.018635
0.0187869
0.0181563
0.0172169
0.00236356
0.00257404
0.0073246
0.0155534
0.0249596
0.0330825
0.039069
0.0428735
0.044751
0.0451383
0.00276826
0.00359728
0.00828875
0.0178417
0.02917
0.0385234
0.0449994
0.0487307
0.0501688
0.0499607
0.00307684
0.00394178
0.00871703
0.0193475
0.0320868
0.0419683
0.0481532
0.0510068
0.0513226
0.0501113
0.0033887
0.00407106
0.00893934
0.0204202
0.0342693
0.0443137
0.049892
0.0516828
0.050908
0.048869
0.00363097
0.00408458
0.00897012
0.0211725
0.0358997
0.0457587
0.0504382
0.0510686