/*--------------------------------*- C++ -*----------------------------------*\
| =========                 |                                                 |
| \\      /  F ield         | foam-extend: Open Source CFD                    |
|  \\    /   O peration     | Version:     4.0                                |
|   \\  /    A nd           | Web:         http://www.foam-extend.org         |
|    \\/     M anipulation  |                                                 |
\*---------------------------------------------------------------------------*/
FoamFile
{
    version     2.0;
    format      ascii;
    class       volScalarField;
    location    "1650";
    object      divFlux;
}
// * * * * * * * * * * * * * * * * * * * * * * * * * * * * * * * * * * * * * //

dimensions      [1 -3 -1 0 0 0 0];

internalField   nonuniform List<scalar> 
34480
(
1.86649e-05
1.07943e-07
2.13304e-06
2.34282e-06
2.18165e-06
1.98806e-06
1.85259e-06
0.000647217
0.0311143
1.62681e-06
2.26417e-06
2.0991e-07
8.56993e-07
7.76981e-07
7.84541e-07
7.543e-07
7.59856e-07
8.12491e-07
0.0191068
7.34884e-07
1.10278e-06
6.05273e-07
3.84653e-07
1.25453e-07
1.79337e-07
1.77275e-07
2.61262e-07
3.44744e-07
0.00664457
2.45912e-07
2.05509e-07
9.50369e-08
1.39062e-07
5.0974e-08
8.17111e-08
7.354e-08
1.15121e-07
6.52161e-08
0.000105479
1.41085e-07
8.44548e-08
1.29407e-07
5.49177e-08
1.40731e-08
8.31293e-09
1.40076e-08
6.99726e-08
2.37606e-08
2.48733e-09
4.52957e-08
1.7135e-07
4.00919e-09
3.19017e-08
4.35283e-09
1.55213e-08
1.72968e-08
3.83737e-08
3.48227e-08
1.94732e-09
5.76178e-08
1.93727e-07
7.382e-09
2.86625e-08
8.29839e-09
1.26767e-08
1.17094e-09
8.19657e-09
1.55786e-08
1.86841e-08
6.8729e-09
1.17257e-07
2.29097e-10
1.96565e-08
1.03093e-08
1.66782e-08
1.02635e-08
3.84882e-09
1.54869e-08
3.20735e-09
8.70567e-10
2.16392e-08
7.4977e-09
1.32043e-08
1.16631e-08
1.79112e-09
2.49924e-09
1.69531e-08
3.29066e-09
1.29127e-08
1.24962e-10
5.83146e-08
2.22224e-08
1.99696e-08
4.58193e-10
5.46013e-09
5.49832e-09
3.81828e-11
6.45289e-09
9.62206e-09
1.36694e-08
6.97301e-06
2.23856e-06
3.08698e-06
2.92225e-06
2.67292e-06
2.49037e-06
2.36471e-06
2.32705e-06
2.32464e-06
0.00391383
6.04872e-06
6.62516e-07
1.42396e-06
1.26918e-06
1.14618e-06
1.10433e-06
1.0677e-06
1.11946e-06
1.16482e-06
0.00708812
5.33642e-06
1.34486e-06
7.22756e-07
3.07878e-07
3.06601e-07
4.01418e-07
3.75733e-07
3.83911e-07
5.1864e-07
0.00491843
1.96664e-06
6.97178e-07
3.38916e-07
7.1347e-09
9.16863e-08
1.1309e-07
1.33714e-07
1.67293e-07
1.6779e-07
0.00058929
1.85306e-06
7.00266e-07
3.01818e-07
7.25336e-08
3.37719e-08
6.09721e-08
4.44208e-08
1.60645e-08
8.69552e-08
5.17646e-08
3.34119e-07
8.41256e-09
7.77363e-09
3.34905e-08
1.07021e-08
6.13372e-08
2.97634e-08
1.70381e-08
6.26683e-08
3.55005e-08
1.86514e-07
1.99772e-07
3.20411e-08
4.38258e-08
3.25144e-08
2.77342e-08
2.01144e-08
1.61862e-08
1.61389e-08
2.06409e-08
3.78159e-07
1.70381e-10
3.58652e-08
5.25625e-08
2.47052e-09
3.82079e-08
6.75135e-08
1.40138e-08
2.61109e-08
1.77622e-08
3.28553e-07
9.60329e-08
2.8229e-08
6.62163e-09
1.21203e-08
2.35823e-08
1.76189e-08
4.45314e-08
1.04552e-09
6.04175e-08
5.20215e-06
1.03151e-06
2.90393e-07
4.81681e-08
2.52377e-08
2.53442e-08
9.12248e-09
6.98917e-08
2.02682e-08
1.58667e-08
1.10386e-05
1.67876e-06
2.24623e-06
2.1708e-06
2.00772e-06
1.89645e-06
1.83613e-06
1.83362e-06
0.000531661
0.00310217
5.37001e-06
4.47507e-07
1.02574e-06
9.46245e-07
8.38093e-07
7.83101e-07
7.42067e-07
7.47859e-07
0.00037271
0.00247453
5.35688e-06
8.24748e-07
8.93253e-07
4.86185e-07
3.51472e-07
3.3401e-07
2.80988e-07
2.92788e-07
8.62877e-05
0.0011689
1.60155e-06
2.82829e-07
3.47737e-07
9.34844e-08
1.19652e-07
7.13755e-08
1.04704e-07
9.67512e-08
7.42793e-08
1.20267e-07
1.03026e-06
2.72774e-07
2.07098e-07
2.48902e-08
7.30301e-08
2.2684e-08
2.51165e-08
6.18861e-08
8.76814e-09
1.89222e-08
1.25476e-08
2.33183e-07
4.69732e-08
7.1227e-08
2.55902e-08
4.24194e-08
7.0633e-08
1.30674e-08
7.48898e-08
2.3335e-08
1.99642e-07
1.03483e-07
4.20619e-08
6.71407e-08
3.45823e-08
3.73982e-08
2.47268e-08
1.41233e-08
2.59587e-09
2.53208e-08
6.72919e-09
1.05014e-07
3.76577e-08
6.22877e-08
3.00549e-08
1.46117e-08
6.20105e-08
5.22694e-09
3.84497e-08
2.05143e-08
3.13586e-07
1.23834e-08
3.9814e-08
7.88361e-09
2.55587e-09
3.28664e-08
1.20234e-08
6.66327e-08
2.41188e-09
3.32871e-08
6.50806e-07
2.74942e-07
3.40873e-08
3.65292e-08
2.45178e-08
1.50473e-08
5.97271e-09
2.79166e-08
9.04156e-09
1.77573e-08
1.15505e-05
1.50118e-06
1.97722e-06
1.96317e-06
1.82454e-06
1.70592e-06
1.64021e-06
1.64702e-06
5.67444e-05
0.00116925
4.12914e-06
2.85843e-07
6.89806e-07
7.24547e-07
7.14056e-07
6.92429e-07
6.63348e-07
6.90588e-07
0.00013791
0.00162528
4.38945e-06
1.34897e-06
4.41115e-07
3.04544e-07
2.62431e-07
2.82493e-07
2.07066e-07
2.60222e-07
7.88834e-05
0.00131783
1.56782e-06
3.68455e-07
3.48331e-07
1.16693e-07
1.54303e-07
1.11417e-07
8.25503e-08
1.14485e-07
0.000447401
0.000683781
9.29366e-07
3.41035e-07
2.01571e-07
3.08167e-08
8.5824e-08
5.98454e-08
8.25635e-09
4.16499e-08
0.000384296
0.00237306
1.52856e-07
1.3105e-07
5.06162e-09
1.84059e-09
8.00195e-08
3.08298e-08
2.26392e-08
6.41445e-08
0.000163209
0.00330707
8.61561e-08
7.10058e-08
1.71788e-09
1.11662e-08
6.08212e-08
1.20252e-08
2.0451e-09
1.14525e-08
1.01846e-08
0.00239256
4.33315e-08
6.59666e-08
1.84059e-08
3.93149e-08
3.98671e-08
4.41005e-08
9.93917e-10
2.3854e-08
1.28473e-08
0.0013744
1.96946e-07
2.18528e-08
1.37542e-08
1.0575e-08
7.0277e-09
4.35048e-09
2.6471e-08
1.30849e-08
3.74141e-08
7.41255e-09
4.43259e-07
1.62033e-07
4.65975e-08
3.04617e-08
2.7302e-09
8.80414e-09
9.11091e-09
1.4694e-08
1.41112e-09
5.69048e-09
1.01513e-05
1.10761e-06
1.48829e-06
1.57376e-06
1.52194e-06
1.44084e-06
1.38623e-06
1.37856e-06
5.96726e-06
0.000284029
3.08135e-06
5.82792e-07
6.47043e-07
6.13848e-07
6.02298e-07
5.99347e-07
5.79926e-07
5.91433e-07
9.72371e-05
0.000317021
4.03152e-06
1.49038e-06
9.28429e-08
1.19536e-07
9.34589e-08
1.53415e-07
1.43422e-07
1.86747e-07
0.00028586
5.94019e-05
1.10552e-06
6.70827e-07
1.43217e-07
1.64263e-08
3.733e-08
5.42411e-08
4.94786e-08
5.66936e-08
0.000661548
0.00134709
7.87044e-07
5.44415e-07
1.48864e-07
4.08214e-08
3.17771e-09
3.61281e-08
1.09998e-08
2.48839e-08
0.000750331
0.00277649
3.40678e-07
2.87461e-08
3.95258e-08
5.83049e-08
1.77524e-08
1.02665e-09
1.92924e-08
2.17307e-08
0.000933019
0.00417543
9.61505e-08
5.5705e-08
3.21682e-08
5.10281e-08
5.2473e-09
6.0458e-09
1.16733e-08
1.82515e-09
0.00018751
0.00440448
1.55923e-07
1.19775e-08
4.64386e-08
2.63506e-08
2.15938e-08
1.97116e-08
1.93009e-08
6.74164e-09
0.000357309
0.00484416
6.21563e-08
5.19856e-08
1.95374e-08
1.26308e-08
1.99107e-09
1.72041e-08
1.01109e-08
2.27106e-09
3.73948e-08
0.00358913
3.32126e-07
8.59245e-08
5.0106e-08
6.81578e-09
1.28331e-09
4.73397e-09
1.67685e-08
7.75687e-09
4.02103e-09
0.0051035
1.03249e-05
1.13492e-06
1.1758e-06
1.24062e-06
1.24502e-06
1.20533e-06
1.17217e-06
1.16488e-06
1.17988e-06
2.95812e-05
1.90604e-06
8.82388e-07
7.08328e-07
5.936e-07
5.54748e-07
5.3562e-07
5.12396e-07
5.21583e-07
0.000164357
0.000223121
4.68043e-06
9.03695e-07
2.06502e-07
2.43214e-07
1.9489e-07
1.92981e-07
1.59608e-07
1.79555e-07
0.000372861
0.000448804
1.46254e-06
5.5048e-07
1.3648e-07
5.14849e-08
4.84361e-08
5.061e-08
4.84096e-08
5.19886e-08
0.000758898
0.00145207
1.16932e-06
4.85792e-07
1.73247e-07
1.53614e-08
1.36344e-08
2.94502e-08
1.29526e-08
2.62234e-08
0.000941312
0.00253757
9.55328e-08
3.24896e-08
2.43771e-08
1.32821e-08
1.87302e-08
9.38499e-09
1.27254e-09
1.41968e-08
0.00131693
0.00387552
8.23009e-09
2.8314e-08
1.17357e-08
2.28704e-08
2.61578e-09
3.88832e-10
5.3376e-09
2.89857e-09
0.000910832
0.00445521
9.42585e-08
4.61296e-09
2.41146e-08
2.74551e-08
6.17182e-09
4.64477e-09
1.228e-08
9.22592e-10
0.00139177
0.00551127
5.41654e-08
2.75621e-08
1.45185e-08
1.5068e-08
2.48724e-09
1.30435e-08
9.25484e-10
4.71419e-09
0.000476249
0.00543853
2.03739e-07
6.67554e-08
2.72536e-08
1.27254e-09
2.65113e-10
2.06788e-09
1.34942e-08
4.26831e-09
0.00124978
0.00673882
8.22499e-06
1.59345e-06
1.14199e-06
1.06184e-06
1.05666e-06
1.01233e-06
9.78315e-07
9.72721e-07
9.66313e-07
2.88346e-05
2.91337e-07
8.37859e-07
6.13755e-07
4.93495e-07
4.46952e-07
4.29392e-07
4.12682e-07
4.34013e-07
0.000102663
0.000262423
4.17089e-06
6.20926e-07
1.54588e-07
2.25716e-07
2.05102e-07
1.88422e-07
1.58374e-07
1.76001e-07
0.000301646
0.000480318
1.6217e-06
4.47075e-07
1.29736e-07
8.23663e-08
7.23601e-08
6.79485e-08
6.23292e-08
6.37094e-08
0.000659613
0.00120312
1.34148e-06
5.0945e-07
1.54339e-07
2.86455e-08
2.1801e-08
2.8899e-08
1.4027e-08
3.14762e-08
0.000877516
0.0019906
4.70901e-08
5.9076e-08
6.47322e-08
1.72274e-08
2.94641e-08
1.46766e-08
1.31978e-08
1.4122e-08
0.00134154
0.00310235
1.18642e-07
3.93347e-08
3.04622e-08
1.45246e-08
1.36702e-08
1.04827e-08
3.77902e-09
6.70366e-09
0.00112537
0.00366722
1.70287e-08
4.48061e-08
1.49354e-08
2.18855e-09
1.19483e-08
4.19965e-09
2.9575e-10
5.79669e-09
0.00173303
0.00483391
9.03219e-08
1.56747e-08
8.03901e-09
3.22636e-10
9.78663e-09
2.90372e-09
3.36079e-09
5.21595e-09
0.00109091
0.0050519
1.08846e-07
6.48185e-08
3.40112e-09
5.37279e-09
4.21443e-09
5.34814e-09
6.28468e-09
2.31671e-09
0.00170074
0.00602175
2.30589e-06
2.19218e-06
1.05847e-06
8.02456e-07
8.37671e-07
8.1114e-07
7.68318e-07
7.63759e-07
7.73267e-07
8.00815e-07
6.67681e-07
7.30205e-07
5.10528e-07
4.30486e-07
3.93335e-07
3.67525e-07
3.45771e-07
3.51098e-07
1.2452e-05
0.000150769
3.10258e-06
4.57554e-07
4.28905e-09
9.89232e-08
1.24548e-07
1.23585e-07
1.13165e-07
1.3681e-07
0.000169773
0.000326992
1.45112e-06
4.11676e-07
5.88599e-08
5.26051e-08
5.23989e-08
5.26509e-08
4.85039e-08
4.42423e-08
0.00044568
0.000816907
1.34366e-06
6.1284e-07
7.67474e-08
9.81926e-10
3.92771e-10
1.29614e-08
5.73445e-09
2.42732e-08
0.000641138
0.00136214
9.79184e-08
6.27549e-08
8.72933e-09
1.79398e-08
5.49879e-10
3.19617e-09
4.02099e-09
3.36801e-09
0.00110933
0.00223937
1.52126e-08
1.06004e-08
4.91836e-09
1.09976e-09
1.92458e-09
2.93269e-09
1.98567e-09
3.05488e-10
0.000984764
0.00268516
4.90584e-08
1.54791e-08
2.88686e-09
1.07226e-09
7.17592e-09
9.62288e-10
2.74939e-10
4.94891e-09
0.00162542
0.0037524
1.43847e-08
1.49967e-10
4.74895e-09
4.67397e-09
3.97412e-09
4.44902e-09
4.34904e-09
2.47445e-09
0.0011194
0.00382943
1.18221e-07
2.77918e-08
1.17078e-08
5.56752e-09
1.69546e-09
1.55799e-09
6.52981e-09
6.41525e-10
0.00164844
0.00461622
5.66607e-06
3.86174e-06
1.2529e-06
4.77193e-07
6.02135e-07
6.82818e-07
6.51997e-07
6.15703e-07
6.20666e-07
7.16064e-07
6.94225e-07
7.02307e-07
3.89301e-07
3.41792e-07
3.39332e-07
3.15945e-07
2.83741e-07
2.62079e-07
3.09044e-07
4.29503e-05
2.21851e-06
1.08832e-07
4.33998e-08
8.41158e-08
1.16883e-07
1.10928e-07
1.03592e-07
1.13177e-07
7.07816e-05
0.000177399
1.30668e-06
2.83197e-07
4.4601e-08
4.63476e-08
4.47501e-08
4.5666e-08
3.84455e-08
2.52185e-08
0.000251137
0.00047886
1.65151e-06
5.61721e-07
8.41267e-08
2.77501e-08
1.61024e-08
1.7928e-08
8.17899e-09
2.22366e-08
0.000393873
0.000821921
1.57045e-08
7.46652e-08
1.71887e-08
1.09905e-08
1.7572e-09
1.69331e-09
4.34509e-09
0.000107788
0.000801152
0.00146348
3.01432e-09
3.67202e-08
5.85025e-09
1.26945e-08
8.06539e-09
3.18072e-09
6.78742e-09
4.48708e-09
0.000691336
0.00174324
8.03046e-08
9.81479e-09
1.38276e-08
1.24985e-08
1.6358e-09
8.58794e-09
5.41858e-09
0.000174656
0.00130675
0.00263092
2.12028e-08
1.10602e-08
1.61024e-08
1.0549e-08
3.13683e-09
9.64284e-09
8.82959e-10
1.51032e-09
0.000900981
0.00256737
1.00535e-07
1.60385e-08
1.42493e-08
1.12674e-08
2.42814e-09
5.72955e-09
6.60283e-09
0.00012607
0.00136144
0.00320517
2.42132e-05
8.36255e-06
2.6047e-06
1.05815e-07
5.79567e-08
3.63521e-07
4.75356e-07
4.31042e-07
3.55423e-07
3.56139e-07
7.14307e-07
8.68073e-07
2.68498e-07
1.76454e-07
2.22728e-07
2.39034e-07
2.27391e-07
2.08412e-07
1.88335e-07
2.02057e-07
1.0801e-06
1.41496e-07
8.62519e-08
6.57938e-08
9.66829e-08
9.15031e-08
8.72499e-08
8.94834e-08
1.63962e-05
7.88909e-05
9.52004e-07
1.7886e-07
2.59191e-08
2.49093e-08
2.99387e-08
3.86906e-08
3.31266e-08
1.95631e-08
0.0001153
0.000248374
1.77963e-06
5.49283e-07
5.60077e-08
3.28918e-08
2.3048e-08
1.77188e-08
6.6191e-09
1.71757e-08
0.000211612
0.000449747
1.59148e-07
6.28475e-08
4.15815e-08
1.49693e-08
1.27418e-08
1.01875e-08
1.28903e-08
0.000152737
0.000537463
0.000890952
7.97057e-08
2.00647e-08
1.44149e-08
9.76836e-10
4.48816e-10
4.03935e-09
6.60024e-10
2.29688e-09
0.000408433
0.00101176
1.03022e-08
1.4304e-08
3.20772e-09
2.3048e-09
3.84926e-09
4.41952e-09
3.51661e-09
0.000308126
0.000965995
0.00171175
2.58658e-08
1.75398e-08
6.04822e-10
1.12324e-09
3.26172e-09
5.78901e-09
3.04571e-09
4.75217e-10
0.000615982
0.00156891
5.387e-08
3.1899e-08
3.72254e-09
7.92029e-10
9.04893e-09
4.15815e-10
2.09888e-09
0.000245529
0.00101138
0.00206442
7.40842e-05
1.95679e-05
8.39413e-06
1.47506e-06
7.59307e-08
2.31069e-07
7.36316e-07
9.89161e-07
9.87265e-07
8.32549e-07
1.70229e-06
1.51075e-06
4.23224e-07
9.32705e-08
1.26625e-07
1.98248e-07
2.31409e-07
2.4088e-07
1.57411e-07
2.4149e-07
7.50246e-08
2.56408e-07
1.18507e-07
3.98264e-08
6.32406e-08
6.22908e-08
6.44334e-08
7.94981e-08
5.00756e-08
2.79185e-05
5.18201e-07
7.5176e-08
3.58025e-08
1.57752e-08
1.91437e-08
3.48821e-08
3.47901e-08
2.72798e-08
3.26744e-05
0.000109989
1.79934e-06
5.51529e-07
3.21867e-09
7.76268e-09
7.92046e-09
3.78668e-09
5.14357e-09
4.7649e-09
9.76113e-05
0.000224559
1.61342e-07
1.08733e-07
1.43578e-08
5.96401e-09
1.90517e-09
4.16929e-09
6.24013e-09
0.000141379
0.000344672
0.000518091
7.52943e-08
3.89747e-08
1.21489e-08
6.38125e-10
1.96346e-09
3.90238e-09
2.42978e-09
5.17863e-09
0.000194103
0.000524759
2.76059e-08
4.37361e-09
3.6005e-09
4.1969e-10
4.94792e-09
1.94383e-09
5.88354e-06
0.000318132
0.000680163
0.00106273
1.35593e-08
7.77129e-09
1.58639e-09
1.26509e-09
5.06038e-09
3.33342e-09
3.19286e-09
6.22506e-10
0.000353681
0.000865568
7.45614e-08
1.6309e-08
3.00041e-09
6.14809e-09
7.05005e-09
2.41138e-09
3.49742e-09
0.000244647
0.000690282
0.00124545
0.000223143
3.55756e-05
1.89567e-05
4.53859e-06
1.75568e-06
3.31943e-06
2.89913e-06
1.92435e-06
1.00154e-06
3.12689e-07
4.01393e-06
2.65921e-06
9.65283e-07
9.18669e-08
1.16072e-07
7.2205e-08
2.26138e-08
1.0388e-07
1.02802e-07
1.01613e-07
7.39054e-07
2.74754e-07
1.72286e-07
4.46629e-08
3.45804e-08
2.70031e-08
3.14591e-08
5.25277e-08
5.61007e-08
8.36225e-06
1.00074e-07
1.11229e-09
6.93045e-08
2.3632e-08
1.27828e-08
2.84576e-08
3.45838e-08
3.09731e-08
1.82587e-08
3.50822e-05
1.87574e-06
4.79162e-07
1.64864e-08
9.88597e-09
1.20861e-08
6.21907e-09
2.93352e-10
5.57369e-10
3.63312e-05
0.000100198
2.33626e-07
1.14455e-07
1.87379e-09
2.07913e-09
2.64384e-09
1.87379e-09
4.71789e-06
0.000113065
0.000213613
0.000289171
1.02168e-07
4.96482e-08
6.70799e-09
1.36898e-09
5.70407e-10
5.47591e-10
2.73795e-10
2.37289e-09
5.28966e-05
0.000229988
3.48158e-08
1.12941e-08
4.57923e-09
5.31848e-09
1.02673e-10
4.41495e-09
0.000108044
0.000277533
0.000463631
0.00063799
2.43134e-08
2.14681e-09
9.72596e-09
6.17907e-09
1.34409e-09
4.81631e-09
5.97372e-10
2.80018e-10
0.000152476
0.000412365
5.93509e-08
1.29368e-08
7.08446e-09
1.18245e-08
4.96254e-10
5.62992e-09
4.79142e-09
0.000195897
0.000436537
0.0007046
0.000459561
5.7743e-05
4.64304e-05
2.88797e-05
1.54038e-05
6.958e-06
2.24416e-06
1.90388e-07
1.48836e-06
2.44371e-06
8.18168e-06
3.8761e-06
2.29075e-06
9.62982e-07
2.49575e-07
2.53416e-08
7.29467e-08
2.07601e-08
1.02751e-07
1.79073e-07
7.17763e-07
1.12152e-07
2.16783e-07
1.02913e-07
5.5093e-08
2.20677e-08
1.57109e-08
1.42982e-08
7.39254e-06
4.6081e-06
2.53791e-07
1.40151e-08
8.08928e-08
2.98436e-08
2.79983e-09
1.2122e-08
1.86602e-08
1.23765e-08
2.27963e-08
5.4508e-07
1.82431e-06
4.08957e-07
2.63984e-08
1.00903e-08
1.55172e-08
1.16447e-08
1.00903e-08
4.93606e-09
1.03782e-05
3.90935e-05
2.75548e-07
1.01915e-07
1.90897e-10
6.51438e-09
1.52718e-09
1.55104e-09
3.51921e-05
8.37829e-05
0.000128268
0.000153902
1.35259e-07
5.08636e-08
5.55724e-09
8.48433e-11
3.81795e-10
5.72692e-10
2.05745e-09
1.31507e-09
7.14805e-09
6.87302e-05
1.14653e-05
4.42882e-09
7.8268e-10
1.52718e-10
1.31719e-09
6.0459e-05
0.000143646
0.000221675
0.000307709
0.00037091
1.98917e-09
1.04299e-08
4.85921e-10
1.31893e-09
1.38835e-10
2.18664e-09
3.99149e-10
1.16274e-09
2.12634e-05
0.000147282
4.72847e-08
2.01715e-08
3.37252e-09
1.92488e-09
5.93373e-09
1.5749e-09
1.42332e-05
0.000137485
0.000255271
0.000370354
0.000921276
1.60849e-05
1.40759e-06
1.32554e-05
1.50014e-05
1.26615e-05
9.66319e-06
7.25648e-06
5.71927e-06
4.96069e-06
6.37541e-06
2.86409e-06
2.81227e-06
2.06432e-06
1.21322e-06
5.94153e-07
1.98184e-07
7.8373e-08
3.08589e-07
6.21599e-07
6.32156e-05
7.98108e-06
1.14774e-05
9.84155e-06
9.78892e-06
1.07671e-05
1.22104e-05
1.11395e-05
1.2854e-05
4.50967e-06
3.17199e-07
1.05e-07
6.69783e-08
4.14085e-08
8.59226e-09
4.18522e-09
4.56972e-09
3.12043e-09
3.40141e-09
4.29475e-09
1.68187e-06
3.45271e-07
4.4493e-08
1.85071e-09
8.56902e-09
5.70423e-09
5.22254e-09
8.11269e-10
3.945e-06
1.36793e-05
1.39224e-05
8.78674e-08
8.56269e-09
3.19437e-09
1.7081e-09
1.83444e-05
4.1095e-05
5.75159e-05
7.27485e-05
7.54229e-05
1.50485e-07
5.13268e-08
5.32395e-10
9.66198e-10
1.24226e-09
1.83381e-09
1.57747e-09
3.49015e-09
4.45634e-09
8.71073e-10
6.71939e-06
8.73473e-05
7.39112e-05
7.39833e-05
8.65723e-05
0.000107981
0.000138742
0.000163824
0.000195543
0.000204709
1.8632e-08
1.62945e-09
4.0333e-10
1.16159e-09
7.74393e-10
7.25993e-10
2.33931e-09
3.56543e-09
3.01691e-09
1.45256e-05
5.31761e-08
9.09508e-09
3.17958e-09
2.78029e-09
8.87325e-11
8.42959e-10
2.99929e-05
8.45269e-05
0.000134041
0.000174124
0.000259064
0.00012915
9.4467e-05
5.11562e-05
2.67566e-05
1.50837e-05
9.89376e-06
7.56191e-06
6.27975e-06
5.17808e-06
1.14256e-05
4.63709e-06
9.41693e-07
7.58856e-07
1.02932e-06
8.32601e-07
5.75174e-07
3.80666e-07
2.44373e-07
1.36893e-07
0.000207874
0.000138246
7.92669e-05
4.91859e-05
3.17917e-05
2.21893e-05
1.64164e-05
1.11232e-05
7.10567e-06
6.07643e-07
9.90344e-09
2.42229e-07
1.3047e-08
4.28392e-08
2.25745e-08
1.64015e-08
1.60303e-08
1.79826e-08
1.1466e-08
6.37583e-09
1.49469e-06
2.7219e-07
5.10253e-08
2.49823e-09
4.07731e-09
1.06057e-09
1.69691e-09
6.07236e-07
3.56041e-06
4.11147e-06
5.1284e-05
3.81533e-05
2.61871e-05
2.27434e-05
2.4539e-05
2.79482e-05
3.16317e-05
3.26715e-05
3.35017e-05
2.7963e-05
1.54526e-07
4.24543e-08
2.65797e-09
0
1.86975e-09
7.88227e-10
3.66617e-11
2.1997e-10
8.4322e-10
7.00666e-09
0.000162633
9.63794e-05
0.000128911
0.000120927
0.00011071
0.000105467
0.00010648
0.00010447
0.000107763
9.54209e-05
6.10142e-09
1.78476e-09
3.89947e-10
3.7195e-09
1.90474e-09
1.15484e-09
2.84962e-10
1.4998e-11
2.36968e-09
3.29653e-09
3.40372e-08
9.60995e-09
1.74601e-09
6.87407e-10
1.1136e-09
1.29233e-09
2.24442e-05
4.00248e-05
5.51917e-05
6.25452e-05
0.00292322
0.000126282
8.62505e-05
3.57751e-05
4.46276e-06
1.13964e-05
1.77635e-05
1.88805e-05
1.72662e-05
1.43171e-05
9.20084e-06
1.8432e-05
9.89658e-06
4.49454e-06
1.8735e-06
7.17269e-07
2.07547e-07
1.14087e-07
5.21781e-07
1.17046e-06
0.000328535
0.000236044
0.000110181
5.30419e-05
2.22151e-05
5.98802e-06
3.36021e-06
9.78796e-06
1.82131e-05
1.93974e-05
6.55474e-07
3.68814e-07
7.57899e-08
6.96552e-09
1.82254e-08
1.9529e-08
1.82126e-08
1.71134e-08
2.36316e-08
1.94655e-08
1.85901e-05
1.95677e-07
5.32848e-08
5.57497e-07
1.72181e-06
2.32111e-06
2.1037e-06
9.69446e-07
9.20631e-07
3.24755e-06
4.076e-05
4.61849e-05
3.61839e-05
2.71517e-05
2.07365e-05
1.57961e-05
1.14099e-05
6.53138e-06
1.003e-06
5.16694e-06
1.36493e-07
2.79643e-08
3.91943e-09
3.57861e-10
2.26646e-09
2.26646e-09
2.81177e-09
3.06738e-10
5.09526e-09
2.41406e-09
0.000472436
1.40586e-06
9.86222e-05
9.78809e-05
7.89722e-05
6.08658e-05
4.673e-05
3.31718e-05
2.14159e-05
6.31961e-06
5.66649e-09
1.28272e-09
4.6429e-09
8.50502e-10
7.25018e-10
3.34624e-10
5.71649e-10
1.26878e-09
2.14717e-09
2.11652e-09
3.17139e-08
4.28156e-09
1.64872e-09
7.79627e-10
1.90433e-09
2.3624e-07
5.8311e-06
7.60708e-06
8.04433e-06
4.36219e-06
0.00282541
0.000244247
0.00022289
0.0001735
0.000130034
9.53885e-05
6.80934e-05
4.60325e-05
2.71117e-05
9.28169e-06
3.5675e-05
1.69517e-05
9.27138e-06
3.79377e-06
7.20051e-07
6.78864e-07
1.03053e-06
7.03156e-07
1.08626e-07
1.21742e-06
0.000429162
0.000310433
0.000103522
1.77075e-05
2.47335e-05
4.52405e-05
5.59633e-05
6.21097e-05
7.44352e-05
6.32977e-05
1.26252e-06
3.8149e-07
1.30625e-07
3.00957e-08
7.12887e-11
8.8398e-09
1.69667e-08
1.93786e-08
2.48203e-08
2.61573e-08
5.04941e-05
2.84375e-05
1.32879e-05
5.63036e-06
7.5953e-07
2.96667e-06
6.30695e-06
9.34847e-06
1.29978e-05
1.45336e-05
1.04889e-05
2.00047e-05
1.42256e-05
6.2093e-06
9.60651e-07
7.31996e-06
1.33774e-05
1.91927e-05
2.66002e-05
3.0533e-05
9.22954e-08
1.29429e-08
5.02189e-09
2.37629e-09
3.21591e-09
2.47134e-09
1.85351e-09
2.78818e-09
4.40406e-09
2.26081e-09
0.000913381
0.000197458
1.44695e-05
3.37957e-06
1.41105e-05
3.57206e-05
5.56003e-05
7.23723e-05
9.28881e-05
9.90885e-05
1.84297e-10
6.31229e-09
1.08877e-09
4.01809e-10
1.84054e-09
1.7887e-09
2.19051e-09
1.84054e-09
2.74786e-09
1.45682e-09
1.3084e-08
2.13866e-10
1.82974e-09
2.61392e-09
3.43374e-09
3.76642e-09
3.98029e-09
1.49282e-06
6.68596e-06
1.06525e-05
0.00607947
0.000203895
0.000203005
0.000160463
0.000118707
8.40851e-05
5.6322e-05
3.36281e-05
1.39901e-05
4.46636e-06
6.28344e-05
3.29907e-05
2.54551e-05
1.8986e-05
1.35287e-05
8.83704e-06
4.57211e-06
3.49256e-07
4.33008e-06
9.68827e-06
0.000420269
0.000322218
4.24812e-05
6.16379e-05
0.000108809
0.000129474
0.000139278
0.000144857
0.000159888
0.000134763
1.46456e-06
2.60981e-07
1.16209e-07
4.43915e-08
1.57729e-08
4.28562e-09
1.8004e-09
8.51601e-09
1.2404e-08
4.13845e-08
2.96879e-05
1.44326e-05
1.98439e-08
7.36056e-06
1.20708e-05
1.56317e-05
1.87382e-05
2.14518e-05
2.51446e-05
2.53389e-05
1.5651e-05
1.02562e-05
1.23174e-05
1.65831e-05
2.09436e-05
2.51682e-05
2.94774e-05
3.37172e-05
4.01781e-05
4.24968e-05
3.32194e-08
8.83633e-11
6.77452e-10
2.41526e-09
1.78199e-09
2.34163e-09
1.81145e-09
3.81435e-09
1.39909e-09
2.66371e-09
0.00129157
0.000439361
0.000199528
0.000161731
0.000170484
0.00018766
0.000205447
0.000220334
0.000245272
0.0002379
9.16809e-09
5.28975e-09
1.90383e-09
2.19302e-09
2.12072e-09
1.3134e-09
7.35022e-10
1.27725e-09
1.53029e-09
1.63218e-09
9.378e-07
5.59428e-07
1.5574e-09
4.13099e-09
1.39327e-07
2.18294e-06
6.8021e-06
8.51822e-06
2.01573e-05
1.92697e-05
0.00804939
0.000764258
0.000530893
0.000326319
0.000183269
7.94774e-05
9.89609e-07
6.45361e-05
0.000110837
0.000139234
6.5026e-05
3.68454e-05
2.76611e-05
1.92929e-05
1.228e-05
6.36246e-06
1.0627e-06
4.16928e-06
9.91909e-06
1.57528e-05
0.000100546
0.00017954
6.44982e-05
0.00014182
0.000174002
0.000186623
0.000192303
0.000196883
0.000210997
0.000187858
9.43322e-07
1.14788e-07
6.46076e-08
4.37836e-08
4.29314e-08
5.23371e-08
6.56447e-08
7.87674e-08
9.10379e-08
1.23977e-07
1.64544e-06
6.0016e-06
1.20313e-05
1.50446e-05
1.695e-05
1.84434e-05
1.98553e-05
2.12419e-05
2.37645e-05
2.42482e-05
1.98656e-05
1.8549e-05
1.87746e-05
1.99104e-05
2.12633e-05
2.27089e-05
2.43367e-05
2.61139e-05
2.9752e-05
3.19248e-05
1.45397e-08
2.90248e-09
9.85748e-10
1.42386e-09
1.46493e-09
1.8209e-09
1.93042e-09
1.95781e-09
0
7.67034e-10
0.00103425
0.000498232
0.000324321
0.000290867
0.000290979
0.000298193
0.000306938
0.000314892
0.000335537
0.000323089
9.86496e-09
7.61714e-10
2.04991e-09
1.85948e-09
1.53463e-09
9.85748e-10
5.26479e-10
1.9827e-09
2.80042e-10
1.1774e-09
0.000126174
8.90179e-05
0.000128694
0.000163941
0.000185715
0.000199044
0.000209119
0.000213243
0.000234802
0.000224348
0.00372993
5.17074e-06
0.000169522
0.000282485
0.00036687
0.000431773
0.000482735
0.000523785
0.000551669
0.000602806
1.0321e-05
1.70399e-05
1.13996e-05
6.78724e-06
3.29651e-06
5.2025e-07
1.92526e-06
4.36324e-06
7.03046e-06
9.17841e-06
0.000216344
3.15144e-05
9.49953e-05
0.000107731
0.000112219
0.000113068
0.0001129
0.000113086
0.000116407
0.000115252
3.85803e-07
2.36065e-08
2.13823e-09
1.33831e-08
2.39788e-08
3.26463e-08
3.89846e-08
4.60866e-08
5.55941e-08
6.93399e-08
8.68569e-06
7.30784e-06
7.6799e-06
7.80599e-06
7.88354e-06
7.97965e-06
8.1481e-06
8.41859e-06
9.28916e-06
1.05056e-05
7.86869e-06
7.17798e-06
7.04953e-06
7.08006e-06
7.13725e-06
7.20583e-06
7.33149e-06
7.55366e-06
8.55949e-06
1.01307e-05
1.14998e-08
1.46367e-09
7.12745e-10
8.27293e-10
9.29114e-10
5.85469e-10
1.01821e-09
3.691e-10
1.52731e-10
2.66007e-09
0.000236534
0.0002114
0.00018406
0.000178217
0.000177474
0.00017788
0.000178724
0.000179692
0.000186979
0.000185969
2.88592e-10
7.91424e-10
9.05973e-10
1.03093e-09
1.53078e-09
6.45636e-10
9.68454e-10
1.083e-09
1.56202e-10
2.73875e-09
0.000678931
0.000787283
0.000850592
0.000890828
0.000912894
0.000924078
0.000929567
0.000930332
0.000941166
0.000898316
1.29195
0.939214
1.1157
1.83697
1.19921
1.03821
1.19187
1.75823
0.997408
0.914206
1.07493
1.65341
0.439078
0.43989
0.538274
0.876626
0.0197845
0.0633225
0.112497
0.237928
0.290192
0.231191
0.253287
0.36857
0.467326
0.388109
0.486414
0.808926
0.546376
0.452119
0.623568
1.10839
0.525343
0.439115
0.653548
1.20904
0.461823
0.395378
0.641227
1.2118
0.0866185
0.00401231
4.84735e-06
0.0372384
0.129516
0.0102982
3.22548e-06
0.0605886
0.150201
0.0166189
1.02685e-06
0.0765386
0.0788733
0.0115436
4.32428e-07
0.0453106
0.00568275
0.00116349
1.41546e-07
0.0120526
0.0953834
0.0127109
6.07281e-09
0.021659
0.166346
0.02456
5.59939e-08
0.0527277
0.215254
0.0343102
1.00763e-07
0.0799975
0.232434
0.0421818
0.00573845
0.096046
0.229722
0.0582199
0.0256835
0.100729
0.0402841
0.0289798
0.0282791
0.0371664
0.0582277
0.0384039
0.0363178
0.0549551
0.0728713
0.0477709
0.0486175
0.0789806
0.0343021
0.0238846
0.0273127
0.0492496
0.0134751
0.00187729
0.00294561
0.0124208
0.0677386
0.0286779
0.0245065
0.0346135
0.113264
0.0487425
0.0466129
0.0769763
0.147326
0.06238
0.0632808
0.113048
0.161007
0.0640479
0.0689427
0.131438
0.161372
0.0624007
0.0720995
0.136774
0.00397628
0.00262578
0.00236099
0.00325653
0.00757591
0.0050413
0.00455226
0.00730329
0.0127826
0.00910653
0.00898875
0.0145939
0.00512846
0.00482541
0.00590967
0.0103467
0.00864378
0.00272796
0.000496336
0.00196395
0.0289797
0.0136914
0.0110726
0.0126195
0.0497497
0.0241174
0.0219481
0.0284078
0.0690302
0.0335244
0.0326331
0.0448635
0.0788773
0.0361744
0.0380285
0.0550477
0.0818357
0.0376617
0.0437991
0.0622325
0.00089406
0.000775888
0.000784573
0.00103561
0.0018262
0.00179186
0.00210012
0.00310497
0.00329853
0.00365604
0.00455027
0.00675336
4.70723e-05
0.00115318
0.00227727
0.00407833
0.00565306
0.00278668
0.00121879
8.23255e-05
0.0146254
0.0088971
0.0069953
0.00686418
0.0244537
0.0150025
0.0130291
0.0142848
0.0349092
0.0212017
0.0196214
0.0226598
0.0417208
0.0240241
0.02409
0.0286375
0.0461803
0.0271648
0.0301894
0.0348038
4.56201e-05
5.28102e-05
6.39775e-05
0.000108858
0.000149203
0.00027591
0.000442287
0.000755307
0.000665719
0.00108585
0.00167629
0.00263418
0.000936842
0.000136156
0.00058231
0.00143305
0.00338748
0.00204117
0.00112488
0.000389684
0.00748979
0.00527954
0.00421338
0.00388915
0.012052
0.00866757
0.00750177
0.00762345
0.0175388
0.0125528
0.0114622
0.0121957
0.0218277
0.0149457
0.0146897
0.015801
0.0247329
0.0171711
0.0185608
0.0193303
3.55811e-05
1.24601e-05
3.80486e-06
5.87468e-06
0.000174467
5.84836e-05
1.7557e-05
0.000108559
4.42819e-05
0.000317092
0.000640134
0.00111095
0.000861556
0.000374299
4.31577e-05
0.000486523
0.00210987
0.001392
0.000860544
0.000426995
0.00423408
0.00322021
0.00262515
0.00236161
0.00646284
0.00511555
0.00448207
0.00439032
0.00943544
0.00752943
0.00691172
0.00709543
0.0119215
0.00928274
0.00906628
0.00929848
0.0134757
0.0106849
0.0112636
0.011242
2.49179e-06
9.66634e-07
9.56887e-07
9.3891e-07
0.000153802
7.39112e-05
4.64452e-05
3.799e-05
8.0584e-05
6.7487e-05
0.000217024
0.000428855
0.000595561
0.000313045
9.21156e-05
0.000126053
0.0012714
0.000865531
0.000568883
0.00032988
0.00248879
0.00193854
0.00159986
0.00143232
0.00366127
0.00301848
0.00266659
0.00256535
0.0053857
0.00454349
0.00419803
0.00423867
0.00654708
0.00554059
0.00538211
0.0053964
0.00745462
0.00651718
0.00673805
0.00661932
2.0721e-06
7.75391e-07
7.02983e-07
6.96099e-07
7.41576e-05
2.06101e-05
1.16927e-05
2.50573e-05
6.82091e-05
5.47115e-06
6.64632e-05
0.000157498
0.00036054
0.000201833
9.00529e-05
1.3287e-05
0.000725643
0.000499276
0.000339008
0.000213062
0.0014523
0.00113869
0.000944326
0.000847215
0.00208181
0.00174847
0.00154751
0.00147254
0.00314073
0.00272269
0.00252064
0.00252505
0.00356071
0.00317456
0.00306012
0.00303661
0.00418453
0.00390618
0.00397403
0.0038807
4.83956e-07
1.44147e-07
1.93416e-07
2.1275e-07
6.15719e-06
1.54566e-07
2.63445e-07
4.38164e-07
3.29721e-05
1.902e-06
1.54516e-05
4.9651e-05
0.00019551
0.000109569
5.60942e-05
9.78303e-06
0.000386827
0.000263779
0.000181153
0.000118041
0.000819777
0.000639141
0.00052953
0.000476724
0.00113433
0.000961421
0.000848556
0.000798874
0.00180276
0.00157983
0.00145999
0.00145822
0.001914
0.00175594
0.00167858
0.00165576
0.00234765
0.00227699
0.00228653
0.00222515
2.33158e-06
1.3582e-07
3.17987e-08
2.3981e-07
4.23273e-07
3.84376e-08
1.25288e-08
1.666e-08
8.2963e-06
5.19128e-08
5.71423e-08
7.25806e-06
9.3755e-05
4.98289e-05
2.61613e-05
6.98848e-06
0.000190774
0.000126025
8.56287e-05
5.5615e-05
0.000448793
0.00034347
0.000282509
0.000255003
0.000583889
0.000496206
0.000434982
0.000403378
0.00101428
0.000886159
0.000815253
0.000814609
0.00099544
0.000923545
0.000874594
0.000856988
0.00129144
0.00127602
0.00126926
0.0012293
2.06595e-06
1.23511e-06
1.03485e-06
8.61248e-07
3.12434e-07
1.10775e-10
8.48222e-09
3.13215e-08
1.10294e-07
1.05483e-07
8.70756e-08
2.4638e-08
3.73403e-05
1.72607e-05
8.11883e-06
9.63392e-07
8.34931e-05
5.16087e-05
3.34093e-05
1.98419e-05
0.000235161
0.00017412
0.000140745
0.000126414
0.000274285
0.000233222
0.000201919
0.000182052
0.000556137
0.000478048
0.000436409
0.000437246
0.000478821
0.000443914
0.000415237
0.00040215
0.000680967
0.000676402
0.000668602
0.000641859
1.71625e-05
5.56987e-06
5.44693e-06
6.018e-06
9.43567e-07
4.98882e-07
5.59361e-07
7.1795e-07
1.18116e-07
1.49704e-08
3.2789e-08
1.0595e-07
1.0435e-05
3.33298e-06
8.60407e-07
1.1028e-06
3.02107e-05
1.63224e-05
9.1549e-06
3.28027e-06
0.000114787
8.07328e-05
6.28637e-05