/*--------------------------------*- C++ -*----------------------------------*\
| =========                 |                                                 |
| \\      /  F ield         | foam-extend: Open Source CFD                    |
|  \\    /   O peration     | Version:     4.0                                |
|   \\  /    A nd           | Web:         http://www.foam-extend.org         |
|    \\/     M anipulation  |                                                 |
\*---------------------------------------------------------------------------*/
FoamFile
{
    version     2.0;
    format      ascii;
    class       volScalarField;
    location    "1650";
    object      epsilon;
}
// * * * * * * * * * * * * * * * * * * * * * * * * * * * * * * * * * * * * * //

dimensions      [0 2 -3 0 0 0 0];

internalField   nonuniform List<scalar> 
34480
(
4930.4
4928.37
4928.26
4929.76
4932.98
4938.13
4950.76
5004.44
5194.37
5725.81
655.669
602.312
601.384
653.369
838.958
1576.39
5100.24
22852.2
103719
382417
619.072
523.4
509.75
569.405
810.263
1829.56
7042.36
35120
172533
699210
524.993
439.592
427.56
485.285
734.067
1883.82
8220.13
44413.4
232212
1.0109e+06
456.747
384.887
377.463
433.253
685.015
1927.93
9179
52593.8
289182
1.33352e+06
392.523
332.866
326.646
378.538
628.501
1956.62
10122.6
61050
350640
1.69861e+06
353.25
302.782
298.397
346.435
591.559
1963.06
10727
67204.4
400359
2.02265e+06
321.346
282.105
277.711
317.513
534.244
1820.71
10351.4
66987.8
412657
2.16752e+06
460.042
435.97
433.365
458.777
597.124
1410.27
6841.63
43699.3
275998
1.4985e+06
5709.06
5709.26
5714.68
5726.63
5743.44
5763.51
5787.71
5823.66
5890.08
5958.76
4855.83
4853.32
4852.83
4854.32
4858.32
4865.32
4876.45
4902.58
4965.26
5185.92
512.235
479.315
473.668
487.792
532.215
648.705
1003.15
2355.11
11804.2
103674
447.27
384.179
370.473
389.883
458.7
646.03
1230.08
3567.79
21360.2
197654
399.79
338.848
325.39
345.107
416.603
620.416
1294.87
4290.28
30236.2
294753
365.942
311.22
300.689
319.91
390.89
599.099
1322.19
4813.08
38720.1
396497
326.37
279.004
269.204
286.501
352.305
554.266
1294.42
5181.42
47354.6
508571
302.533
260.856
252.685
267.955
328.964
521.526
1256.38
5362.02
54224.4
607829
283.097
249.963
242.291
253.913
301.574
456.676
1074.78
4828.82
55001.8
652052
432.84
410.959
405.859
413.323
443.447
531.703
848.202
2981.18
36407.5
467591
5591.61
5587.26
5587.76
5594.38
5606.05
5620.63
5639.98
5672.99
5740.65
5913.57
4770.71
4768.31
4767.56
4768.38
4771
4775.13
4779.93
4790.74
4814.82
4869.92
399.986
386.506
383.835
388.595
403.737
439.13
527.232
758.801
1517.37
5761.18
308.296
277.051
270.21
279.388
309.808
379.444
550.6
1030.42
2860.1
14991.3
290.382
256.557
248.882
259.463
294.633
378.58
597.427
1280.1
4409.78
28921.1
280.924
247.971
241.526
252.489
289.614
380.433
629.221
1481.69
6141.3
47810.8
261.362
231.118
224.632
235.037
270.748
361.744
625.389
1626.01
8152.37
73157.3
250.542
222.533
216.946
226.442
260.542
349.226
617.3
1724.92
10167.7
101609
243.061
220.102
214.692
222.32
249.661
322.203
550.015
1594.8
11046.4
122917
402.711
386.374
382.626
388.275
408.708
461.635
607.168
1235.77
7683.6
92120.4
5481.95
5474.84
5472.52
5476.09
5484.88
5496.86
5513.36
5544.12
5616.59
5802
4674.7
4673.21
4672.78
4673.42
4675.21
4677.48
4678.47
4681.28
4688.69
4704.82
328.508
324.362
323.537
324.633
328.72
339.096
365.133
421.687
541.352
940.835
219.411
206.148
203.295
207.336
220.73
249.026
309.172
445.344
772.28
2086.37
214.514
197.793
193.859
199.382
217.343
256.844
345.65
565.661
1169.67
4141.9
217.614
199.58
195.995
202.198
222.809
269.37
379.635
676.127
1611.4
7155.36
210.728
192.789
188.754
195.148
216.383
266.479
392.187
761.845
2118.05
11600.4
208.504
190.73
187.088
193.243
214.645
266.189
401.141
827.579
2634.11
17125.6
209.971
194.701
190.98
196.275
214.349
258.91
379.84
795.369
2861.68
21855
375.679
363.698
360.866
365.058
380.022
417.013
508.783
782.8
2181.79
16550.7
5359.98
5352.88
5350.31
5353.36
5361.62
5373.99
5391.11
5421.96
5488.76
5631.97
4569.32
4568.65
4568.51
4568.9
4569.87
4570.55
4569.23
4568.1
4568.04
4569.81
285.528
284.767
284.663
284.434
284.435
286.196
293.445
307.42
329.767
376.067
167.963
162.94
161.897
163.315
168.347
178.568
198.351
237.483
308.162
484.339
166.516
158.792
156.832
159.329
167.585
184.823
219.626
294.271
443.171
889.791
173.942
164.637
162.706
165.798
176.249
198.594
246.089
356.541
601.474
1497.94
173.625
163.438
160.948
164.495
176.234
202.47
261.509
411.001
783.984
2434.95
176.088
165.193
162.823
166.45
179.087
207.899
275.397
457.661
966.69
3640.92
183.343
173.468
170.9
174.281
185.61
212.185
276.708
463.676
1058.91
4747.35
351.352
342.753
340.571
343.46
354.003
379.272
438.206
581.603
1009.69
3815.41
5230.32
5223.38
5220.65
5223.22
5230.83
5242.9
5259.55
5287.93
5343.6
5445.94
4455.52
4455.48
4455.56
4455.78
4456.14
4455.78
4453.76
4451.67
4449.89
4448.82
259.805
259.868
259.945
259.429
258.443
258.073
259.97
263.324
268.059
275.349
139.477
137.829
137.56
137.943
139.557
142.8
148.702
159.213
175.203
203.081
137.566
134.187
133.263
134.308
137.859
144.927
157.868
182.397
222.522
303.01
145.062
140.533
139.584
141.012
145.983
156.038
175.354
215.215
286.362
458.018
147.366
141.85
140.398
142.263
148.424
161.457
187.893
247.327
364.093
701.784
151.777
145.382
143.935
145.962
153.092
168.461
200.832
278.356
444.235
1014.1
162.262
156.164
154.489
156.569
163.398
178.665
212.153
297.51
500.54
1320.73
329.478
323.583
321.976
323.928
331.27
348.564
387.077
467.654
640.071
1290.83
5092.37
5085.83
5083.12
5085.32
5092.23
5103.5
5118.98
5143.89
5186.94
5254.19
4334.03
4334.4
4334.64
4334.73
4334.71
4333.73
4331.86
4329.85
4328.03
4326.69
243.804
243.737
243.756
243.286
242.365
241.942
242.305
243.036
244.14
245.95
124.004
123.59
123.597
123.635
124.02
124.868
126.411
128.992
132.509
137.21
120.683
119.25
118.827
119.24
120.713
123.534
128.286
136.281
147.564
163.751
126.675
124.576
124.154
124.766
127.02
131.36
138.979
152.963
174.393
210.552
129.509
126.634
125.824
126.758
129.866
136.126
147.676
170.726
209.305
285.804
134.269
130.644
129.807
130.879
134.754
142.694
157.852
190.07
247.876
381.558
146.162
142.563
141.521
142.748
146.711
155.224
172.363
210.961
287.009
489.953
310.15
306.301
305.142
306.435
311.517
323.521
349.163
396.365
480.046
667.622
4945.91
4939.97
4937.42
4939.28
4945.4
4955.43
4969.17
4990.16
5022.61
5066.45
4205.35
4205.98
4206.31
4206.33
4206.08
4204.99
4203.49
4201.9
4200.47
4199.39
232.921
232.473
232.362
232.017
231.434
231.262
231.28
231.43
231.818
232.811
115.611
115.589
115.668
115.618
115.625
115.737
116.009
116.513
117.199
117.991
111.062
110.46
110.267
110.426
111.032
112.164
113.954
116.668
120.081
123.801
115.297
114.372
114.21
114.453
115.44
117.266
120.26
125.198
131.937
140.366
117.754
116.31
115.876
116.327
117.851
120.803
125.86
134.864
148.253
167.559
122.082
120.091
119.632
120.172
122.224
126.255
133.364
146.791
167.958
202.427
134.223
132.207
131.59
132.29
134.515
139.161
147.953
165.518
195.898
252.206
293.175
290.812
289.981
290.837
294.392
302.976
320.377
349.032
394.164
462.672
4790.77
4785.59
4783.3
4784.86
4790.11
4798.62
4810.3
4827.29
4851.15
4880.07
4069.83
4070.59
4070.97
4070.95
4070.57
4069.69
4068.59
4067.43
4066.4
4065.61
224.512
223.7
223.457
223.229
222.993
222.941
222.921
222.985
223.27
224.163
111.012
111.075
111.151
111.094
111.02
110.946
110.894
110.896
110.957
111.063
105.709
105.448
105.357
105.418
105.673
106.144
106.853
107.842
108.981
109.981
108.447
108.062
108.015
108.103
108.523
109.279
110.462
112.25
114.489
116.709
110.261
109.562
109.338
109.55
110.281
111.656
113.895
117.517
122.469
128.098
113.877
112.81
112.573
112.833
113.901
115.932
119.316
125.075
133.312
143.389
125.597
124.538
124.194
124.582
125.794
128.289
132.829
140.987
153.834
171.863
278.206
276.882
276.273
276.855
279.414
285.786
297.78
315.734
341.561
371.352
4626.94
4622.61
4620.66
4621.94
4626.27
4633.16
4642.68
4655.89
4672.98
4691.96
3927.86
3928.52
3928.93
3928.88
3928.53
3927.91
3927.14
3926.34
3925.64
3925.07
216.934
216.039
215.683
215.544
215.49
215.469
215.47
215.547
215.844
216.735
108.395
108.458
108.51
108.469
108.397
108.303
108.204
108.121
108.076
108.079
102.813
102.69
102.642
102.667
102.783
102.992
103.297
103.693
104.12
104.436
104.449
104.296
104.292
104.321
104.498
104.811
105.285
105.954
106.733
107.392
105.647
105.322
105.211
105.308
105.653
106.286
107.284
108.783
110.717
112.637
108.535
107.972
107.856
107.978
108.531
109.559
111.202
113.767
117.17
120.573
119.49
118.983
118.804
119.017
119.66
120.987
123.33
127.189
132.836
139.53
264.8
264.172
263.701
264.123
266.052
270.926
279.281
290.812
306.175
320.331
4454.55
4451.1
4449.51
4450.53
4453.96
4459.3
4466.75
4476.64
4488.53
4500.78
3779.56
3780.08
3780.41
3780.38
3780.15
3779.73
3779.22
3778.69
3778.23
3777.8
209.487
208.607
208.266
208.158
208.124
208.12
208.141
208.236
208.548
209.436
106.794
106.837
106.871
106.842
106.789
106.716
106.638
106.568
106.531
106.537
101.297
101.23
101.202
101.214
101.271
101.374
101.519
101.699
101.884
102.001
102.197
102.135
102.141
102.149
102.227
102.364
102.566
102.833
103.12
103.34
102.915
102.77
102.717
102.761
102.921
103.211
103.656
104.288
105.069
105.815
105.177
104.879
104.824
104.883
105.175
105.706
106.525
107.718
109.196
110.499
115.213
115.007
114.924
115.041
115.376
116.08
117.272
119.107
121.61
124.396
252.473
252.294
251.901
252.233
253.778
257.534
263.375
270.895
280.303
287.116
4273.88
4271.27
4270.05
4270.82
4273.41
4277.39
4282.99
4290.12
4298.16
4305.91
3625.06
3625.48
3625.73
3625.72
3625.58
3625.31
3624.98
3624.63
3624.33
3624
201.828
200.974
200.662
200.568
200.542
200.547
200.578
200.679
200.994
201.865
105.698
105.722
105.74
105.722
105.687
105.64
105.59
105.547
105.534
105.553
100.531
100.49
100.474
100.48
100.51
100.565
100.64
100.731
100.824
100.875
100.978
100.948
100.952
100.954
100.994
101.064
101.163
101.286
101.406
101.495
101.367
101.305
101.28
101.301
101.375
101.507
101.706
101.976
102.298
102.621
103.14
102.975
102.95
102.982
103.143
103.431
103.858
104.445
105.124
105.683
112.202
112.148
112.118
112.184
112.359
112.726
113.315
114.176
115.252
116.508
240.761
240.859
240.498
240.785
242.103
244.914
248.975
253.904
259.79
262.839
4085.37
4083.5
4082.63
4083.19
4085.02
4087.9
4091.94
4096.89
4102.16
4106.97
3464.56
3464.91
3465.11
3465.11
3465.02
3464.85
3464.64
3464.42
3464.23
3463.95
193.774
192.954
192.671
192.588
192.567
192.573
192.605
192.703
193.011
193.855
104.847
104.856
104.864
104.853
104.832
104.805
104.777
104.756
104.76
104.789
100.159
100.134
100.125
100.128
100.145
100.173
100.213
100.261
100.313
100.339
100.35
100.328
100.327
100.329
100.354
100.398
100.459
100.53
100.593
100.641
100.534
100.508
100.496
100.506
100.541
100.602
100.691
100.808
100.943
101.1
101.943
101.845
101.832
101.853
101.95
102.118
102.355
102.668
103.005
103.283
110.017
110.034
110.031
110.071
110.165
110.347
110.621
111.007
111.423
112.03
229.236
229.502
229.145
229.411
230.551
232.522
235.306
238.521
242.249
243.285
3889.57
3888.31
3887.74
3888.12
3889.35
3891.39
3894.19
3897.48
3900.82
3903.74
3298.37
3298.66
3298.82
3298.82
3298.77
3298.67
3298.53
3298.39
3298.27
3298.03
185.218
184.437
184.182
184.109
184.089
184.095
184.123
184.213
184.506
185.316
104.114
104.113
104.114
104.107
104.096
104.083
104.07
104.063
104.079
104.114
99.99
99.9752
99.9712
99.9728
99.9803
99.9934
100.012
100.036
100.066
100.081
100.045
100.026
100.02
100.022
100.041
100.074
100.119
100.169
100.211
100.246
100.113
100.102
100.096
100.101
100.118
100.147
100.188
100.24
100.297
100.383
101.254
101.189
101.182
101.198
101.262
101.368
101.512
101.694
101.88
102.046
108.329
108.383
108.393
108.419
108.468
108.55
108.662
108.816
108.927
109.248
217.35
217.864
217.538
217.798
218.61
219.957
221.82
223.887
226.25
226.206
3687.25
3686.4
3686.05
3686.29
3687.12
3688.5
3690.36
3692.46
3694.47
3696.22
3126.88
3127.13
3127.24
3127.25
3127.23
3127.16
3127.08
3126.99
3126.9
3126.69
176.076
175.34
175.111
175.05
175.031
175.033
175.056
175.133
175.409
176.181
103.438
103.433
103.429
103.425
103.42
103.415
103.413
103.414
103.437
103.475
99.9219
99.915
99.9145
99.915
99.9168
99.9202
99.9261
99.9354
99.9518
99.9621
99.9118
99.8938
99.8859
99.8875
99.9024
99.929
99.9638
100.002
100.035
100.063
99.9193
99.913
99.9092
99.9116
99.9206
99.9357
99.9559
99.9805
100.006
100.057
100.855
100.808
100.803
100.816
100.862
100.933
101.027
101.143
101.256
101.375
106.921
106.989
107.009
107.025
107.046
107.077
107.109
107.155
107.13
107.322
204.867
205.52
205.322
205.504
206.047
206.933
208.131
209.429
210.905
210.312
3479.16
3478.61
3478.39
3478.55
3479.09
3479.98
3481.15
3482.41
3483.57
3484.59
2950.62
2950.83
2950.91
2950.92
2950.92
2950.88
2950.82
2950.77
2950.71
2950.51
166.27
165.58
165.38
165.331
165.312
165.312
165.327
165.391
165.645
166.377
102.797
102.789
102.783
102.78
102.779
102.78
102.783
102.79
102.815
102.856
99.9053
99.9034
99.9049
99.9046
99.9032
99.9011
99.8995
99.9005
99.9085
99.9175
99.8654
99.8492
99.8409
99.8419
99.8534
99.8739
99.9007
99.9299
99.956
99.9791
99.8452
99.8401
99.837
99.8381
99.8434
99.8521
99.8631
99.8759
99.8878
99.9206
100.608
100.573
100.568
100.58
100.612
100.662
100.726
100.803
100.878
100.971
105.657
105.722
105.745
105.756
105.764
105.771
105.768
105.767
105.689
105.819
191.617
192.32
192.224
192.347
192.69
193.238
193.96
194.745
195.629
194.808
3266.18
3265.85
3265.72
3265.82
3266.15
3266.69
3267.38
3268.09
3268.7
3269.29
2770.33
2770.5
2770.56
2770.57
2770.57
2770.55
2770.51
2770.47
2770.42
2770.24
155.701
155.063
154.892
154.856
154.84
154.838
154.847
154.896
155.123
155.813
102.185
102.174
102.167
102.165
102.166
102.17
102.176
102.186
102.211
102.254
99.9144
99.9147
99.9167
99.9161
99.9133
99.9088
99.9041
99.9012
99.9043
99.9138
99.8618
99.8482
99.8408
99.8412
99.8493
99.8639
99.8831
99.9042
99.924
99.9429
99.8327
99.828
99.8254
99.8257
99.8288
99.834
99.8403
99.8474
99.8534
99.8743
100.432
100.405
100.4
100.408
100.431
100.465
100.508
100.559
100.609
100.685
104.458
104.51
104.532
104.54
104.542
104.539
104.524
104.507
104.417
104.517
177.455
178.138
178.122
178.2
178.396
178.698
179.079
179.523
179.997
179.155
3049.39
3049.21
3049.14
3049.2
3049.38
3049.68
3050.06
3050.42
3050.71
3051.03
2586.98
2587.13
2587.17
2587.18
2587.18
2587.17
2587.14
2587.11
2587.07
2586.91
144.237
143.66
143.52
143.495
143.49
143.488
143.49
143.523
143.712
144.357
101.609
101.596
101.589
101.587
101.589
101.594
101.601
101.612
101.633
101.677
99.9333
99.9332
99.9346
99.9337
99.9309
99.9266
99.9219
99.9184
99.9192
99.9298
99.8791
99.8687
99.8631
99.863
99.868
99.8773
99.8896
99.9036
99.9175
99.9321
99.8525
99.8487
99.8466
99.8464
99.8479
99.8506
99.8538
99.8571
99.86
99.8721
100.274
100.255
100.25
100.255
100.269
100.291
100.317
100.347
100.379
100.438
103.291
103.327
103.345
103.35
103.349
103.343
103.325
103.304
103.225
103.304
162.223
162.83
162.878
162.925
163.012
163.133
163.263
163.471
163.646
162.922
2830.1
2830.01
2829.97
2830
2830.09
2830.24
2830.42
2830.58
2830.69
2830.85
2401.73
2401.84
2401.87
2401.88
2401.88
2401.87
2401.86
2401.84
2401.8
2401.68
131.651
131.158
131.067
131.056
131.055
131.051
131.047
131.061
131.193
131.772
101.088
101.072
101.065
101.063
101.065
101.069
101.076
101.086
101.102
101.142
99.95
99.9481
99.9483
99.9473
99.9453
99.9426
99.9396
99.9375
99.938
99.9486
99.9089
99.902
99.8984
99.8981
99.9008
99.9059
99.9128
99.9209
99.9296
99.9397
99.8903
99.888
99.8866
99.8863
99.8867
99.8875
99.8883
99.8891
99.8899
99.8953
100.12
100.107
100.104
100.106
100.114
100.124
100.137
100.152
100.17
100.209
102.169
102.188
102.198
102.2
102.196
102.187
102.17
102.151
102.097
102.156
145.463
145.939
145.973
146.009
146.069
146.149
146.231
146.291
146.224
145.705
2609.72
2609.67
2609.66
2609.68
2609.7
2609.75
2609.8
2609.85
2609.88
2609.95
2215.03
2215.09
2215.1
2215.1
2215.1
2215.1
2215.1
2215.09
2215.09
2215.03
117.392
117.054
117.023
117.028
117.03
117.025
117.015
117.008
117.053
117.481
100.626
100.61
100.602
100.599
100.599
100.603
100.609
100.618
100.631
100.662
99.9662
99.9638
99.9632
99.9625
99.9616
99.9605
99.9594
99.9589
99.9596
99.9668
99.951
99.9473
99.9454
99.9452
99.9465
99.9489
99.9521
99.956
99.9605
99.966
99.9407
99.9397
99.9391
99.9388
99.9387
99.9385
99.9383
99.9378
99.9375
99.9388
100.01
100.004
100.003
100.003
100.006
100.01
100.015
100.02
100.027
100.046
101.124
101.127
101.129
101.127
101.122
101.112
101.1
101.087
101.068
101.11
125.769
126.051
126.069
126.089
126.122
126.164
126.207
126.231
126.181
125.841
2388.99
2388.97
2388.97
2388.97
2388.98
2388.98
2388.98
2388.97
2388.95
2389
7183.77
7294.03
7250.3
7043.91
658877
683791
689344
697254
1.49716e+06
1.5838e+06
1.59128e+06
1.57142e+06
2.52486e+06
2.70303e+06
2.70044e+06
2.61893e+06
3.76043e+06
4.05538e+06
4.02896e+06
3.86733e+06
5.30739e+06
5.75047e+06
5.69889e+06
5.48597e+06
6.86768e+06
7.46634e+06
7.40252e+06
7.20564e+06
7.88193e+06
8.60952e+06
8.55488e+06
8.42657e+06
5.61928e+06
6.17854e+06
6.1146e+06
6.08055e+06
7903.3
8151.02
7988.69
7569.58
5749.18
5801.93
5804.44
5765.32
308545
324629
345295
377293
689237
780708
824750
861649
1.1778e+06
1.40259e+06
1.46577e+06
1.4917e+06
1.76333e+06
2.17717e+06
2.25102e+06
2.26446e+06
2.45853e+06
3.11182e+06
3.21109e+06
3.24702e+06
3.13136e+06
4.03946e+06
4.20033e+06
4.31914e+06
3.57285e+06
4.70308e+06
4.94451e+06
5.1793e+06
2.80652e+06
3.8179e+06
4.00675e+06
4.31978e+06
7126.26
7357.85
7286.94
7066.53
4937.71
4948.65
4947.78
4938.06
21660.7
25956.3
24592.3
19963.6
61561.2
73392.1
68659.5
55716.4
128727
152801
140847
113998
228326
270476
246206
199380
372336
441851
401307
326331
545278
648434
591516
485305
702757
839279
769479
636732
584453
696800
629322
524594
6344.23
6431.53
6409.2
6313.85
4715.79
4717.91
4718.46
4717.65
1594.45
1711.14
1679.58
1544.78
4697.64
5171.16
5011.03
4433.27
11228.7
12501.7
11922.6
10210.3
22551.2
25247.9
23692.9
19739.7
41687.2
46915.2
43519
35528
68291.2
76975.8
70785.3
57116.7
97160
109905
100433
80415.3
83365.1
93764.7
84196.7
67258.5
5903.9
5945.6
5942.71
5904.78
4567.8
4568.71
4568.92
4568.38
423.331
436.219
438.445
431.53
710.063
756.911
761.371
731.186
1594.78
1736.4
1728.8
1609.79
3203.13
3528.55
3457.63
3117.74
6139.53
6822.41
6581.92
5756.95
10497.8
11692.7
11107.8
9470.95
15692.6
17555.3
16462.8
13722.9
13862.2
15398.2
14114.2
11585.7
5578.62
5600.65
5602.14
5586.53
4444.77
4445.52
4445.6
4444.97
275.615
278.476
279.179
277.917
226.366
231.45
233.266
232.221
385.555
403.023
407.242
400.464
673.983
717.763
721.989
695.982
1215.09
1316.38
1312.5
1233.35
2023.63
2211.39
2175.64
1991.23
3047.2
3360.68
3262.05
2904.51
2929.48
3183.76
3023.76
2664.29
5318.1
5328.88
5331.02
5325.46
4322.45
4323.17
4323.23
4322.59
241.795
243.696
244.092
243.032
140.142
140.892
141.241
141.225
175.865
178.56
179.683
179.425
243.193
250.217
252.449
250.744
368.971
386.597
390.323
383.175
549.247
582.718
585.358
565.828
795.627
855.112
852.263
807.231
984.852
1029.92
1010.43
962.631
5095.73
5100.61
5102.46
5101.21
4195.36
4196.06
4196.11
4195.51
228.109
229.825
230.162
229.151
118.194
118.33
118.383
118.359
125.855
126.303
126.527
126.553
146.03
147.26
147.804
147.782
183.412
186.927
188.195
187.633
233.805
240.367
242.126
240.338
314.664
327.252
329.198
323.637
543.104
548.785
546.272
542.573
4893.63
4895.64
4896.93
4897.12
4061.84
4062.49
4062.55
4061.99
219.502
221.155
221.483
220.507
110.891
110.947
110.955
110.916
110.348
110.421
110.458
110.466
117.767
117.978
118.089
118.121
131.717
132.53
132.885
132.853
149.89
151.251
151.795
151.755
187.388
190.338
191.189
190.528
400.227
397.261
396.518
399.176
4698.44
4699.13
4699.9
4700.39
3921.56
3922.17
3922.22
3921.7
212.205
213.803
214.124
213.185
107.869
107.917
107.922
107.882
104.485
104.492
104.495
104.495
107.576
107.598
107.613
107.625
113.661
113.884
113.985
113.977
121.969
122.223
122.364
122.442
144.598
145.307
145.573
145.511
335.358
330.282
329.505
332.922
4503.81
4503.91
4504.34
4504.79
3774.56
3775.11
3775.16
3774.69
205.063
206.603
206.915
206.014
106.338
106.386
106.391
106.353
101.989
101.987
101.985
101.984
103.359
103.351
103.348
103.351
106.202
106.282
106.315
106.303
110.771
110.785
110.813
110.867
126.741
126.876
126.93
126.925
297.612
292.104
291.201
294.518
4307.12
4306.98
4307.21
4307.55
3621.03
3621.52
3621.56
3621.14
197.665
199.143
199.444
198.582
105.37
105.417
105.423
105.387
100.853
100.851
100.85
100.849
101.489
101.482
101.477
101.477
102.82
102.86
102.874
102.861
105.719
105.69
105.689
105.72
118.007
117.987
117.97
117.958
271.445
265.991
265.039
268.157
4107.14
4106.96
4107.07
4107.29
3461.26
3461.69
3461.72
3461.35
189.841
191.254
191.543
190.722
104.623
104.667
104.673
104.64
100.318
100.317
100.317
100.316
100.637
100.632
100.629
100.628
101.226
101.252
101.259
101.248
103.291
103.264
103.258
103.274
113.199
113.141
113.102
113.08
250.835
245.586
244.641
247.567
3903.29
3903.16
3903.21
3903.32
3295.63
3295.99
3296.01
3295.69
181.501
182.848
183.126
182.347
103.966
104.006
104.012
103.982
100.065
100.065
100.064
100.064
100.245
100.243
100.241
100.239
100.471
100.49
100.494
100.484
102.073
102.057
102.051
102.058
110.246
110.186
110.141
110.11
233
228.009
227.1
229.848
3695.37
3695.34
3695.36
3695.36
3124.6
3124.89
3124.89
3124.62
172.579
173.858
174.125
173.39
103.348
103.386
103.391
103.364
99.9517
99.9526
99.9528
99.952
100.065
100.064
100.063
100.061
100.121
100.134
100.137
100.129
101.426
101.421
101.417
101.416
108.204
108.156
108.112
108.071
216.476
211.773
210.917
213.491
3483.49
3483.57
3483.58
3483.49
2948.75
2948.97
2948.96
2948.74
163.006
164.216
164.473
163.784
102.757
102.792
102.797
102.771
99.9138
99.9158
99.9161
99.9147
99.9826
99.9826
99.9819
99.9808
99.9656
99.975
99.9763
99.9698
101.041
101.044
101.043
101.037
106.608
106.577
106.537
106.487
200.409
196.026
195.237
197.63
3268.02
3268.21
3268.22
3268.06
2768.85
2769
2768.97
2768.8
152.695
153.841
154.09
153.449
102.19
102.224
102.228
102.204
99.9172
99.9202
99.9206
99.9184
99.9475
99.9481
99.9478
99.9471
99.9043
99.9105
99.9109
99.906
100.762
100.772
100.772
100.762
105.21
105.201
105.168
105.108
184.239
180.231
179.528
181.715
3049.67
3049.95
3049.96
3049.75
2585.93
2586
2585.95
2585.83
141.546
142.637
142.881
142.285
101.648
101.68
101.684
101.661
99.9391
99.9431
99.9435
99.9405
99.9375
99.9384
99.9386
99.9382
99.8896
99.8931
99.8931
99.8898
100.512
100.525
100.526
100.515
103.877
103.892
103.868
103.801
167.537
164.022
163.428
165.349
2829.48
2829.81
2829.83
2829.6
2401.16
2401.14
2401.08
2401.02
129.376
130.427
130.667
130.105
101.14
101.168
101.172
101.15
99.9602
99.9644
99.9648
99.9616
99.9449
99.946
99.9465
99.9464
99.903
99.9044
99.9043
99.9028
100.269
100.281
100.282
100.273
102.554
102.58
102.566
102.506
149.627
146.681
146.24
147.877
2608.75
2609.12
2609.14
2608.89
2215.02
2214.86
2214.81
2214.85
115.753
116.734
116.94
116.407
100.666
100.683
100.684
100.67
99.9742
99.9768
99.9769
99.9749
99.9698
99.9707
99.9712
99.9714
99.9405
99.9407
99.9407
99.9404
100.077
100.084
100.085
100.081
101.287
101.295
101.288
101.263
128.339
126.318
126.082
127.239
2388.21
2388.6
2388.6
2388.34
6105.83
5442.8
5172.98
5076.83
5022
4983.46
4957.84
4943.43
4935.46
4930.72
798385
193259
33400.2
11731.8
5300.88
2836.65
1749.68
1212.85
928.627
765.417
1.42386e+06
246966
44243.5
15126.7
6775.64
3637.18
2200.5
1460.55
1048.44
803.251
1.99505e+06
239410
46753.3
15014.2
6481.88
3390.61
2000.32
1297.44
912.957
688.692
2.45791e+06
252512
48917.8
14556.5
6096.58
3101.43
1791.65
1144.26
795.427
596.717
2.92951e+06
276289
51124.4
13969.7
5636.59
2767.62
1561.05
980.952
677.269
508.241
3.31145e+06
294845
51980.9
13156.9
5156.39
2466.73
1375.21
861.246
595.475
450.329
3.39525e+06
287256
47680.7
10997.3
4162.14
1945.76
1092.57
700.083
502.824
394.742
2.34076e+06
182070
27359.5
5708.8
2274.3
1237.54
857.854
671.54
568.155
506.554
6016.35
5992.98
5847.21
5822.78
5779.37
5755.06
5735.78
5725.52
5718.6
5712.64
5443.13
5174.99
5045.04
4972.46
4926.9
4896.88
4877.42
4865.86
4859.65
4855.73
180235
44893.5
13612.8
5322.54
2635.54
1567.37
1065.33
802.704
656.471
572.509
375604
86389.7
23461.7
8289.15
3888.54
2187.65
1383.89
956.306
710.945
565.945
594868
126203
30691.5
9648.9
4227.18
2261.24
1372.49
915.852
661.654
515.601
830223
164948
36413.8
10414.3
4316.49
2219.47
1310.14
857.539
610.377
472.032
1.10946e+06
207134
41738
10860.6
4245.93
2090.86
1198.45
768.751
542.016
418.46
1.38847e+06
244354
45337.8
10846.9
4054.39
1938.56
1095.34
699.402
493.129
382.898
1.56377e+06
258575
43980.4
9549.76
3394.51
1584.71
900.431
587.644
429.858
345.775
1.18191e+06
178659
26842
5247.91
1966.23
1091.18
771.56
615.165
526.587
476.27
6252.79
5952.87
5792.77
5733.93
5683.06
5652.29
5629.99
5616.39
5606.8
5598.5
4903.77
4868.92
4841.45
4818.64
4800.82
4787.9
4779.29
4774.12
4771.27
4769.23
9199.56
4175.7
2298.69
1432.71
985.426
735.941
591.328
505.096
452.381
420.567
23992.5
9562.18
4648.95
2546.27
1541.83
1010.18
712.707
538.427
431.229
364.897
45422.8
15956.1
6935.72
3410.19
1897.95
1158.89
771.501
555.718
428.592
352.826
73565.8
22893.4
9008.72
4054.99
2119.26
1232.14
791.708
556.628
421.543
343.311
112010
31030.4
11037.5
4547.3
2234.79
1236.77
767.056
526.223
393.486
318.983
155992
38855.6
12574
4793.91
2251.19
1205.69
734.594
500.491
373.414
303.506
191441
42857.3
12518.2
4384.56
1974.4
1036.46
636.121
442.981
341.72
286.153
141627
27747.4
7302.55
2546.8
1307.61
842.85
642.673
536.559
472.999
436.279
6018.24
5835.8
5711.2
5637.35
5584.26
5551.14
5528.12
5512.45
5500.86
5490.89
4712.74
4704.37
4695.19
4686.95
4680.7
4676.44
4673.79
4672.44
4672.11
4671.74
1208.04
906.46
708.822
570.453
479.272
420.811
383.25
358.554
341.872
331.593
3028.03
1918.97
1270.03
860.561
612.305
460.936
367.206
307.668
268.244
242.394
6218.86
3479.92
2056.82
1251.85
812.75
564.659
420.252
333.168
278.383
244.045
10743
5349.24
2877.43
1610.19
978.687
644.212
460.236
354.601
289.929
250.481
17340.4
7664.38
3760.66
1938.78
1105.07
689.082
472.605
353.756
284.429
243.621
25213.7
9945.09
4496.07
2165.58
1178.7
709.579
476.33
352.823
281.906
240.925
32094.4
11240
4658.69
2094.91
1100.52
652.674
441.546
332.965
272.769
238.081
23538.5
7365.95
2961.42
1443.25
906.067
663.559
542.616
472.673
427.917
401.44
5788.98
5660.48
5561.75
5497.86
5453.78
5424.91
5404.2
5389.34
5378.13
5368.66
4567.34
4566.11
4564.86
4563.9
4563.32
4563.08
4563.1
4563.47
4564.39
4565.25
412.726
382.955
356.656
334.883
318.468
306.435
297.597
290.978
285.906
282.646
637.622
512.417
411.625
334.457
279.738
241.962
216.097
198.209
185.283
176.235
1286.88
925.764
666.076
486.204
369.813
294.963
246.649
214.963
193.498
179.307
2275.38
1481.26
973.17
652.795
462.824
348.824
279.635
236.711
208.36
189.995
3813.22
2240.46
1346.72
830.588
548.827
390.24
299.425
245.692
212.117
191.241
5702.25
3043.82
1696.18
978.28
614.751
420.788
314.93
254.761
217.664
194.929
7459.11
3599.5
1861.16
1012.34
616.743
417.046
313.372
255.91
221.772
201.005
5661.6
2636.91
1436.14
904.131
665.888
539.39
466.872
421.223
389.982
371.096
5535.61
5459.58
5394.32
5347.94
5314.03
5289.78
5271.52
5257.82
5247.24
5238.43
4444.57
4444.69
4444.98
4445.46
4446.06
4446.7
4447.35
4448.15
4449.37
4450.82
277.893
274.89
271.418
267.996
264.984
262.429
260.281
258.439
256.821
255.509
225.899
210.845
194.936
180.639
169.145
160.385
153.867
148.986
145.063
142.107
373.054
321.753
273.19
233.322
203.633
182.288
167.112
156.26
148.299
142.777
613.051
487.929
382.024
302.896
248.816
212.621
188.49
172.256
160.543
152.466
1012.95
737.653
529.271
386.609
296.654
240.225
204.683
181.852
166.426
156.307
1521.92
1022.64
681.327
465.965
339.93
265.197
220.354
192.764
174.274
162.23
2045.38
1267.03
790.277
514.345
364.953
280.925
232.637
203.523
184.874
172.948
1814.39
1182.43
824.955
628.767
519.836
452.716
409.146
379.537
357.951
344.655
5303.28
5261.65
5221.83
5189.95
5164.53
5144.8
5129.23
5117.07
5107.47
5099.59
4322.33
4322.6
4323.05
4323.66
4324.34
4325.03
4325.68
4326.44
4327.58
4329.04
244.184
244.02
243.673
243.205
242.693
242.161
241.615
241.033
240.394
239.638
140.666
138.595
136.035
133.464
131.206
129.356
127.894
126.713
125.6
124.673
176.539
168.254
158.7
149.714
142.182
136.168
131.453
127.764
124.837
122.741
241.552
220.097
197.592
178.259
163.33
152.239
144.11
138.167
133.44
129.978
355.607
303.664
254.595
215.819
188.014
168.579
155.057
145.576
138.636
133.882
503.85
404.371
318.158
255.383
213.47
185.78
167.41
155.118
146.108
139.894
681.182
513.472
382.603
294.887
240.169
205.658
183.596
169.093
159.108
152.464
826.74
675.271
559.191
481.245
428.768
391.982
365.472
346.216
331.348
322.029
5091.74
5069.88
5046.09
5024.51
5005.82
4990.29
4977.48
4967.14
4958.75
4951.99
4195.26
4195.47
4195.81
4196.27
4196.78
4197.29
4197.76
4198.31
4199.24
4200.51
230.45
230.677
230.781
230.794
230.737
230.613
230.42
230.135
229.734
229.099
118.339
118.07
117.707
117.308
116.941
116.64
116.411
116.215
115.935
115.648
126.155
124.61
122.562
120.395
118.372
116.588
115.057
113.757
112.658
111.865
146.601
142.55
137.543
132.682
128.486
125.044
122.292
120.127
118.222
116.744
183.57
172.791
160.764
149.932
141.166
134.346
129.121
125.147
122.025
119.832
231.595
210.532
188.359
169.906
155.917
145.603
138.054
132.591
128.223
125.055
302.914
264.031
227.295
198.896
178.558
164.173
154.006
146.783
141.493
137.885
515.552
472.656
430.269
396.187
369.369
348.488
332.099
319.495
309.255
302.754
4892.51
4880.76
4866.39
4851.94
4838.53
4826.73
4816.6
4808.14
4801.11
4795.53
4061.75
4061.89
4062.11
4062.41
4062.74
4063.06
4063.33
4063.68
4064.38
4065.44
221.799
222.064
222.213
222.283
222.289
222.232
222.102
221.873
221.508
220.876
110.951
110.94
110.929
110.916
110.913
110.932
110.973
111.009
110.956
110.861
110.388
110.047
109.547
108.958
108.355
107.778
107.244
106.76
106.331
106.026
117.937
117.082
115.878
114.573
113.331
112.226
111.281
110.495
109.721
109.08
132.033
129.437
126.202
122.921
119.963
117.437
115.341
113.637
112.222
111.223
150.441
145.551
139.455
133.704
128.8
124.809
121.632
119.182
117.056
115.441
186.142
175.909