/*--------------------------------*- C++ -*----------------------------------*\
| =========                 |                                                 |
| \\      /  F ield         | foam-extend: Open Source CFD                    |
|  \\    /   O peration     | Version:     4.0                                |
|   \\  /    A nd           | Web:         http://www.foam-extend.org         |
|    \\/     M anipulation  |                                                 |
\*---------------------------------------------------------------------------*/
FoamFile
{
    version     2.0;
    format      ascii;
    class       volScalarField;
    location    "1650";
    object      k;
}
// * * * * * * * * * * * * * * * * * * * * * * * * * * * * * * * * * * * * * //

dimensions      [0 2 -2 0 0 0 0];

internalField   nonuniform List<scalar> 
34480
(
8.76692
8.76452
8.76439
8.76616
8.76997
8.77608
8.79102
8.85447
9.07711
9.68613
9.28254
8.67037
8.5775
8.85712
9.45629
10.3431
11.9417
15.8543
28.7426
67.0357
15.0438
13.5743
13.1282
13.2764
13.8468
14.8797
17.2128
22.908
41.6382
101.409
14.4941
12.9668
12.5168
12.7111
13.4217
14.8363
18.0083
25.4088
49.251
127.777
13.4295
12.0141
11.6633
11.9305
12.7822
14.4925
18.2622
26.9584
55.2716
151.569
12.2196
10.9467
10.6345
10.9165
11.8082
13.7019
17.9439
27.905
61.064
176.654
11.326
10.2063
9.95192
10.227
11.1222
13.0879
17.5904
28.4221
65.5234
198.017
9.83918
9.00326
8.79854
9.01429
9.72681
11.3971
15.4919
26.127
64.5517
205.603
6.88222
6.61374
6.56509
6.67512
7.00458
7.72927
9.73025
16.2752
43.4187
149.684
9.2384
9.23862
9.24447
9.25734
9.27545
9.29705
9.32306
9.36163
9.43267
9.50586
8.67829
8.6753
8.67472
8.67649
8.68126
8.68959
8.70283
8.7339
8.80818
9.06725
7.93228
7.51202
7.41852
7.5762
8.02327
8.86568
10.3071
12.1097
15.4305
41.1858
12.239
11.1762
10.8838
11.087
11.7657
13.0269
15.2246
18.1251
23.7901
66.4203
12.142
10.9738
10.6551
10.8984
11.7036
13.2544
16.0353
20.0171
28.3919
86.1795
11.6
10.4664
10.1997
10.476
11.369
13.1108
16.3
21.0781
31.8437
104.292
10.8055
9.75554
9.50033
9.77435
10.673
12.5002
15.9704
21.4584
34.8405
123.701
10.2144
9.26267
9.04566
9.29939
10.1731
12.0017
15.6094
21.5539
37.1131
140.959
9.05377
8.33215
8.1481
8.33972
9.0176
10.5155
13.6631
19.2865
35.7096
147.379
6.64469
6.3974
6.3432
6.41739
6.68216
7.26731
8.61447
11.5626
22.496
102.44
9.11125
9.10654
9.10707
9.11427
9.12694
9.14275
9.16373
9.19945
9.27245
9.45773
8.57656
8.5737
8.5728
8.57378
8.57692
8.58186
8.58761
8.60055
8.62935
8.69506
6.78436
6.57249
6.51835
6.59422
6.82564
7.27262
8.06713
9.36114
11.1372
16.4422
9.69438
9.07412
8.9207
9.08824
9.60793
10.5629
12.1778
14.5719
17.549
29.1837
9.89124
9.15332
8.96798
9.18191
9.84143
11.0974
13.29
16.6442
21.115
40.7619
9.76073
9.00577
8.84306
9.07993
9.81867
11.2627
13.8663
17.9431
23.7794
52.2503
9.33134
8.6042
8.43683
8.67489
9.4295
10.9757
13.891
18.6211
26.0258
64.8992
9.01575
8.33165
8.18556
8.4083
9.15002
10.7185
13.804
18.9582
27.7502
76.9258
8.19495
7.66681
7.53761
7.70807
8.28324
9.56601
12.2723
17.164
26.6553
82.886
6.37341
6.18122
6.14139
6.20235
6.41335
6.87622
7.92541
10.3693
16.7012
57.1187
8.99175
8.98396
8.98143
8.98534
8.99495
9.00804
9.02605
9.0596
9.13838
9.33839
8.46111
8.45931
8.4588
8.45956
8.46172
8.46446
8.46565
8.46904
8.47797
8.49741
6.00978
5.91883
5.89167
5.92247
6.02267
6.21522
6.5519
7.13333
7.99709
9.88363
7.81089
7.49813
7.42519
7.52057
7.82203
8.38484
9.3358
10.8224
12.6588
17.0762
8.12647
7.70908
7.60533
7.74281
8.169
8.9914
10.4251
12.7283
15.5989
23.5543
8.24834
7.78989
7.6931
7.85099
8.34938
9.33718
11.1243
14.0865
17.8853
30.1234
8.0842
7.61597
7.50643
7.67349
8.20324
9.30268
11.3892
14.9971
19.8653
37.6334
7.9757
7.51161
7.41223
7.57383
8.11095
9.25689
11.5239
15.5787
21.3692
44.9582
7.44502
7.07487
6.98286
7.11136
7.53539
8.48167
10.4807
14.3833
20.6544
48.7704
6.13145
5.9845
5.9546
6.00059
6.15805
6.49615
7.22504
8.98603
12.982
33.0428
8.85787
8.85005
8.84721
8.85058
8.85968
8.87329
8.89214
8.92603
8.99919
9.15504
8.33346
8.33265
8.33248
8.33296
8.33413
8.33496
8.33335
8.33198
8.33191
8.33405
5.53834
5.50382
5.49069
5.50054
5.53669
5.60539
5.72063
5.91208
6.1792
6.62224
6.56751
6.42976
6.39893
6.43915
6.57547
6.83372
7.27266
7.98301
8.87972
10.3578
6.87325
6.65665
6.60003
6.67076
6.89798
7.34064
8.11537
9.40927
11.0456
14.0197
7.10272
6.84312
6.78681
6.87415
7.15972
7.72798
8.76044
10.5611
12.8862
17.7749
7.09753
6.81108
6.73941
6.83996
7.16386
7.8365
9.11657
11.4657
14.6144
22.2325
7.1207
6.81808
6.75003
6.85203
7.19704
7.92922
9.37417
12.1326
15.9836
26.6465
6.8132
6.56168
6.49561
6.58173
6.86392
7.48539
8.77907
11.4758
15.6931
29.0137
5.91828
5.80742
5.78466
5.81649
5.92754
6.15995
6.63044
7.74182
10.1063
19.2415
8.71444
8.70672
8.70369
8.70655
8.715
8.72841
8.74688
8.77831
8.83981
8.95232
8.19452
8.19447
8.19457
8.19484
8.19528
8.19483
8.19236
8.18979
8.18761
8.1863
5.27076
5.25932
5.25296
5.25519
5.26647
5.28828
5.32373
5.37832
5.44779
5.53782
5.81035
5.75889
5.74916
5.76253
5.8135
5.9103
6.07282
6.33533
6.67464
7.13955
6.0438
5.94016
5.91139
5.94384
6.05204
6.26051
6.61723
7.21241
7.98811
9.10673
6.28275
6.14621
6.1164
6.16005
6.30832
6.59813
7.1128
8.02194
9.23823
11.2025
6.35122
6.18577
6.1416
6.19783
6.38091
6.75351
7.44505
8.74139
10.5402
13.8031
6.44204
6.2542
6.21045
6.27063
6.47803
6.90745
7.72958
9.34152
11.6541
16.3933
6.29301
6.13018
6.08539
6.14038
6.31822
6.69931
7.46049
9.0779
11.6584
17.7688
5.73281
5.65167
5.63543
5.65678
5.73307
5.88842
6.1841
6.83652
8.10116
11.8459
8.56053
8.5532
8.55016
8.55262
8.56037
8.57299
8.59032
8.61817
8.66619
8.74093
8.04486
8.04533
8.04562
8.04574
8.04571
8.04449
8.04218
8.0397
8.03744
8.03579
5.12683
5.1234
5.11993
5.11985
5.12273
5.12912
5.13921
5.1536
5.16976
5.1859
5.37648
5.36154
5.36067
5.3635
5.37849
5.40766
5.45665
5.5343
5.63312
5.75086
5.52704
5.48018
5.46625
5.48
5.52808
5.61882
5.76756
6.00428
6.30901
6.68044
5.72746
5.66013
5.64587
5.66586
5.73756
5.87371
6.10497
6.49962
7.0317
7.74998
5.81513
5.72417
5.6983
5.72791
5.82567
6.01887
6.36102
6.98451
7.8677
9.18671
5.92889
5.81722
5.79065
5.82398
5.94254
6.1802
6.61252
7.44034
8.65496
10.6615
5.8834
5.78299
5.75416
5.78758
5.89427
6.11625
6.53662
7.4024
8.804
11.4707
5.57804
5.52008
5.50909
5.52285
5.57392
5.67522
5.85879
6.23108
6.89075
8.32561
8.3956
8.38887
8.38599
8.3881
8.39501
8.40636
8.4219
8.4456
8.48217
8.53145
7.88483
7.88562
7.88603
7.88605
7.88574
7.88438
7.88251
7.88052
7.87872
7.87738
5.0521
5.05087
5.04861
5.04809
5.04871
5.05074
5.05371
5.05755
5.06112
5.06354
5.13816
5.13653
5.13857
5.13815
5.14039
5.14584
5.15629
5.17382
5.19624
5.2202
5.21989
5.19931
5.19271
5.19829
5.21906
5.25747
5.31752
5.40648
5.51498
5.62688
5.36823
5.337
5.33104
5.33948
5.37243
5.43314
5.53139
5.68845
5.89297
6.12695
5.4471
5.39933
5.3849
5.39978
5.4499
5.54603
5.70781
5.98416
6.36822
6.85609
5.55766
5.4938
5.47857
5.49604
5.56132
5.68806
5.90619
6.29838
6.86532
7.64815
5.57412
5.51546
5.49795
5.51737
5.57849
5.70236
5.92583
6.35771
7.04623
8.13562
5.45376
5.41317
5.40618
5.41478
5.44839
5.51345
5.62692
5.83797
6.18569
6.75877
8.2191
8.21317
8.21056
8.21234
8.21834
8.22807
8.24142
8.26081
8.28801
8.32092
7.71451
7.71548
7.71596
7.71593
7.71545
7.71433
7.71294
7.71148
7.71018
7.70918
5.01369
5.0128
5.01112
5.01069
5.01098
5.01196
5.01322
5.01462
5.01558
5.01573
5.01158
5.01377
5.01625
5.01524
5.0139
5.01258
5.01211
5.0132
5.01567
5.01865
5.04491
5.03574
5.03253
5.0348
5.04389
5.06043
5.08522
5.1193
5.15808
5.19182
5.14547
5.13178
5.12975
5.13304
5.14766
5.17391
5.21472
5.27543
5.35019
5.42257
5.2053
5.18127
5.17356
5.18078
5.2057
5.25229
5.32746
5.44663
5.60531
5.77839
5.30057
5.2652
5.25695
5.26567
5.30069
5.36679
5.4753
5.65586
5.90548
6.19353
5.35043
5.31826
5.30833
5.31916
5.35253
5.41882
5.53433
5.74234
6.06266
6.49208
5.35786
5.32978
5.32563
5.33093
5.35294
5.39455
5.46471
5.58479
5.76963
6.02107
8.03063
8.02563
8.02337
8.02485
8.02986
8.03783
8.04884
8.0641
8.08382
8.10569
7.53405
7.53489
7.53541
7.53535
7.5349
7.53411
7.53313
7.53211
7.53121
7.53047
4.99323
4.99242
4.99111
4.99084
4.99118
4.99194
4.99286
4.9938
4.99439
4.99428
4.94621
4.94886
4.95096
4.95013
4.94836
4.94594
4.94342
4.94123
4.93974
4.93901
4.94936
4.94495
4.94327
4.94425
4.94847
4.95606
4.96701
4.9811
4.99607
5.0072
5.01297
5.0072
5.00675
5.00794
5.01436
5.02569
5.04273
5.06643
5.09382
5.11688
5.05334
5.04172
5.03774
5.04118
5.0533
5.0755
5.11022
5.16166
5.22712
5.29119
5.13019
5.11097
5.10673
5.11096
5.12952
5.16372
5.21781
5.30137
5.41068
5.5184
5.19558
5.17934
5.17418
5.18003
5.19729
5.23112
5.28891
5.38679
5.53183
5.706
5.28671
5.26731
5.26505
5.26839
5.28296
5.30985
5.35346
5.42249
5.52077
5.64061
7.8299
7.82586
7.824
7.82519
7.82921
7.83547
7.84419
7.85577
7.86967
7.88398
7.34319
7.34387
7.34429
7.34426
7.34396
7.34342
7.34276
7.34207
7.34147
7.34091
4.98135
4.98065
4.9797
4.97954
4.97989
4.98056
4.98138
4.9822
4.98277
4.98265
4.91315
4.91534
4.91691
4.9164
4.91502
4.91305
4.91087
4.9088
4.90724
4.90635
4.89948
4.89708
4.89611
4.89659
4.89874
4.90255
4.9079
4.91441
4.921
4.9252
4.93748
4.93498
4.93499
4.93541
4.93836
4.94351
4.95102
4.96082
4.97132
4.97933
4.96215
4.95672
4.95472
4.95636
4.96219
4.97269
4.98871
5.01114
5.03853
5.06433
5.02224
5.01177
5.00967
5.01175
5.02169
5.03961
5.06701
5.10671
5.15558
5.1986
5.09308
5.08584
5.08354
5.0866
5.09496
5.11122
5.13872
5.18329
5.24671
5.32185
5.2358
5.22228
5.22121
5.22344
5.23339
5.25118
5.27865
5.31901
5.37116
5.43196
7.61674
7.61363
7.61219
7.6131
7.61618
7.6209
7.62755
7.63601
7.64555
7.65474
7.14169
7.14224
7.14258
7.14256
7.14237
7.14202
7.14158
7.14113
7.14073
7.1403
4.97348
4.97294
4.97229
4.97221
4.97252
4.97309
4.9738
4.9745
4.97505
4.97489
4.89664
4.89827
4.89938
4.89912
4.89822
4.89692
4.89548
4.8941
4.89315
4.89261
4.87474
4.87328
4.87271
4.87297
4.87415
4.87621
4.87905
4.8824
4.88573
4.88758
4.89637
4.89508
4.89509
4.89527
4.89681
4.8995
4.90329
4.90791
4.91246
4.91577
4.91006
4.90757
4.90658
4.90738
4.91019
4.91518
4.92261
4.93253
4.94421
4.95565
4.95689
4.95098
4.94994
4.95107
4.95662
4.96639
4.98081
5.00058
5.02338
5.04225
5.02809
5.02561
5.02491
5.02649
5.03017
5.03731
5.04932
5.0684
5.0941
5.12893
5.20047
5.19085
5.19049
5.19216
5.19927
5.21142
5.22913
5.2533
5.28093
5.31371
7.39108
7.38883
7.38778
7.38845
7.39066
7.39414
7.39901
7.40497
7.41132
7.41711
6.92931
6.92977
6.93004
6.93004
6.92992
6.9297
6.92941
6.92912
6.92886
6.92849
4.96747
4.96714
4.96674
4.96671
4.96696
4.96741
4.96797
4.96853
4.96904
4.96877
4.88839
4.88958
4.89034
4.89025
4.88973
4.88897
4.88814
4.88737
4.88696
4.88672
4.86325
4.86235
4.86202
4.86217
4.86282
4.86394
4.86547
4.86728
4.86915
4.87006
4.87504
4.87417
4.87406
4.87417
4.87515
4.87684
4.87915
4.88182
4.88423
4.88602
4.88184
4.88069
4.88019
4.88059
4.88198
4.8844
4.88789
4.89239
4.89748
4.90312
4.91904
4.91545
4.9149
4.91563
4.91896
4.92467
4.93275
4.94333
4.95477
4.96427
4.98837
4.98816
4.9883
4.98913
4.9905
4.99313
4.99752
5.00466
5.01321
5.03096
5.17636
5.16936
5.16939
5.17078
5.17613
5.18473
5.19652
5.21146
5.22604
5.24512
7.153
7.15146
7.15076
7.15123
7.15273
7.15524
7.15867
7.1627
7.16679
7.17037
6.70591
6.7063
6.70651
6.70652
6.70645
6.70631
6.70613
6.70593
6.70576
6.70544
4.96238
4.96226
4.96207
4.96208
4.96227
4.96259
4.96299
4.96341
4.96388
4.96349
4.8842
4.88508
4.88559
4.88559
4.88533
4.88496
4.88456
4.88421
4.88418
4.88414
4.85847
4.85796
4.8578
4.85788
4.8582
4.85875
4.85951
4.86045
4.86153
4.86203
4.86461
4.86388
4.86366
4.86375
4.86446
4.86571
4.86735
4.86918
4.87078
4.87201
4.86744
4.86687
4.86659
4.8668
4.86752
4.86875
4.87045
4.87256
4.87486
4.87795
4.89788
4.89549
4.89515
4.89571
4.8979
4.90152
4.90642
4.91262
4.91896
4.92469
4.96444
4.96515
4.96569
4.96614
4.96647
4.96704
4.96791
4.96972
4.97073
4.98105
5.1597
5.15456
5.15482
5.15609
5.16021
5.16657
5.17472
5.18432
5.19188
5.20412
6.90275
6.90169
6.90126
6.90155
6.90259
6.90432
6.90663
6.90925
6.91177
6.91395
6.47141
6.47175
6.4719
6.47192
6.47188
6.4718
6.47168
6.47155
6.47144
6.47114
4.95779
4.95789
4.95786
4.95791
4.95804
4.95823
4.95849
4.95878
4.95924
4.95875
4.88196
4.88264
4.88296
4.88301
4.88291
4.88279
4.88268
4.88261
4.88283
4.88295
4.85699
4.85674
4.85671
4.85674
4.85685
4.85703
4.85732
4.85773
4.85833
4.85866
4.85991
4.85926
4.85898
4.85905
4.8596
4.86056
4.86181
4.86318
4.86437
4.86534
4.86062
4.86029
4.86011
4.86022
4.86062
4.86129
4.86217
4.86322
4.86431
4.86617
4.88617
4.88445
4.8842
4.88467
4.8862
4.88866
4.89187
4.8958
4.89969
4.9038
4.94941
4.95035
4.95104
4.95132
4.95124
4.951
4.95046
4.95013
4.94809
4.95508
5.14759
5.14379
5.1442
5.14539
5.14868
5.15356
5.15943
5.16586
5.16953
5.17824
6.64054
6.63984
6.63956
6.63977
6.64046
6.64159
6.64307
6.64468
6.64615
6.64746
6.22587
6.22617
6.22628
6.2263
6.22628
6.22623
6.22616
6.22607
6.22599
6.22571
4.95352
4.95384
4.95392
4.95401
4.95409
4.95419
4.95432
4.9545
4.95499
4.95445
4.88062
4.88113
4.88131
4.88136
4.88137
4.8814
4.88148
4.88159
4.88198
4.88227
4.85706
4.85699
4.85703
4.85703
4.85701
4.85698
4.85699
4.85709
4.85739
4.85767
4.85808
4.85751
4.85723
4.85727
4.85768
4.85841
4.85935
4.86038
4.86129
4.86207
4.85777
4.85752
4.85739
4.85744
4.85768
4.85807
4.85856
4.85912
4.85967
4.86086
4.8793
4.878
4.87779
4.87817
4.87928
4.881
4.88318
4.8858
4.88837
4.89163
4.93852
4.93934
4.94003
4.94023
4.94008
4.93964
4.93873
4.93774
4.93476
4.94013
5.13781
5.13502
5.1355
5.13663
5.13933
5.1432
5.14759
5.15206
5.15349
5.16023
6.3667
6.36627
6.3661
6.36623
6.36666
6.36736
6.36825
6.36918
6.36998
6.37074
5.9696
5.96985
5.96993
5.96995
5.96994
5.96991
5.96986
5.9698
5.96974
5.96948
4.94945
4.94997
4.95012
4.95026
4.95031
4.95033
4.95036
4.95044
4.95099
4.95051
4.87957
4.8799
4.87996
4.88
4.88006
4.88019
4.88037
4.8806
4.88107
4.88156
4.85779
4.8578
4.85785
4.85784
4.85776
4.85764
4.85752
4.85746
4.8576
4.85789
4.8576
4.85713
4.85689
4.8569
4.85719
4.85769
4.85836
4.85909
4.85977
4.8604
4.85689
4.85669
4.85658
4.8566
4.85674
4.85697
4.85725
4.85756
4.85785
4.85861
4.87441
4.87343
4.87324
4.87352
4.87429
4.87546
4.87693
4.87865
4.88037
4.88301
4.9285
4.92906
4.92968
4.92985
4.92973
4.92935
4.92851
4.92752
4.92457
4.92897
5.12838
5.12641
5.1269
5.12797
5.1302
5.1333
5.13667
5.13983
5.13993
5.14535
6.08177
6.08152
6.08143
6.08151
6.08175
6.08215
6.08265
6.08313
6.08351
6.08394
5.70322
5.70343
5.7035
5.70351
5.70351
5.70349
5.70345
5.70341
5.70335
5.70311
4.94529
4.94594
4.94616
4.94634
4.94638
4.94634
4.94627
4.94626
4.94685
4.94662
4.8784
4.87854
4.8785
4.8785
4.87858
4.87874
4.87897
4.87925
4.87972
4.88042
4.85862
4.85861
4.85865
4.85862
4.85854
4.85841
4.85827
4.85818
4.85823
4.85857
4.85772
4.85737
4.85718
4.85718
4.85735
4.85767
4.85809
4.85857
4.85905
4.85953
4.85699
4.85684
4.85676
4.85676
4.85683
4.85694
4.85708
4.85724
4.85738
4.85782
4.86976
4.86905
4.86889
4.86906
4.86953
4.87026
4.87115
4.87218
4.87328
4.87531
4.91723
4.91752
4.91799
4.91813
4.91805
4.91774
4.91708
4.91627
4.91382
4.91737
5.11656
5.11527
5.11573
5.1167
5.1185
5.12094
5.12349
5.12564
5.12494
5.12917
5.78658
5.78645
5.7864
5.78645
5.78657
5.78677
5.78702
5.78723
5.78739
5.7876
5.4276
5.42776
5.42781
5.42782
5.42782
5.42781
5.42778
5.42775
5.4277
5.42752
4.93961
4.94025
4.94063
4.94086
4.94091
4.94082
4.94065
4.94049
4.94085
4.94113
4.8768
4.87669
4.87658
4.87654
4.8766
4.87675
4.87697
4.87725
4.87766
4.87849
4.85913
4.85906
4.85907
4.85904
4.85897
4.85889
4.85879
4.85873
4.85876
4.85911
4.85817
4.85794
4.85782
4.85781
4.8579
4.85807
4.8583
4.85858
4.85887
4.8592
4.85762
4.85753
4.85748
4.85747
4.85749
4.85752
4.85756
4.85761
4.85765
4.85785
4.86477
4.86432
4.86421
4.86429
4.86453
4.86489
4.86532
4.86583
4.86643
4.86779
4.90352
4.90356
4.90385
4.9039
4.90378
4.90347
4.90294
4.9023
4.90068
4.90329
5.09525
5.09455
5.09493
5.09573
5.09706
5.09884
5.10063
5.10189
5.10075
5.10357
5.48214
5.48207
5.48206
5.48208
5.48212
5.48218
5.48225
5.48232
5.48237
5.48247
5.14253
5.14263
5.14264
5.14265
5.14265
5.14264
5.14264
5.14263
5.14263
5.14254
4.92476
4.92532
4.92594
4.92627
4.92635
4.92623
4.92594
4.92553
4.92513
4.92575
4.87369
4.87335
4.87315
4.87305
4.87307
4.87318
4.87338
4.87366
4.87405
4.87486
4.85938
4.85931
4.85929
4.85926
4.85923
4.8592
4.85916
4.85915
4.85918
4.85941
4.85897
4.85884
4.85878
4.85878
4.85882
4.8589
4.859
4.85913
4.85928
4.85946
4.85864
4.8586
4.85858
4.85857
4.85857
4.85856
4.85856
4.85854
4.85854
4.85858
4.86085
4.86066
4.86061
4.86063
4.86072
4.86085
4.861
4.86117
4.86141
4.86205
4.88684
4.88668
4.88674
4.88669
4.8865
4.8862
4.88578
4.88536
4.88479
4.88647
5.04105
5.04075
5.041
5.04151
5.0423
5.04333
5.04436
5.04492
5.04392
5.04498
5.16849
5.16846
5.16846
5.16847
5.16847
5.16847
5.16847
5.16846
5.16844
5.1685
11.2688
11.3838
11.3383
11.1221
82.8074
84.8819
85.3407
85.9919
143.123
148.592
149.059
147.816
202.777
212.208
212.072
207.782
264.455
278.108
276.899
269.443
332.748
351.019
348.916
340.171
395.127
417.768
415.384
407.987
433.134
459.395
457.449
452.865
345.667
368.238
365.692
364.334
11.4766
11.7152
11.5591
11.1512
9.71362
9.77294
9.77575
9.73178
76.0802
79.3173
80.0745
80.1977
133.874
144.784
145.882
143.719
192.885
214.502
215.033
209.137
256.116
290.943
289.991
280.039
329.489
380.231
378.456
365.581
399.581
466.576
465.614
452.58
446.076
527.535
528.586
517.387
350.534
422.871
420.977
416.131
10.7114
10.9423
10.8718
10.6515
8.77661
8.78957
8.78854
8.77703
26.5397
28.9537
28.2153
25.7069
49.3537
53.7555
52.0897
47.417
74.5739
81.3282
78.2069
70.6923
103.444
112.978
107.798
96.7157
139.43
152.787
145.158
129.264
177.301
194.658
184.498
163.472
207.529
228.696
216.436
190.894
164.742
181.626
170.144
149.3
9.91269
10.0034
9.98025
9.88102
8.51163
8.51418
8.51484
8.51387
11.4738
11.7223
11.6921
11.4951
21.212
21.9373
21.8729
21.331
31.994
33.4786
33.2256
31.9101
44.5054
46.9367
46.2714
43.7493
60.6286
64.3948
63.0738
58.7572
78.0512
83.1614
80.8932
74.4482
92.5758
99.1233
95.8347
87.1405
71.9413
77.0787
73.5649
65.9609
9.44854
9.49298
9.4899
9.44949
8.3326
8.33371
8.33396
8.3333
7.04225
7.13339
7.15833
7.12845
11.6776
11.9731
12.0556
11.9696
16.8697
17.4834
17.5833
17.3165
22.8343
23.8534
23.8888
23.2847
30.7106
32.3349
32.2218
31.0327
39.2212
41.4553
41.0371
39.0573
46.262
49.1974
48.3798
45.3988
34.4041
36.622
35.4309
32.5497
9.09823
9.12216
9.12378
9.10682
8.1823
8.18322
8.18332
8.18254
5.60695
5.62109
5.6262
5.62443
7.456
7.52566
7.55816
7.55941
9.93701
10.1205
10.1874
10.1622
12.8328
13.1784
13.2645
13.1638
16.7953
17.4117
17.5014
17.2335
21.0452
21.942
21.9653
21.4359
24.4792
25.7312
25.6296
24.693
17.4826
18.3766
18.0219
17.0177
8.81271
8.82462
8.82698
8.82084
8.03149
8.03238
8.03245
8.03166
5.19707
5.2002
5.20103
5.20002
5.82327
5.83898
5.84753
5.84967
6.91424
6.96704
6.99211
6.99312
8.25876
8.37097
8.41524
8.40545
10.2335
10.4612
10.5312
10.4823
12.3588
12.7067
12.777
12.6579
14.0541
14.574
14.6208
14.3564
10.2228
10.5593
10.4807
10.1893
8.56531
8.57078
8.57285
8.57146
7.87328
7.87415
7.87422
7.87346
5.0633
5.06444
5.06442
5.06347
5.23322
5.23555
5.23696
5.23758
5.6841
5.69643
5.70294
5.70428
6.2656
6.29596
6.31051
6.31201
7.19424
7.26992
7.30062
7.29491
8.21597
8.3371
8.37705
8.35839
9.06956
9.27033
9.31504
9.24962
7.33953
7.45244
7.44642
7.38025
8.33732
8.3396
8.34106
8.34129
7.70532
7.70615
7.70622
7.70551
5.01334
5.01425
5.01418
5.01324
5.02036
5.02046
5.0205
5.02053
5.20446
5.20679
5.20806
5.20842
5.45541
5.46204
5.46564
5.46676
5.88075
5.9038
5.9144
5.91428
6.35933
6.39527
6.41068
6.41099
6.80705
6.87854
6.90117
6.8865
6.19889
6.23294
6.23733
6.22679
8.11412
8.11491
8.11581
8.11637
7.52688
7.52766
7.52773
7.52707
4.99136
4.99221
4.99215
4.99126
4.93892
4.93882
4.93871
4.93861
5.00963
5.00985
5.00997
5.01003
5.12353
5.12444
5.12502
5.12542
5.32354
5.3306
5.33395
5.3339
5.56002
5.56855
5.57324
5.57533
5.81455
5.83955
5.84871
5.84448
5.6989
5.70653
5.70924
5.71001
7.88846
7.88858
7.88908
7.88961
7.33759
7.33831
7.33837
7.33776
4.9796
4.98038
4.98032
4.97948
4.90611
4.90607
4.90599
4.90587
4.9254
4.92529
4.92523
4.92524
4.98033
4.98019
4.98014
4.98023
5.07681
5.0794
5.08054
5.08025
5.20685
5.20799
5.2091
5.21049
5.36666
5.37647
5.37985
5.37716
5.45432
5.45342
5.45404
5.45634
7.65708
7.65692
7.65719
7.6576
7.13725
7.1379
7.13795
7.1374
4.97184
4.97253
4.97245
4.97165
4.89239
4.89239
4.89233
4.89221
4.88731
4.88719
4.88713
4.88716
4.91577
4.91556
4.91544
4.91543
4.96196
4.96325
4.96372
4.96338
5.04279
5.04236
5.04247
5.04324
5.1538
5.15872
5.15991
5.15733
5.32507
5.32178
5.3213
5.32326
7.4182
7.41798
7.41812
7.41839
6.92573
6.92631
6.92634
6.92585
4.96581
4.96639
4.96629
4.96554
4.8865
4.88652
4.88647
4.88634
4.86974
4.86965
4.86962
4.86965
4.88596
4.88583
4.88574
4.88571
4.90706
4.90788
4.90814
4.90783
4.96384
4.96332
4.96323
4.96361
5.04897
5.05223
5.0526
5.05003
5.25305
5.2495
5.24861
5.24994
7.17066
7.17051
7.17057
7.1707
6.70299
6.70348
6.7035
6.70307
4.96067
4.96114
4.96101
4.9603
4.88393
4.88396
4.88391
4.88377
4.86176
4.86171
4.86169
4.86172
4.87203
4.87196
4.87191
4.87187
4.88069
4.88127
4.88142
4.88117
4.9249
4.92462
4.92453
4.92466
4.99631
4.99897
4.99902
4.99645
5.21098
5.20793
5.20695
5.20763
6.91371
6.91367
6.91369
6.9137
6.46903
6.46943
6.46944
6.46906
4.95611
4.95647
4.95631
4.95565
4.88281
4.88285
4.8828
4.88266
4.8585
4.85848
4.85848
4.85849
4.86541
4.86539
4.86535
4.86532
4.86814
4.86855
4.86865
4.86843
4.90488
4.90487
4.90483
4.90477
4.96904
4.97149
4.97142
4.96881
5.18486
5.18258
5.18167
5.18172
6.64684
6.64695
6.64696
6.64685
6.22398
6.2243
6.22428
6.22396
4.95206
4.95231
4.95212
4.95151
4.8823
4.88237
4.88232
4.88216
4.85767
4.85768
4.85769
4.85768
4.86219
4.86218
4.86216
4.86214
4.86226
4.86255
4.8626
4.86242
4.89339
4.89361
4.89361
4.89341
4.95336
4.95579
4.95568
4.95299
5.16692
5.16554
5.16478
5.1642
6.36985
6.3701
6.37011
6.3699
5.96819
5.96841
5.96837
5.96811
4.94848
4.94864
4.94844
4.94788
4.8819
4.88204
4.88201
4.88181
4.85806
4.85812
4.85813
4.85809
4.86054
4.86055
4.86055
4.86053
4.85955
4.85974
4.85977
4.85963
4.88516
4.88553
4.88556
4.88527
4.94153
4.94408
4.94397
4.94116
5.15217
5.15183
5.15127
5.15004
6.08286
6.08323
6.08325
6.08297
5.70235
5.70246
5.70239
5.7022
4.94521
4.94538
4.9452
4.94467
4.8812
4.88145
4.88144
4.88117
4.85889
4.85898
4.859
4.85893
4.85969
4.85972
4.85972
4.85972
4.85838
4.85848
4.85849
4.8584
4.87748
4.87792
4.87797
4.87766
4.9287
4.93137
4.9313
4.92847
5.13591
5.13678
5.1365
5.13457
5.78643
5.78687
5.7869
5.78658
5.42738
5.42735
5.42726
5.42717
4.941
4.94138
4.94126
4.94066
4.87958
4.87992
4.87991
4.87958
4.85948
4.85959
4.85961
4.85953
4.85936
4.8594
4.85941
4.85942
4.8581
4.85814
4.85814
4.8581
4.86959
4.86998
4.87004
4.86977
4.91187
4.91429
4.91427
4.91179
5.10946
5.11185
5.11192
5.10912
5.48143
5.48195
5.48198
5.48164
5.14314
5.14289
5.1428
5.14287
4.92732
4.92819
4.92817
4.92722
4.87562
4.87586
4.87583
4.87557
4.85964
4.85971
4.85971
4.85966
4.85958
4.85961
4.85963
4.85964
4.85864
4.85865
4.85864
4.85864
4.86303
4.86325
4.86329
4.86316
4.89062
4.89179
4.89176
4.89055
5.04782
5.05135
5.05167
5.04823
5.16798
5.16854
5.16855
5.16818
10.1126
9.36656
9.0544
8.94185
8.87735
8.83187
8.80157
8.78452
8.77507
8.76945
103.674
49.1151
35.7452
29.9529
24.5573
19.9506
16.3651
13.6917
11.7842
10.4222
160.934
70.848
51.0861
43.7391
37.19
31.4253
26.5937
22.7139
19.6711
17.2974
206.394
82.5786
55.9737
46.7231
39.3589
32.7647
27.2279
22.8353
19.4447
16.8578
242.016
88.9335
58.8189
47.9598
40.0724
32.7324
26.674
21.9528
18.3671
15.7227
277.989
94.6747
60.9683
48.296
39.8384
31.781
25.348
20.4619
16.8802
14.33
307.042
98.1448
61.6859
47.7734
39.0364
30.5115
23.9374
19.07
15.5919
13.2088
315.156
93.7419
56.6254
42.2206
33.908
25.7791
19.9188
15.7935
13.0439
11.2279
224.442
56.1286
30.5415
21.1125
16.2795
12.2215
9.95363
8.61217
7.80355
7.2796
9.56933
9.54453
9.38913
9.36296
9.31637
9.29024
9.26947
9.25842
9.25096
9.24453
9.36693
9.05673
8.90447
8.81886
8.76492
8.72928
8.70614
8.69237
8.68497
8.6803
53.1029
28.6698
22.5554
19.4491
16.6692
14.199
12.1647
10.6025
9.46314
8.67124
89.9858
46.2668
35.7952
31.0178
27.1801
23.5091
20.2915
17.6334
15.5061
13.8879
122.241
58.5994
42.8576
35.63
30.5482
25.7656
21.6961
18.4237
15.8743
13.9885
152.529
68.7533
47.8498
38.5163
32.3815
26.676
21.976
18.2975
15.4856
13.4761
186.403
78.8622
52.1402
40.472
33.254
26.666
21.4515
17.4942
14.5904
12.591
217.168
86.4628
54.7101
41.246
33.3479
26.1725
20.6942
16.6583
13.769
11.8523
233.162
86.7415
51.9168
37.4808
29.5727
22.5726
17.5707
14.0812
11.762
10.2822
167.391
54.7517
29.0613
19.3774
14.6923
11.2248
9.27351
8.12887
7.43316
7.00247
9.81845
9.50191
9.33077
9.26748
9.21258
9.1793
9.15515
9.14039
9.12999
9.12098
8.73746
8.69602
8.66327
8.63604
8.61473
8.59927
8.58895
8.58277
8.57935
8.57691
19.9484
16.576
14.5021
12.6842
11.115
9.81244
8.79852
8.04996
7.5115
7.13913
35.9158
28.7078
24.9216
21.6871
18.9128
16.5057
14.5114
12.9077
11.633
10.6718
51.0274
37.9286
31.5354
26.3472
22.2577
18.8393
16.0969
13.9483
12.2894
11.0761
66.1142
45.6836
36.6248
29.5906
24.3772
20.1242
16.8128
14.2903
12.3792
11.0265
83.21
53.3362
41.1404
32.0818
25.733
20.6596
16.8406
14.0193
11.9736
10.5805
99.1078
59.1849
44.148
33.4556
26.3332
20.7024
16.5954
13.6527
11.5694
10.1986
108.406
59.7556
42.599
30.9984
23.7614
18.2152
14.4225
11.8555
10.1694
9.09689
75.9389
36.6485
23.8676
16.2713
12.2242
9.68143
8.28906
7.47103
6.96233
6.64302
9.57135
9.37692
9.24297
9.16312
9.1055
9.06946
9.04438
9.02728
9.01462
9.00373
8.50904
8.49895
8.4879
8.47796
8.47042
8.46529
8.46209
8.46045
8.46006
8.45962
10.9414
10.1332
9.28385
8.43962
7.73275
7.19033
6.79178
6.50399
6.29566
6.15077
19.8653
18.026
16.1744
14.3022
12.6874
11.3598
10.299
9.46376
8.80499
8.31087
28.4727
24.6284
21.1868
17.9864
15.3995
13.3282
11.7051
10.4527
9.49454
8.79972
37.236
30.6613
25.4278
20.8616
17.3663
14.6394
12.563
11.0094
9.84198
9.01797
47.4621
36.9664
29.5222
23.3586
18.8637
15.4389
12.9146
11.0859
9.77412
8.8835
57.0608
42.0735
32.5518
25.0122
19.7582
15.8299
13.0256
11.0604
9.68017
8.76881
62.7929
43.2641
32.0888
23.7117
18.2341
14.3051
11.6788
9.94027
8.80217
8.06924
42.7435
26.2039
17.972
12.7908
10.0229
8.39085
7.47275
6.9181
6.55935
6.32875
9.3267
9.18817
9.08102
9.01135
8.96312
8.93145
8.90871
8.89237
8.88003
8.86961
8.3331
8.3316
8.33009
8.32891
8.32821
8.32792
8.32794
8.3284
8.32951
8.33056
6.99864
6.75836
6.50535
6.26708
6.06892
5.91267
5.79246
5.70096
5.63176
5.58391
11.6098
10.9237
10.15
9.37285
8.68659
8.11475
7.65591
7.29465
7.00647
6.78882
16.4373
14.9546
13.3736
11.8584
10.5715
9.52162
8.69376
8.05583
7.56777
7.21521
21.5328
18.9317
16.3564
14.0109
12.1127
10.6146
9.47258
8.62385
7.9838
7.52949
27.7641
23.4418
19.5077
16.0867
13.4435
11.4217
9.93312
8.86332
8.09562
7.57176
33.7323
27.3816
22.0655
17.642
14.379
11.9545
10.23
9.03343
8.18768
7.62107
37.3925
28.7911
22.2631
17.1546
13.636
11.1582
9.50835
8.42117
7.6998
7.22477
24.5282
17.3349
12.8094
9.95702
8.36346
7.40473
6.82984
6.46685
6.22032
6.05854
9.05254
8.96947
8.89785
8.84677
8.80933
8.78252
8.7623
8.7471
8.73537
8.72559
8.1831
8.18324
8.1836
8.18419
8.18492
8.18571
8.18651
8.18749
8.18898
8.19076
5.60797
5.56469
5.51332
5.4612
5.41407
5.37368
5.34026
5.31338
5.2929
5.28
7.50403
7.31281
7.06447
6.80535
6.57039
6.37244
6.21255
6.0849
5.97845
5.89565
9.97653
9.47066
8.84978
8.22699
7.67853
7.2244
6.86258
6.58035
6.36054
6.20095
12.7346
11.7729
10.6609
9.59943
8.70697
7.99567
7.45062
7.04319
6.72826
6.50042
16.326
14.609
12.7534
11.0612
9.69856
8.6483
7.87073
7.30843
6.89757
6.61329
19.8639
17.2464
14.584
12.2684
10.4875
9.16065
8.21183
7.54998
7.06968
6.73974
22.1187
18.4212
14.999
12.2249
10.2385
8.84218
7.90156
7.27185
6.84141
6.55034
14.3946
11.5389
9.42825
8.05212
7.21595
6.67998
6.33276
6.10275
5.93835
5.82902
8.79746
8.75135
8.70714
8.67167
8.64333
8.6213
8.6039
8.5903
8.57955
8.57073
8.03235
8.03269
8.03325
8.034
8.03485
8.0357
8.03651
8.03745
8.03887
8.04067
5.1967
5.1885
5.17884
5.1682
5.1576
5.1476
5.13872
5.13136
5.12635
5.12451
5.83858
5.79255
5.7302
5.6632
5.60095
5.54753
5.50361
5.46726
5.43351
5.40541
6.94965
6.79159
6.58399
6.36808
6.17134
6.00334
5.86474
5.75235
5.66133
5.59455
8.29742
7.96287
7.54436
7.13218
6.77542
6.48503
6.25699
6.08162
5.93879
5.83195
10.2205
9.55382
8.76989
8.03213
7.41969
6.93889
6.57436
6.30305
6.09724
5.95211
12.1906
11.1266
9.92596
8.85005
7.99597
7.34991
6.87723
6.5387
6.2811
6.09816
13.5206
11.9518
10.3411
9.00009
8.00516
7.29227
6.79604
6.45176
6.20664
6.03665
9.42686
8.38686
7.50772
6.88502
6.46206
6.16843
5.96315
5.82081
5.71375
5.64218
8.56193
8.5374
8.51067
8.48639
8.46533
8.44781
8.43336
8.42167
8.41219
8.40454
7.87415
7.87441
7.87483
7.87541
7.87605
7.87669
7.87727
7.87797
7.87913
7.88072
5.06296
5.06117
5.05921
5.05687
5.05426
5.0515
5.04892
5.04689
5.04617
5.0471
5.23559
5.2271
5.21539
5.20232
5.18996
5.17949
5.1712
5.16409
5.15518
5.14647
5.69433
5.65138
5.59147
5.52553
5.46195
5.4045
5.35432
5.31128
5.2748
5.24795
6.28728
6.18744
6.05392
5.91612
5.79109
5.68458
5.59701
5.52657
5.46476
5.41647
7.22136
6.98886
6.70031
6.41724
6.17171
5.97051
5.81061
5.68583
5.5866
5.5156
8.2296
7.83741
7.36218
6.92044
6.55472
6.26708
6.04687
5.88219
5.74891
5.65074
8.98612
8.3701
7.69726
7.11477
6.66084
6.32076
6.07164
5.89058
5.75602
5.66101
7.18663
6.82404
6.46958
6.18855
5.97556
5.81576
5.6961
5.60965
5.54123
5.49565
8.33711
8.32375
8.30741
8.29095
8.27566
8.26221
8.25064
8.24098
8.23295
8.22657
7.70619
7.70637
7.70664
7.70702
7.70745
7.70785
7.70819
7.70863
7.70952
7.71086
5.01329
5.01253
5.01179
5.01096
5.00997
5.00886
5.00781
5.00712
5.00737
5.00863
5.02
5.01893
5.01783
5.01668
5.01591
5.01584
5.01653
5.01719
5.01568
5.01316
5.20583
5.19455
5.17778
5.15788
5.13728
5.11743
5.09899
5.08223
5.06746
5.05667
5.46137
5.43472
5.39619
5.35354
5.31221
5.27488
5.24258
5.21534
5.18909
5.16741
5.89282
5.81836
5.7215
5.62004
5.52619
5.44446
5.37567
5.31915
5.27214
5.23837
6.38095
6.25327
6.0847
5.91804
5.77085
5.64796
5.54839
5.47025
5.40259
5.35077
6.80498
6.58204
6.32527
6.08824
5.8908
5.73376
5.61213
5.51952
5.44801
5.39714
6.17853
6.04723
5.90127
5.77196
5.66421
5.57743
5.50832
5.45656
5.41341
5.38501
8.11412
8.10661
8.09655
8.08558
8.07477