/*--------------------------------*- C++ -*----------------------------------*\
| =========                 |                                                 |
| \\      /  F ield         | foam-extend: Open Source CFD                    |
|  \\    /   O peration     | Version:     4.0                                |
|   \\  /    A nd           | Web:         http://www.foam-extend.org         |
|    \\/     M anipulation  |                                                 |
\*---------------------------------------------------------------------------*/
FoamFile
{
    version     2.0;
    format      ascii;
    class       volScalarField;
    location    "1650";
    object      MaU;
}
// * * * * * * * * * * * * * * * * * * * * * * * * * * * * * * * * * * * * * //

dimensions      [0 0 0 0 0 0 0];

internalField   nonuniform List<scalar> 
34480
(
0.623788
0.624786
0.625322
0.625435
0.625129
0.62433
0.622897
0.620151
0.614054
0.608253
0.627204
0.628033
0.628494
0.628526
0.627967
0.626672
0.624667
0.621702
0.61468
0.60912
0.629383
0.630144
0.630517
0.630425
0.629689
0.628341
0.626567
0.624272
0.617235
0.612113
0.62937
0.630152
0.630595
0.630634
0.630124
0.629181
0.627907
0.626327
0.61968
0.615035
0.629821
0.630708
0.631292
0.631552
0.631366
0.630901
0.630174
0.629366
0.623505
0.619348
0.629407
0.630353
0.631023
0.631414
0.631465
0.631407
0.631216
0.631231
0.626553
0.623219
0.629602
0.630692
0.63147
0.632002
0.632264
0.632547
0.632852
0.633685
0.630456
0.627926
0.629007
0.630139
0.630874
0.631292
0.631439
0.631676
0.632132
0.633505
0.631793
0.630453
0.628756
0.630045
0.630894
0.631446
0.631768
0.632165
0.63287
0.634739
0.634299
0.632868
0.624954
0.625986
0.626029
0.625155
0.623537
0.621552
0.619654
0.619112
0.618319
0.619121
0.613889
0.615351
0.615925
0.615676
0.614532
0.612216
0.608102
0.600833
0.590121
0.576263
0.618498
0.619808
0.620333
0.620072
0.618829
0.616234
0.611691
0.603843
0.591183
0.57502
0.62156
0.622786
0.623259
0.622964
0.621649
0.619007
0.614536
0.606851
0.593346
0.576008
0.622361
0.623598
0.624138
0.623977
0.62287
0.620573
0.616502
0.609246
0.595353
0.577596
0.623494
0.624807
0.625464
0.625511
0.624705
0.622862
0.619312
0.612701
0.598903
0.581304
0.62362
0.624978
0.625716
0.6259
0.625329
0.623902
0.620899
0.615075
0.60183
0.585023
0.624265
0.62573
0.626565
0.626894
0.626541
0.625486
0.623021
0.618051
0.605734
0.590003
0.623992
0.625488
0.626291
0.626537
0.626129
0.625138
0.622963
0.618712
0.607583
0.593544
0.623987
0.62559
0.626485
0.626845
0.626617
0.625857
0.624074
0.62057
0.610701
0.597464
0.620376
0.621796
0.622134
0.621475
0.619874
0.617482
0.614026
0.609221
0.599828
0.589715
0.606258
0.607825
0.60839
0.608069
0.606828
0.604508
0.600813
0.595246
0.587172
0.57698
0.611151
0.612687
0.613245
0.612868
0.611437
0.608686
0.604111
0.596852
0.585461
0.570299
0.614488
0.616022
0.616576
0.616196
0.614701
0.611771
0.606788
0.598624
0.584606
0.564782
0.615782
0.617379
0.61801
0.617743
0.616377
0.613589
0.608601
0.600011
0.583842
0.559915
0.617393
0.619079
0.619821
0.619736
0.618601
0.616121
0.611371
0.602763
0.585096
0.557882
0.617939
0.619683
0.62051
0.620559
0.619626
0.617468
0.613064
0.604735
0.586182
0.556601
0.618947
0.620785
0.621703
0.621898
0.621168
0.619336
0.61534
0.607487
0.588623
0.557379
0.618974
0.620839
0.621742
0.621882
0.621125
0.619379
0.615655
0.608331
0.589681
0.557597
0.619228
0.621157
0.62213
0.62236
0.621733
0.62018
0.616817
0.610157
0.592152
0.558669
0.615858
0.617617
0.618178
0.617649
0.616012
0.61327
0.608761
0.601331
0.583882
0.550815
0.600694
0.602069
0.602541
0.602232
0.601141
0.599209
0.596339
0.592434
0.587475
0.581943
0.605322
0.606788
0.607299
0.60689
0.60549
0.602953
0.599029
0.593375
0.585547
0.576618
0.608507
0.610094
0.610639
0.6102
0.608649
0.605759
0.601107
0.594064
0.583469
0.57053
0.61
0.611724
0.612359
0.611985
0.61044
0.607453
0.602404
0.594359
0.581107
0.563892
0.61188
0.613732
0.614471
0.614231
0.612811
0.609925
0.604768
0.596134
0.580631
0.559421
0.612717
0.614653
0.61548
0.615349
0.614059
0.611341
0.60624
0.597348
0.58005
0.555364
0.613999
0.616031
0.616941
0.616939
0.615805
0.613308
0.608391
0.599499
0.580923
0.553293
0.614283
0.616342
0.617248
0.61721
0.616056
0.613611
0.608828
0.600106
0.580839
0.550952
0.614759
0.616854
0.617813
0.617849
0.616801
0.614492
0.609897
0.60151
0.582217
0.549793
0.611637
0.613578
0.614249
0.613744
0.611992
0.608868
0.603507
0.594515
0.575415
0.541792
0.596827
0.59791
0.598271
0.598034
0.597219
0.595835
0.593899
0.591479
0.588725
0.586005
0.600899
0.602141
0.602573
0.602217
0.601043
0.598997
0.596012
0.592065
0.587215
0.582424
0.603632
0.605106
0.605613
0.605194
0.603779
0.601242
0.597373
0.591954
0.584707
0.577083
0.605055
0.606751
0.607363
0.606961
0.605433
0.602593
0.598052
0.591353
0.581568
0.570517
0.606976
0.608858
0.609578
0.60926
0.607743
0.6048
0.599852
0.59219
0.580014
0.565377
0.607943
0.609953
0.610767
0.610525
0.609054
0.606106
0.600931
0.592602
0.578281
0.560161
0.609373
0.611503
0.612398
0.612262
0.610884
0.608025
0.602788
0.594058
0.577955
0.556576
0.609834
0.612005
0.612911
0.612749
0.611343
0.608476
0.603199
0.594283
0.576908
0.552685
0.610482
0.612679
0.613625
0.613522
0.612192
0.609412
0.60419
0.59524
0.577235
0.549939
0.607588
0.609643
0.610393
0.609911
0.608094
0.604751
0.599005
0.589532
0.571302
0.541927
0.59418
0.594984
0.595241
0.595079
0.594526
0.593615
0.592395
0.590961
0.589444
0.587991
0.597655
0.598614
0.598952
0.598676
0.597779
0.596265
0.594159
0.591555
0.588658
0.586075
0.599818
0.601072
0.601506
0.601149
0.599965
0.597909
0.594928
0.591036
0.586347
0.581918
0.601004
0.602541
0.603094
0.602713
0.60133
0.598844
0.595072
0.589889
0.583107
0.576266
0.60279
0.604568
0.605235
0.604892
0.60342
0.600672
0.596301
0.590003
0.581079
0.571494
0.603745
0.6057
0.606469
0.606167
0.604656
0.601748
0.596935
0.589728
0.578723
0.566253
0.60521
0.60732
0.608173
0.607946
0.606458
0.603504
0.598419
0.590528
0.577641
0.562264
0.605761
0.607936
0.608814
0.608563
0.607027
0.603992
0.598704
0.590344
0.575952
0.557833
0.606526
0.608733
0.609644
0.609437
0.607942
0.604934
0.59958
0.590922
0.575551
0.554439
0.603825
0.605905
0.60669
0.606222
0.604394
0.600993
0.59525
0.586097
0.570225
0.5469
0.592359
0.592946
0.593122
0.593021
0.59267
0.592107
0.591377
0.590556
0.589724
0.588893
0.595317
0.596008
0.596256
0.596058
0.595422
0.594373
0.592969
0.591321
0.589619
0.588218
0.596913
0.597905
0.598254
0.597975
0.597052
0.595492
0.593321
0.590649
0.587699
0.585133
0.597788
0.59909
0.599563
0.599235
0.598069
0.596033
0.593081
0.589267
0.584731
0.580536
0.599325
0.600905
0.601495
0.601168
0.599844
0.597449
0.593822
0.588914
0.582636
0.576468
0.600162
0.601962
0.60266
0.602341
0.600908
0.59824
0.594046
0.588151
0.580066
0.571697
0.601571
0.603559
0.604346
0.604072
0.602596
0.599768
0.595155
0.588432
0.578608
0.567895
0.602126
0.604208
0.605032
0.604732
0.60318
0.600202
0.595264
0.587901
0.576585
0.563543
0.602957
0.605087
0.605943
0.605673
0.604127
0.601115
0.596012
0.588192
0.575789
0.560201
0.600407
0.602427
0.603208
0.602761
0.600985
0.597686
0.592265
0.583966
0.570921
0.553405
0.591075
0.591511
0.59163
0.591571
0.591359
0.591026
0.590602
0.590139
0.589674
0.589142
0.593637
0.594108
0.594281
0.594149
0.593723
0.593031
0.592132
0.591119
0.590124
0.589347
0.594735
0.595475
0.59574
0.595535
0.594857
0.593733
0.592222
0.590447
0.588614
0.587116
0.595302
0.596343
0.596727
0.596464
0.595539
0.59396
0.591756
0.589051
0.586074
0.583506
0.596537
0.597868
0.598366
0.598079
0.59696
0.594988
0.592124
0.588452
0.584144
0.580208
0.597193
0.598767
0.599375
0.599073
0.597797
0.595489
0.59202
0.587405
0.58164
0.576097
0.598481
0.600271
0.600971
0.600687
0.599316
0.59677
0.592807
0.58734
0.580099
0.57277
0.598968
0.600876
0.601624
0.60131
0.599837
0.597085
0.592725
0.586554
0.577985
0.568822
0.599824
0.601802
0.602582
0.602285
0.600786
0.597947
0.593351
0.586657
0.577048
0.565909
0.597383
0.599269
0.600011
0.599593
0.59793
0.59487
0.589995
0.582843
0.572573
0.55994
0.590137
0.590475
0.590556
0.590524
0.590401
0.590209
0.589967
0.589708
0.589442
0.589063
0.592417
0.592727
0.592843
0.592759
0.592486
0.592047
0.591489
0.590878
0.590298
0.589859
0.59311
0.593635
0.593827
0.593684
0.593209
0.592435
0.591421
0.590272
0.589144
0.588263
0.593417
0.594211
0.594509
0.594309
0.593611
0.592441
0.590859
0.588996
0.587067
0.585493
0.594344
0.595413
0.595815
0.59558
0.594682
0.593134
0.590965
0.588308
0.585402
0.582901
0.594795
0.59611
0.596619
0.596353
0.595277
0.593377
0.590631
0.587146
0.583119
0.579483
0.595931
0.597475
0.598076
0.597809
0.596605
0.594426
0.591173
0.586897
0.581687
0.576743
0.596294
0.597972
0.598628
0.598324
0.596999
0.594584
0.590909
0.585951
0.579642
0.573325
0.597151
0.598919
0.599608
0.599312
0.597936
0.595393
0.591445
0.585961
0.578748
0.570985
0.594781
0.596471
0.597149
0.596769
0.59527
0.592548
0.588347
0.582445
0.574628
0.565801
0.589424
0.589701
0.589758
0.589742
0.589672
0.589563
0.589427
0.589282
0.589123
0.588825
0.591516
0.591713
0.59179
0.591739
0.591569
0.591299
0.590961
0.590597
0.590257
0.590003
0.59189
0.592248
0.592381
0.592286
0.591966
0.591451
0.590791
0.590064
0.589375
0.588854
0.592011
0.59259
0.592812
0.592669
0.592164
0.59133
0.590231
0.588979
0.587741
0.586774
0.592653
0.593475
0.593787
0.593604
0.592915
0.591749
0.590165
0.588296
0.586362
0.584777
0.592905
0.593957
0.594367
0.594147
0.59328
0.591783
0.589689
0.587139
0.584373
0.582005
0.593885
0.595165
0.595661
0.595428
0.59442
0.592637
0.590071
0.586837
0.583162
0.579863
0.594084
0.595502
0.596056
0.595783
0.594645
0.592618
0.589646
0.585805
0.581266
0.576981
0.594934
0.596458
0.597047
0.596773
0.595568
0.593393
0.590139
0.585815
0.580538
0.57524
0.592603
0.59406
0.594655
0.594322
0.593021
0.590693
0.587213
0.582524
0.576744
0.570734
0.588864
0.589102
0.589144
0.589138
0.589097
0.589037
0.58896
0.588878
0.588778
0.588528
0.590834
0.590959
0.59101
0.59098
0.590877
0.590714
0.590512
0.590296
0.590095
0.589944
0.59096
0.591195
0.591283
0.591222
0.591014
0.590681
0.590262
0.589811
0.589394
0.589086
0.590973
0.591381
0.591541
0.591442
0.59109
0.590515
0.589772
0.588948
0.58816
0.587564
0.591366
0.591974
0.592207
0.592071
0.591563
0.590717
0.589595
0.588313
0.587043
0.586042
0.591447
0.592256
0.592574
0.5924
0.591731
0.590595
0.589052
0.587237
0.585365
0.583834
0.592287
0.593307
0.593704
0.593512
0.592704
0.591303
0.589349
0.586975
0.584428
0.582249
0.592298
0.593449
0.593901
0.593668
0.592733
0.591101
0.588783
0.585904
0.582706
0.579842
0.593152
0.594417
0.594904
0.594667
0.593657
0.591872
0.589289
0.585994
0.582221
0.578667
0.590835
0.59204
0.592542
0.592261
0.591173
0.589258
0.586478
0.582882
0.578714
0.574716
0.588414
0.588626
0.588657
0.588656
0.588633
0.588599
0.588556
0.588509
0.588443
0.588222
0.590311
0.59039
0.590425
0.590408
0.590347
0.59025
0.59013
0.590002
0.58988
0.589786
0.590231
0.590381
0.590437
0.590398
0.590267
0.590058
0.589798
0.589523
0.589273
0.589091
0.590213
0.590492
0.590603
0.590538
0.590301
0.589916
0.589426
0.588893
0.588394
0.588026
0.590397
0.590831
0.590998
0.590901
0.590539
0.589945
0.589172
0.588313
0.58749
0.586861
0.590342
0.590942
0.591179
0.591049
0.590551
0.58972
0.588616
0.587357
0.586108
0.585126
0.591071
0.591857
0.592163
0.592012
0.59139
0.59033
0.588889
0.587195
0.585458
0.584031
0.590881
0.59178
0.592135
0.591946
0.591207
0.589943
0.588196
0.586103
0.583894
0.582007
0.591766
0.59278
0.593167
0.592973
0.592161
0.590752
0.588775
0.586341
0.5837
0.58135
0.58944
0.590397
0.590805
0.590577
0.589701
0.588183
0.586039
0.583368
0.580434
0.577831
0.588046
0.588239
0.588262
0.588264
0.588251
0.588232
0.588207
0.58818
0.588134
0.587934
0.589909
0.589961
0.589985
0.589976
0.58994
0.589883
0.589812
0.589735
0.589658
0.589595
0.589642
0.589733
0.589768
0.589743
0.589662
0.589534
0.589377
0.589212
0.589066
0.58896
0.589662
0.589848
0.589925
0.589883
0.589728
0.589477
0.58916
0.58882
0.588507
0.588278
0.58967
0.589968
0.590084
0.590017
0.589768
0.589363
0.588846
0.588282
0.587756
0.587365
0.58952
0.589948
0.59012
0.590026
0.589669
0.58908
0.588313
0.587459
0.586639
0.586013
0.590172
0.590755
0.590983
0.59087
0.590409
0.589635
0.588606
0.587427
0.586263
0.585336
0.58977
0.590446
0.590714
0.590567
0.590006
0.589061
0.587788
0.586309
0.584812
0.583588
0.590728
0.591513
0.591811
0.591659
0.591031
0.589962
0.588497
0.586753
0.584941
0.583407
0.588371
0.589099
0.589419
0.58924
0.588561
0.587402
0.585803
0.583881
0.581862
0.580204
0.587742
0.587918
0.587935
0.587938
0.58793
0.58792
0.587906
0.58789
0.587857
0.587674
0.58961
0.589646
0.589664
0.58966
0.589639
0.589604
0.589562
0.589514
0.589462
0.589415
0.589147
0.5892
0.589219
0.589203
0.589154
0.589077
0.588984
0.588889
0.588805
0.588746
0.589269
0.589391
0.589443
0.589418
0.58932
0.589159
0.588958
0.588744
0.588547
0.588404
0.589126
0.589324
0.589401
0.589356
0.58919
0.588922
0.588584
0.588222
0.587892
0.587652
0.588918
0.589215
0.589335
0.589269
0.589022
0.588618
0.588099
0.587533
0.587002
0.586608
0.589523
0.589942
0.590107
0.590025
0.589696
0.589149
0.588436
0.587637
0.58687
0.586273
0.588902
0.589389
0.589585
0.589475
0.589064
0.588383
0.587483
0.586469
0.585474
0.584693
0.589988
0.590576
0.590797
0.590683
0.590218
0.589435
0.588386
0.58717
0.585954
0.584962
0.58757
0.5881
0.588342
0.588207
0.587699
0.586846
0.585693
0.584352
0.582993
0.581963
0.587481
0.587641
0.587654
0.587657
0.587652
0.587647
0.587639
0.587629
0.587605
0.58744
0.589407
0.589435
0.589449
0.589448
0.589435
0.589414
0.589387
0.589355
0.589318
0.589277
0.588712
0.58874
0.588749
0.588738
0.588708
0.588664
0.588611
0.588558
0.588514
0.588484
0.588998
0.589077
0.589113
0.589099
0.589037
0.588937
0.588812
0.588678
0.588555
0.588464
0.588723
0.58885
0.588899
0.588869
0.588762
0.588589
0.588374
0.588147
0.587944
0.5878
0.588492
0.588692
0.588773
0.588729
0.588563
0.588294
0.587952
0.587585
0.587246
0.587001
0.58907
0.58936
0.589474
0.589417
0.589191
0.588817
0.588338
0.58781
0.587317
0.586936
0.588217
0.588554
0.588692
0.588613
0.588323
0.587848
0.587232
0.586554
0.585905
0.585419
0.5895
0.589927
0.590085
0.590004
0.589672
0.589119
0.588393
0.587569
0.58677
0.586133
0.586971
0.587339
0.587516
0.587417
0.587053
0.586446
0.585641
0.584734
0.583839
0.583219
0.587225
0.587368
0.587376
0.587379
0.587377
0.587374
0.58737
0.587364
0.587347
0.587202
0.589307
0.589331
0.589343
0.589343
0.589336
0.589322
0.589304
0.58928
0.589249
0.589209
0.588317
0.588329
0.588331
0.588322
0.588305
0.58828
0.588251
0.588224
0.588203
0.588193
0.588824
0.588876
0.588899
0.588891
0.588854
0.588792
0.588716
0.588633
0.588558
0.588499
0.588436
0.588515
0.588546
0.588527
0.588459
0.588351
0.588217
0.588078
0.587955
0.587871
0.588213
0.588343
0.588397
0.588369
0.588261
0.588086
0.587867
0.587633
0.587419
0.587269
0.588766
0.588959
0.589034
0.588996
0.588844
0.588598
0.588286
0.587948
0.58764
0.5874
0.58767
0.587895
0.587989
0.587935
0.587738
0.587417
0.587006
0.586565
0.586148
0.585855
0.589231
0.589532
0.589641
0.589585
0.589357
0.58898
0.588493
0.587951
0.587439
0.587031
0.586488
0.58673
0.586856
0.586787
0.586535
0.586119
0.585574
0.584979
0.584401
0.584043
0.586876
0.586998
0.587002
0.587004
0.587003
0.587002
0.587001
0.586998
0.586988
0.586865
0.589334
0.589358
0.589369
0.58937
0.589365
0.589356
0.589342
0.589322
0.589294
0.589249
0.587959
0.587961
0.58796
0.587954
0.587944
0.58793
0.587915
0.587902
0.587895
0.587897
0.58873
0.588762
0.588775
0.58877
0.588748
0.588712
0.588666
0.588618
0.588574
0.588537
0.588258
0.588306
0.588326
0.588315
0.588273
0.588207
0.588125
0.588041
0.587967
0.587919
0.588067
0.588151
0.588187
0.58817
0.588102
0.587991
0.587853
0.587707
0.587573
0.58748
0.588583
0.588703
0.58875
0.588724
0.588626
0.588468
0.588272
0.588063
0.587878
0.587733
0.587258
0.587405
0.587469
0.587434
0.587304
0.587094
0.586826
0.586543
0.586274
0.586104
0.589173
0.589379
0.589452
0.589414
0.589262
0.589014
0.588699
0.588352
0.588034
0.587769
0.585983
0.586136
0.586224
0.586177
0.586009
0.585733
0.585375
0.584995
0.584624
0.584431
0.58621
0.586306
0.586307
0.586309
0.586309
0.586309
0.58631
0.586311
0.586308
0.586213
0.589557
0.589583
0.589591
0.589592
0.589588
0.589581
0.58957
0.589555
0.589529
0.589476
0.587685
0.587686
0.587688
0.587686
0.587681
0.587672
0.587663
0.587654
0.587647
0.587653
0.588699
0.588715
0.58872
0.588715
0.588701
0.58868
0.588655
0.58863
0.588608
0.588589
0.588187
0.588218
0.588232
0.588226
0.588201
0.588161
0.588111
0.588059
0.588013
0.587984
0.588049
0.588104
0.588127
0.588117
0.588075
0.588006
0.58792
0.587829
0.587744
0.587685
0.588504
0.588574
0.5886
0.588582
0.588519
0.588421
0.588301
0.588177
0.588072
0.587991
0.587059
0.587158
0.587204
0.587183
0.5871
0.586964
0.58679
0.586607
0.586427
0.586322
0.589379
0.589513
0.589559
0.589532
0.589434
0.589275
0.589076
0.588862
0.588674
0.5885
0.585229
0.585322
0.585384
0.585354
0.585244
0.585065
0.584833
0.584594
0.58435
0.584257
0.584918
0.584983
0.584986
0.584989
0.58499
0.58499
0.58499
0.584989
0.584989
0.584921
0.590116
0.590133
0.590129
0.590124
0.590119
0.590115
0.590113
0.590109
0.590098
0.590049
0.587609
0.587622
0.587634
0.587639
0.587639
0.587632
0.58762
0.587605
0.587587
0.587577
0.588702
0.588704
0.588701
0.588695
0.588685
0.588674
0.588662
0.588652
0.588648
0.588646
0.588207
0.588229
0.58824
0.588237
0.588222
0.588197
0.588165
0.588132
0.588101
0.588079
0.588128
0.588164
0.58818
0.588174
0.588147
0.588104
0.588049
0.587991
0.587936
0.587895
0.588508
0.588545
0.588559
0.588545
0.588505
0.588442
0.588368
0.588294
0.588237
0.5882
0.587226
0.587303
0.587339
0.587328
0.587274
0.587184
0.587069
0.586943
0.586811
0.586724
0.589974
0.590049
0.590075
0.590054
0.589988
0.589885
0.589759
0.589631
0.58953
0.589434
0.583949
0.584012
0.584057
0.584037
0.583964
0.583845
0.583693
0.583536
0.583366
0.58332
0.583098
0.583138
0.58315
0.583158
0.58316
0.583158
0.58315
0.583138
0.583121
0.583066
0.591043
0.591014
0.590985
0.590965
0.590956
0.590957
0.590969
0.590992
0.591025
0.591036
0.587794
0.58783
0.587854
0.587866
0.587868
0.587861
0.587846
0.587822
0.587786
0.587743
0.588695
0.588686
0.588679
0.588672
0.588664
0.588657
0.588651
0.58865
0.588656
0.58867
0.588266
0.588283
0.588292
0.58829
0.58828
0.588262
0.588239
0.588214
0.588191
0.588172
0.588227
0.588254
0.588265
0.588261
0.588241
0.58821
0.588171
0.58813
0.588091
0.58806
0.588532
0.588554
0.588563
0.588552
0.588522
0.588477
0.588424
0.588373
0.588337
0.588324
0.587749
0.58782
0.587851
0.587845
0.587805
0.587739
0.587653
0.587557
0.587449
0.58735
0.590936
0.590964
0.590975
0.590956
0.590906
0.59083
0.59074
0.590656
0.59061
0.590609
0.582266
0.582323
0.582356
0.582342
0.582287
0.582198
0.582086
0.58197
0.581842
0.581801
0.439185
0.418432
0.425337
0.466296
0.391404
0.368164
0.379204
0.436439
0.348217
0.321069
0.338404
0.417326
0.310149
0.280751
0.305081
0.406407
0.278673
0.248605
0.280167
0.403993
0.251572
0.222051
0.261882
0.401158
0.229857
0.202207
0.250825
0.398515
0.209472
0.185347
0.242802
0.396415
0.191529
0.173496
0.239217
0.398041
0.172067
0.162186
0.234903
0.393544
0.499262
0.489062
0.489387
0.499102
0.468763
0.456145
0.457289
0.469968
0.437887
0.421164
0.423373
0.440946
0.408868
0.3879
0.391493
0.414212
0.384208
0.358742
0.363997
0.39206
0.362164
0.331813
0.337855
0.371178
0.344284
0.308944
0.314818
0.353236
0.327843
0.287705
0.293127
0.336535
0.314301
0.270128
0.275094
0.322895
0.298942
0.252344
0.254922
0.305253
0.566659
0.564442
0.563912
0.565046
0.548888
0.545189
0.544494
0.546796
0.5289
0.523003
0.522194
0.52653
0.506662
0.498393
0.497592
0.504427
0.485664
0.474941
0.474312
0.484045
0.464587
0.451279
0.450867
0.463609
0.445649
0.429673
0.429437
0.445125
0.427014
0.408492
0.408399
0.426851
0.410752
0.390549
0.3905
0.410876
0.391838
0.372122
0.37135
0.391252
0.579121
0.578036
0.577687
0.578039
0.569477
0.568063
0.567573
0.567938
0.557615
0.555128
0.554411
0.555312
0.542842
0.53905
0.538144
0.539869
0.528405
0.523164
0.522145
0.524999
0.512839
0.506023
0.504947
0.509192
0.498236
0.489772
0.488679
0.494516
0.482921
0.472887
0.471833
0.47934
0.468696
0.457716
0.45671
0.465517
0.450856
0.440923
0.439656
0.448002
0.585986
0.585394
0.585194
0.585383
0.580143
0.579661
0.579431
0.579442
0.572661
0.571718
0.571295
0.571368
0.562557
0.560919
0.560266
0.560534
0.552598
0.550092
0.549218
0.54985
0.5413
0.537784
0.536716
0.537894
0.530567
0.525953
0.524733
0.526643
0.518783
0.513093
0.511791
0.514579
0.50761
0.501266
0.499962
0.503534
0.492858
0.487656
0.486224
0.489242
0.58856
0.588083
0.587937
0.588123
0.5851
0.584887
0.584778
0.584771
0.580011
0.579589
0.579372
0.579355
0.572788
0.572024
0.571646
0.57164
0.565731
0.564498
0.56393
0.563985
0.557411
0.555584
0.554809
0.555006
0.549581
0.547064
0.546097
0.546544
0.540682
0.537458
0.53635
0.537167
0.532257
0.528585
0.527438
0.528663
0.520344
0.517791
0.516568
0.517125
0.589681
0.589248
0.589125
0.589313
0.587786
0.587691
0.587639
0.587632
0.584245
0.584048
0.58394
0.583922
0.578875
0.578503
0.578301
0.578265
0.573669
0.573047
0.572718
0.57267
0.567316
0.566358
0.565872
0.565832
0.561472
0.560105
0.559451
0.559461
0.554672
0.552864
0.552069
0.5522
0.54851
0.546392
0.545537
0.545857
0.538834
0.537831
0.53693
0.536487
0.590008
0.58959
0.589476
0.589666
0.589124
0.589075
0.589048
0.589044
0.58666
0.58656
0.586505
0.586495
0.582643
0.58245
0.582341
0.582315
0.578742
0.578412
0.578226
0.578181
0.573779
0.573258
0.572969
0.572904
0.569339
0.568579
0.568171
0.568097
0.56406
0.563036
0.562516
0.562467
0.559649
0.558422
0.557837
0.557855
0.551603
0.551509
0.550911
0.550128
0.589958
0.589547
0.589436
0.589627
0.589737
0.58971
0.589694
0.589691
0.588016
0.587963
0.587934
0.587928
0.585018
0.584913
0.584852
0.584835
0.582095
0.581914
0.581808
0.581777
0.578201
0.57791
0.57774
0.577689
0.574834
0.574402
0.574153
0.574084
0.570687
0.570099
0.569774
0.569701
0.56754
0.566825
0.566446
0.566388
0.560717
0.561144
0.560778
0.559922
0.589728
0.589318
0.589209
0.5894
0.589931
0.589914
0.589905
0.589902
0.588713
0.588684
0.588668
0.588664
0.586497
0.586436
0.586401
0.58639
0.584312
0.584208
0.584147
0.584127
0.581264
0.581096
0.580995
0.580961
0.578758
0.578506
0.578356
0.578306
0.575475
0.575133
0.574933
0.574873
0.573267
0.572845
0.572606
0.572546
0.567385
0.568097
0.567889
0.567053
0.589426
0.589015
0.588906
0.589098
0.589899
0.589888
0.589881
0.589879
0.589004
0.588988
0.588979
0.588977
0.587396
0.58736
0.587339
0.587331
0.585764
0.585704
0.585667
0.585655
0.583391
0.583291
0.58323
0.583208
0.581584
0.581433
0.581341
0.581307
0.578957
0.578753
0.57863
0.578588
0.577486
0.577233
0.577084
0.577039
0.572335
0.573188
0.573079
0.572292
0.589107
0.588694
0.588585
0.588779
0.589755
0.589747
0.589741
0.589739
0.589045
0.589036
0.589031
0.58903
0.587921
0.587899
0.587885
0.58788
0.586693
0.586657
0.586635
0.586627
0.584855
0.584794
0.584756
0.584742
0.583619
0.583526
0.583468
0.583446
0.581475
0.581352
0.581276
0.581248
0.580612
0.580456
0.580364
0.580334
0.576026
0.576933
0.576884
0.576151
0.5888
0.588385
0.588276
0.588471
0.589572
0.589565
0.58956
0.589557
0.588935
0.588931
0.588929
0.588928
0.588211
0.588196
0.588187
0.588183
0.587263
0.587242
0.587229
0.587224
0.585846
0.585809
0.585786
0.585776
0.585074
0.585016
0.58498
0.584965
0.583265
0.583191
0.583144
0.583125
0.582925
0.582828
0.582771
0.582753
0.578772
0.579678
0.579661
0.578986
0.588515
0.588097
0.587989
0.588187
0.589394
0.589388
0.589383
0.58938
0.588736
0.588735
0.588734
0.588734
0.58836
0.58835
0.588344
0.588341
0.587592
0.587581
0.587573
0.58757
0.586506
0.586483
0.586468
0.586461
0.586105
0.586069
0.586046
0.586037
0.5845
0.584455
0.584426
0.584413
0.584635
0.584572
0.584537
0.584528
0.580797
0.581663
0.581663
0.581049
0.588248
0.587827
0.587722
0.587923
0.589255
0.589249
0.589243
0.589239
0.588483
0.588484
0.588485
0.588486
0.588434
0.588428
0.588423
0.58842
0.587767
0.587761
0.587757
0.587755
0.586939
0.586925
0.586915
0.58691
0.586829
0.586807
0.586792
0.586786
0.585307
0.585281
0.585263
0.585254
0.5859
0.585859
0.585837
0.585835
0.582262
0.583059
0.583068
0.58252
0.587966
0.587545
0.587444
0.587649
0.589183
0.589175
0.589169
0.589165
0.5882
0.588202
0.588204
0.588205
0.588479
0.588475
0.588471
0.588469
0.587855
0.587853
0.587851
0.587849
0.587231
0.587222
0.587216
0.587212
0.587335
0.587323
0.587315
0.587311
0.585793
0.585778
0.585767
0.58576
0.586855
0.586826
0.586814
0.586816
0.583267
0.583972
0.583983
0.583508
0.587574
0.587157
0.587064
0.587273
0.589216
0.589206
0.589198
0.589193
0.587908
0.587911
0.587913
0.587914
0.588525
0.588523
0.588521
0.588519
0.587911
0.587911
0.58791
0.587908
0.587455
0.587449
0.587444
0.587441
0.5877
0.587695
0.587691
0.587689
0.586068
0.586058
0.58605
0.586045
0.587629
0.587608
0.5876
0.587608
0.583825
0.584416
0.584425
0.584031
0.586844
0.586443
0.586364
0.586575
0.589431
0.589419
0.58941
0.589406
0.587662
0.587664
0.587665
0.587665
0.588588
0.588588
0.588587
0.588587
0.587978
0.587978
0.587977
0.587975
0.587665
0.58766
0.587656
0.587654
0.587984
0.587985
0.587985
0.587984
0.586284
0.586273
0.586266
0.586262
0.588385
0.588368
0.588364
0.588375
0.583812
0.584269
0.584273
0.583969
0.585431
0.585079
0.585023
0.585218
0.589994
0.589979
0.589972
0.589972
0.587566
0.587563
0.58756
0.587557
0.588658
0.588661
0.588663
0.588665
0.588071
0.58807
0.588069
0.588067
0.587875
0.587871
0.587868
0.587867
0.588216
0.588222
0.588224
0.588223
0.586642
0.586623
0.586613
0.586614
0.589361
0.589349
0.58935
0.589364
0.583003
0.583292
0.58329
0.583095
0.583363
0.583143
0.583117
0.583241
0.591013
0.591008
0.591012
0.591025
0.587684
0.587672
0.587662
0.587656
0.588699
0.588705
0.58871
0.588712
0.58816
0.588158
0.588156
0.588155
0.58804
0.588036
0.588034
0.588034
0.588361
0.588369
0.588372
0.58837
0.587191
0.587154
0.587143
0.587155
0.590684
0.590696
0.590703
0.590706
0.581524
0.581598
0.581594
0.58155
0.595253
0.603711
0.607714
0.610819
0.613943
0.6167
0.618939
0.620687
0.622054
0.623201
0.596171
0.599509
0.606934
0.611984
0.616451
0.619839
0.622304
0.624069
0.625315
0.626259
0.600026
0.596384
0.60737
0.613085
0.618369
0.621966
0.624535
0.626358
0.627613
0.628506
0.603433
0.592502
0.607117
0.612689
0.618549
0.622098
0.624655
0.626434
0.627651
0.628517
0.607913
0.590481
0.607852
0.613151
0.619455
0.622855
0.625383
0.627078
0.628207
0.628992
0.610987
0.587812
0.60758
0.612404
0.61916
0.622375
0.624917
0.626564
0.627699
0.628526
0.614975
0.586537
0.608391
0.612499
0.619658
0.62261
0.625168
0.626759
0.627868
0.628671
0.616533
0.583476
0.607386
0.610725
0.618392
0.621146
0.623867
0.625543
0.626852
0.627893
0.618187
0.581985
0.607828
0.609834
0.617645
0.619933
0.622883
0.624707
0.626219
0.627452
0.602639
0.56612
0.594607
0.59696
0.606645
0.610515
0.615164
0.618279
0.620845
0.622869
0.537836
0.559906
0.576253
0.58788
0.595844
0.601388
0.605395
0.608386
0.610695
0.612615
0.524113
0.55466
0.576747
0.590696
0.599549
0.60554
0.609783
0.61286
0.615103
0.616768
0.513845
0.551524
0.577845
0.592862
0.602315
0.608579
0.612968
0.61611
0.618348
0.619944
0.505454
0.548487
0.578012
0.593349
0.603206
0.609547
0.613945
0.617051
0.619243
0.620797
0.500989
0.54766
0.579265
0.594654
0.6048
0.611091
0.615432
0.61844
0.62053
0.621994
0.497784
0.546577
0.579666
0.594819
0.605205
0.611375
0.615659
0.618582
0.620633
0.6221
0.497377
0.546998
0.58116
0.595786
0.606336
0.612284
0.616492
0.619317
0.621308
0.622736
0.496574
0.546041
0.581104
0.595032
0.605774
0.611507
0.615742
0.618586
0.6207
0.622302
0.497057
0.546355
0.582276
0.594948
0.605486
0.610748
0.61508
0.618043
0.620325
0.622113
0.48797
0.536318
0.57299
0.585176
0.596735
0.603017
0.608539
0.612432
0.615476
0.617748
0.568952
0.575228
0.581306
0.586682
0.591266
0.595099
0.598273
0.600895
0.603087
0.604978
0.555702
0.567098
0.577285
0.585613
0.59228
0.59753
0.601624
0.604808
0.60727
0.609146
0.542613
0.559789
0.574158
0.585047
0.593357
0.599608
0.604315
0.607865
0.61052
0.612467
0.529455
0.55236
0.570713
0.583707
0.593289
0.600201
0.605261
0.608993
0.611743
0.613734
0.519526
0.547498
0.569279
0.583855
0.594355
0.601652
0.606881
0.61066
0.613408
0.615372
0.510674
0.542957
0.567678
0.583378
0.594552
0.602052
0.607361
0.611144
0.613896
0.615881
0.50464
0.540424
0.567597
0.583981
0.595609
0.603144
0.608456
0.612195
0.614919
0.616885
0.498942
0.537382
0.566619
0.583316
0.595262
0.602746
0.608088
0.611855
0.614672
0.616772
0.495228
0.536037
0.567009
0.583374
0.595206
0.602407
0.607808
0.611674
0.614622
0.616872
0.485135
0.527142
0.559322
0.57563
0.588162
0.596087
0.602304
0.606834
0.610315
0.612842
0.578762
0.581173
0.584079
0.587027
0.589804
0.592317
0.594539
0.596481
0.598195
0.599755
0.569975
0.574744
0.58016
0.585303
0.58984
0.593699
0.596921
0.599576
0.601733
0.603438
0.559451
0.567531
0.575941
0.583364
0.589586
0.594654
0.598729
0.601968
0.604504
0.606435
0.547133
0.559236
0.570979
0.580661
0.588416
0.59448
0.599201
0.602859
0.605669
0.607773
0.536436
0.552829
0.567854
0.579541
0.588575
0.595386
0.600548
0.604457
0.607413
0.609592
0.525814
0.546513
0.564658
0.57805
0.588129
0.595485
0.60095
0.60502
0.608082
0.610343
0.517275
0.542097
0.563091
0.577831
0.588712
0.596412
0.602056
0.606204
0.609313
0.611597
0.508895
0.537473
0.561008
0.576733
0.588209
0.596108
0.60189
0.606129
0.609345
0.61175
0.502375
0.534583
0.560318
0.576447
0.588124
0.596005
0.601899
0.606247
0.609569
0.612094
0.491473
0.526279
0.553464
0.569981
0.582296
0.590743
0.597211
0.602031
0.605724
0.608374
0.585253
0.586016
0.587181
0.588546
0.589981
0.591398
0.592744
0.593998
0.595178
0.596331
0.579905
0.581764
0.584283
0.587007
0.589679
0.592161
0.594388
0.596334
0.597991
0.599349
0.572364
0.575768
0.580078
0.584466
0.588557
0.592183
0.595298
0.597911
0.600052
0.601748
0.562545
0.568158
0.574725
0.580982
0.586534
0.591249
0.595159
0.598347
0.600902
0.602886
0.55342
0.561708
0.570765
0.578898
0.585813
0.591464
0.59601
0.599624
0.602468
0.604637
0.543619
0.554908
0.566563
0.576479
0.584618
0.591048
0.596097
0.600036
0.603106
0.605439
0.535164
0.549638
0.563864
0.575374
0.584549
0.591579
0.596995
0.601153
0.604369
0.60679
0.526466
0.544149
0.560822
0.573666
0.583675