/*--------------------------------*- C++ -*----------------------------------*\
| =========                 |                                                 |
| \\      /  F ield         | foam-extend: Open Source CFD                    |
|  \\    /   O peration     | Version:     4.0                                |
|   \\  /    A nd           | Web:         http://www.foam-extend.org         |
|    \\/     M anipulation  |                                                 |
\*---------------------------------------------------------------------------*/
FoamFile
{
    version     2.0;
    format      ascii;
    class       volScalarField;
    location    "1650";
    object      p;
}
// * * * * * * * * * * * * * * * * * * * * * * * * * * * * * * * * * * * * * //

dimensions      [1 -1 -2 0 0 0 0];

internalField   nonuniform List<scalar> 
34480
(
107971
107871
107832
107847
107932
108113
108457
109139
110105
110451
107830
107731
107690
107702
107782
107958
108296
108966
110000
109975
107688
107585
107545
107547
107613
107760
108058
108660
109690
109114
107614
107510
107464
107454
107497
107600
107840
108343
109305
108153
107533
107418
107364
107337
107354
107412
107593
107991
108851
107157
107551
107436
107375
107339
107337
107357
107483
107773
108493
106275
107458
107330
107262
107214
107195
107186
107263
107454
108014
105338
107546
107423
107360
107326
107323
107325
107387
107506
107883
104742
107446
107318
107248
107211
107209
107221
107274
107335
107507
103995
107539
107423
107410
107475
107613
107804
108049
108285
108455
104458
108731
108606
108561
108586
108691
108895
109230
109758
110572
111639
108523
108391
108344
108371
108485
108710
109097
109750
110891
112494
108322
108186
108139
108160
108268
108486
108881
109587
110968
112954
108196
108054
108000
108010
108102
108295
108667
109363
110884
113123
108072
107918
107856
107848
107918
108076
108410
109062
110651
113036
108051
107896
107826
107807
107859
107984
108273
108856
110449
112866
107928
107761
107683
107650
107684
107778
108023
108532
110081
112470
107993
107830
107753
107729
107769
107864
108090
108532
109984
112254
107879
107712
107629
107597
107627
107715
107923
108316
109623
111813
107960
107805
107763
107808
107941
108153
108485
108982
110235
112220
109298
109184
109145
109174
109276
109462
109747
110148
110679
111289
109084
108952
108908
108943
109068
109298
109663
110206
111021
112028
108865
108721
108677
108712
108844
109092
109502
110151
111247
112675
108707
108554
108502
108530
108658
108905
109334
110043
111362
113172
108554
108388
108328
108343
108457
108688
109112
109840
111327
113464
108503
108334
108267
108271
108372
108583
108991
109706
111305
113693
108354
108174
108101
108092
108178
108365
108749
109436
111098
113682
108397
108220
108146
108144
108232
108417
108789
109443
111107
113800
108272
108091
108011
107999
108074
108245
108597
109227
110829
113637
108339
108166
108115
108158
108304
108556
108984
109679
111245
114052
109696
109607
109577
109600
109681
109819
110017
110270
110563
110844
109516
109400
109361
109394
109503
109698
109987
110378
110883
111403
109319
109181
109138
109174
109301
109530
109887
110401
111155
111994
109158
109003
108951
108985
109117
109366
109773
110388
111385
112570
108997
108825
108765
108789
108917
109169
109602
110283
111493
113020
108929
108751
108683
108699
108821
109066
109510
110228
111615
113452
108767
108576
108502
108507
108618
108851
109291
110025
111549
113671
108794
108604
108528
108537
108651
108884
109326
110063
111667
114015
108657
108464
108383
108385
108490
108712
109142
109881
111496
114071
108710
108524
108463
108504
108657
108935
109414
110201
111808
114525
109970
109908
109887
109904
109960
110054
110181
110333
110493
110632
109836
109744
109713
109739
109826
109974
110184
110448
110751
111027
109680
109560
109521
109554
109664
109857
110141
110518
111000
111473
109533
109390
109341
109375
109499
109726
110076
110564
111251
111972
109381
109216
109159
109186
109316
109560
109956
110535
111423
112416
109309
109133
109067
109091
109221
109473
109901
110547
111623
112889
109142
108951
108879
108894
109019
109270
109715
110409
111650
113190
109160
108967
108893
108911
109040
109297
109757
110484
111849
113632
109016
108819
108740
108753
108877
109130
109591
110345
111774
113815
109058
108866
108801
108841
108997
109288
109784
110579
112031
114270
110159
110119
110106
110116
110153
110212
110289
110376
110461
110528
110067
110000
109976
109996
110059
110164
110306
110475
110653
110802
109959
109861
109829
109856
109944
110094
110306
110571
110873
111141
109835
109712
109669
109699
109807
109997
110279
110647
111105
111539
109703
109554
109502
109530
109650
109869
110207
110670
111293
111923
109638
109473
109412
109438
109565
109804
110187
110731
111523
112364
109475
109292
109224
109245
109374
109622
110037
110647
111597
112665
109490
109304
109232
109256
109390
109650
110092
110755
111840
113125
109343
109150
109075
109096
109228
109490
109944
110649
111828
113358
109378
109189
109122
109160
109315
109604
110085
110830
112053
113770
110293
110269
110261
110267
110290
110325
110369
110418
110464
110498
110233
110187
110170
110184
110227
110297
110389
110493
110597
110679
110169
110095
110070
110090
110156
110267
110417
110596
110785
110941
110072
109971
109936
109960
110048
110199
110413
110680
110982
111247
109966
109838
109793
109819
109923
110107
110380
110734
111164
111564
109914
109767
109713
109739
109855
110066
110391
110827
111394
111949
109761
109594
109533
109556
109678
109908
110273
110782
111486
112214
109781
109607
109541
109567
109698
109944
110344
110914
111744
112648
109633
109452
109382
109407
109539
109792
110211
110831
111759
112867
109666
109486
109421
109457
109605
109879
110320
110979
111958
113218
110393
110378
110373
110377
110390
110411
110436
110463
110487
110505
110353
110322
110311
110320
110348
110393
110450
110514
110573
110619
110327
110273
110255
110269
110316
110393
110496
110612
110729
110821
110253
110175
110147
110166
110233
110347
110504
110690
110887
111051
110175
110070
110033
110055
110140
110288
110498
110759
111051
111307
110139
110015
109968
109992
110092
110270
110531
110867
111267
111633
110001
109854
109800
109823
109933
110134
110439
110846
111357
111852
110029
109874
109815
109841
109961
110183
110526
110994
111612
112240
109884
109719
109657
109682
109807
110039
110406
110924
111629
112411
109918
109753
109693
109726
109862
110110
110498
111052
111808
112702
110470
110461
110459
110461
110468
110480
110494
110508
110522
110531
110440
110421
110414
110420
110437
110465
110500
110538
110572
110597
110445
110407
110394
110404
110436
110488
110556
110630
110702
110755
110389
110331
110309
110323
110373
110456
110566
110692
110819
110920
110338
110256
110226
110244
110310
110423
110579
110765
110961
111124
110318
110217
110179
110199
110281
110424
110626
110876
111153
111394
110195
110072
110026
110047
110141
110309
110553
110866
111230
111564
110236
110103
110052
110077
110182
110371
110653
111023
111472
111903
110095
109950
109896
109920
110032
110234
110542
110958
111479
112018
110133
109988
109934
109964
110084
110300
110627
111074
111640
112258
110532
110527
110526
110527
110531
110537
110545
110553
110560
110565
110506
110495
110490
110494
110504
110521
110542
110564
110584
110599
110534
110509
110500
110507
110528
110562
110605
110651
110695
110726
110489
110448
110432
110442
110477
110535
110610
110694
110775
110838
110462
110400
110378
110391
110441
110524
110636
110765
110894
110998
110457
110379
110348
110365
110429
110539
110690
110870
111059
111216
110349
110249
110212
110230
110306
110440
110629
110862
111116
111339
110404
110295
110253
110274
110362
110517
110741
111022
111342
111632
110266
110144
110099
110120
110215
110385
110633
110955
111331
111696
110312
110189
110143
110169
110270
110451
110716
111065
111477
111896
110584
110581
110581
110581
110584
110587
110592
110596
110600
110602
110557
110550
110547
110549
110556
110566
110578
110591
110603
110611
110603
110587
110581
110585
110599
110620
110647
110676
110702
110720
110563
110535
110524
110530
110554
110593
110643
110698
110750
110788
110556
110511
110495
110505
110541
110600
110678
110765
110849
110915
110563
110504
110481
110494
110542
110624
110734
110860
110987
111088
110467
110389
110360
110375
110435
110537
110679
110847
111021
111168
110539
110452
110418
110436
110507
110629
110800
111007
111230
111422
110402
110302
110266
110284
110362
110497
110690
110931
111197
111440
110458
110358
110319
110341
110424
110569
110777
111039
111333
111612
110630
110628
110628
110628
110629
110631
110633
110636
110638
110639
110596
110592
110590
110592
110595
110601
110609
110616
110623
110628
110658
110648
110644
110647
110655
110669
110685
110702
110717
110727
110617
110598
110590
110595
110611
110636
110669
110704
110736
110761
110627
110595
110584
110591
110616
110657
110709
110767
110821
110862
110643
110600
110583
110592
110627
110686
110763
110849
110934
110998
110556
110497
110475
110486
110531
110608
110710
110828
110946
111042
110644
110578
110552
110566
110621
110713
110840
110988
111141
111265
110505
110427
110398
110413
110474
110579
110724
110899
111083
111243
110574
110496
110465
110482
110548
110660
110818
111009
111213
111396
110669
110668
110668
110668
110669
110670
110671
110673
110674
110674
110626
110624
110623
110624
110626
110629
110634
110639
110643
110646
110703
110697
110695
110697
110702
110710
110720
110730
110738
110744
110656
110644
110638
110641
110651
110668
110689
110711
110731
110747
110679
110658
110651
110655
110672
110699
110734
110772
110806
110831
110701
110671
110658
110665
110690
110731
110783
110841
110896
110937
110621
110578
110562
110570
110603
110658
110729
110810
110888
110951
110725
110677
110658
110669
110709
110777
110868
110970
111073
111153
110581
110522
110500
110511
110557
110635
110740
110864
110989
111093
110666
110606
110582
110596
110645
110730
110845
110980
111119
111237
110705
110704
110705
110705
110705
110706
110706
110707
110707
110708
110648
110647
110647
110647
110648
110650
110653
110656
110659
110662
110742
110738
110737
110738
110741
110746
110752
110757
110762
110764
110684
110676
110672
110674
110680
110690
110704
110718
110730
110740
110719
110705
110700
110703
110714
110732
110754
110778
110799
110815
110742
110722
110713
110718
110735
110762
110797
110835
110871
110896
110668
110638
110627
110632
110655
110693
110742
110796
110846
110887
110788
110755
110741
110749
110778
110826
110889
110958
111026
111075
110634
110590
110574
110582
110616
110672
110746
110831
110913
110981
110738
110694
110677
110686
110723
110784
110865
110958
111050
111125
110740
110739
110739
110739
110739
110740
110740
110740
110740
110740
110663
110662
110662
110662
110663
110664
110666
110668
110670
110672
110776
110774
110774
110774
110776
110779
110782
110785
110787
110788
110703
110697
110695
110696
110700
110706
110714
110723
110731
110737
110747
110739
110735
110737
110745
110756
110770
110785
110798
110807
110770
110757
110751
110754
110765
110783
110806
110830
110853
110869
110701
110680
110673
110677
110692
110718
110750
110785
110817
110842
110838
110815
110805
110811
110831
110864
110906
110952
110996
111026
110668
110636
110625
110631
110654
110693
110743
110800
110853
110897
110796
110766
110753
110760
110786
110828
110884
110946
111006
111053
110777
110776
110776
110776
110776
110776
110776
110776
110776
110776
110668
110668
110667
110667
110668
110669
110670
110672
110674
110676
110806
110806
110806
110806
110807
110809
110811
110812
110813
110812
110715
110711
110710
110710
110713
110717
110722
110727
110731
110736
110767
110761
110759
110760
110765
110772
110780
110789
110797
110802
110786
110778
110774
110776
110783
110794
110809
110824
110839
110848
110723
110710
110705
110708
110718
110734
110755
110777
110796
110812
110876
110861
110854
110858
110871
110893
110921
110951
110979
110996
110684
110662
110654
110658
110674
110700
110733
110770
110803
110832
110850
110830
110821
110826
110843
110872
110909
110949
110988
111015
110829
110828
110829
110829
110829
110829
110829
110828
110828
110827
110662
110661
110661
110661
110661
110662
110663
110664
110666
110669
110832
110832
110832
110832
110833
110834
110835
110835
110836
110834
110721
110719
110719
110719
110720
110723
110725
110728
110731
110734
110776
110773
110771
110772
110775
110779
110784
110790
110795
110798
110791
110786
110783
110784
110789
110796
110805
110815
110824
110830
110736
110729
110726
110728
110734
110745
110757
110771
110782
110791
110899
110890
110885
110887
110896
110910
110928
110947
110966
110975
110682
110667
110662
110665
110675
110692
110713
110736
110757
110776
110915
110901
110895
110898
110910
110928
110953
110978
111003
111019
110922
110922
110923
110923
110923
110922
110922
110922
110921
110920
110636
110634
110634
110634
110634
110635
110636
110637
110638
110642
110845
110844
110844
110844
110844
110844
110845
110846
110847
110846
110724
110723
110723
110724
110725
110726
110727
110729
110729
110731
110776
110774
110773
110773
110775
110778
110781
110784
110788
110790
110786
110782
110780
110781
110784
110788
110794
110800
110806
110810
110742
110738
110736
110738
110742
110748
110756
110764
110770
110775
110897
110890
110887
110888
110894
110903
110915
110927
110941
110947
110654
110645
110642
110644
110651
110662
110675
110689
110701
110714
111014
111005
111001
111003
111010
111022
111038
111054
111071
111079
111084
111084
111083
111083
111083
111083
111083
111083
111083
111082
110574
110574
110575
110576
110577
110577
110577
110576
110576
110578
110832
110830
110828
110827
110827
110828
110829
110831
110833
110835
110726
110726
110727
110727
110728
110729
110729
110730
110729
110729
110770
110769
110768
110768
110769
110771
110773
110775
110778
110779
110775
110772
110771
110772
110773
110776
110780
110784
110788
110791
110742
110740
110739
110740
110743
110747
110752
110757
110760
110762
110854
110848
110845
110846
110849
110856
110864
110873
110884
110891
110588
110583
110582
110583
110588
110595
110604
110613
110618
110625
111169
111164
111160
111162
111167
111175
111186
111197
111210
111215
111266
111264
111262
111261
111261
111261
111262
111264
111266
111270
110490
110496
110500
110502
110503
110502
110501
110498
110493
110487
110797
110793
110791
110790
110790
110790
110791
110794
110797
110802
110731
110732
110732
110733
110734
110734
110735
110735
110734
110732
110765
110763
110762
110763
110763
110765
110767
110769
110770
110772
110767
110765
110764
110764
110766
110769
110772
110775
110778
110780
110744
110742
110741
110742
110745
110748
110752
110757
110759
110760
110790
110784
110782
110782
110785
110791
110797
110805
110814
110823
110502
110501
110501
110502
110506
110512
110519
110526
110529
110526
111336
111331
111328
111329
111334
111341
111350
111359
111369
111373
122715
123928
123753
122479
125945
127351
126951
125330
128888
130475
129887
127897
131054
132757
131983
129714
132718
134499
133552
131078
134068
135909
134952
132358
134994
136867
136042
133381
135817
137696
137035
134335
135731
137583
137066
134375
135320
137157
136899
134362
113013
113202
113240
113121
115298
115669
115728
115438
117555
118108
118166
117657
119696
120416
120461
119706
121649
122505
122519
121507
123502
124467
124446
123218
125037
126087
126036
124649
126541
127650
127581
126085
127321
128461
128390
126843
127969
129143
129120
127621
111811
111900
111928
111901
113134
113302
113342
113274
114588
114854
114907
114777
116066
116437
116498
116285
117490
117965
118023
117706
118967
119543
119593
119159
120259
120927
120967
120414
121640
122385
122415
121748
122461
123252
123276
122514
123279
124107
124148
123331
110960
110982
110994
110994
111712
111766
111785
111778
112633
112736
112769
112744
113665
113833
113882
113827
114693
114934
114996
114897
115822
116141
116214
116058
116827
117224
117303
117078
117985
118453
118535
118237
118699
119217
119304
118941
119475
120035
120139
119736
110677
110687
110692
110692
111149
111173
111184
111183
111733
111782
111802
111798
112441
112524
112556
112545
113167
113293
113338
113314
114006
114182
114240
114195
114743
114973
115042
114968
115663
115946
116025
115914
116241
116565
116657
116513
116919
117279
117390
117223
110547
110550
110553
110553
110850
110859
110864
110865
111245
111265
111276
111278
111739
111778
111797
111799
112261
112325
112354
112354
112892
112988
113028
113023
113430
113561
113613
113598
114159
114327
114390
114360
114619
114817
114894
114849
115171
115396
115488
115431
110507
110509
110510
110510
110703
110707
110710
110710
110991
111001
111006
111007
111343
111363
111373
111376
111728
111761
111779
111783
112210
112262
112289
112293
112601
112675
112711
112714
113182
113281
113326
113325
113532
113652
113708
113702
113965
114103
114169
114157
110509
110510
110511
110511
110631
110633
110634
110635
110847
110851
110854
110855
111101
111111
111118
111120
111393
111410
111421
111424
111771
111799
111816
111821
112055
112097
112121
112127
112525
112582
112613
112619
112772
112844
112882
112886
113109
113192
113237
113239
110533
110534
110534
110534
110604
110606
110606
110607
110770
110772
110774
110774
110949
110955
110959
110960
111173
111182
111189
111191
111472
111488
111498
111502
111678
111702
111717
111722
112062
112096
112115
112121
112221
112264
112289
112295
112487
112537
112566
112571
110566
110567
110567
110567
110602
110603
110604
110604
110734
110735
110736
110737
110855
110858
110861
110862
111026
111032
111036
111037
111262
111272
111279
111281
111406
111420
111430
111434
111725
111745
111758
111762
111814
111840
111856
111861
112029
112060
112078
112082
110603
110603
110603
110603
110613
110614
110614
110614
110724
110725
110726
110726
110799
110801
110802
110803
110932
110935
110937
110938
111117
111123
111127
111128
111209
111218
111223
111226
111478
111491
111499
111502
111512
111528
111538
111541
111691
111710
111722
111725
110639
110639
110639
110639
110630
110630
110630
110631
110730
110731
110731
110731
110767
110769
110770
110770
110872
110874
110876
110876
111017
111020
111023
111024
111067
111072
111076
111078
111300
111308
111313
111315
111287
111298
111304
111306
111444
111456
111463
111465
110674
110674
110674
110674
110647
110647
110648
110648
110745
110745
110745
110745
110751
110752
110752
110753
110837
110838
110839
110840
110949
110952
110953
110954
110966
110970
110972
110973
111175
111180
111183
111184
111122
111128
111132
111134
111267
111274
111278
111280
110707
110707
110707
110707
110662
110662
110663
110663
110765
110765
110765
110765
110743
110743
110744
110744
110818
110819
110819
110819
110904
110906
110907
110907
110896
110898
110899
110900
111090
111093
111094
111095
111000
111004
111007
111007
111143
111148
111150
111152
110740
110740
110740
110740
110673
110673
110673
110674
110788
110788
110788
110788
110739
110739
110740
110740
110809
110809
110809
110809
110874
110875
110876
110876
110847
110848
110849
110850
111035
111037
111038
111038
110909
110912
110914
110914
111063
111066
111067
111068
110776
110776
110776
110775
110677
110677
110677
110677
110812
110812
110812
110812
110736
110736
110737
110737
110804
110804
110804
110804
110852
110853
110854
110854
110814
110814
110815
110815
111003
111004
111005
111005
110840
110842
110843
110844
111021
111022
111023
111024
110827
110827
110827
110827
110669
110670
110670
110670
110835
110835
110835
110834
110733
110733
110733
110733
110799
110799
110799
110799
110833
110834
110834
110834
110790
110790
110790
110791
110982
110983
110983
110983
110781
110783
110783
110784
111021
111021
111022
111022
110919
110919
110919
110919
110642
110642
110642
110643
110848
110849
110848
110848
110729
110728
110728
110728
110791
110791
110791
110791
110813
110814
110814
110814
110771
110771
110771
110771
110955
110956
110957
110957
110716
110717
110717
110717
111080
111079
111080
111081
111082
111082
111082
111082
110575
110575
110575
110575
110841
110842
110842
110842
110726
110725
110725
110725
110781
110781
110781
110781
110794
110794
110794
110794
110758
110757
110757
110757
110904
110906
110907
110906
110620
110619
110619
110620
111220
111220
111221
111222
111271
111271
111272
111272
110470
110467
110466
110466
110812
110814
110815
110815
110728
110727
110727
110727
110773
110774
110774
110774
110782
110782
110782
110782
110755
110754
110754
110754
110840
110844
110845
110843
110501
110495
110494
110498
111395
111398
111398
111395
116091
113577
111652
110364
109558
109037
108683
108432
108253
108116
117147
113966
111596
110195
109369
108843
108494
108252
108084
107958
117509
114004
111327
110005
109180
108660
108310
108068
107904
107797
117493
113902
111000
109844
109037
108551
108218
107988
107830
107723
117209
113682
110692
109666
108868
108417
108098
107882
107732
107637
116840
113556
110524
109632
108835
108423
108115
107911
107764
107661
116199
113299
110234
109482
108676
108306
108003
107810
107665
107568
115778
113323
110226
109617
108797
108462
108151
107954
107796
107673
115053
112990
109914
109485
108690
108401
108082
107879
107714
107583
115492
113687
110585
110181
109263
108871
108438
108148
107912
107711
112564
111819
111158
110605
110151
109781
109481
109240
109047
108897
114186
112821
111687
110832
110188
109705
109341
109064
108851
108692
115485
113533
111991
110916
110128
109563
109152
108850
108628
108479
116473
114022
112141
110935
110066
109468
109043
108735
108510
108355
117100
114289
112138
110855
109935
109329
108901
108598
108374
108227
117576
114539
112171
110859
109908
109310
108886
108589
108367
108213
117725
114571
112026
110720
109750
109168
108748
108458
108237
108089
117936
114774
112094
110828
109847
109285
108863
108569
108340
108170
117716
114577
111851
110694
109743
109212
108783
108482
108245
108066
118122
115090
112327
111192
110165
109561
109054
108689
108403
108173
111744
111429
111075
110736
110429
110161
109931
109738
109576
109446
112915
112274
111605
111025
110551
110168
109859
109610
109410
109254
114114
113064
112039
111216
110578
110088
109711
109420
109195
109036
115227
113742
112384
111369
110608
110045
109624
109306
109063
108890
116156
114240
112575
111406
110550
109941
109494
109162
108910
108737
117030
114714
112777
111493
110569
109932
109471
109133
108877
108695
117629
114957
112779
111417
110442
109793
109323
108985
108725
108546
118280
115321
112952
111553
110545
109893
109414
109068
108801
108604
118451
115275
112818
111459
110459
109817
109328
108972
108696
108489
118955
115693
113191
111826
110771
110075
109532
109131
108821
108578
110971
110875
110740
110587
110430
110279
110138
110011
109900
109806
111704
111476
111187
110893
110616
110365
110144
109954
109793
109664
112573
112138
111629
111151
110730
110372
110075
109830
109632
109484
113509
112820
112068
111407
110852
110401
110039
109749
109518
109346
114374
113396
112390
111558
110886
110360
109949
109629
109376
109194
115269
113984
112728
111746
110975
110393
109947
109605
109338
109141
115964
114366
112869
111759
110908
110285
109814
109459
109180
108981
116756
114868
113158
111955
111042
110391
109900
109529
109240
109023
117132
114996
113155
111917
110978
110312
109802
109419
109120
108895
117738
115425
113487
112200
111209
110502
109953
109538
109216
108966
110684
110644
110582
110506
110423
110338
110255
110177
110106
110044
111156
111060
110923
110765
110603
110444
110297
110164
110047
109950
111739
111546
111289
111015
110751
110508
110292
110103
109945
109822
112438
112112
111702
111293
110916
110585
110300
110061
109862
109707
113131
112637
112052
111501
111013
110601
110257
109976
109745
109572
113905
113216
112441
111750
111160
110677
110286
109970
109716
109522
114535
113627
112656
111833
111151
110610
110179
109839
109565
109363
115306
114176
113018
112081
111322
110734
110271
109907
109618
109397
115745
114410
113110
112097
111284
110662
110172
109793
109492
109263
116343
114829
113416
112335
111469
110810
110289
109884
109567
109319
110550
110532
110504
110466
110423
110378
110331
110286
110243
110205
110857
110814
110746
110662
110570
110475
110382
110295
110216
110149
111259
111171
111041
110887
110726
110568
110419
110283
110165
110071
111763
111609
111389
111145
110900
110668
110458
110272
110113
109984
112292
112045
111715
111366
111030
110724
110455
110223
110027
109876
112919
112558
112099
111638
111211
110835
110513
110241
110015
109837
113435
112937
112335
111759
111244
110804
110435
110131
109879
109688
114118
113470
112723
112040
111445
110949
110539
110206
109935
109722
114531
113734
112860
112088
111426
110887
110446
110093
109807
109586
115052
114117
113141
112299
111587
111011
110543
110169
109869
109633
110508
110500
110485
110466
110444
110419
110393
110367
110343
110321
110706
110684
110649
110603
110550
110494
110438
110383
110333
110288
110999
110954
110883
110794
110696
110595
110496
110403
110319
110252
111361
111282
111160
111013
110856
110699
110550
110413
110292
110191
111758
111630
111440
111221
110995
110777
110575
110394
110236
110112
112253
112061
111789
111488
111188
110908
110655
110433
110243
110090
112652
112378
112010
111620
111244
110903
110602
110344
110125
109955
113229
112861
112388
111909
111460
111063
110720
110431
110189
109996
113570
113100
112526
111965
111452
111010
110634
110323
110064
109861
113994
113433
112780
112157
111599
111122
110721
110391
110121
109904
110510
110506
110498
110488
110476
110463
110449
110434
110420
110408
110633
110621
110602
110577
110547
110515
110481
110448
110416
110388
110851
110826
110786
110734
110675
110612
110548
110486
110430
110384
111112
111069
110998
110909
110809
110705
110603
110506
110418
110343
111413
111343
111230
111092
110942
110790
110644
110510
110389
110292
111803
111697
111532
111337
111130
110927
110737
110565
110413
110287
112102
111948
111720
111459
111192
110936
110702
110494
110312
110168
112579
112368
112069
111739
111412
111106
110831
110592
110388
110220
112830
112553
112182
111787
111405
111058
110752
110490
110266
110088
113167
112834
112407
111964
111543
111166
110836
110557
110323
110132
110534
110531
110527
110522
110516
110508
110500
110493
110485
110478
110606
110599
110589
110575
110558
110539
110519
110499
110480
110463
110772
110758
110735
110704
110668
110629
110589
110549
110512
110483
110956
110931
110889
110835
110772
110704
110636
110570
110508
110455
111185
111144
111076
110988
110890
110787
110685
110588
110499
110427
111493
111431
111329
111202
111063
110920
110781
110652
110536
110437
111711
111620
111477
111304
111118
110932
110755
110594
110450
110334
112102
111978
111789
111566
111332
111105
110894
110704
110538
110398
112268
112104
111866
111595
111319
111057
110817
110605
110420
110270
112538
112340
112064
111757
111450
111162
110902
110675
110480
110319
110567
110565
110563
110560
110557
110553
110549
110544
110540
110536
110603
110600
110594
110586
110576
110566
110554
110542
110531
110520
110735
110727
110713
110695
110673
110650
110625
110599
110576
110558
110859
110845
110820
110786
110747
110703
110659
110615
110573
110536
111034
111009
110967
110912
110848
110779
110710
110642
110579
110527
111276
111238
111175
111093
111000
110901
110803
110710
110624
110549
111427
111372
111282
111168
111040
110909
110780
110659
110549
110458
111752
111677
111556
111407
111245
111081
110924
110778
110648
110536
111847
111749
111597
111414
111219
111027
110845
110680
110532
110410
112066
111948
111771
111562
111344
111132
110933
110755
110599
110467
110603
110602
110601
110599
110598
110595
110593
110591
110588
110587
110614
110612
110609
110605
110599
110593
110586
110579
110573
110566
110724
110720
110712
110701
110688
110673
110658
110642
110628
110618
110802
110793
110778
110758
110733
110706
110677
110648
110620
110595
110936
110921
110895
110860
110819
110774
110727
110681
110637
110602
111125
111102
111062
111010
110948
110882
110814
110748
110686
110631
111223
111189
111131
111056
110970
110879
110788
110700
110618
110551
111495
111450
111373
111274
111163
111048
110934
110827
110729
110642
111534
111474
111376
111255
111120
110983
110849
110725
110611
110516
111716
111644
111532
111393
111241
111089
110942
110807
110686
110582
110639
110639
110638
110637
110636
110635
110634
110633
110631
110630
110631
110630
110628
110625
110622
110619
110615
110611
110607
110602
110730
110727
110722
110716
110708
110699
110690
110680
110672
110666
110769
110764
110755
110743
110727
110710
110692
110673
110656
110639
110875
110866
110850
110828
110801
110772
110741
110711
110681
110657
111022
111008
110983
110949
110909
110864
110819
110773
110730
110691
111076
111055
111018
110969
110912
110850
110787
110725
110666
110617
111311
111283
111234
111169
111095
111015
110935
110858
110787
110722
111302
111264
111202
111122
111031
110935
110839
110749
110663
110592
111461
111417
111345
111254
111151
111044
110939
110840
110749
110671
110674
110674
110674
110673
110673
110672
110671
110671
110670
110670
110648
110647
110646
110645
110643
110641
110639
110637
110634
110630
110744
110743
110740
110736
110731
110726
110720
110714
110710
110707
110752
110749
110744
110736
110727
110716
110705
110693
110682
110670
110839
110833
110823
110809
110793
110774
110754
110734
110715
110700
110952
110944
110928
110906
110880
110852
110821
110791
110761
110735
110972
110959
110935
110904
110866
110825
110782
110739
110698
110664
111181
111164
111133
111091
111042
110989
110934
110880
110829
110782
111131
111107
111068
111015
110954
110889
110822
110758
110696
110645
111277
111250
111205
111146
111077
111005
110931
110861
110795
110738
110707
110707
110707
110707
110706
110706
110706
110705
110705
110705
110663
110663
110663
110662
110661
110660
110658
110657
110655
110652
110764
110763
110761
110759
110756
110753
110749
110746
110744
110743
110744
110742
110739
110735
110729
110722
110715
110708
110701
110693
110819
110815
110809
110801
110790
110778
110766
110753
110741
110731
110906
110901
110891
110877
110861
110842
110823
110803
110783
110765
110900
110891
110876