/*--------------------------------*- C++ -*----------------------------------*\
| =========                 |                                                 |
| \\      /  F ield         | foam-extend: Open Source CFD                    |
|  \\    /   O peration     | Version:     4.0                                |
|   \\  /    A nd           | Web:         http://www.foam-extend.org         |
|    \\/     M anipulation  |                                                 |
\*---------------------------------------------------------------------------*/
FoamFile
{
    version     2.0;
    format      ascii;
    class       surfaceScalarField;
    location    "1650";
    object      phi;
}
// * * * * * * * * * * * * * * * * * * * * * * * * * * * * * * * * * * * * * //

dimensions      [1 0 -1 0 0 0 0];

internalField   nonuniform List<scalar> 
97302
(
-0.000109787
9.48203e-07
-0.000869486
0.000878765
-0.000119601
1.13744e-06
-0.00087049
0.000879167
-0.000129524
1.19661e-06
-0.000871016
0.000879741
-0.000140125
1.13475e-06
-0.000871055
0.000880521
-0.000152233
9.42775e-07
-0.000870603
0.000881767
-0.000167326
6.10555e-07
-0.000869436
0.000883919
-0.000188496
1.11594e-07
-0.000866949
0.000888008
-0.000222747
-5.98389e-07
-0.000861323
0.000896172
-0.000271324
-1.64165e-06
-0.000851532
0.000901751
-4.39771e-06
-0.000824028
-0.000352993
0.000910095
-0.000150904
1.59503e-06
-0.00116593
0.00117603
-0.000161175
1.9571e-06
-0.00116689
0.00117634
-0.000171519
2.0759e-06
-0.00116748
0.00117694
-0.000182473
1.9843e-06
-0.0011675
0.00117761
-0.000194833
1.66722e-06
-0.00116671
0.00117834
-0.000210312
1.11336e-06
-0.0011647
0.00117967
-0.000232763
2.65061e-07
-0.0011611
0.0011834
-0.000271563
-9.72804e-07
-0.00115431
0.00119348
-0.000328342
-2.90296e-06
-0.001142
0.00120004
-7.46449e-06
-0.0011041
-0.000432756
0.00121158
-0.000191207
1.88405e-06
-0.00146127
0.00147212
-0.000201776
2.38022e-06
-0.00146228
0.00147243
-0.000212294
2.56236e-06
-0.00146291
0.00147294
-0.000223269
2.48664e-06
-0.0014627
0.00147318
-0.000235629
2.13482e-06
-0.00146136
0.00147325
-0.000251505
1.49624e-06
-0.00145869
0.00147418
-0.000275382
4.91553e-07
-0.00145481
0.00147846
-0.000318352
-9.77659e-07
-0.00144824
0.00149121
-0.000381684
-3.36287e-06
-0.00143508
0.00149887
-9.14323e-06
-0.00138636
-0.000500679
0.00150703
-0.000231432
2.07014e-06
-0.00175261
0.00176388
-0.000242294
2.70646e-06
-0.00175385
0.00176439
-0.000253107
2.96772e-06
-0.00175473
0.00176514
-0.000264398
2.93314e-06
-0.00175474
0.00176558
-0.000277156
2.57388e-06
-0.00175356
0.00176588
-0.000293705
1.88107e-06
-0.00175113
0.0017673
-0.000318857
7.52292e-07
-0.00174757
0.00177246
-0.000364964
-9.04038e-07
-0.00174135
0.00178738
-0.000432985
-3.69133e-06
-0.00172774
0.00179609
-1.06395e-05
-0.00166789
-0.000560746
0.00179714
-0.00027156
2.30118e-06
-0.0020451
0.00205655
-0.000282592
3.00723e-06
-0.00204672
0.00205745
-0.000293575
3.3065e-06
-0.0020481
0.00205875
-0.00030506
3.28832e-06
-0.00204858
0.00205971
-0.000318107
2.92169e-06
-0.00204794
0.00206064
-0.000335159
2.19739e-06
-0.00204613
0.00206287
-0.000361318
9.9876e-07
-0.00204322
0.00206913
-0.000409962
-7.58106e-07
-0.00203769
0.00208618
-0.000481927
-3.82665e-06
-0.00202444
0.00209654
-1.18745e-05
-0.00195278
-0.000615164
0.00208726
-0.00031226
2.38758e-06
-0.00233618
0.00234793
-0.000323395
3.11946e-06
-0.00233825
0.00234928
-0.000334446
3.40655e-06
-0.00234004
0.00235099
-0.00034599
3.36062e-06
-0.00234093
0.0023524
-0.000359138
2.95962e-06
-0.00234081
0.00235392
-0.000376417
2.2033e-06
-0.00233976
0.00235704
-0.000403203
9.73706e-07
-0.00233778
0.00236459
-0.000453741
-7.95325e-07
-0.00233335
0.00238392
-0.000529012
-3.92303e-06
-0.00232161
0.00239698
-1.28426e-05
-0.00223786
-0.000665773
0.00237559
-0.000352784
2.37025e-06
-0.00262709
0.00263895
-0.000363862
3.00981e-06
-0.00262976
0.00264095
-0.000374837
3.22575e-06
-0.00263211
0.00264326
-0.00038629
3.0935e-06
-0.00263347
0.00264519
-0.000399387
2.61805e-06
-0.00263393
0.00264737
-0.000416686
1.79208e-06
-0.0026337
0.00265141
-0.000443809
5.51791e-07
-0.00263284
0.00266039
-0.000495688
-1.1183e-06
-0.00263002
0.00268222
-0.000573743
-3.86906e-06
-0.00262094
0.00269894
-1.29958e-05
-0.00252486
-0.000712511
0.00266378
-0.000394579
2.01659e-06
-0.00291857
0.00293087
-0.00040571
2.46657e-06
-0.00292184
0.00293352
-0.000416684
2.49561e-06
-0.0029243
0.00293601
-0.000428088
2.15699e-06
-0.00292561
0.00293795
-0.00044105
1.48695e-06
-0.00292597
0.00294006
-0.000458073
4.83824e-07
-0.0029259
0.00294423
-0.000484922
-8.24e-07
-0.00292574
0.00295397
-0.000536991
-2.36563e-06
-0.00292437
0.00297768
-0.000616513
-4.15374e-06
-0.00291864
0.00299845
-1.21435e-05
-0.00281207
-0.000755681
0.00295038
-0.000435775
1.06515e-06
-0.00320641
0.00321884
-0.00044648
1.13298e-06
-0.00321054
0.00322258
-0.000457061
8.42195e-07
-0.00321363
0.00322586
-0.000468163
1.08574e-07
-0.00321554
0.0032287
-0.000480954
-9.51024e-07
-0.00321669
0.00323191
-0.000497819
-2.31114e-06
-0.00321762
0.00323728
-0.000524522
-3.7859e-06
-0.00321888
0.00324855
-0.000576316
-5.10016e-06
-0.0032198
0.00327433
-0.000655768
-5.5065e-06
-0.00321646
0.00329727
-1.01947e-05
-0.00309913
-0.000792424
0.00323383
-0.000477188
-0.00347496
0.00348797
-0.000488533
-0.00347859
0.00349106
-0.000499723
-0.00347931
0.00349134
-0.000511437
-0.00347676
0.00348859
-0.000524713
-0.00347162
0.00348394
-0.000541681
-0.00346492
0.00347958
-0.000567572
-0.00345787
0.00347997
-0.000616577
-0.00345195
0.00349585
-0.000689666
-0.00344836
0.00351594
-0.00333941
-0.000818671
0.00345822
1.43967e-05
8.85205e-07
-0.000861027
5.3139e-06
1.10973e-06
-0.000862517
-3.78983e-06
1.19051e-06
-0.000863102
-1.30982e-05
1.13294e-06
-0.000862879
-2.28104e-05
9.27063e-07
-0.000861817
-3.31447e-05
5.54525e-07
-0.000859656
-4.42483e-05
-1.88343e-08
-0.000855827
-5.554e-05
-8.71801e-07
-0.000849159
-6.62353e-05
-2.20021e-06
-0.000838637
-3.9706e-06
-0.00082238
-6.39134e-05
1.54089e-05
1.50524e-06
-0.00115607
5.39174e-06
1.92121e-06
-0.00115768
-4.61526e-06
2.07516e-06
-0.00115835
-1.49294e-05
1.9963e-06
-0.00115805
-2.58157e-05
1.66264e-06
-0.00115655
-3.76369e-05
1.05187e-06
-0.00115337
-5.12295e-05
1.02184e-07
-0.00114763
-6.7637e-05
-1.3026e-06
-0.00113747
-8.82575e-05
-3.54943e-06
-0.00112003
-6.61435e-06
-0.00109107
-9.86404e-05
1.67407e-05
1.81163e-06
-0.00145022
6.01161e-06
2.37551e-06
-0.00145201
-4.62533e-06
2.59962e-06
-0.00145279
-1.5502e-05
2.53808e-06
-0.00145237
-2.6956e-05
2.15762e-06
-0.0014504
-3.97212e-05
1.43453e-06
-0.00144631
-5.55432e-05
2.76749e-07
-0.00143916
-7.71511e-05
-1.43769e-06
-0.00142649
-0.000108632
-4.29348e-06
-0.00140285
-8.40463e-06
-0.00135931
-0.000133883
1.79617e-05
2.01638e-06
-0.00174087
6.74894e-06
2.73802e-06
-0.001743
-4.37365e-06
3.04998e-06
-0.00174406
-1.58014e-05
3.03488e-06
-0.00174381
-2.79897e-05
2.64522e-06
-0.00174186
-4.19307e-05
1.85932e-06
-0.00173762
-5.99347e-05
5.44431e-07
-0.00172984
-8.61248e-05
-1.41309e-06
-0.00171519
-0.000128052
-4.80641e-06
-0.0016853
-9.91666e-06
-0.00162542
-0.000169004
1.90813e-05
2.26093e-06
-0.00203296
7.58189e-06
3.06169e-06
-0.00203554
-3.82167e-06
3.41777e-06
-0.00203707
-1.55855e-05
3.4251e-06
-0.00203721
-2.83031e-05
3.03221e-06
-0.00203561
-4.31521e-05
2.21689e-06
-0.00203164
-6.29087e-05
8.07314e-07
-0.00202373
-9.29918e-05
-1.30047e-06
-0.00200772
-0.000144893
-5.08843e-06
-0.00197225
-1.10752e-05
-0.00189512
-0.000201402
1.97898e-05
2.37999e-06
-0.00232362
8.11256e-06
3.21569e-06
-0.00232673
-3.42236e-06
3.56733e-06
-0.00232865
-1.53296e-05
3.55726e-06
-0.00232916
-2.83225e-05
3.14109e-06
-0.00232793
-4.37424e-05
2.30663e-06
-0.00232443
-6.47938e-05
8.62177e-07
-0.00231678
-9.80645e-05
-1.28616e-06
-0.00230009
-0.000159359
-5.21967e-06
-0.00226018
-1.18927e-05
-0.00216559
-0.000230814
2.02053e-05
2.35447e-06
-0.00261427
8.5502e-06
3.09635e-06
-0.00261799
-2.93513e-06
3.38217e-06
-0.00262044
-1.47818e-05
3.29859e-06
-0.00262137
-2.78331e-05
2.84073e-06
-0.00262058
-4.35408e-05
1.97933e-06
-0.00261766
-6.5488e-05
5.38931e-07
-0.00261057
-0.000101302
-1.57415e-06
-0.00259392
-0.000171278
-5.2542e-06
-0.00255093
-1.22551e-05
-0.00243896
-0.000256819
1.99489e-05
2.02504e-06
-0.00290533
8.29125e-06
2.58109e-06
-0.00290967
-3.0882e-06
2.71041e-06
-0.00291225
-1.47683e-05
2.4732e-06
-0.00291311
-2.76475e-05
1.90047e-06
-0.00291215
-4.32514e-05
9.59414e-07
-0.00290927
-6.54631e-05
-4.42156e-07
-0.00290255
-0.000102744
-2.4132e-06
-0.00288625
-0.000180121
-5.22532e-06
-0.00284129
-1.19019e-05
-0.00271311
-0.000279436
1.94195e-05
1.07033e-06
-0.00319289
8.23115e-06
1.21565e-06
-0.00319799
-2.64441e-06
1.05585e-06
-0.0032011
-1.38169e-05
4.71327e-07
-0.00320237
-2.63389e-05
-4.0688e-07
-0.00320186
-4.18465e-05
-1.58798e-06
-0.00319957
-6.44273e-05
-3.01332e-06
-0.00319373
-0.000103033
-4.67735e-06
-0.00317893
-0.000186369
-6.15003e-06
-0.0031322
-1.00751e-05
-0.00298545
-0.000301877
1.82636e-05
-0.00346116
6.82357e-06
-0.00346593
-4.10139e-06
-0.00346733
-1.51986e-05
-0.0034652
-2.74078e-05
-0.00345981
-4.23332e-05
-0.00345159
-6.38957e-05
-0.00343932
-0.000101281
-0.00341924
-0.000186015
-0.00336977
-0.00321548
-0.000320024
1.20267e-05
7.73533e-07
-0.000854352
4.42432e-06
1.01347e-06
-0.000855928
-3.29334e-06
1.10155e-06
-0.000856486
-1.10363e-05
1.0372e-06
-0.000856174
-1.86813e-05
8.13824e-07
-0.000854986
-2.59834e-05
4.15614e-07
-0.00085277
-3.23907e-05
-1.7946e-07
-0.00084924
-3.65991e-05
-1.0093e-06
-0.000843941
-3.67278e-05
-2.1576e-06
-0.000836351
-3.43524e-06
-0.000826701
-2.8971e-05
1.38783e-05
1.35307e-06
-0.00114756
4.85375e-06
1.79295e-06
-0.00114943
-4.23207e-06
1.95626e-06
-0.00115012
-1.347e-05
1.86595e-06
-0.00114964
-2.28662e-05
1.50041e-06
-0.00114784
-3.22698e-05
8.3504e-07
-0.00114439
-4.12799e-05
-1.83612e-07
-0.00113862
-4.87446e-05
-1.62806e-06
-0.00112938
-5.2199e-05
-3.71324e-06
-0.00111502
-6.13417e-06
-0.00109582
-4.47541e-05
1.59856e-05
1.69485e-06
-0.00144005
5.78478e-06
2.28981e-06
-0.0014423
-4.41101e-06
2.52395e-06
-0.00144317
-1.47971e-05
2.44439e-06
-0.00144256
-2.54687e-05
2.01301e-06
-0.00144024
-3.6489e-05
1.19451e-06
-0.00143565
-4.79719e-05
-1.0601e-07
-0.00142776
-5.94492e-05
-1.98641e-06
-0.00141466
-6.85105e-05
-4.85641e-06
-0.00139265
-8.37504e-06
-0.00136064
-6.49476e-05
1.76395e-05
1.95028e-06
-0.00172967
6.64954e-06
2.71405e-06
-0.00173244
-4.33268e-06
3.03812e-06
-0.00173359
-1.56177e-05
3.0004e-06
-0.00173308
-2.74514e-05
2.54669e-06
-0.00173056
-4.01633e-05
1.63925e-06
-0.00172535
-5.43145e-05
1.30003e-07
-0.00171592
-7.00972e-05
-2.10176e-06
-0.00169929
-8.58023e-05
-5.71846e-06
-0.00166873
-1.03461e-05
-0.00162101
-8.82401e-05
1.90489e-05
2.24009e-06
-0.00202108
7.5499e-06
3.08976e-06
-0.00202442
-3.92102e-06
3.46194e-06
-0.00202602
-1.57823e-05
3.44787e-06
-0.00202579
-2.8459e-05
2.98855e-06
-0.00202337
-4.25332e-05
2.04204e-06
-0.00201797
-5.90181e-05
4.05106e-07
-0.00200752
-7.89035e-05
-2.07114e-06
-0.00198786
-0.00010194
-6.31456e-06
-0.00194862
-1.1982e-05
-0.00188329
-0.00011213
1.99908e-05
2.40811e-06
-0.00231114
8.15454e-06
3.29712e-06
-0.0023151
-3.59999e-06
3.6695e-06
-0.00231711
-1.57852e-05
3.64549e-06
-0.00231717
-2.89838e-05
3.16866e-06
-0.00231491
-4.4028e-05
2.20568e-06
-0.00230955
-6.24174e-05
5.2322e-07
-0.00229851
-8.60469e-05
-2.05096e-06
-0.00227648
-0.000116877
-6.64967e-06
-0.00222902
-1.31906e-05
-0.00214501
-0.000136246
2.05458e-05
2.4059e-06
-0.00260136
8.62843e-06
3.20103e-06
-0.00260597
-3.16904e-06
3.51356e-06
-0.00260849
-1.54046e-05
3.42946e-06
-0.00260891
-2.88274e-05
2.93555e-06
-0.00260692
-4.44795e-05
1.98578e-06
-0.00260179
-6.43451e-05
3.44579e-07
-0.00259053
-9.12558e-05
-2.21073e-06
-0.00256685
-0.000129984
-6.77472e-06
-0.00251208
-1.39565e-05
-0.00240888
-0.000159297
2.03714e-05
2.08768e-06
-0.00289193
8.42296e-06
2.69321e-06
-0.00289721
-3.29149e-06
2.86601e-06
-0.00289989
-1.53929e-05
2.6693e-06
-0.00290025
-2.8725e-05
2.11901e-06
-0.002898
-4.45193e-05
1.16864e-06
-0.00289266
-6.52287e-05
-3.33647e-07
-0.00288116
-9.45804e-05
-2.6532e-06
-0.00285645
-0.000140693
-6.40706e-06
-0.00279555
-1.37416e-05
-0.00267341
-0.000180604
1.97591e-05
1.14688e-06
-0.00317919
8.26291e-06
1.32466e-06
-0.00318512
-2.95188e-06
1.24477e-06
-0.00318826
-1.45109e-05
7.69638e-07
-0.00318891
-2.74153e-05
2.28835e-08
-0.00318686
-4.31395e-05
-1.01637e-06
-0.00318166
-6.46422e-05
-2.33941e-06
-0.00317022
-9.64371e-05
-4.09257e-06
-0.0031457
-0.000148905
-6.37226e-06
-0.00307977
-1.15132e-05
-0.00293597
-0.000200606
1.85963e-05
-0.0034473
7.01807e-06
-0.00345303
-4.08868e-06
-0.00345498
-1.54329e-05
-0.00345308
-2.79061e-05
-0.00344732
-4.29929e-05
-0.00343752
-6.36924e-05
-0.00342096
-9.54073e-05
-0.00339162
-0.000150686
-0.00332087
-0.0031623
-0.000215377
9.33429e-06
6.04384e-07
-0.000849516
3.46439e-06
8.47823e-07
-0.000850906
-2.58677e-06
9.40014e-07
-0.000851375
-8.54586e-06
8.74053e-07
-0.000851088
-1.41061e-05
6.48504e-07
-0.000850074
-1.88448e-05
2.5447e-07
-0.000848286
-2.21197e-05
-3.15006e-07
-0.00084565
-2.28923e-05
-1.06209e-06
-0.000842107
-1.95797e-05
-1.9832e-06
-0.00083768
-2.86631e-06
-0.000832832
-1.0583e-05
1.17255e-05
1.10677e-06
-0.00114072
4.1084e-06
1.55691e-06
-0.00114253
-3.63758e-06
1.72542e-06
-0.00114316
-1.13748e-05
1.62762e-06
-0.00114266
-1.88871e-05
1.24626e-06
-0.00114093
-2.57855e-05
5.63262e-07
-0.0011378
-3.13105e-05
-4.52875e-07
-0.00113295
-3.39444e-05
-1.8243e-06
-0.00112599
-3.08483e-05
-3.61088e-06
-0.00111649
-5.42464e-06
-0.00110596
-1.81518e-05
1.44376e-05
1.47369e-06
-0.00143128
5.26199e-06
2.08509e-06
-0.00143366
-3.9808e-06
2.32205e-06
-0.00143452
-1.32912e-05
2.22189e-06
-0.00143384
-2.25627e-05
1.74816e-06
-0.00143147
-3.15005e-05
8.66135e-07
-0.00142701
-3.9427e-05
-5.01678e-07
-0.00141978
-4.47326e-05
-2.40807e-06
-0.00140877
-4.34911e-05
-5.04692e-06
-0.00139245
-7.90264e-06
-0.00137294
-2.87109e-05
1.65285e-05
1.78182e-06
-0.00171957
6.23416e-06
2.57463e-06
-0.00172263
-4.12424e-06
2.90241e-06
-0.00172381
-1.46838e-05
2.83412e-06
-0.00172313
-2.54896e-05
2.316e-06
-0.00172032
-3.64528e-05
1.30602e-06
-0.00171483
-4.71058e-05
-3.31905e-07
-0.00170544
-5.58649e-05
-2.69023e-06
-0.00169025
-5.78783e-05
-6.19103e-06
-0.00166557
-1.0185e-05
-0.00163372
-4.28922e-05
1.82831e-05
2.12271e-06
-0.00201
7.20292e-06
3.0107e-06
-0.00201377
-3.91051e-06
3.39044e-06
-0.0020154
-1.53332e-05
3.34295e-06
-0.00201488
-2.73022e-05
2.80767e-06
-0.00201189
-3.99787e-05
1.73328e-06
-0.00200572
-5.32001e-05
-8.0982e-08
-0.00199455
-6.55999e-05
-2.78105e-06
-0.00197537
-7.19325e-05
-7.06796e-06
-0.00194141
-1.22046e-05
-0.00189456
-5.86417e-05
1.95192e-05
2.35089e-06
-0.00229923
7.88853e-06
3.2843e-06
-0.00230374
-3.71803e-06
3.66906e-06
-0.00230578
-1.57024e-05
3.6177e-06
-0.00230546
-2.84781e-05
3.06731e-06
-0.00230239
-4.24822e-05
1.97021e-06
-0.00229578
-5.79545e-05
8.20974e-08
-0.0022832
-7.39582e-05
-2.79516e-06
-0.00226046
-8.55344e-05
-7.61892e-06
-0.00221689
-1.37777e-05
-0.00215315
-7.58196e-05
2.02784e-05
2.39259e-06
-0.0025888
8.4118e-06
3.23366e-06
-0.00259406
-3.38482e-06
3.564e-06
-0.00259658
-1.55915e-05
3.46376e-06
-0.00259655
-2.88094e-05
2.91054e-06
-0.00259355
-4.37355e-05
1.84661e-06
-0.00258674
-6.10708e-05
1.22363e-08
-0.00257312
-8.0449e-05
-2.87596e-06
-0.00254739
-9.78795e-05
-7.86414e-06
-0.0024944
-1.49047e-05
-0.00241248
-9.31545e-05
2.02602e-05
2.10249e-06
-0.00287879
8.2902e-06
2.7507e-06
-0.00288476
-3.49802e-06
2.95369e-06
-0.00288749
-1.56696e-05
2.77624e-06
-0.00288739
-2.89385e-05
2.21636e-06
-0.00288403
-4.42507e-05
1.21951e-06
-0.00287672
-6.28342e-05
-4.07698e-07
-0.00286216
-8.50384e-05
-3.02633e-06
-0.0028341
-0.000108518
-7.33569e-06
-0.00277259
-1.48349e-05
-0.00267188
-0.000110117
1.97132e-05
1.19563e-06
-0.00316562
8.13755e-06
1.40121e-06
-0.0031722
-3.21225e-06
1.38626e-06
-0.00317534
-1.49017e-05
9.96181e-07
-0.00317544
-2.77835e-05
3.42891e-07
-0.0031721
-4.30371e-05
-6.10409e-07
-0.00316457
-6.25127e-05
-1.89762e-06
-0.00314926
-8.76702e-05
-3.75395e-06
-0.00311981
-0.000117063
-6.49695e-06
-0.00305121
-1.22165e-05
-0.00292898
-0.000126676
1.86253e-05
-0.00343364
7.08901e-06
-0.00344009
-4.04178e-06
-0.00344246
-1.54364e-05
-0.00344069
-2.78641e-05
-0.00343455
-4.2544e-05
-0.00342345
-6.14273e-05
-0.00340397
-8.70667e-05
-0.00336973
-0.000119692
-0.00329474
-0.00315478
-0.000139434
6.84975e-06
4.19205e-07
-0.000846166
2.57553e-06
6.49713e-07
-0.000847281
-1.89794e-06
7.40485e-07
-0.000847642
-6.24025e-06
6.78258e-07
-0.000847424
-1.01067e-05
4.6653e-07
-0.000846675
-1.30924e-05
1.04384e-07
-0.000845404
-1.47036e-05
-3.99774e-07
-0.000843639
-1.43364e-05
-1.02463e-06
-0.000841449
-1.13201e-05
-1.72442e-06
-0.000838972
-2.33224e-06
-0.000836455
-5.36473e-06
9.38817e-06
8.12403e-07
-0.00113551
3.29886e-06
1.25183e-06
-0.00113704
-2.96677e-06
1.41875e-06
-0.00113758
-9.12875e-06
1.31993e-06
-0.00113714
-1.48445e-05
9.43856e-07
-0.00113569
-1.96445e-05
2.83814e-07
-0.00113318
-2.28131e-05
-6.6528e-07
-0.00112952
-2.32468e-05
-1.88155e-06
-0.0011247
-1.92823e-05
-3.3217e-06
-0.00111886
-4.63916e-06
-0.00111317
-9.76488e-06
1.24598e-05
1.17424e-06
-0.0014241
4.59577e-06
1.78224e-06
-0.00142632
-3.40177e-06
2.01569e-06
-0.00142712
-1.13498e-05
1.89991e-06
-0.00142648
-1.89732e-05
1.40377e-06
-0.0014243
-2.57998e-05
5.02667e-07
-0.0014204
-3.09531e-05
-8.49746e-07
-0.00141445
-3.28545e-05
-2.65573e-06
-0.00140609
-2.86162e-05
-4.93513e-06
-0.00139508
-7.14983e-06
-0.00138365
-1.53894e-05
1.48979e-05
1.5169e-06
-0.00171088
5.64697e-06
2.32261e-06
-0.00171392
-3.74386e-06
2.64864e-06
-0.00171506
-1.32081e-05
2.5519e-06
-0.00171432
-2.25815e-05
1.98363e-06
-0.00171153
-3.14986e-05
9.08255e-07
-0.00170631
-3.90667e-05
-7.76842e-07
-0.00169794
-4.33537e-05
-3.11387e-06
-0.0016855
-4.0038e-05
-6.28264e-06
-0.00166754
-9.54862e-06
-0.00164751
-2.38506e-05
1.69835e-05
1.90087e-06
-0.00200008
6.67784e-06
2.81505e-06
-0.00200396
-3.73398e-06
3.19749e-06
-0.00200553
-1.4329e-05
3.1153e-06
-0.00200485
-2.51133e-05
2.51059e-06
-0.00200164
-3.59094e-05
1.33258e-06
-0.00199535
-4.59395e-05
-5.89603e-07
-0.0019847
-5.30717e-05
-3.35889e-06
-0.00196799
-5.16683e-05
-7.38945e-06
-0.00194171
-1.17826e-05
-0.00191034
-3.36514e-05
1.85299e-05
2.18948e-06
-0.00228825
7.44431e-06
3.15925e-06
-0.002293
-3.68992e-06
3.55228e-06
-0.002295
-1.50937e-05
3.46971e-06
-0.00229441
-2.6944e-05
2.84618e-06
-0.00229088
-3.93073e-05
1.62767e-06
-0.00228372
-5.16572e-05
-4.11328e-07
-0.00227103
-6.18753e-05
-3.44362e-06
-0.00225016
-6.33781e-05
-8.13372e-06
-0.00221464
-1.35991e-05
-0.00216969
-4.50246e-05
1.95258e-05
2.28816e-06
-0.00257699
8.02288e-06
3.17137e-06
-0.00258256
-3.47792e-06
3.5167e-06
-0.00258505
-1.53024e-05
3.3959e-06
-0.00258466
-2.78212e-05
2.77881e-06
-0.00258096
-4.13585e-05
1.59891e-06
-0.00257317
-5.57413e-05
-3.98761e-07
-0.00255875
-6.90408e-05
-3.48868e-06
-0.00253405
-7.42283e-05
-8.49567e-06
-0.00248885
-1.49598e-05
-0.00242847
-5.68773e-05
1.97101e-05
2.03711e-06
-0.00286625
7.99877e-06
2.72876e-06
-0.0028726
-3.6028e-06
2.95766e-06
-0.00287533
-1.55326e-05
2.79108e-06
-0.00287485
-2.8287e-05
2.21031e-06
-0.00287071
-4.24444e-05
1.15222e-06
-0.00286212
-5.83055e-05
-5.95176e-07
-0.0028461
-7.43953e-05
-3.41399e-06
-0.00281808
-8.38842e-05
-7.9159e-06
-0.00276369
-1.50123e-05
-0.00268664
-6.90711e-05
1.92882e-05
1.19553e-06
-0.00315254
7.88429e-06
1.42965e-06
-0.00315949
-3.37094e-06
1.4716e-06
-0.0031626
-1.49242e-05
1.15063e-06
-0.00316225
-2.74194e-05
5.67649e-07
-0.00315796
-4.16417e-05
-3.29983e-07
-0.00314887
-5.83898e-05
-1.60905e-06
-0.00313149
-7.72927e-05
-3.54018e-06
-0.00310078
-9.15747e-05
-6.47665e-06
-0.00303837
-1.2079e-05
-0.00294198
-8.15124e-05
1.83093e-05
-0.00342047
7.01877e-06
-0.00342737
-3.95107e-06
-0.00343002
-1.51764e-05
-0.00342832
-2.72509e-05
-0.0034219
-4.10448e-05
-0.00340998
-5.75039e-05
-0.00338912
-7.70949e-05
-0.00335368
-9.41649e-05
-0.00328414
-0.00317014
-9.08826e-05
4.81704e-06
2.46156e-07
-0.000843903
1.84333e-06
4.50772e-07
-0.000844758
-1.31387e-06
5.35212e-07
-0.00084502
-4.34559e-06
4.8078e-07
-0.000844873
-6.94514e-06
2.94852e-07
-0.00084437
-8.78983e-06
-1.75868e-08
-0.000843542
-9.55045e-06
-4.38256e-07
-0.00084244
-8.91244e-06
-9.35159e-07
-0.000841152
-6.6465e-06
-1.45184e-06
-0.000839786
-1.86982e-06
-0.000838385
-2.84673e-06
7.17073e-06
5.1139e-07
-0.00113168
2.52105e-06
9.19403e-07
-0.00113286
-2.32073e-06
1.07763e-06
-0.00113328
-7.02313e-06
9.84658e-07
-0.00113294
-1.12135e-05
6.34554e-07
-0.00113184
-1.44502e-05
3.17844e-08
-0.00112999
-1.61741e-05
-8.07132e-07
-0.00112743
-1.57044e-05
-1.83383e-06
-0.00112427
-1.22598e-05
-2.95969e-06
-0.00112079
-3.91455e-06
-0.00111773
-5.65297e-06
1.03387e-05
8.35476e-07
-0.00141846
3.87348e-06
1.41647e-06
-0.00142035
-2.77035e-06
1.63907e-06
-0.00142104
-9.28759e-06
1.51604e-06
-0.00142049
-1.53044e-05
1.02314e-06
-0.00141868
-2.03006e-05
1.50197e-07
-0.00141553
-2.34788e-05
-1.11493e-06
-0.00141096
-2.36638e-05
-2.73268e-06
-0.00140501
-1.91503e-05
-4.62348e-06
-0.00139793
-6.32223e-06
-0.0013913
-9.09476e-06
1.29606e-05
1.184e-06
-0.00170371
4.95602e-06
1.98034e-06
-0.00170648
-3.25392e-06
2.29792e-06
-0.00170751
-1.14292e-05
2.18023e-06
-0.00170681
-1.92425e-05
1.58671e-06
-0.00170428
-2.61791e-05
4.9569e-07
-0.00169972
-3.12797e-05
-1.15131e-06
-0.0016928
-3.28909e-05
-3.34338e-06
-0.00168328
-2.80305e-05
-6.08661e-06
-0.00167094
-8.69661e-06
-0.00165861
-1.45534e-05
1.52932e-05
1.59237e-06
-0.00199153
6.02606e-06
2.51344e-06
-0.00199523
-3.41952e-06
2.89243e-06
-0.00199668
-1.29237e-05
2.78046e-06
-0.00199594
-2.22821e-05
2.12643e-06
-0.00199282
-3.10768e-05
8.89153e-07
-0.00198695
-3.82938e-05
-1.05462e-06
-0.00197758
-4.18814e-05
-3.74802e-06
-0.001964
-3.74069e-05
-7.35846e-06
-0.00194491
-1.09973e-05
-0.00192456
-2.08857e-05
1.71133e-05
1.93133e-06
-0.0022785
6.86093e-06
2.92263e-06
-0.00228316
-3.51846e-06
3.31863e-06
-0.00228505
-1.40452e-05
3.20657e-06
-0.00228431
-2.4657e-05
2.52348e-06
-0.00228066
-3.51077e-05
1.21849e-06
-0.0022736
-4.44666e-05
-8.91596e-07
-0.00226183
-5.04472e-05
-3.92419e-06
-0.00224401
-4.72245e-05
-8.25012e-06
-0.00221697
-1.29194e-05
-0.00218645
-2.85341e-05
1.83399e-05
2.09208e-06
-0.00256622
7.49114e-06
3.00811e-06
-0.0025718
-3.4342e-06
3.36473e-06
-0.00257417
-1.45726e-05
3.22363e-06
-0.00257353
-2.60427e-05
2.55088e-06
-0.00256952
-3.7812e-05
1.27889e-06
-0.00256146
-4.91488e-05
-8.17842e-07
-0.00254749
-5.76929e-05
-3.96065e-06
-0.00252546
-5.6458e-05
-8.69851e-06
-0.00248964
-1.43596e-05
-0.00244698
-3.65061e-05
1.87463e-05
1.88601e-06
-0.00285461
7.5679e-06
2.61791e-06
-0.00286104
-3.58519e-06
2.86812e-06
-0.00286368
-1.4983e-05
2.70718e-06
-0.00286294
-2.68741e-05
2.10326e-06
-0.00285837
-3.94524e-05
9.91563e-07
-0.00284925
-5.23269e-05
-8.32942e-07
-0.00283321
-6.33461e-05
-3.71571e-06
-0.00280731
-6.48763e-05
-8.10351e-06
-0.00276275
-1.44404e-05
-0.00270644
-4.50002e-05
1.84818e-05
1.13977e-06
-0.00314025
7.50567e-06
1.40086e-06
-0.0031473
-3.4124e-06
1.49118e-06
-0.00315031
-1.45585e-05
1.22472e-06
-0.00314962
-2.63429e-05
6.93209e-07
-0.00314477
-3.91512e-05
-1.67177e-07
-0.0031349
-5.29363e-05
-1.44068e-06
-0.0031171
-6.63088e-05
-3.38075e-06
-0.00308775
-7.12765e-05
-6.29044e-06
-0.00303522
-1.12892e-05
-0.00296276
-5.36403e-05
1.76404e-05
-0.00340809
6.80707e-06
-0.00341514
-3.80114e-06
-0.00341792
-1.46272e-05
-0.00341626
-2.60597e-05
-0.00340978
-3.86007e-05
-0.00339761
-5.23902e-05
-0.00337677
-6.65714e-05
-0.00334288
-7.37106e-05
-0.0032833
-0.00319553
-5.96054e-05
3.29165e-06
1.0227e-07
-0.000842374
1.28878e-06
2.73975e-07
-0.000843029
-8.65786e-07
3.48913e-07
-0.000843214
-2.91964e-06
3.04329e-07
-0.000843124
-4.63228e-06
1.50221e-07
-0.000842807
-5.77054e-06
-1.05391e-07
-0.000842298
-6.13013e-06
-4.39916e-07
-0.000841641
-5.55973e-06
-8.20054e-07
-0.000840902
-4.01201e-06
-1.19372e-06
-0.00084014
-1.47954e-06
-0.000839271
-1.6465e-06
5.25096e-06
2.35628e-07
-0.00112891
1.83326e-06
5.96631e-07
-0.00112976
-1.76532e-06
7.40339e-07
-0.00113007
-5.22798e-06
6.58558e-07
-0.00112983
-8.21386e-06
3.49844e-07
-0.00112905
-1.03596e-05
-1.73031e-07
-0.00112778
-1.12716e-05
-8.80009e-07
-0.00112607
-1.05674e-05
-1.71139e-06
-0.00112408
-7.94763e-06
-2.57024e-06
-0.00112204
-3.25962e-06
-0.00112036
-3.53829e-06
8.28969e-06
4.94946e-07
-0.00141416
3.16049e-06
1.02636e-06
-0.00141565
-2.16418e-06
1.23073e-06
-0.0014162
-7.32915e-06
1.10921e-06
-0.00141578
-1.19338e-05
6.4425e-07
-0.00141437
-1.54914e-05
-1.60321e-07
-0.00141198
-1.7374e-05
-1.28862e-06
-0.00140867
-1.68232e-05
-2.67258e-06
-0.0014046
-1.29867e-05
-4.18874e-06
-0.00140015
-5.47877e-06
-0.00139629
-5.78158e-06
1.09074e-05
8.18253e-07
-0.00169799
4.21669e-06
1.57983e-06
-0.00170034
-2.72228e-06
1.88113e-06
-0.00170122
-9.5566e-06
1.75231e-06
-0.00170061
-1.58665e-05
1.16251e-06
-0.00169849
-2.10939e-05
1.06829e-07
-0.00169476
-2.43898e-05
-1.42986e-06
-0.00168937
-2.45505e-05
-3.39169e-06
-0.0016824
-1.98215e-05
-5.68048e-06
-0.00167418
-7.73429e-06
-0.00166663
-9.54861e-06
1.33583e-05
1.22585e-06
-0.0019844
5.28965e-06
2.12854e-06
-0.00198771
-3.01554e-06
2.49611e-06
-0.00198899
-1.12815e-05
2.36302e-06
-0.00198829
-1.91522e-05
1.68786e-06
-0.00198547
-2.60792e-05
4.45361e-07
-0.00198036
-3.10491e-05
-1.43428e-06
-0.00197261
-3.24116e-05
-3.9338e-06
-0.0019621
-2.72228e-05
-7.04301e-06
-0.00194874
-9.99387e-06
-0.0019357
-1.3832e-05
1.5372e-05
1.59665e-06
-0.0022701
6.16867e-06
2.58738e-06
-0.00227442
-3.23303e-06
2.97889e-06
-0.00227613
-1.26723e-05
2.84312e-06
-0.00227535
-2.18906e-05
2.12378e-06
-0.00227188
-3.04277e-05
7.81761e-07
-0.00226539
-3.7216e-05
-1.31037e-06
-0.00225517
-4.02507e-05
-4.20275e-06
-0.0022407
-3.52619e-05
-8.02465e-06
-0.00222098
-1.19058e-05
-0.00220063
-1.91707e-05
1.67864e-05
1.81608e-06
-0.00255671
6.83664e-06
2.74827e-06
-0.00256201
-3.26791e-06
3.11016e-06
-0.00256419
-1.34749e-05
2.95218e-06
-0.00256344
-2.36768e-05
2.24111e-06
-0.00255943
-3.35608e-05
9.17152e-07
-0.00255172
-4.21076e-05
-1.19771e-06
-0.00253906
-4.70771e-05
-4.24651e-06
-0.00252045
-4.28837e-05
-8.51802e-06
-0.00249334
-1.3289e-05
-0.0024639
-2.45853e-05
1.74079e-05
1.65435e-06
-0.00284411
7.00959e-06
2.41697e-06
-0.00285031
-3.45057e-06
2.68222e-06
-0.00285279
-1.40621e-05
2.52421e-06
-0.0028519
-2.48381e-05
1.90235e-06
-0.00284726
-3.56455e-05
7.57939e-07
-0.00283829
-4.56562e-05
-1.08608e-06
-0.00282331
-5.26238e-05
-3.89534e-06
-0.00280069
-5.0004e-05
-7.92316e-06
-0.00276596
-1.32899e-05
-0.00272593
-3.05139e-05
1.7313e-05
1.02834e-06
-0.00312903
7.0056e-06
1.31109e-06
-0.00313589
-3.3387e-06
1.44058e-06
-0.00313872
-1.38264e-05
1.21618e-06
-0.00313782
-2.46386e-05
7.2317e-07
-0.00313278
-3.58125e-05
-1.06894e-07
-0.00312286
-4.67395e-05
-1.36143e-06
-0.0031059
-5.5558e-05
-3.24133e-06
-0.00307958
-5.51322e-05
-5.95698e-06
-0.00303761
-1.01088e-05
-0.00298491
-3.61626e-05
1.66298e-05
-0.00339676
6.45785e-06
-0.00340365
-3.58745e-06
-0.00340644
-1.37935e-05
-0.00340484
-2.43403e-05
-0.00339851
-3.53916e-05
-0.00338666
-4.6529e-05
-0.003367
-5.6187e-05
-0.00333646
-5.73899e-05
-0.00328805
-0.00322332
-3.97114e-05
2.21257e-06
-6.12485e-09
-0.000841327
8.94276e-07
1.31672e-07
-0.000841843
-5.42353e-07
1.95997e-07
-0.000841974
-1.9058e-06
1.61488e-07
-0.000841922
-3.02077e-06
3.97492e-08
-0.000841732
-3.72717e-06
-1.60549e-07
-0.000841431
-3.90108e-06
-4.16735e-07
-0.00084105
-3.47178e-06
-6.99271e-07
-0.000840633
-2.45015e-06
-9.65623e-07
-0.000840196
-1.16043e-06
-0.00083959
-9.70299e-07
3.6965e-06
4.40355e-09
-0.00112693
1.26321e-06
3.10357e-07
-0.00112751
-1.32408e-06
4.36039e-07
-0.00112772
-3.79788e-06
3.68449e-07
-0.00112756
-5.87699e-06
1.09235e-07
-0.00112705
-7.28495e-06
-3.24394e-07
-0.00112621
-7.75996e-06
-8.96757e-07
-0.00112512
-7.09854e-06
-1.54768e-06
-0.00112389
-5.21452e-06
-2.1893e-06
-0.0011227
-2.68133e-06
-0.00112176
-2.29203e-06
6.45456e-06
1.82222e-07
-0.00141093
2.50688e-06
6.46804e-07
-0.00141204
-1.62748e-06
8.26905e-07
-0.00141246
-5.60142e-06
7.14057e-07
-0.00141215
-9.04027e-06
2.96009e-07
-0.00141111
-1.15317e-05
-4.13144e-07
-0.0014094
-1.26165e-05
-1.37897e-06
-0.0014071
-1.18384e-05
-2.52052e-06
-0.0014044
-8.82999e-06
-3.70487e-06
-0.00140164
-4.66892e-06
-0.00139938
-3.7516e-06
8.89992e-06
4.53713e-07
-0.00169355
3.4816e-06
1.15651e-06
-0.00169543
-2.20064e-06
1.43373e-06
-0.00169614
-7.7456e-06
1.30358e-06
-0.00169566
-1.27082e-05
7.44617e-07
-0.00169397
-1.65611e-05
-2.32439e-07
-0.00169109
-1.8624e-05
-1.60872e-06
-0.00168707
-1.80931e-05
-3.29803e-06
-0.00168215
-1.40542e-05
-5.152e-06
-0.00167677
-6.73659e-06
-0.00167215
-6.45983e-06
1.13284e-05
8.33792e-07
-0.00197864
4.51583e-06
1.69063e-06
-0.00198143
-2.56801e-06
2.03784e-06
-0.00198251
-9.54941e-06
1.89391e-06
-0.0019819
-1.59906e-05
1.22822e-06
-0.00197951
-2.13083e-05
3.36156e-08
-0.00197531
-2.4613e-05
-1.711e-06
-0.0019692
-2.46987e-05
-3.93898e-06
-0.00196137
-1.98283e-05
-6.53006e-06
-0.00195223
-8.86999e-06
-0.00194392
-9.46729e-06
1.343e-05
1.21297e-06
-0.00226309
5.40643e-06
2.17614e-06
-0.00226688
-2.86864e-06
2.55407e-06
-0.00226837
-1.10972e-05
2.40301e-06
-0.00226763
-1.88889e-05
1.67619e-06
-0.00226454
-2.56749e-05
3.51577e-07
-0.00225893
-3.04281e-05
-1.64052e-06
-0.00225048
-3.15662e-05
-4.28624e-06
-0.00223922
-2.63216e-05
-7.54152e-06
-0.00222521
-1.06822e-05
-0.00221179
-1.33521e-05
1.496e-05
1.47996e-06
-0.00254857
6.08906e-06
2.40553e-06
-0.00255337
-3.0029e-06
2.76457e-06
-0.00255531
-1.21024e-05
2.59564e-06
-0.00255453
-2.09288e-05
1.86992e-06
-0.0025508
-2.89913e-05
5.42544e-07
-0.00254384
-3.51983e-05
-1.50931e-06
-0.00253298
-3.76589e-05
-4.34473e-06
-0.00251793
-3.24546e-05
-8.04278e-06
-0.00249804
-1.19208e-05
-0.00247802
-1.70937e-05
1.57658e-05
1.35498e-06
-0.0028349
6.34622e-06
2.13265e-06
-0.00284061
-3.21408e-06
2.40512e-06
-0.00284287
-1.28372e-05
2.24994e-06
-0.00284193
-2.23412e-05
1.6221e-06
-0.00283751
-3.13597e-05
4.75804e-07
-0.0028292
-3.88697e-05
-1.32561e-06
-0.00281599
-4.28203e-05
-3.95276e-06
-0.00279713
-3.83538e-05
-7.47699e-06
-0.002771
-1.18055e-05
-0.00274306
-2.13293e-05
1.58315e-05
8.66831e-07