/*--------------------------------*- C++ -*----------------------------------*\
| =========                 |                                                 |
| \\      /  F ield         | foam-extend: Open Source CFD                    |
|  \\    /   O peration     | Version:     4.0                                |
|   \\  /    A nd           | Web:         http://www.foam-extend.org         |
|    \\/     M anipulation  |                                                 |
\*---------------------------------------------------------------------------*/
FoamFile
{
    version     2.0;
    format      ascii;
    class       volScalarField;
    location    "1650";
    object      T;
}
// * * * * * * * * * * * * * * * * * * * * * * * * * * * * * * * * * * * * * //

dimensions      [0 0 0 1 0 0 0];

internalField   nonuniform List<scalar> 
34480
(
278.81
278.699
278.619
278.564
278.531
278.522
278.537
278.622
278.894
278.86
278.258
278.14
278.047
277.98
277.947
277.95
277.975
278.02
278.237
277.794
278.147
278.016
277.91
277.836
277.798
277.786
277.767
277.713
277.842
277.066
278.189
278.037
277.908
277.806
277.733
277.67
277.585
277.427
277.434
276.31
278.203
278.026
277.868
277.734
277.62
277.5
277.347
277.077
276.928
275.448
278.273
278.072
277.891
277.73
277.581
277.411
277.191
276.807
276.472
274.609
278.3
278.074
277.869
277.683
277.503
277.289
277.006
276.509
275.962
273.711
278.372
278.124
277.906
277.712
277.524
277.294
276.978
276.396
275.64
272.97
278.429
278.161
277.925
277.712
277.499
277.242
276.883
276.218
275.252
272.228
279.246
278.965
278.761
278.619
278.514
278.394
278.184
277.658
276.652
273.196
279.344
279.251
279.215
279.23
279.303
279.45
279.71
280.167
280.836
281.706
278.693
278.61
278.577
278.594
278.674
278.841
279.133
279.631
280.424
281.445
278.488
278.41
278.38
278.401
278.487
278.659
278.948
279.439
280.289
281.405
278.436
278.357
278.323
278.335
278.408
278.558
278.823
279.288
280.169
281.332
278.363
278.278
278.237
278.235
278.289
278.411
278.643
279.07
279.951
281.129
278.354
278.267
278.22
278.209
278.248
278.343
278.541
278.919
279.771
280.926
278.312
278.218
278.165
278.144
278.169
278.24
278.404
278.729
279.528
280.642
278.33
278.234
278.183
278.168
278.196
278.262
278.407
278.685
279.411
280.434
278.347
278.243
278.186
278.163
278.178
278.229
278.348
278.58
279.225
280.168
279.111
279.02
278.999
279.042
279.145
279.299
279.519
279.824
280.419
281.088
279.817
279.719
279.683
279.703
279.782
279.927
280.158
280.504
281.003
281.627
279.161
279.063
279.028
279.052
279.143
279.317
279.607
280.063
280.77
281.699
278.941
278.842
278.807
278.831
278.927
279.115
279.432
279.947
280.819
282.033
278.858
278.755
278.715
278.732
278.82
278.999
279.318
279.862
280.869
282.334
278.754
278.646
278.598
278.604
278.678
278.838
279.143
279.69
280.794
282.466
278.719
278.607
278.554
278.551
278.612
278.751
279.035
279.567
280.73
282.554
278.654
278.536
278.477
278.465
278.513
278.632
278.89
279.394
280.581
282.52
278.653
278.533
278.475
278.466
278.516
278.629
278.87
279.34
280.516
282.515
278.652
278.528
278.465
278.451
278.491
278.592
278.811
279.239
280.378
282.456
279.385
279.272
279.237
279.271
279.376
279.551
279.836
280.304
281.387
283.384
280.156
280.07
280.041
280.06
280.128
280.249
280.427
280.668
280.974
281.313
279.528
279.436
279.404
279.429
279.518
279.677
279.924
280.277
280.762
281.31
279.319
279.218
279.183
279.211
279.31
279.493
279.787
280.228
280.884
281.676
279.224
279.114
279.074
279.098
279.196
279.386
279.706
280.211
281.031
282.08
279.105
278.987
278.939
278.955
279.046
279.23
279.558
280.101
281.062
282.353
279.051
278.928
278.875
278.883
278.966
279.14
279.465
280.027
281.1
282.6
278.97
278.84
278.782
278.782
278.855
279.015
279.329
279.893
281.048
282.73
278.952
278.821
278.763
278.765
278.839
278.996
279.302
279.855
281.054
282.873
278.937
278.803
278.741
278.739
278.806
278.955
279.249
279.782
280.985
282.954
279.636
279.513
279.471
279.503
279.615
279.813
280.151
280.713
281.887
283.887
280.386
280.319
280.296
280.311
280.362
280.448
280.567
280.716
280.886
281.052
279.805
279.727
279.7
279.723
279.796
279.924
280.111
280.356
280.657
280.952
279.625
279.532
279.5
279.527
279.616
279.776
280.018
280.356
280.805
281.272
279.535
279.428
279.39
279.415
279.512
279.691
279.976
280.394
280.999
281.673
279.414
279.295
279.25
279.27
279.366
279.552
279.864
280.343
281.095
281.986
279.353
279.226
279.174
279.189
279.283
279.47
279.797
280.319
281.203
282.301
279.263
279.127
279.071
279.079
279.167
279.349
279.681
280.229
281.224
282.518
279.234
279.096
279.039
279.049
279.139
279.321
279.655
280.216
281.289
282.752
279.208
279.068
279.008
279.014
279.099
279.276
279.608
280.171
281.285
282.929
279.875
279.745
279.697
279.728
279.844
280.055
280.415
281.004
282.118
283.858
280.538
280.488
280.472
280.482
280.517
280.573
280.648
280.736
280.829
280.918
280.007
279.948
279.926
279.944
280
280.094
280.225
280.387
280.566
280.726
279.864
279.785
279.758
279.781
279.855
279.984
280.17
280.412
280.702
280.974
279.789
279.693
279.658
279.682
279.769
279.925
280.161
280.483
280.901
281.32
279.677
279.565
279.523
279.545
279.638
279.811
280.085
280.477
281.027
281.611
279.617
279.494
279.446
279.465
279.56
279.743
280.045
280.494
281.172
281.929
279.525
279.392
279.338
279.352
279.447
279.633
279.953
280.445
281.239
282.171
279.491
279.354
279.298
279.314
279.412
279.603
279.936
280.458
281.343
282.437
279.457
279.317
279.26
279.273
279.368
279.558
279.896
280.437
281.384
282.654
280.093
279.962
279.912
279.942
280.058
280.271
280.63
281.196
282.163
283.549
280.638
280.601
280.59
280.597
280.618
280.653
280.698
280.748
280.799
280.85
280.153
280.11
280.094
280.106
280.146
280.211
280.299
280.401
280.506
280.593
280.045
279.983
279.961
279.979
280.037
280.134
280.269
280.435
280.617
280.775
279.99
279.909
279.879
279.9
279.973
280.1
280.284
280.52
280.8
281.058
279.894
279.795
279.758
279.779
279.862
280.012
280.238
280.543
280.929
281.307
279.842
279.729
279.685
279.705
279.795
279.962
280.224
280.59
281.087
281.597
279.754
279.629
279.579
279.596
279.689
279.867
280.156
280.573
281.177
281.828
279.72
279.589
279.537
279.556
279.654
279.841
280.15
280.607
281.302
282.091
279.681
279.547
279.493
279.51
279.607
279.797
280.117
280.604
281.366
282.307
280.287
280.16
280.111
280.139
280.251
280.458
280.795
281.307
282.101
283.146
280.703
280.676
280.668
280.672
280.685
280.705
280.731
280.76
280.788
280.82
280.256
280.227
280.216
280.225
280.251
280.294
280.35
280.413
280.474
280.522
280.181
280.135
280.118
280.131
280.173
280.243
280.337
280.447
280.56
280.653
280.145
280.08
280.056
280.073
280.13
280.229
280.366
280.533
280.717
280.875
280.068
279.985
279.954
279.972
280.042
280.165
280.343
280.57
280.836
281.077
280.027
279.929
279.891
279.91
279.99
280.134
280.349
280.635
280.99
281.328
279.947
279.835
279.791
279.809
279.895
280.054
280.301
280.64
281.085
281.531
279.917
279.798
279.751
279.771
279.863
280.035
280.307
280.689
281.215
281.771
279.876
279.752
279.703
279.722
279.816
279.994
280.281
280.697
281.287
281.962
280.454
280.336
280.29
280.316
280.42
280.611
280.913
281.354
281.979
282.737
280.745
280.724
280.719
280.721
280.729
280.74
280.755
280.771
280.787
280.81
280.332
280.312
280.305
280.31
280.327
280.354
280.389
280.427
280.463
280.49
280.282
280.249
280.237
280.246
280.275
280.324
280.386
280.458
280.527
280.582
280.262
280.213
280.194
280.207
280.25
280.323
280.421
280.536
280.655
280.752
280.205
280.138
280.113
280.128
280.184
280.28
280.414
280.579
280.758
280.912
280.177
280.095
280.063
280.079
280.147
280.265
280.435
280.651
280.898
281.121
280.106
280.01
279.972
279.989
280.064
280.2
280.402
280.666
280.987
281.289
280.084
279.979
279.938
279.957
280.04
280.191
280.419
280.725
281.113
281.497
280.042
279.932
279.889
279.907
279.994
280.152
280.398
280.738
281.181
281.653
280.593
280.488
280.445
280.469
280.563
280.732
280.992
281.355
281.831
282.363
280.773
280.756
280.752
280.753
280.757
280.764
280.772
280.781
280.791
280.809
280.387
280.375
280.37
280.373
280.383
280.4
280.421
280.444
280.465
280.481
280.357
280.335
280.327
280.333
280.352
280.384
280.425
280.47
280.513
280.545
280.349
280.313
280.3
280.309
280.34
280.392
280.46
280.537
280.614
280.673
280.31
280.259
280.239
280.25
280.293
280.366
280.464
280.579
280.699
280.796
280.294
280.229
280.203
280.217
280.271
280.364
280.493
280.651
280.821
280.966
280.233
280.154
280.123
280.137
280.2
280.311
280.47
280.67
280.896
281.098
280.222
280.133
280.099
280.116
280.187
280.313
280.497
280.734
281.013
281.274
280.179
280.085
280.048
280.065
280.14
280.276
280.478
280.746
281.07
281.393
280.703
280.613
280.576
280.597
280.678
280.822
281.037
281.325
281.678
282.042
280.79
280.775
280.772
280.773
280.775
280.779
280.783
280.788
280.795
280.81
280.428
280.421
280.417
280.419
280.426
280.436
280.448
280.462
280.474
280.484
280.415
280.4
280.395
280.399
280.411
280.432
280.458
280.486
280.512
280.531
280.414
280.388
280.378
280.385
280.406
280.442
280.488
280.539
280.588
280.624
280.389
280.352
280.337
280.346
280.377
280.43
280.499
280.578
280.657
280.718
280.384
280.334
280.314
280.325
280.367
280.437
280.533
280.645
280.76
280.854
280.332
280.269
280.244
280.256
280.306
280.393
280.514
280.661
280.818
280.952
280.332
280.261
280.233
280.247
280.305
280.407
280.55
280.728
280.924
281.1
280.289
280.211
280.18
280.195
280.258
280.369
280.529
280.733
280.965
281.183
280.786
280.712
280.681
280.698
280.766
280.884
281.055
281.276
281.531
281.774
280.799
280.786
280.784
280.784
280.785
280.787
280.79
280.793
280.797
280.81
280.46
280.455
280.453
280.454
280.458
280.464
280.471
280.479
280.487
280.493
280.46
280.451
280.447
280.449
280.458
280.471
280.487
280.504
280.519
280.53
280.461
280.443
280.437
280.441
280.455
280.479
280.509
280.542
280.573
280.596
280.449
280.422
280.412
280.418
280.441
280.477
280.525
280.578
280.629
280.668
280.453
280.416
280.401
280.409
280.44
280.491
280.559
280.637
280.714
280.775
280.408
280.359
280.34
280.349
280.388
280.454
280.543
280.647
280.754
280.842
280.42
280.364
280.342
280.354
280.4
280.478
280.586
280.715
280.851
280.967
280.374
280.311
280.287
280.299
280.35
280.437
280.56
280.71
280.873
281.017
280.845
280.786
280.76
280.774
280.829
280.922
281.054
281.218
281.398
281.557
280.801
280.79
280.788
280.788
280.789
280.79
280.791
280.793
280.796
280.808
280.484
280.481
280.48
280.48
280.482
280.486
280.49
280.495
280.5
280.504
280.496
280.491
280.488
280.49
280.495
280.503
280.513
280.523
280.532
280.538
280.495
280.483
280.479
280.481
280.491
280.506
280.526
280.547
280.566
280.58
280.494
280.476
280.469
280.473
280.488
280.513
280.545
280.58
280.613
280.637
280.504
280.477
280.466
280.472
280.494
280.531
280.578
280.631
280.681
280.72
280.463
280.427
280.413
280.42
280.449
280.497
280.56
280.633
280.705
280.762
280.489
280.447
280.43
280.439
280.474
280.532
280.611
280.702
280.794
280.87
280.437
280.389
280.37
280.38
280.419
280.485
280.576
280.683
280.795
280.889
280.881
280.836
280.816
280.827
280.869
280.941
281.039
281.157
281.281
281.382
280.799
280.788
280.787
280.787
280.787
280.788
280.789
280.79
280.792
280.803
280.502
280.5
280.499
280.499
280.5
280.502
280.505
280.508
280.511
280.514
280.527
280.524
280.522
280.523
280.526
280.531
280.537
280.543
280.548
280.552
280.519
280.512
280.508
280.51
280.516
280.526
280.538
280.552
280.564
280.572
280.528
280.516
280.511
280.514
280.524
280.541
280.561
280.584
280.604
280.619
280.541
280.522
280.515
280.519
280.534
280.559
280.591
280.626
280.659
280.683
280.503
280.477
280.467
280.472
280.493
280.527
280.571
280.62
280.667
280.704
280.542
280.512
280.5
280.507
280.532
280.574
280.63
280.692
280.754
280.802
280.482
280.445
280.432
280.439
280.468
280.516
280.581
280.656
280.731
280.792
280.898
280.866
280.851
280.859
280.89
280.943
281.014
281.096
281.18
281.243
280.793
280.783
280.782
280.782
280.782
280.783
280.783
280.784
280.785
280.795
280.514
280.512
280.511
280.511
280.512
280.513
280.515
280.517
280.519
280.522
280.554
280.552
280.551
280.552
280.554
280.557
280.56
280.563
280.566
280.568
280.536
280.531
280.529
280.53
280.533
280.54
280.547
280.556
280.563
280.569
280.553
280.545
280.542
280.544
280.55
280.561
280.574
280.588
280.601
280.61
280.567
280.555
280.55
280.552
280.563
280.579
280.6
280.623
280.644
280.659
280.531
280.513
280.506
280.51
280.524
280.547
280.577
280.609
280.64
280.663
280.584
280.564
280.555
280.56
280.578
280.607
280.645
280.687
280.727
280.757
280.511
280.484
280.475
280.48
280.5
280.534
280.579
280.63
280.68
280.719
280.902
280.879
280.868
280.874
280.897
280.934
280.984
281.039
281.094
281.132
280.785
280.776
280.775
280.775
280.775
280.776
280.776
280.776
280.777
280.786
280.519
280.518
280.517
280.517
280.518
280.518
280.52
280.521
280.523
280.526
280.578
280.577
280.577
280.578
280.579
280.58
280.582
280.584
280.585
280.586
280.547
280.543
280.542
280.542
280.545
280.548
280.553
280.558
280.563
280.567
280.57
280.566
280.564
280.565
280.569
280.576
280.584
280.593
280.6
280.605
280.584
280.576
280.573
280.575
280.581
280.592
280.606
280.62
280.633
280.643
280.55
280.538
280.534
280.536
280.545
280.561
280.58
280.601
280.62
280.634
280.618
280.604
280.598
280.602
280.614
280.634
280.659
280.686
280.712
280.73
280.526
280.508
280.501
280.504
280.518
280.542
280.572
280.605
280.637
280.662
280.896
280.881
280.873
280.878
280.893
280.919
280.952
280.989
281.024
281.046
280.781
280.774
280.773
280.773
280.773
280.773
280.773
280.774
280.774
280.782
280.517
280.516
280.515
280.515
280.515
280.516
280.517
280.518
280.52
280.522
280.6
280.6
280.6
280.6
280.601
280.602
280.603
280.604
280.604
280.604
280.552
280.55
280.55
280.55
280.551
280.553
280.556
280.559
280.562
280.564
280.581
280.579
280.577
280.578
280.581
280.585
280.59
280.595
280.599
280.602
280.593
280.588
280.586
280.587
280.591
280.598
280.606
280.616
280.624
280.63
280.561
280.554
280.551
280.553
280.559
280.569
280.581
280.594
280.605
280.614
280.643
280.634
280.63
280.633
280.641
280.654
280.67
280.687
280.704
280.715
280.529
280.516
280.511
280.514
280.523
280.538
280.558
280.579
280.599
280.615
280.89
280.88
280.875
280.878
280.888
280.905
280.927
280.95
280.973
280.985
280.795
280.789
280.789
280.789
280.789
280.789
280.789
280.789
280.789
280.795
280.503
280.501
280.501
280.5
280.501
280.501
280.502
280.503
280.504
280.508
280.617
280.617
280.617
280.617
280.617
280.618
280.618
280.619
280.619
280.619
280.554
280.553
280.553
280.553
280.554
280.555
280.557
280.559
280.56
280.561
280.586
280.584
280.583
280.583
280.585
280.587
280.591
280.594
280.597
280.598
280.594
280.591
280.59
280.59
280.593
280.597
280.602
280.608
280.613
280.617
280.566
280.562
280.56
280.562
280.565
280.571
280.579
280.587
280.593
280.598
280.656
280.65
280.647
280.648
280.653
280.661
280.672
280.683
280.695
280.701
280.515
280.506
280.504
280.505
280.511
280.521
280.533
280.547
280.558
280.569
280.896
280.891
280.887
280.889
280.895
280.906
280.921
280.935
280.95
280.956
280.847
280.843
280.842
280.842
280.842
280.842
280.842
280.842
280.842
280.846
280.467
280.466
280.467
280.467
280.467
280.467
280.468
280.468
280.469
280.472
280.622
280.621
280.62
280.62
280.62
280.62
280.621
280.622
280.623
280.624
280.554
280.554
280.554
280.555
280.555
280.556
280.557
280.557
280.557
280.558
280.585
280.583
280.583
280.583
280.584
280.585
280.587
280.589
280.591
280.593
280.59
280.587
280.586
280.587
280.588
280.591
280.594
280.598
280.601
280.604
280.566
280.564
280.563
280.564
280.566
280.57
280.575
280.579
280.583
280.585
280.645
280.641
280.638
280.639
280.642
280.648
280.655
280.663
280.671
280.676
280.477
280.472
280.471
280.472
280.476
280.482
280.49
280.498
280.504
280.51
280.933
280.929
280.927
280.928
280.932
280.94
280.949
280.959
280.969
280.972
280.928
280.926
280.925
280.924
280.924
280.924
280.925
280.926
280.927
280.93
280.41
280.411
280.413
280.414
280.415
280.415
280.414
280.413
280.411
280.41
280.61
280.608
280.606
280.606
280.606
280.606
280.607
280.608
280.611
280.613
280.555
280.555
280.556
280.556
280.556
280.557
280.557
280.557
280.557
280.556
280.581
280.58
280.579
280.58
280.58
280.581
280.583
280.584
280.586
280.587
280.583
280.582
280.581
280.581
280.583
280.584
280.587
280.589
280.592
280.594
280.565
280.563
280.563
280.563
280.565
280.568
280.571
280.574
280.577
280.577
280.613
280.609
280.607
280.607
280.609
280.614
280.619
280.625
280.631
280.638
280.417
280.415
280.414
280.415
280.418
280.423
280.429
280.434
280.437
280.437
280.992
280.989
280.987
280.988
280.991
280.996
281.003
281.01
281.018
281.021
289.474
291.232
291.496
289.907
290.64
292.77
293.179
291.519
292.301
294.927
295.462
293.489
293.582
296.649
297.317
295.135
294.527
298.004
298.813
296.49
295.275
299.131
300.099
297.905
295.821
300.037
301.197
299.329
296.292
300.832
302.199
300.708
296.506
301.346
302.927
301.861
297.065
302.095
303.942
303.461
286.162
286.708
286.689
286.165
287.459
288.102
288.04
287.387
289.063
289.867
289.756
288.897
290.504
291.454
291.283
290.232
291.68
292.771
292.534
291.299
292.702
293.93
293.669
292.276
293.508
294.867
294.618
293.09
294.204
295.669
295.442
293.803
294.642
296.171
295.972
294.268
295.428
296.93
296.841
295.192
282.252
282.386
282.417
282.348
282.981
283.2
283.24
283.103
284.148
284.486
284.53
284.281
285.416
285.874
285.915
285.535
286.58
287.154
287.181
286.658
287.715
288.402
288.414
287.754
288.707
289.502
289.502
288.717
289.646
290.533
290.524
289.634
290.405
291.333
291.322
290.381
291.649
292.506
292.534
291.671
281.484
281.55
281.572
281.55
281.743
281.829
281.858
281.836
282.452
282.6
282.642
282.589
283.329
283.55
283.602
283.501
284.171
284.47
284.527
284.363
285.061
285.441
285.499
285.261
285.879
286.34
286.397
286.077
286.716
287.249
287.3
286.9
287.472
288.038
288.085
287.63
288.816
289.308
289.368
288.956
281.053
281.089
281.101
281.09
281.091
281.121
281.135
281.134
281.542
281.599
281.625
281.62
282.154
282.252
282.291
282.275
282.75
282.898
282.949
282.912
283.417
283.622
283.683
283.614
284.043
284.307
284.376
284.266
284.718
285.038
285.11
284.952
285.355
285.704
285.774
285.577
286.608
286.886
286.962
286.8
280.882
280.912
280.921
280.909
280.785
280.799
280.806
280.806
281.091
281.117
281.13
281.131
281.532
281.578
281.601
281.602
281.96
282.034
282.068
282.065
282.46
282.568
282.614
282.602
282.925
283.074
283.13
283.104
283.449
283.636
283.7
283.652
283.951
284.161
284.226
284.156
285.073
285.215
285.284
285.253
280.8
280.827
280.835
280.823
280.619
280.625
280.628
280.629
280.83
280.842
280.849
280.85
281.159
281.182
281.194
281.197
281.477
281.515
281.535
281.538
281.862
281.92
281.949
281.952
282.214
282.296
282.335
282.334
282.621
282.728
282.775
282.767
283
283.124
283.174
283.155
283.997
284.055
284.106
284.132
280.766
280.792
280.799
280.788
280.536
280.539
280.541
280.541
280.681
280.687
280.69
280.691
280.928
280.94
280.946
280.948
281.167
281.187
281.198
281.201
281.469
281.501
281.519
281.523
281.739
281.785
281.809
281.814
282.058
282.119
282.15
282.153
282.337
282.41
282.445
282.444
283.231
283.236
283.271
283.317
280.754
280.78
280.787
280.775
280.497
280.499
280.5
280.5
280.597
280.6
280.602
280.602
280.782
280.788
280.792
280.793
280.961
280.972
280.979
280.981
281.199
281.217
281.228
281.231
281.405
281.431
281.446
281.45
281.657
281.693
281.712
281.717
281.862
281.905
281.927
281.931
282.668
282.642
282.663
282.715
280.753
280.778
280.785
280.773
280.485
280.486
280.486
280.487
280.554
280.556
280.557
280.557
280.69
280.694
280.696
280.697
280.825
280.831
280.835
280.836
281.012
281.022
281.028
281.03
281.165
281.181
281.19
281.193
281.366
281.387
281.399
281.403
281.514
281.539
281.553
281.557
282.244
282.2
282.213
282.263
280.754
280.779
280.786
280.774
280.486
280.487
280.487
280.487
280.536
280.537
280.537
280.537
280.635
280.637
280.638
280.639
280.735
280.739
280.741
280.742
280.881
280.887
280.891
280.893
280.992
281.001
281.007
281.009
281.154
281.166
281.174
281.176
281.256
281.27
281.279
281.282
281.919
281.867
281.873
281.921
280.755
280.781
280.787
280.775
280.494
280.495
280.495
280.495
280.533
280.534
280.534
280.534
280.602
280.604
280.605
280.605
280.678
280.68
280.682
280.682
280.791
280.795
280.797
280.798
280.867
280.873
280.877
280.878
280.999
281.007
281.012
281.013
281.063
281.072
281.078
281.08
281.667
281.611
281.614
281.659
280.754
280.78
280.787
280.775
280.505
280.505
280.506
280.506
280.54
280.54
280.54
280.54
280.584
280.585
280.586
280.586
280.643
280.644
280.645
280.645
280.73
280.733
280.734
280.735
280.778
280.781
280.784
280.785
280.89
280.894
280.897
280.898
280.919
280.925
280.928
280.93
281.47
281.414
281.415
281.456
280.751
280.777
280.783
280.771
280.515
280.516
280.516
280.516
280.552
280.552
280.552
280.552
280.575
280.576
280.576
280.576
280.623
280.623
280.624
280.624
280.69
280.691
280.692
280.692
280.714
280.717
280.718
280.719
280.814
280.816
280.818
280.819
280.813
280.816
280.819
280.819
281.314
281.261
281.261
281.299
280.745
280.771
280.778
280.765
280.523
280.524
280.524
280.524
280.568
280.568
280.568
280.568
280.571
280.571
280.571
280.572
280.612
280.612
280.612
280.613
280.663
280.664
280.664
280.665
280.67
280.671
280.672
280.672
280.764
280.765
280.767
280.767
280.734
280.736
280.737
280.737
281.191
281.142
281.141
281.175
280.739
280.765
280.771
280.758
280.527
280.527
280.528
280.528
280.585
280.585
280.585
280.585
280.568
280.568
280.568
280.568
280.606
280.607
280.607
280.607
280.645
280.645
280.646
280.646
280.638
280.639
280.64
280.64
280.734
280.735
280.735
280.736
280.673
280.675
280.676
280.676
281.094
281.05
281.05
281.079
280.738
280.764
280.769
280.756
280.524
280.525
280.525
280.526
280.603
280.603
280.603
280.603
280.565
280.565
280.565
280.565
280.603
280.603
280.603
280.603
280.631
280.631
280.632
280.632
280.616
280.616
280.617
280.617
280.717
280.717
280.718
280.718
280.624
280.625
280.626
280.625
281.022
280.986
280.985
281.009
280.756
280.781
280.786
280.773
280.51
280.511
280.512
280.512
280.618
280.618
280.618
280.618
280.561
280.561
280.561
280.561
280.599
280.599
280.599
280.599
280.618
280.618
280.619
280.619
280.598
280.598
280.598
280.598
280.703
280.704
280.704
280.705
280.576
280.577
280.577
280.577
280.983
280.955
280.955
280.974
280.815
280.837
280.84
280.828
280.475
280.476
280.476
280.476
280.624
280.624
280.625
280.625
280.557
280.557
280.556
280.556
280.593
280.593
280.593
280.593
280.605
280.605
280.606
280.606
280.584
280.584
280.584
280.584
280.681
280.682
280.683
280.683
280.515
280.516
280.516
280.515
280.991
280.974
280.974
280.986
280.912
280.925
280.927
280.919
280.411
280.412
280.411
280.411
280.617
280.618
280.618
280.619
280.554
280.554
280.554
280.553
280.588
280.588
280.588
280.588
280.595
280.595
280.595
280.595
280.575
280.575
280.574
280.575
280.647
280.65
280.65
280.65
280.432
280.431
280.431
280.431
281.038
281.033
281.033
281.036
282.182
280.881
280.339
279.991
279.697
279.455
279.263
279.112
278.99
278.886
282.328
281.088
280.254
279.73
279.313
279.006
278.778
278.608
278.479
278.374
282.901
281.595
280.465
279.825
279.325
278.978
278.724
278.534
278.39
278.276
283.498
282.132
280.733
280.029
279.464
279.093
278.819
278.615
278.459
278.333
283.976
282.587
280.943
280.189
279.564
279.174
278.881
278.664
278.498
278.364
284.527
283.081
281.214
280.424
279.739
279.331
279.017
278.785
278.604
278.453
285.009
283.481
281.415
280.602
279.861
279.439
279.104
278.857
278.662
278.501
285.576
283.971
281.719
280.89
280.089
279.65
279.286
279.015
278.793
278.6
286.026
284.364
281.933
281.128
280.293
279.849
279.449
279.149
278.897
278.679
287.758
286.095
283.509
282.651
281.689
281.12
280.596
280.192
279.857
279.562
283.979
282.67
281.682
280.969
280.476
280.13
279.879
279.691
279.545
279.424
284.427
282.64
281.309
280.449
279.895
279.517
279.248
279.053
278.91
278.804
285.023
282.828
281.241
280.311
279.716
279.319
279.039
278.838
278.695
278.592
285.511
283.016
281.235
280.282
279.661
279.257
278.976
278.777
278.636
278.537
285.779
283.072
281.162
280.203
279.561
279.159
278.881
278.688
278.554
278.46
285.979
283.143
281.141
280.194
279.535
279.141
278.866
278.679
278.547
278.452
286.024
283.125
281.052
280.134
279.463
279.083
278.813
278.631
278.503
278.411
286.081
283.184
281.056
280.181
279.499
279.132
278.861
278.678
278.542
278.439
286.04
283.174
280.998
280.204
279.536
279.2
278.922
278.731
278.583
278.468
286.949
284.235
282.064
281.32
280.604
280.212
279.864
279.618
279.425
279.28
282.112
281.732
281.362
281.033
280.75
280.513
280.316
280.153
280.016
279.897
282.574
281.891
281.274
280.762
280.349
280.021
279.763
279.562
279.407
279.288
283.346
282.33
281.463
280.795
280.278
279.886
279.589
279.363
279.194
279.07
284.117
282.778
281.677
280.881
280.285
279.85
279.53
279.292
279.116
278.989
284.692
283.07
281.768
280.875
280.22
279.76
279.428
279.187
279.011
278.884
285.202
283.342
281.869
280.906
280.209
279.736
279.398
279.156
278.979
278.852
285.55
283.495
281.877
280.871
280.144
279.667
279.328
279.089
278.914
278.787
285.873
283.674
281.936
280.911
280.165
279.692
279.351
279.11
278.93
278.795
286.077
283.76
281.924
280.92
280.183
279.728
279.384
279.137
278.948
278.804
287.066
284.744
282.87
281.889
281.122
280.631
280.242
279.957
279.737
279.577
281.506
281.359
281.182
281.001
280.83
280.675
280.538
280.418
280.311
280.214
281.713
281.424
281.093
280.777
280.496
280.257
280.056
279.889
279.754
279.647
282.342
281.857
281.347
280.892
280.507
280.192
279.936
279.733
279.572
279.45
283.076
282.359
281.652
281.061
280.582
280.204
279.908
279.677
279.499
279.366
283.704
282.743
281.844
281.132
280.573
280.148
279.824
279.577
279.389
279.251
284.32
283.12
282.04
281.225
280.602
280.143
279.799
279.541
279.347
279.203
284.81
283.382
282.136
281.24
280.567
280.086
279.73
279.467
279.269
279.123
285.284
283.653
282.262
281.307
280.599
280.105
279.74
279.472
279.267
279.114
285.653
283.831
282.316
281.338
280.618
280.126
279.755
279.479
279.268
279.107
286.699
284.774
283.2
282.215
281.466
280.946
280.544
280.243
280.011
279.844
281.098
281.051
280.98
280.896
280.808
280.721
280.638
280.561
280.488
280.416
281.106
280.992
280.837
280.669
280.504
280.35
280.212
280.091
279.987
279.902
281.56
281.353
281.089
280.82
280.567
280.342
280.148
279.985
279.851
279.744
282.154
281.816
281.418
281.035
280.693
280.401
280.157
279.958
279.797
279.672
282.7
282.206
281.66
281.165
280.739
280.389
280.105
279.878
279.699
279.562
283.28
282.614
281.916
281.314
280.814
280.415
280.1
279.853
279.659
279.512
283.774
282.928
282.08
281.383
280.819
280.383
280.044
279.783
279.58
279.427
284.276
283.252
282.264
281.487
280.874
280.41
280.055
279.781
279.569
279.407
284.694
283.488
282.374
281.547
280.903
280.427
280.059
279.777
279.557
279.388
285.732
284.404
283.219
282.359
281.685
281.184
280.793
280.492
280.258
280.089
280.925
280.907
280.875
280.833
280.787
280.739
280.69
280.643
280.595
280.545
280.795
280.743
280.667
280.577
280.481
280.386
280.296
280.214
280.141
280.079
281.11
281.013
280.874
280.717
280.559
280.408
280.271
280.15
280.047
279.962
281.562
281.397
281.175
280.937
280.706
280.495
280.31
280.151
280.018
279.91
281.993
281.74
281.418
281.09
280.786
280.518
280.289
280.097
279.94
279.815
282.484
282.123
281.69
281.271
280.895
280.574
280.307
280.088
279.91
279.771
282.918
282.436
281.885
281.376
280.935
280.569
280.27
280.03
279.837
279.688
283.38
282.767
282.099
281.511
281.013
280.611
280.288
280.03
279.824
279.665
283.774
283.019
282.242
281.592
281.055
280.629
280.289
280.019
279.805
279.639
284.758
283.898
283.051
282.358
281.788
281.338
280.978
280.694
280.469
280.305
280.841
280.835
280.82
280.799
280.775
280.749
280.722
280.694
280.663
280.627
280.624
280.6
280.561
280.513
280.458
280.402
280.346
280.293
280.244
280.203
280.841
280.793
280.718
280.629
280.532
280.435
280.343
280.258
280.183
280.12
281.181
281.097
280.972
280.828
280.678
280.534
280.4
280.28
280.176
280.09
281.511
281.378
281.19
280.98
280.772
280.577
280.402
280.249
280.12
280.014
281.907
281.712
281.448
281.168
280.899
280.655
280.441
280.258
280.105
279.981
282.263
281.993
281.645
281.291
280.961
280.671
280.423
280.215
280.043
279.906
282.658
282.3
281.864
281.44
281.056
280.727
280.45
280.221
280.033
279.885
282.991
282.536
282.016
281.533
281.108
280.75
280.452
280.209
280.011
279.855
283.898
283.367
282.787
282.261
281.802
281.421
281.105
280.849
280.642
280.489
280.806
280.805
280.798
280.787
280.774
280.76
280.745
280.728
280.708
280.682
280.539
280.526
280.506
280.479
280.448
280.414
280.38
280.347
280.316
280.289
280.686
280.661
280.62
280.568
280.51
280.449
280.388
280.331
280.28
280.235
280.94
280.895
280.824
280.736
280.641
280.545
280.451
280.365
280.288
280.223
281.189
281.116
281.005
280.873
280.734
280.597
280.469
280.353
280.251
280.167
281.504
281.395
281.235
281.051
280.864
280.685
280.521
280.376
280.251
280.147
281.784
281.63
281.412
281.173
280.936
280.715
280.518
280.346
280.201
280.082
282.107
281.899
281.619
281.324
281.039
280.781
280.555
280.362
280.199
280.067
282.372
282.103
281.763
281.417
281.094
280.807
280.56
280.35
280.176
280.035
283.195
282.877
282.491
282.107
281.754
281.445
281.181
280.959
280.776
280.641
280.794
280.795
280.791
280.786
280.779
280.771
280.762
280.753
280.739
280.718
280.499
280.492
280.481
280.466
280.448
280.429
280.408
280.388
280.369
280.352
280.6
280.586
280.563
280.532
280.497
280.459
280.421
280.384
280.349
280.319
280.789
280.763
280.722
280.669
280.609
280.545
280.482
280.422
280.368
280.32
280.974
280.933
280.867
280.784
280.692
280.599
280.508
280.423
280.347
280.282
281.222
281.159
281.061
280.943
280.815
280.688
280.567
280.456
280.358
280.275
281.437
281.347
281.211
281.052
280.885
280.723
280.572
280.437
280.318
280.22
281.696
281.574
281.396
281.194
280.989
280.795
280.617
280.461
280.325
280.213
281.898
281.739
281.52
281.279
281.042
280.821
280.623
280.45
280.303
280.182
282.642
282.453
282.2
281.93
281.668
281.427
281.214