/*--------------------------------*- C++ -*----------------------------------*\
| =========                 |                                                 |
| \\      /  F ield         | foam-extend: Open Source CFD                    |
|  \\    /   O peration     | Version:     4.0                                |
|   \\  /    A nd           | Web:         http://www.foam-extend.org         |
|    \\/     M anipulation  |                                                 |
\*---------------------------------------------------------------------------*/
FoamFile
{
    version     2.0;
    format      ascii;
    class       volVectorField;
    location    "1650";
    object      Urel;
}
// * * * * * * * * * * * * * * * * * * * * * * * * * * * * * * * * * * * * * //

dimensions      [0 1 -1 0 0 0 0];

internalField   nonuniform List<vector> 
34480
(
(208.999 -9.79539 -19.0904)
(209.32 -9.29509 -21.5529)
(209.477 -8.56979 -23.9795)
(209.483 -7.64531 -26.413)
(209.334 -6.56046 -28.9919)
(208.993 -5.31803 -31.8915)
(208.377 -3.89833 -35.5122)
(207.211 -2.18513 -40.1984)
(204.539 0.0502553 -48.1205)
(197.601 4.25494 -75.2903)
(209.93 -12.807 -26.808)
(210.19 -11.6799 -29.5919)
(210.317 -10.3982 -32.2518)
(210.291 -8.97601 -34.8551)
(210.056 -7.45013 -37.5189)
(209.552 -5.84033 -40.4506)
(208.745 -4.16561 -44.1099)
(207.453 -2.37193 -49.2387)
(204.316 -0.297691 -58.0594)
(196.156 3.65633 -88.6287)
(210.617 -17.1058 -33.7437)
(210.852 -15.5547 -36.8287)
(210.946 -13.8262 -39.7761)
(210.876 -11.9145 -42.5991)
(210.581 -9.8755 -45.4251)
(210.053 -7.74342 -48.511)
(209.302 -5.54576 -52.385)
(208.158 -3.21283 -58.076)
(204.858 -0.577523 -67.7747)
(195.647 4.12768 -101.289)
(210.621 -20.5015 -41.1547)
(210.857 -18.4195 -44.5343)
(210.967 -16.1616 -47.7213)
(210.93 -13.7098 -50.7465)
(210.697 -11.1208 -53.7447)
(210.282 -8.43195 -57.0018)
(209.666 -5.67569 -61.0489)
(208.687 -2.77319 -67.1345)
(205.361 0.448707 -77.4569)
(195.348 5.84063 -112.878)
(210.776 -24.978 -48.0156)
(211.042 -22.4862 -51.6727)
(211.19 -19.781 -55.1464)
(211.216 -16.8437 -58.4215)
(211.074 -13.7506 -61.6578)
(210.795 -10.5386 -65.1532)
(210.328 -7.23487 -69.4355)
(209.533 -3.7497 -75.9404)
(206.306 0.0970145 -86.9308)
(195.65 6.19193 -123.872)
(210.658 -28.2315 -55.6114)
(210.935 -25.2397 -59.5054)
(211.104 -22.0201 -63.1477)
(211.164 -18.5518 -66.5665)
(211.089 -14.902 -69.9141)
(210.928 -11.1137 -73.5126)
(210.614 -7.21548 -77.8741)
(210.033 -3.12048 -84.6063)
(207.054 1.3717 -96.0818)
(196 8.10401 -134.171)
(210.736 -33.0119 -62.4697)
(211.054 -29.631 -66.604)
(211.251 -25.9871 -70.4958)
(211.35 -22.0691 -74.1213)
(211.335 -17.952 -77.6616)
(211.271 -13.6723 -81.4402)
(211.097 -9.23469 -85.9728)
(210.734 -4.53581 -92.9889)
(208.086 0.695625 -105.043)
(196.737 8.2589 -144.125)
(210.562 -36.1803 -70.3173)
(210.884 -32.3277 -74.6587)
(211.062 -28.1661 -78.6785)
(211.119 -23.7102 -82.413)
(211.063 -19.0136 -86.0064)
(210.981 -14.1335 -89.787)
(210.852 -9.06736 -94.254)
(210.646 -3.70751 -101.226)
(208.406 2.36879 -113.468)
(197.093 10.8364 -153.055)
(210.506 -41.4419 -77.1473)
(210.872 -37.2224 -81.6747)
(211.081 -32.6854 -85.8776)
(211.176 -27.8699 -89.7632)
(211.171 -22.8311 -93.5168)
(211.133 -17.5986 -97.4428)
(211.073 -12.1163 -102.075)
(211.006 -6.23162 -109.202)
(209.096 0.774251 -121.816)
(197.668 10.7322 -161.342)
(209.541 -44.6421 -85.1099)
(209.818 -40.0403 -89.9184)
(209.767 -35.0017 -94.3237)
(209.409 -29.6468 -98.3935)
(208.792 -23.9889 -102.255)
(208.007 -18.069 -106.186)
(207.138 -11.8217 -110.659)
(206.353 -5.05623 -117.275)
(204.417 2.95965 -129.038)
(194.236 14.3055 -166.631)
(205.884 1.91055 3.00146)
(206.363 1.10801 1.54487)
(206.55 0.424884 -0.00902877)
(206.466 -0.119075 -1.60918)
(206.088 -0.548185 -3.319)
(205.327 -0.862974 -5.15087)
(203.979 -1.06754 -7.15852)
(201.614 -1.17335 -9.31693)
(198.148 -1.25834 -11.2448)
(193.572 -1.16024 -14.3933)
(207.181 2.86415 2.8)
(207.613 2.1597 1.16399)
(207.785 1.51487 -0.490215)
(207.696 0.939456 -2.18723)
(207.284 0.412192 -3.99464)
(206.429 -0.0729844 -5.97032)
(204.936 -0.531213 -8.20741)
(202.351 -0.997393 -10.9571)
(198.181 -1.58763 -14.0059)
(192.496 -1.82715 -20.581)
(208.127 2.57186 3.31044)
(208.537 1.76564 1.54821)
(208.695 1.03908 -0.253524)
(208.595 0.417104 -2.08726)
(208.159 -0.138923 -4.02717)
(207.285 -0.641567 -6.15703)
(205.801 -1.12016 -8.66575)
(203.224 -1.5914 -12.0853)
(198.679 -2.16219 -16.3322)
(192.06 -2.07547 -26.7164)
(208.367 3.17181 3.30801)
(208.783 2.39728 1.4607)
(208.963 1.68842 -0.399201)
(208.905 1.08245 -2.29323)
(208.532 0.540807 -4.30671)
(207.761 0.0517503 -6.56609)
(206.389 -0.417876 -9.29715)
(203.905 -0.86093 -13.2571)
(199.132 -1.36912 -18.4758)
(191.7 -0.938452 -32.4547)
(208.717 2.66259 3.84365)
(209.16 1.8033 1.94106)
(209.379 1.03662 -0.0154844)
(209.387 0.403214 -2.00428)
(209.106 -0.152154 -4.14231)
(208.471 -0.640812 -6.58348)
(207.25 -1.09764 -9.5699)
(204.929 -1.49381 -14.0613)
(200.077 -1.9075 -20.2302)
(191.938 -1.0776 -37.6945)
(208.749 3.38828 3.63996)
(209.208 2.53655 1.72555)
(209.452 1.77905 -0.201616)
(209.503 1.15925 -2.17096)
(209.296 0.63049 -4.29366)
(208.789 0.178335 -6.76971)
(207.734 -0.228482 -9.84081)
(205.634 -0.552425 -14.6606)
(200.87 -0.834551 -21.547)
(192.206 0.360856 -42.212)
(208.951 2.56366 4.16562)
(209.445 1.61298 2.24303)
(209.721 0.783316 0.264173)
(209.818 0.111048 -1.74501)
(209.679 -0.453934 -3.93182)
(209.287 -0.923217 -6.51236)
(208.395 -1.31329 -9.74168)
(206.539 -1.57152 -14.9159)
(201.983 -1.65941 -22.5669)
(192.896 -0.00142837 -46.2473)
(208.864 3.37253 3.70078)
(209.367 2.40824 1.80847)
(209.632 1.59662 -0.0836149)
(209.703 0.94904 -2.02022)
(209.548 0.439231 -4.11669)
(209.177 0.035139 -6.61963)
(208.379 -0.266141 -9.77857)
(206.744 -0.420549 -15.0033)
(202.517 -0.210082 -23.0516)
(193.303 1.83325 -49.2196)
(208.875 2.05593 4.24948)
(209.41 0.97773 2.40628)
(209.704 0.0662035 0.529972)
(209.81 -0.689223 -1.37416)
(209.712 -1.31902 -3.47753)
(209.416 -1.83558 -6.02766)
(208.738 -2.19097 -9.33285)
(207.331 -2.32251 -14.7915)
(203.443 -1.74253 -23.4871)
(193.979 1.00289 -51.5)
(207.953 2.86536 3.6406)
(208.432 1.69448 1.7933)
(208.55 0.797349 -0.0312318)
(208.338 0.0684653 -1.90242)
(207.811 -0.473813 -3.92717)
(207.004 -0.855469 -6.3514)
(205.805 -1.01327 -9.4674)
(204.004 -0.83215 -14.5619)
(200.265 0.222286 -23.0364)
(191.622 4.03781 -51.3463)
(203.509 1.42617 2.33529)
(204.013 0.831814 1.21725)
(204.194 0.300765 -0.012376)
(204.09 -0.13352 -1.26259)
(203.689 -0.484122 -2.5539)
(202.943 -0.748461 -3.83184)
(201.757 -0.936316 -5.04861)
(199.982 -1.07321 -6.05453)
(197.427 -1.24452 -6.49843)
(194.21 -1.43368 -6.517)
(204.902 2.40998 2.31536)
(205.398 1.86752 0.948311)
(205.578 1.34124 -0.446807)
(205.455 0.850665 -1.86399)
(204.991 0.385653 -3.32979)
(204.103 -0.0591584 -4.84681)
(202.63 -0.497094 -6.37866)
(200.302 -0.959746 -7.86221)
(196.677 -1.55843 -8.80196)
(191.836 -2.1398 -9.81061)
(205.934 2.20659 2.95131)
(206.435 1.52323 1.39876)
(206.615 0.885089 -0.205701)
(206.491 0.321763 -1.83534)
(206.003 -0.19886 -3.53644)
(205.05 -0.68673 -5.32574)
(203.434 -1.1666 -7.21305)
(200.79 -1.66867 -9.29094)
(196.288 -2.33714 -11.0023)
(189.845 -2.91538 -13.5842)
(206.328 2.89113 2.99843)
(206.851 2.21446 1.32235)
(207.057 1.57382 -0.376985)
(206.968 1.00888 -2.10892)
(206.518 0.486092 -3.93736)
(205.602 -0.00431083 -5.92063)
(203.971 -0.49425 -8.10464)
(201.158 -1.00114 -10.7394)
(195.919 -1.68626 -13.2003)
(187.982 -2.17092 -17.5597)
(206.827 2.42091 3.5737)
(207.382 1.64454 1.81033)
(207.625 0.935449 -0.0151032)
(207.592 0.335368 -1.87347)
(207.212 -0.206162 -3.86611)
(206.386 -0.69766 -6.08356)
(204.813 -1.1746 -8.60056)
(201.956 -1.64303 -11.8305)
(196.17 -2.29109 -15.13)
(186.913 -2.5821 -21.5734)
(206.989 3.19561 3.39493)
(207.564 2.41293 1.59899)
(207.834 1.70346 -0.217779)
(207.843 1.11061 -2.08025)
(207.526 0.589854 -4.08869)
(206.797 0.128861 -6.38463)
(205.325 -0.307828 -9.06086)
(202.526 -0.719773 -12.7134)
(196.394 -1.28082 -16.715)
(186.047 -1.34365 -25.3353)
(207.304 2.38738 3.94385)
(207.911 1.49988 2.12163)
(208.211 0.717181 0.235884)
(208.266 0.0755049 -1.68537)
(208.011 -0.473506 -3.78178)
(207.382 -0.938144 -6.21813)
(206.028 -1.34081 -9.11942)
(203.349 -1.67233 -13.2307)
(197.043 -2.07168 -18.0273)
(185.768 -1.80164 -28.9589)
(207.31 3.23416 3.4834)
(207.924 2.33106 1.68802)
(208.219 1.56427 -0.113445)
(208.257 0.946911 -1.96638)
(207.994 0.452461 -3.98142)
(207.393 0.0546727 -6.36455)
(206.124 -0.259264 -9.25831)
(203.598 -0.489863 -13.5529)
(197.308 -0.62241 -18.8719)
(185.371 -0.0708589 -31.8754)
(207.401 1.90387 4.03665)
(208.034 0.887641 2.27888)
(208.351 0.0348739 0.476307)
(208.417 -0.661002 -1.35838)
(208.197 -1.2318 -3.38499)
(207.657 -1.68774 -5.81274)
(206.5 -1.99346 -8.87442)
(204.167 -2.12749 -13.5135)
(198.011 -1.86132 -19.6416)
(185.29 -0.799319 -34.2667)
(206.544 2.77091 3.39547)
(207.126 1.67786 1.66705)
(207.312 0.851539 -0.0495354)
(207.141 0.187935 -1.8218)
(206.605 -0.293325 -3.74607)
(205.694 -0.615242 -6.03606)
(204.179 -0.726496 -8.92047)
(201.61 -0.547196 -13.3043)
(195.591 0.217658 -19.5462)
(182.812 2.30067 -34.6969)
(201.773 0.94734 1.70273)
(202.21 0.545924 0.912347)
(202.36 0.16384 0.00875569)
(202.262 -0.159672 -0.895651)
(201.914 -0.430393 -1.79943)
(201.298 -0.642962 -2.62097)
(200.387 -0.809607 -3.29531)
(199.153 -0.953839 -3.68701)
(197.593 -1.13105 -3.5805)
(195.862 -1.36647 -2.75306)
(203.092 1.90339 1.79349)
(203.56 1.52778 0.720249)
(203.723 1.13061 -0.385808)
(203.592 0.737632 -1.49543)
(203.144 0.349998 -2.60026)
(202.334 -0.0350944 -3.66978)
(201.086 -0.428307 -4.62796)
(199.293 -0.85207 -5.34648)
(196.827 -1.3745 -5.40281)
(194.028 -1.94115 -4.61984)
(204.078 1.75484 2.50664)
(204.589 1.21478 1.20919)
(204.765 0.684992 -0.147995)
(204.623 0.199515 -1.51551)
(204.124 -0.265176 -2.91005)
(203.196 -0.717429 -4.31173)
(201.705 -1.17666 -5.65407)
(199.456 -1.66915 -6.84565)
(196.101 -2.30046 -7.29983)
(192.02 -2.99549 -6.92455)
(204.535 2.52122 2.59104)
(205.092 1.96676 1.13568)
(205.298 1.41546 -0.351046)
(205.176 0.910868 -1.85811)
(204.675 0.427726 -3.42114)
(203.709 -0.0432905 -5.05436)
(202.082 -0.53127 -6.71194)
(199.495 -1.05863 -8.37867)
(195.278 -1.76441 -9.29361)
(189.812 -2.53006 -9.54147)
(205.118 2.09593 3.20721)
(205.719 1.42695 1.62975)
(205.96 0.795294 -0.0159659)
(205.879 0.245073 -1.68391)
(205.415 -0.266228 -3.44872)
(204.472 -0.746564 -5.35397)
(202.795 -1.22887 -7.38029)
(199.992 -1.73244 -9.61055)
(195.024 -2.44674 -11.1404)
(188.22 -3.18537 -12.3697)
(205.371 2.92511 3.05736)
(206.001 2.23513 1.42299)
(206.269 1.59214 -0.239624)
(206.223 1.0416 -1.94014)
(205.798 0.544731 -3.75554)
(204.904 0.0890616 -5.77766)
(203.236 -0.363107 -8.00948)
(200.326 -0.830353 -10.6678)
(194.753 -1.51078 -12.7418)
(186.742 -2.16999 -15.1373)
(205.771 2.14313 3.63538)
(206.434 1.34033 1.95201)
(206.729 0.620504 0.198512)
(206.724 0.0213276 -1.58537)
(206.346 -0.501154 -3.51796)
(205.517 -0.954719 -5.71521)
(203.896 -1.36586 -8.21994)
(200.957 -1.7476 -11.3667)
(194.926 -2.3033 -14.1239)
(185.825 -2.77637 -17.9521)
(205.856 3.04042 3.18589)
(206.527 2.21794 1.52195)
(206.821 1.50939 -0.15562)
(206.804 0.932192 -1.88333)
(206.421 0.46151 -3.75302)
(205.608 0.0751161 -5.92381)
(204.026 -0.248925 -8.46583)
(201.126 -0.53785 -11.8556)
(194.838 -0.882472 -15.1103)
(184.851 -1.19515 -20.3211)
(206.015 1.70852 3.76791)
(206.697 0.770926 2.12698)
(207.007 -0.0165781 0.427099)
(207.014 -0.653233 -1.30511)
(206.665 -1.1703 -3.20778)
(205.896 -1.57489 -5.43601)
(204.371 -1.84651 -8.14172)
(201.561 -1.99614 -11.8883)
(195.201 -1.94808 -15.9864)
(184.239 -1.89931 -22.3836)
(205.227 2.64911 3.10536)
(205.861 1.64619 1.5176)
(206.081 0.893808 -0.0731491)
(205.918 0.294123 -1.72426)
(205.348 -0.131466 -3.51426)
(204.325 -0.403038 -5.61092)
(202.56 -0.481763 -8.16554)
(199.56 -0.316682 -11.7247)
(193.22 0.228273 -16.0578)
(181.767 1.20206 -22.8658)
(200.561 0.549366 1.19489)
(200.904 0.293149 0.667022)
(201.018 0.0322697 0.0365734)
(200.943 -0.197075 -0.582381)
(200.684 -0.398455 -1.18685)
(200.246 -0.564194 -1.69707)
(199.634 -0.703864 -2.06633)
(198.871 -0.832597 -2.20467)
(198.006 -0.97687 -2.02037)
(197.154 -1.14325 -1.42933)
(201.715 1.4307 1.31341)
(202.109 1.19607 0.512283)
(202.246 0.91677 -0.319436)
(202.133 0.618223 -1.14406)
(201.76 0.309595 -1.93462)
(201.111 -0.00788093 -2.64797)
(200.167 -0.338716 -3.20997)
(198.922 -0.692688 -3.51225)
(197.399 -1.09798 -3.32754)
(195.9 -1.51449 -2.51793)
(202.562 1.28812 2.05335)
(203.033 0.885836 1.01853)
(203.195 0.46603 -0.0807118)
(203.062 0.0642596 -1.17816)
(202.61 -0.334293 -2.26576)
(201.801 -0.734285 -3.30203)
(200.57 -1.14893 -4.20244)
(198.852 -1.59573 -4.83703)
(196.568 -2.12981 -4.8134)
(194.178 -2.6979 -3.92766)
(202.999 2.11251 2.15197)
(203.543 1.68618 0.939014)
(203.739 1.23267 -0.312326)
(203.61 0.798426 -1.5715)
(203.12 0.368121 -2.84488)
(202.21 -0.064791 -4.11282)
(200.759 -0.524447 -5.2931)
(198.627 -1.03002 -6.27029)
(195.537 -1.66936 -6.46681)
(192.067 -2.37307 -5.60881)
(203.596 1.72419 2.79826)
(204.201 1.17437 1.43487)
(204.434 0.631257 -0.00302642)
(204.33 0.141459 -1.45082)
(203.84 -0.327312 -2.95106)
(202.891 -0.781033 -4.50467)
(201.299 -1.24819 -6.0435)
(198.843 -1.75115 -7.49197)
(194.979 -2.43071 -8.08672)
(190.362 -3.19764 -7.53616)
(203.89 2.60327 2.67374)
(204.538 2.02073 1.23094)
(204.8 1.45636 -0.248162)
(204.721 0.958491 -1.75452)
(204.243 0.497043 -3.33404)
(203.288 0.0608494 -5.02778)
(201.618 -0.38748 -6.78287)
(198.933 -0.874193 -8.60544)
(194.374 -1.56297 -9.56052)
(188.634 -2.35632 -9.46175)
(204.336 1.85067 3.27959)
(205.024 1.14843 1.765)
(205.314 0.503147 0.172663)
(205.267 -0.0446454 -1.4417)
(204.817 -0.531789 -3.1657)
(203.885 -0.965227 -5.06105)
(202.184 -1.37372 -7.11055)
(199.349 -1.78231 -9.39643)
(194.194 -2.38235 -10.8789)
(187.37 -3.1018 -11.5047)
(204.476 2.80457 2.84284)
(205.177 2.07839 1.33742)
(205.47 1.43921 -0.190276)
(205.415 0.910598 -1.76356)
(204.956 0.471845 -3.44656)
(204.021 0.104373 -5.34248)
(202.305 -0.220394 -7.45711)
(199.399 -0.544902 -9.99031)
(193.818 -0.992872 -11.867)
(186.035 -1.65778 -13.2483)
(204.688 1.47462 3.46025)
(205.397 0.630431 1.96161)
(205.702 -0.0845256 0.389241)
(205.666 -0.659983 -1.21259)
(205.232 -1.12472 -2.95533)
(204.324 -1.48331 -4.93544)
(202.621 -1.72788 -7.22392)
(199.692 -1.89096 -10.0741)
(193.867 -1.98233 -12.6844)
(185.036 -2.39485 -14.8216)
(203.961 2.50235 2.7771)
(204.627 1.60014 1.34719)
(204.87 0.925754 -0.101332)
(204.715 0.390264 -1.61108)
(204.128 0.017665 -3.2384)
(203.044 -0.209279 -5.10047)
(201.176 -0.264065 -7.27153)
(198.079 -0.119057 -9.99998)
(192.153 0.260058 -12.8115)
(182.613 0.640678 -15.1336)
(199.728 0.249991 0.825812)
(199.982 0.0914219 0.489289)
(200.063 -0.0812758 0.06437)
(200.012 -0.238227 -0.342058)
(199.837 -0.383823 -0.734871)
(199.549 -0.509074 -1.04612)
(199.164 -0.620236 -1.25064)
(198.712 -0.724776 -1.29405)
(198.235 -0.833425 -1.14391)
(197.78 -0.944875 -0.777733)
(200.703 1.03696 0.912835)
(201.006 0.90745 0.33865)
(201.113 0.724567 -0.25847)
(201.025 0.508823 -0.843746)
(200.742 0.273595 -1.38534)
(200.264 0.0230905 -1.84246)
(199.599 -0.241429 -2.15774)
(198.78 -0.520518 -2.25846)
(197.871 -0.819028 -2.03786)
(197.063 -1.10674 -1.43134)
(201.374 0.857505 1.63874)
(201.773 0.570775 0.844874)
(201.911 0.250524 -0.0129516)
(201.798 -0.0703336 -0.861825)
(201.421 -0.400015 -1.67933)
(200.769 -0.739026 -2.41684)
(199.824 -1.09395 -2.99798)
(198.595 -1.47346 -3.31446)
(197.12 -1.89947 -3.14422)
(195.732 -2.32867 -2.34733)
(201.739 1.70781 1.72366)
(202.229 1.39952 0.749381)
(202.405 1.04189 -0.266467)
(202.284 0.681125 -1.28083)
(201.843 0.310841 -2.27848)
(201.052 -0.0713496 -3.21977)
(199.854 -0.482106 -4.01777)
(198.214 -0.933896 -4.54527)
(196.079 -1.47288 -4.43786)
(193.937 -2.04436 -3.44042)
(202.295 1.33911 2.38108)
(202.863 0.906832 1.24011)
(203.077 0.455407 0.021068)
(202.967 0.0319686 -1.19757)
(202.495 -0.38554 -2.43058)
(201.615 -0.799754 -3.64798)
(200.22 -1.2324 -4.76293)
(198.216 -1.70301 -5.647)
(195.397 -2.30118 -5.77522)
(192.389 -2.96552 -4.76748)
(202.586 2.25484 2.27151)
(203.213 1.78386 1.03543)
(203.459 1.30423 -0.243364)
(203.361 0.866039 -1.53917)
(202.876 0.44866 -2.86862)
(201.943 0.0438818 -4.23089)
(200.402 -0.381102 -5.54282)
(198.102 -0.852702 -6.71207)
(194.621 -1.48657 -7.04736)
(190.703 -2.22938 -6.09756)
(203.044 1.52826 2.89803)
(203.721 0.934333 1.57115)
(203.995 0.370936 0.159917)
(203.921 -0.118795 -1.26447)
(203.44 -0.563322 -2.75838)
(202.488 -0.967677 -4.33527)
(200.852 -1.3595 -5.93678)
(198.32 -1.76848 -7.50457)
(194.225 -2.34565 -8.22579)
(189.375 -3.0768 -7.56105)
(203.212 2.53927 2.47137)
(203.91 1.9189 1.14326)
(204.191 1.35705 -0.215083)
(204.11 0.883694 -1.61282)
(203.614 0.48363 -3.08498)
(202.635 0.14237 -4.68277)
(200.934 -0.170561 -6.36047)
(198.244 -0.502874 -8.14046)
(193.662 -0.974897 -9.13545)
(187.932 -1.71818 -8.79604)
(203.459 1.21037 3.12569)
(204.168 0.469603 1.78815)
(204.46 -0.167285 0.363262)
(204.392 -0.679855 -1.08588)
(203.909 -1.09308 -2.64294)
(202.938 -1.40899 -4.35113)
(201.212 -1.62908 -6.21813)
(198.418 -1.7954 -8.27891)
(193.5 -1.9586 -9.83321)
(186.793 -2.51422 -9.91732)
(202.783 2.33687 2.42051)
(203.453 1.54284 1.16092)
(203.705 0.949561 -0.131922)
(203.555 0.478533 -1.48359)
(202.968 0.156625 -2.92676)
(201.873 -0.0308212 -4.53087)
(200.023 -0.0681405 -6.30594)
(197.069 0.0555171 -8.29682)
(191.972 0.313738 -9.98448)
(184.545 0.412872 -10.0849)
(199.152 0.0405274 0.577257)
(199.337 -0.0581884 0.370592)
(199.393 -0.172047 0.0883474)
(199.361 -0.277448 -0.171847)
(199.25 -0.380918 -0.425069)
(199.072 -0.473064 -0.616138)
(198.842 -0.557746 -0.736226)
(198.583 -0.637226 -0.7527)
(198.322 -0.714516 -0.658373)
(198.06 -0.785665 -0.45187)
(199.972 0.737581 0.600885)
(200.19 0.679119 0.202015)
(200.268 0.568771 -0.209673)
(200.206 0.420267 -0.608541)
(200.005 0.248387 -0.965813)
(199.674 0.0588046 -1.24958)
(199.232 -0.143121 -1.42091)
(198.715 -0.353027 -1.43681)
(198.181 -0.56571 -1.25243)
(197.742 -0.757156 -0.851258)
(200.467 0.49199 1.28669)
(200.782 0.292693 0.696698)
(200.893 0.0552974 0.0478007)
(200.804 -0.193132 -0.589384)
(200.512 -0.456875 -1.18761)
(200.018 -0.733213 -1.70132)
(199.332 -1.02343 -2.07103)
(198.489 -1.3287 -2.22264)
(197.562 -1.65239 -2.04333)
(196.757 -1.96072 -1.47416)
(200.737 1.33841 1.33356)
(201.15 1.12875 0.57673)
(201.301 0.857709 -0.220318)
(201.196 0.568001 -1.01034)
(200.827 0.259832 -1.76632)
(200.181 -0.0652287 -2.44184)
(199.248 -0.415745 -2.96117)
(198.044 -0.796675 -3.22055)
(196.618 -1.22613 -3.01446)
(195.305 -1.66128 -2.19439)
(201.216 0.969213 1.98133)
(201.719 0.642883 1.05479)
(201.907 0.279487 0.0507394)
(201.803 -0.0761391 -0.945839)
(201.381 -0.437305 -1.93022)
(200.618 -0.802929 -2.85608)
(199.466 -1.1871 -3.63768)
(197.911 -1.60314 -4.14889)
(195.932 -2.10055 -4.06696)
(193.998 -2.63095 -3.12025)
(201.473 1.90327 1.87314)
(202.046 1.53872 0.845071)
(202.269 1.14411 -0.228979)
(202.167 0.769118 -1.31161)
(201.709 0.401785 -2.39681)
(200.858 0.037603 -3.4563)
(199.524 -0.348636 -4.39802)
(197.654 -0.778237 -5.10005)
(195.105 -1.32308 -5.10633)
(192.483 -1.94844 -4.03311)
(201.912 1.1948 2.50943)
(202.547 0.708925 1.37773)
(202.799 0.230042 0.157783)
(202.711 -0.197573 -1.06738)
(202.238 -0.594007 -2.32731)
(201.333 -0.96161 -3.60042)
(199.859 -1.32397 -4.80783)
(197.717 -1.7091 -5.82747)
(194.609 -2.224 -6.10037)
(191.244 -2.86653 -5.07571)
(202.082 2.25873 2.08722)
(202.747 1.74692 0.946033)
(203.01 1.26647 -0.231215)
(202.914 0.852756 -1.44112)
(202.417 0.496418 -2.69261)
(201.463 0.187102 -3.99632)
(199.886 -0.103556 -5.27543)
(197.538 -0.419157 -6.45357)
(193.955 -0.859307 -6.88431)
(189.856 -1.54033 -5.92578)
(202.349 0.926279 2.77736)
(203.03 0.293278 1.61181)
(203.303 -0.262607 0.347988)
(203.216 -0.711594 -0.933636)
(202.72 -1.07419 -2.29097)
(201.755 -1.35002 -3.72464)
(200.122 -1.5466 -5.20048)
(197.622 -1.70649 -6.62924)
(193.68 -1.89002 -7.46489)
(188.766 -2.41883 -6.70267)
(201.711 2.16082 2.04698)
(202.358 1.47845 0.964131)
(202.608 0.96781 -0.163919)
(202.465 0.560987 -1.34606)
(201.897 0.287511 -2.59252)
(200.841 0.134944 -3.93296)
(199.106 0.110201 -5.33072)
(196.45 0.213003 -6.71463)
(192.294 0.384837 -7.61646)
(186.763 0.372609 -6.78332)
(198.744 -0.0999841 0.418624)
(198.881 -0.164221 0.296331)
(198.919 -0.241198 0.107688)
(198.9 -0.311844 -0.0573044)
(198.833 -0.385015 -0.222573)
(198.728 -0.451555 -0.343067)
(198.594 -0.514024 -0.420217)
(198.448 -0.572003 -0.432969)
(198.302 -0.625304 -0.383379)
(198.135 -0.669804 -0.273574)
(199.446 0.527951 0.36898)
(199.594 0.514055 0.0983418)
(199.649 0.454933 -0.175189)
(199.607 0.357852 -0.436853)
(199.473 0.237399 -0.664042)
(199.255 0.0995659 -0.834525)
(198.973 -0.0484368 -0.924014)
(198.654 -0.200279 -0.908686)
(198.342 -0.347892 -0.772027)
(198.098 -0.473241 -0.513849)
(199.786 0.201897 1.00426)
(200.02 0.0635195 0.576644)
(200.104 -0.109288 0.097885)
(200.039 -0.296749 -0.369339)
(199.825 -0.501439 -0.799092)
(199.47 -0.719007 -1.15394)
(198.993 -0.947351 -1.39129)
(198.434 -1.18292 -1.46547)
(197.857 -1.42052 -1.3223)
(197.386 -1.63489 -0.947228)
(199.961 1.02333 0.99712)
(200.291 0.889654 0.42685)
(200.412 0.691792 -0.178606)
(200.329 0.466649 -0.774615)
(200.036 0.218431 -1.33052)
(199.537 -0.0484918 -1.80243)
(198.842 -0.33593 -2.13122)
(197.99 -0.642997 -2.24297)
(197.055 -0.971305 -2.03035)
(196.25 -1.28857 -1.42481)
(200.346 0.636221 1.61774)
(200.769 0.398472 0.885848)
(200.927 0.114453 0.0812253)
(200.836 -0.175919 -0.712034)
(200.481 -0.479377 -1.47812)
(199.855 -0.791671 -2.16658)
(198.948 -1.12021 -2.70348)
(197.788 -1.47127 -2.98697)
(196.431 -1.86723 -2.83238)
(195.196 -2.26958 -2.08616)
(200.548 1.5691 1.4979)
(201.048 1.29896 0.667332)
(201.241 0.984577 -0.208741)
(201.145 0.672783 -1.08725)
(200.739 0.358554 -1.94757)
(200.007 0.0409162 -2.74791)
(198.908 -0.296843 -3.40209)
(197.449 -0.668862 -3.79598)
(195.635 -1.11284 -3.64806)
(193.898 -1.60584 -2.7141)
(200.95 0.868778 2.13161)
(201.52 0.483813 1.19164)
(201.743 0.0875171 0.163241)
(201.652 -0.276838 -0.864109)
(201.215 -0.621907 -1.89974)
(200.404 -0.947173 -2.90153)
(199.144 -1.27078 -3.78717)
(197.41 -1.61493 -4.42148)
(195.125 -2.04864 -4.44862)
(192.825 -2.56935 -3.45896)
(201.099 1.97803 1.70665)
(201.706 1.57102 0.752491)
(201.945 1.17197 -0.240351)
(201.844 0.819706 -1.25938)
(201.375 0.510197 -2.29296)
(200.499 0.236915 -3.32464)
(199.113 -0.023946 -4.26556)
(197.156 -0.307229 -5.0022)
(194.452 -0.684977 -5.09091)
(191.579 -1.24279 -4.03153)
(201.373 0.634208 2.42974)
(202.003 0.107515 1.43855)
(202.252 -0.367442 0.342047)
(202.157 -0.753574 -0.765556)
(201.678 -1.06687 -1.92057)
(200.773 -1.30475 -3.09384)
(199.31 -1.47793 -4.22867)
(197.182 -1.62451 -5.18437)
(194.142 -1.79878 -5.56624)
(190.641 -2.23225 -4.57479)
(200.76 1.98371 1.66925)
(201.361 1.4122 0.762903)
(201.598 0.98361 -0.196649)
(201.465 0.639754 -1.20414)
(200.935 0.412151 -2.25073)
(199.96 0.290218 -3.33666)
(198.407 0.27446 -4.39662)
(196.131 0.358181 -5.31068)
(192.876 0.468927 -5.696)
(188.9 0.424477 -4.59308)
(198.443 -0.193102 0.322057)
(198.55 -0.238337 0.252917)
(198.576 -0.293329 0.123081)
(198.565 -0.341507 0.0175036)
(198.526 -0.393763 -0.0942035)
(198.466 -0.441488 -0.174178)
(198.39 -0.486725 -0.229575)
(198.308 -0.527995 -0.245353)
(198.224 -0.564072 -0.226437)
(198.105 -0.591458 -0.173839)
(199.064 0.393936 0.200996)
(199.161 0.406478 0.0205068)
(199.197 0.381847 -0.154564)
(199.171 0.322296 -0.319401)
(199.085 0.241537 -0.457858)
(198.947 0.145243 -0.555715)
(198.772 0.0406759 -0.598761)
(198.58 -0.0656355 -0.574122)
(198.398 -0.165893 -0.477576)
(198.26 -0.246781 -0.31211)
(199.277 -0.0154293 0.787374)
(199.443 -0.114202 0.483182)
(199.504 -0.239223 0.13628)
(199.459 -0.377928 -0.20087)
(199.309 -0.532592 -0.506484)
(199.064 -0.698748 -0.752332)
(198.744 -0.872541 -0.909647)
(198.383 -1.04837 -0.952298)
(198.027 -1.21839 -0.854857)
(197.751 -1.36418 -0.622678)
(199.373 0.770141 0.719292)
(199.623 0.691079 0.301646)
(199.717 0.551723 -0.144172)
(199.654 0.382233 -0.580237)
(199.434 0.188634 -0.977623)
(199.065 -0.0231558 -1.29963)
(198.566 -0.250605 -1.50342)
(197.98 -0.489302 -1.5405)
(197.374 -0.732988 -1.35849)
(196.88 -0.957609 -0.932749)
(199.662 0.353663 1.30119)
(200 0.185386 0.737375)
(200.128 -0.0307721 0.108824)
(200.053 -0.261544 -0.507059)
(199.769 -0.509277 -1.09004)
(199.279 -0.767643 -1.59343)
(198.593 -1.0392 -1.95881)
(197.755 -1.32429 -2.11288)
(196.84 -1.62955 -1.95512)
(196.054 -1.92347 -1.4127)
(199.8 1.26761 1.16002)
(200.216 1.07597 0.50789)
(200.378 0.833327 -0.185936)
(200.294 0.581555 -0.878278)
(199.953 0.320545 -1.54119)
(199.351 0.0520717 -2.12992)
(198.484 -0.232734 -2.57185)
(197.385 -0.541641 -2.77605)
(196.119 -0.889188 -2.57574)
(194.979 -1.25941 -1.84294)
(200.155 0.566129 1.77943)
(200.645 0.270051 1.01863)
(200.836 -0.0494056 0.173159)
(200.751 -0.352207 -0.666976)
(200.369 -0.645054 -1.49773)
(199.677 -0.924875 -2.26865)
(198.646 -1.20449 -2.90488)
(197.294 -1.49883 -3.28578)
(195.652 -1.84884 -3.19772)
(194.1 -2.24699 -2.37784)
(200.266 1.71119 1.34454)
(200.798 1.39993 0.568939)
(201.007 1.07855 -0.244412)
(200.91 0.786879 -1.07829)
(200.489 0.525226 -1.90692)
(199.723 0.290284 -2.69915)
(198.56 0.063958 -3.3677)
(196.993 -0.179361 -3.80079)
(195.006 -0.486596 -3.70411)
(193.027 -0.911423 -2.75835)
(200.54 0.345872 2.09688)
(201.101 -0.081149 1.27434)
(201.32 -0.478305 0.343877)
(201.226 -0.803978 -0.591512)
(200.788 -1.07002 -1.55178)
(199.981 -1.27205 -2.49029)
(198.728 -1.42183 -3.34278)
(196.991 -1.55063 -3.96293)
(194.715 -1.70195 -4.08314)
(192.278 -2.03045 -3.14905)
(199.939 1.81549 1.29992)
(200.477 1.34991 0.563328)
(200.692 1.00044 -0.229904)
(200.571 0.717057 -1.06432)
(200.095 0.532271 -1.91668)
(199.23 0.43703 -2.76846)
(197.897 0.427649 -3.54117)
(196.026 0.494735 -4.10988)
(193.556 0.562886 -4.18019)
(190.782 0.519319 -3.11702)
(198.214 -0.256991 0.26654)
(198.301 -0.291935 0.230162)
(198.319 -0.334402 0.135988)
(198.314 -0.368545 0.0662151)
(198.291 -0.406889 -0.0137011)
(198.257 -0.441396 -0.0709434)
(198.214 -0.474032 -0.115395)
(198.168 -0.503091 -0.135279)
(198.118 -0.527214 -0.136107)
(198.025 -0.543636 -0.117135)
(198.78 0.318934 0.0796174)
(198.842 0.346647 -0.0390092)
(198.866 0.344506 -0.146026)
(198.85 0.311417 -0.244401)
(198.797 0.260135 -0.323546)
(198.712 0.195636 -0.374959)
(198.606 0.12429 -0.390849)
(198.492 0.0519468 -0.364086)
(198.385 -0.0149807 -0.295548)
(198.305 -0.0666371 -0.186421)
(198.895 -0.170003 0.626597)
(199.008 -0.244438 0.412615)
(199.05 -0.335535 0.163776)
(199.02 -0.436911 -0.0777516)
(198.919 -0.551219 -0.294922)
(198.756 -0.674844 -0.467656)
(198.548 -0.803334 -0.577296)
(198.319 -0.930907 -0.60978)
(198.102 -1.04997 -0.55274)
(197.938 -1.14755 -0.418487)
(198.932 0.577734 0.497694)
(199.115 0.535554 0.200144)
(199.185 0.440832 -0.118196)
(199.14 0.317171 -0.427676)
(198.98 0.170893 -0.703867)
(198.718 0.00846822 -0.918477)
(198.372 -0.165598 -1.04215)
(197.978 -0.345363 -1.04468)
(197.589 -0.52209 -0.902793)
(197.286 -0.678384 -0.610786)
(199.132 0.127436 1.03547)
(199.392 0.0107191 0.610709)
(199.491 -0.150011 0.131016)
(199.433 -0.328807 -0.336538)
(199.215 -0.525433 -0.771663)
(198.847 -0.732805 -1.13532)
(198.347 -0.950234 -1.38417)
(197.757 -1.1743 -1.46958)
(197.149 -1.40404 -1.33909)
(196.651 -1.61343 -0.964933)
(199.21 1.00793 0.868091)
(199.542 0.877788 0.370299)
(199.672 0.696232 -0.163086)
(199.602 0.498841 -0.692919)
(199.329 0.288496 -1.18955)
(198.856 0.0687893 -1.61188)
(198.195 -0.163043 -1.90293)
(197.392 -0.410162 -1.99757)
(196.523 -0.673727 -1.79954)
(195.78 -0.942567 -1.25567)
(199.516 0.298803 1.46345)
(199.922 0.07706 0.862809)
(200.079 -0.174018 0.184608)
(200.005 -0.419432 -0.485875)
(199.686 -0.661553 -1.13715)
(199.121 -0.895412 -1.71911)
(198.309 -1.12957 -2.16948)
(197.288 -1.37198 -2.39283)
(196.131 -1.64574 -2.26842)
(195.095 -1.93792 -1.64012)
(199.577 1.46972 1.01295)
(200.025 1.24153 0.400614)
(200.201 0.991046 -0.245292)
(200.114 0.756708 -0.907103)
(199.754 0.54189 -1.55116)
(199.113 0.345722 -2.14114)
(198.174 0.156081 -2.59941)
(196.963 -0.0449858 -2.83467)
(195.536 -0.285812 -2.65525)
(194.193 -0.595759 -1.89012)
(199.847 0.0714667 1.79099)
(200.33 -0.266487 1.12452)
(200.517 -0.591684 0.351921)
(200.43 -0.860971 -0.420507)
(200.048 -1.08272 -1.20163)
(199.359 -1.25129 -1.93763)
(198.329 -1.37809 -2.5667)
(196.963 -1.48683 -2.9605)
(195.3 -1.6104 -2.94909)
(193.637 -1.84793 -2.17929)
(199.249 1.6656 0.950154)
(199.712 1.29758 0.370898)
(199.9 1.02206 -0.263861)
(199.795 0.795317 -0.933098)
(199.382 0.64973 -1.60421)
(198.644 0.577516 -2.24932)
(197.543 0.572647 -2.78836)
(196.06 0.625707 -3.11503)
(194.238 0.664449 -3.01176)
(192.349 0.633209 -2.10821)
(198.031 -0.305402 0.238157)
(198.106 -0.334782 0.22153)
(198.119 -0.370486 0.148169)
(198.117 -0.396198 0.0990999)
(198.104 -0.425608 0.0375259)
(198.085 -0.451197 -0.00753867)
(198.061 -0.475023 -0.046832)
(198.035 -0.495496 -0.0705516)
(198.004 -0.511459 -0.084104)
(197.925 -0.520792 -0.0853021)
(198.566 0.287784 -0.0100523)
(198.605 0.324358 -0.0867238)
(198.621 0.336592 -0.147437)
(198.612 0.321789 -0.20076)
(198.579 0.291773 -0.240459)
(198.528 0.250667 -0.26172)
(198.465 0.203703 -0.260695)
(198.397 0.155736 -0.233115)
(198.334 0.111635 -0.18203)
(198.286 0.0788718 -0.105616)
(198.603 -0.274717 0.510863)
(198.677 -0.334836 0.360628)
(198.705 -0.402574 0.182204)
(198.685 -0.476433 0.00859888)
(198.62 -0.559666 -0.147271)
(198.515 -0.649634 -0.271853)
(198.383 -0.742248 -0.353237)
(198.241 -0.832462 -0.384352)
(198.109 -0.914059 -0.358217)
(198.012 -0.978134 -0.28901)
(198.607 0.439455 0.325571)
(198.735 0.420713 0.119621)
(198.786 0.358713 -0.100578)
(198.754 0.271329 -0.313304)
(198.644 0.164345 -0.49958)
(198.463 0.0439123 -0.638703)
(198.229 -0.0850665 -0.711444)
(197.97 -0.216518 -0.699489)
(197.723 -0.341975 -0.594407)