/*--------------------------------*- C++ -*----------------------------------*\
| =========                 |                                                 |
| \\      /  F ield         | foam-extend: Open Source CFD                    |
|  \\    /   O peration     | Version:     4.0                                |
|   \\  /    A nd           | Web:         http://www.foam-extend.org         |
|    \\/     M anipulation  |                                                 |
\*---------------------------------------------------------------------------*/
FoamFile
{
    version     2.0;
    format      ascii;
    class       regIOobject;
    location    "2400/uniform";
    object      profilingInfo;
}
// * * * * * * * * * * * * * * * * * * * * * * * * * * * * * * * * * * * * * //

profilingInfo
(

    {
        id              24;
        parentId        16;
        description     "Foam::Time::writeObject - outputTime";
        calls           12;
        totalTime       4.60426;
        childTime       0;
        onStack         1;
    }

    {
        id              16;
        parentId        1;
        description     "Foam::Time::writeObject";
        calls           2400;
        totalTime       4.61797;
        childTime       4.60426;
        onStack         1;
    }

    {
        id              1;
        description     "application::main";
        calls           1;
        totalTime       686.931;
        childTime       349.526;
        onStack         1;
    }

    {
        id              19;
        parentId        17;
        description     "FO::Mach::execute";
        calls           2399;
        totalTime       4.61284;
        childTime       0;
        onStack         0;
    }

    {
        id              18;
        parentId        17;
        description     "FO::flux::execute";
        calls           2399;
        totalTime       2.35738;
        childTime       0;
        onStack         0;
    }

    {
        id              21;
        parentId        17;
        description     "FO::minMaxP::execute";
        calls           2399;
        totalTime       0.373263;
        childTime       0;
        onStack         0;
    }

    {
        id              22;
        parentId        17;
        description     "FO::minMaxRho::execute";
        calls           2399;
        totalTime       0.352676;
        childTime       0;
        onStack         0;
    }

    {
        id              23;
        parentId        17;
        description     "FO::minMaxT::execute";
        calls           2399;
        totalTime       0.345402;
        childTime       0;
        onStack         0;
    }

    {
        id              20;
        parentId        17;
        description     "FO::minMaxU::execute";
        calls           2399;
        totalTime       1.13193;
        childTime       0;
        onStack         0;
    }

    {
        id              3;
        parentId        2;
        description     "functionObjectList::read";
        calls           1;
        totalTime       0.005587;
        childTime       0;
        onStack         0;
    }

    {
        id              17;
        parentId        1;
        description     "functionObjects_.execute()";
        calls           2399;
        totalTime       9.22356;
        childTime       9.1735;
        onStack         0;
    }

    {
        id              2;
        parentId        1;
        description     "functionObjects_.start()";
        calls           1;
        totalTime       0.005601;
        childTime       0.005587;
        onStack         0;
    }

    {
        id              4;
        parentId        1;
        description     "fvMatrix::solve_U";
        calls           2400;
        totalTime       33.7323;
        childTime       28.8443;
        onStack         0;
    }

    {
        id              12;
        parentId        1;
        description     "fvMatrix::solve_epsilon";
        calls           2400;
        totalTime       18.9857;
        childTime       12.1296;
        onStack         0;
    }

    {
        id              10;
        parentId        1;
        description     "fvMatrix::solve_i";
        calls           2400;
        totalTime       10.434;
        childTime       9.48727;
        onStack         0;
    }

    {
        id              14;
        parentId        1;
        description     "fvMatrix::solve_k";
        calls           2400;
        totalTime       13.8038;
        childTime       12.9071;
        onStack         0;
    }

    {
        id              8;
        parentId        1;
        description     "fvMatrix::solve_p";
        calls           4800;
        totalTime       258.723;
        childTime       256.754;
        onStack         0;
    }

    {
        id              5;
        parentId        4;
        description     "lduMatrix::solver_Ux";
        calls           2400;
        totalTime       9.71691;
        childTime       0;
        onStack         0;
    }

    {
        id              6;
        parentId        4;
        description     "lduMatrix::solver_Uy";
        calls           2400;
        totalTime       9.57839;
        childTime       0;
        onStack         0;
    }

    {
        id              7;
        parentId        4;
        description     "lduMatrix::solver_Uz";
        calls           2400;
        totalTime       9.54899;
        childTime       0;
        onStack         0;
    }

    {
        id              13;
        parentId        12;
        description     "lduMatrix::solver_epsilon";
        calls           2400;
        totalTime       12.1296;
        childTime       0;
        onStack         0;
    }

    {
        id              11;
        parentId        10;
        description     "lduMatrix::solver_i";
        calls           2400;
        totalTime       9.48727;
        childTime       0;
        onStack         0;
    }

    {
        id              15;
        parentId        14;
        description     "lduMatrix::solver_k";
        calls           2400;
        totalTime       12.9071;
        childTime       0;
        onStack         0;
    }

    {
        id              9;
        parentId        8;
        description     "lduMatrix::solver_p";
        calls           4800;
        totalTime       256.754;
        childTime       0;
        onStack         0;
    }
);


// ************************************************************************* //
