/*--------------------------------*- C++ -*----------------------------------*\
| =========                 |                                                 |
| \\      /  F ield         | foam-extend: Open Source CFD                    |
|  \\    /   O peration     | Version:     4.0                                |
|   \\  /    A nd           | Web:         http://www.foam-extend.org         |
|    \\/     M anipulation  |                                                 |
\*---------------------------------------------------------------------------*/
FoamFile
{
    version     2.0;
    format      ascii;
    class       volScalarField;
    location    "650";
    object      epsilon;
}
// * * * * * * * * * * * * * * * * * * * * * * * * * * * * * * * * * * * * * //

dimensions      [0 2 -3 0 0 0 0];

internalField   nonuniform List<scalar> 
34480
(
4891.9
4888.8
4888.12
4889.61
4893.44
4900.26
4915.11
4970.57
5165.33
5707.27
665.812
610.942
609.48
662.06
850.306
1602.08
5202.5
23329.7
105792
389238
601.725
511.913
500.507
562.892
809.341
1849.17
7157.69
35663.2
174638
704512
504.75
424.825
414.883
475.102
728.429
1895.32
8312.08
44823.6
233343
1.00979e+06
436.215
368.864
363.084
420.67
675.397
1932.1
9253.21
52918.3
289608
1.32643e+06
374.315
318.208
313.32
366.325
618.156
1958.08
10187.2
61301.8
350315
1.68413e+06
336.037
288.438
284.979
333.42
578.973
1957.28
10754.1
67203.8
398262
1.99578e+06
308.436
271.115
267.36
307.21
523.987
1813.65
10342.9
66687.9
408462
2.12714e+06
451.61
428.487
426.184
451.156
588.603
1400.13
6813.27
43346.6
272191
1.46571e+06
5690.08
5687.57
5690.89
5701.15
5716.65
5736.45
5759.38
5792.97
5857.02
5919.12
4820.2
4816.66
4815.58
4816.97
4821.33
4829.52
4842.41
4869.47
4934.77
5164.97
523.864
488.385
481.714
495.713
539.907
656.405
1014.75
2392.79
12140.7
106758
441.56
380.275
366.704
386.772
456.573
645.976
1235.35
3596.21
21687.5
200198
389.821
331.067
317.957
338.479
410.76
615.759
1293
4302.49
30496.7
295827
353.791
301.12
290.982
310.856
381.933
589.75
1312.6
4817.06
39050.3
397175
314.75
269.072
259.677
277.279
342.48
542.468
1279.4
5185.22
47867.7
509430
290.761
250.531
242.624
257.798
317.419
506.227
1233.12
5349.81
54803.1
608070
274.118
241.891
234.395
245.696
291.924
443.359
1053.49
4814.19
55545.9
650994
426.185
404.811
399.887
406.845
435.486
519.635
832.289
2969.91
36725.6
466464
5573.07
5566.53
5565.28
5570.47
5580.86
5595.22
5613.28
5643.58
5708.38
5879.65
4737.71
4734.48
4733.22
4733.99
4736.97
4742.06
4748.12
4760.01
4786.16
4846.79
409.902
394.082
390.536
395.123
409.935
444.903
534.079
771.425
1573.03
6108.83
308.628
276.96
269.421
278.578
309.154
379.343
552.234
1038.34
2919.02
15429.2
286.762
253.024
244.911
255.66
290.977
375.254
595.348
1283.38
4463.98
29289.4
274.497
241.894
235.236
246.427
283.439
374.007
623.269
1482.84
6224.74
48305.2
254.396
224.544
217.994
228.472
263.689
353.603
616.575
1627.82
8315.01
74237.1
242.733
215.175
209.518
218.855
251.984
338.614
604.097
1722.38
10406.1
103382
236.882
214.175
208.716
216.046
242.363
312.763
537.718
1593.57
11345.5
125309
397.308
381.222
377.583
382.813
401.967
451.5
594.645
1230.54
7902.8
94303.8
5464.64
5455.74
5451.95
5454.25
5461.9
5473.66
5488.85
5517.02
5586.63
5770.98
4644.43
4642.26
4641.4
4642.01
4644.12
4647.08
4648.91
4652.67
4661.66
4681.16
336.025
330.009
328.499
329.432
333.267
343.482
370.046
428.829
558.948
1007.76
221.792
207.409
203.695
207.533
220.916
249.439
310.541
449.491
787.479
2163.79
213.979
196.504
191.904
197.379
215.347
255.001
344.684
567.523
1180.97
4197.27
214.538
196.074
192.065
198.345
218.891
265.415
376.401
676.896
1628.49
7219.01
206.733
188.558
184.281
190.698
211.666
261.295
387.22
762.344
2153.98
11780.2
203.413
185.587
181.758
187.813
208.661
259.186
393.382
825.184
2689.8
17500.8
205.767
190.435
186.598
191.701
209.153
252.544
372.37
793.04
2938.57
22490.5
371.277
359.432
356.708
360.581
374.471
408.747
498.982
775.553
2233.76
17186.9
5343.67
5335.11
5331.26
5333.17
5340.4
5352.55
5368.38
5396.9
5461.29
5603.94
4541.79
4540.65
4540.14
4540.53
4541.76
4542.78
4542.17
4541.85
4543.01
4546.86
290.984
288.736
288.102
287.748
287.635
289.726
297.181
312.564
338.999
397.054
170.476
164.345
162.549
163.754
168.763
179.17
199.681
240.677
315.276
504.32
167.145
158.52
155.922
158.315
166.567
183.945
219.485
296.303
448.661
902.483
172.637
162.679
160.304
163.42
173.878
196.333
244.578
357.996
608.73
1508.44
171.449
160.803
158.028
161.593
173.242
199.387
258.969
412.187
796.736
2465.66
172.857
161.698
159.115
162.704
175.093
203.529
271.1
457.006
984.291
3713.7
180.581
170.512
167.814
171.095
182.104
208.14
272.435
462.623
1082.04
4889.1
347.823
339.314
337.254
339.899
349.571
372.597
430.574
575.204
1019.72
3964.13
5215.06
5206.95
5203.13
5204.71
5211.41
5223.32
5238.77
5265.15
5318.93
5420.8
4430.67
4430.4
4430.21
4430.43
4430.96
4430.67
4429.32
4427.91
4427.14
4427.51
263.896
262.655
262.287
261.697
260.775
260.941
262.913
267.39
274.549
286.519
141.505
138.954
138.093
138.303
139.917
143.35
149.844
161.732
179.691
211.256
138.45
134.283
132.832
133.771
137.329
144.543
158.1
184.318
226.496
308.456
144.594
139.443
138.105
139.532
144.547
154.77
174.745
216.826
291.275
462.297
146.24
140.245
138.522
140.398
146.562
159.68
186.706
248.838
371.281
710.477
149.774
143.058
141.404
143.423
150.477
165.8
198.558
278.818
452.851
1032.56
160.526
154.193
152.391
154.423
161.111
176.186
209.842
297.63
510.573
1357.33
326.692
320.87
319.397
321.151
327.76
343.176
381.147
462.65
641.19
1327.74
5078.23
5070.77
5067.15
5068.5
5074.65
5085.83
5100.25
5123.54
5165.16
5232
4311.71
4312.14
4312.22
4312.31
4312.32
4311.49
4310.11
4308.67
4307.73
4307.5
247.142
245.861
245.459
244.968
244.329
244.151
244.671
246.36
249.263
253.616
125.482
124.377
123.938
123.847
124.253
125.27
127.296
130.921
135.696
141.713
121.478
119.43
118.601
118.925
120.409
123.366
128.608
137.855
150.582
167.02
126.55
123.95
123.217
123.818
126.122
130.626
138.764
154.313
177.958
213.489
128.951
125.666
124.625
125.563
128.709
135.105
147.157
172.057
214.063
290.322
133.039
129.12
128.099
129.173
133.053
141.078
156.66
190.8
253.186
388.974
145.12
141.302
140.146
141.351
145.266
153.749
171.173
211.534
292.821
502.973
307.972
304.202
303.192
304.313
308.758
319.189
344.581
392.533
479.491
678.943
4932.96
4926.32
4923.01
4924.18
4929.7
4939.71
4952.54
4972.28
5003.72
5047.27
4185.64
4186.34
4186.65
4186.65
4186.35
4185.54
4184.41
4183.29
4182.65
4182.46
235.638
234.407
233.848
233.529
233.206
233.02
233.222
234.201
236.076
238.796
116.63
116.104
115.852
115.71
115.748
115.995
116.655
117.969
119.612
121.05
111.679
110.625
110.13
110.219
110.84
112.086
114.254
117.894
122.416
126.195
115.281
113.989
113.593
113.822
114.853
116.816
120.197
126.222
134.538
142.68
117.487
115.725
115.108
115.558
117.127
120.211
125.654
135.893
151.521
170.72
121.322
119.096
118.486
119.029
121.114
125.263
132.732
147.442
171.438
206.709
133.631
131.436
130.727
131.415
133.633
138.311
147.389
166.16
199.679
258.711
291.486
289.221
288.552
289.252
292.237
299.538
316.882
346.123
393.366
467.242
4779.09
4773.38
4770.47
4771.48
4776.29
4784.85
4795.76
4811.83
4835.01
4863.83
4052.81
4053.5
4053.86
4053.85
4053.55
4052.91
4052.08
4051.32
4051.01
4050.92
226.625
225.458
224.929
224.693
224.499
224.385
224.548
225.334
226.928
229.163
111.678
111.393
111.233
111.113
111.06
111.091
111.343
111.983
112.845
113.41
106.158
105.576
105.268
105.278
105.547
106.108
107.102
108.781
110.823
111.955
108.447
107.808
107.594
107.669
108.125
108.986
110.451
112.996
116.408
118.65
110.135
109.208
108.846
109.054
109.825
111.31
113.834
118.281
124.768
130.58
113.398
112.161
111.806
112.067
113.174
115.316
118.98
125.583
135.648
146.368
125.288
124.098
123.681
124.062
125.282
127.827
132.615
141.578
156.404
175.947
276.914
275.704
275.269
275.707
277.749
283.142
295.177
313.568
340.792
373.564
4616.58
4611.86
4609.41
4610.27
4614.31
4621.26
4630.17
4642.73
4659.39
4678.37
3913.35
3913.98
3914.3
3914.3
3914.09
3913.63
3913.06
3912.59
3912.54
3912.53
218.64
217.532
217.052
216.868
216.749
216.695
216.865
217.576
219.068
221.109
108.811
108.635
108.528
108.441
108.383
108.369
108.501
108.926
109.587
110.02
103.131
102.787
102.59
102.578
102.705
102.982
103.495
104.407
105.591
106.158
104.434
104.117
103.999
104.017
104.221
104.612
105.286
106.482
108.153
109.052
105.588
105.108
104.899
104.991
105.368
106.087
107.289
109.339
112.356
114.658
108.227
107.55
107.346
107.468
108.057
109.176
111.025
114.144
118.757
122.791
119.356
118.76
118.529
118.734
119.39
120.768
123.313
127.703
134.622
142.387
263.843
263.337
263.046
263.332
264.794
268.998
277.423
289.262
305.509
321.443
4445.54
4441.81
4439.83
4440.54
4443.8
4449.17
4456.16
4465.6
4477.23
4489.52
3767.35
3767.91
3768.19
3768.21
3768.06
3767.75
3767.38
3767.12
3767.25
3767.27
210.922
209.871
209.441
209.291
209.214
209.195
209.367
210.024
211.452
213.393
107.037
106.919
106.846
106.788
106.744
106.73
106.824
107.16
107.762
108.224
101.524
101.311
101.183
101.169
101.235
101.385
101.678
102.239
103.068
103.544
102.165
102.005
101.937
101.938
102.036
102.227
102.566
103.195
104.162
104.757
102.889
102.645
102.525
102.565
102.75
103.102
103.689
104.687
106.237
107.462
104.976
104.609
104.492
104.549
104.869
105.471
106.438
107.991
110.273
112.166
115.189
114.924
114.805
114.916
115.263
116.016
117.363
119.546
122.865
126.471
251.818
251.752
251.534
251.741
252.87
256.237
262.149
269.868
279.789
287.64
4266.22
4263.42
4261.89
4262.46
4264.97
4268.91
4274.19
4281.02
4288.9
4296.68
3614.93
3615.43
3615.67
3615.7
3615.61
3615.4
3615.16
3615.03
3615.26
3615.3
203.076
202.083
201.697
201.57
201.518
201.516
201.678
202.281
203.648
205.528
105.823
105.742
105.692
105.655
105.627
105.62
105.696
105.98
106.55
107.071
100.701
100.565
100.484
100.473
100.51
100.595
100.771
101.142
101.783
102.276
100.938
100.855
100.814
100.812
100.865
100.971
101.16
101.526
102.16
102.693
101.362
101.24
101.171
101.188
101.281
101.457
101.75
102.257
103.12
103.948
103.012
102.809
102.742
102.771
102.955
103.295
103.824
104.641
105.844
106.914
112.25
112.156
112.101
112.162
112.347
112.763
113.464
114.548
116.138
118.028
240.4
240.579
240.376
240.551
241.512
244.165
248.287
253.329
259.469
263.064
4079.01
4077.02
4075.91
4076.34
4078.17
4080.95
4084.78
4089.53
4094.69
4099.49
3456.3
3456.74
3456.94
3456.97
3456.92
3456.79
3456.63
3456.58
3456.84
3456.88
194.886
193.952
193.606
193.498
193.459
193.464
193.608
194.152
195.45
197.292
104.893
104.838
104.805
104.782
104.765
104.765
104.829
105.068
105.604
106.181
100.294
100.21
100.161
100.153
100.172
100.22
100.326
100.576
101.088
101.61
100.311
100.265
100.238
100.237
100.271
100.339
100.456
100.685
101.129
101.637
100.545
100.485
100.446
100.453
100.5
100.591
100.74
101.006
101.515
102.149
101.868
101.752
101.712
101.731
101.844
102.049
102.356
102.809
103.478
104.164
110.109
110.099
110.08
110.116
110.22
110.445
110.797
111.322
112.054
113.144
229.162
229.474
229.236
229.408
230.315
232.244
235.075
238.335
242.148
243.406
3884.43
3883.11
3882.37
3882.67
3883.9
3885.83
3888.49
3891.66
3894.92
3897.79
3291.74
3292.13
3292.29
3292.33
3292.3
3292.21
3292.1
3292.08
3292.34
3292.39
186.222
185.348
185.038
184.946
184.916
184.922
185.046
185.522
186.734
188.552
104.106
104.071
104.05
104.036
104.028
104.032
104.084
104.282
104.772
105.395
100.103
100.054
100.025
100.019
100.028
100.053
100.113
100.28
100.686
101.22
100.015
99.9874
99.9686
99.9688
99.9929
100.04
100.118
100.267
100.582
101.052
100.138
100.108
100.086
100.089
100.114
100.162
100.239
100.381
100.689
101.193
101.22
101.149
101.125
101.139
101.215
101.346
101.534
101.8
102.185
102.65
108.45
108.484
108.482
108.506
108.567
108.682
108.846
109.085
109.383
110.062
217.579
218.104
217.824
218.011
218.744
220.072
221.967
224.031
226.38
226.357
3683.18
3682.33
3681.89
3682.09
3682.87
3684.17
3685.94
3687.96
3689.92
3691.58
3121.64
3121.99
3122.13
3122.16
3122.14
3122.08
3122
3121.99
3122.22
3122.27
176.984
176.174
175.898
175.822
175.799
175.804
175.904
176.303
177.405
179.199
103.398
103.377
103.363
103.356
103.352
103.359
103.402
103.56
103.99
104.64
100.02
99.9933
99.9786
99.9743
99.9763
99.9856
100.017
100.122
100.433
100.952
99.8923
99.8746
99.8607
99.8613
99.8792
99.9133
99.9666
100.063
100.282
100.691
99.9558
99.9395
99.9263
99.9272
99.9411
99.9673
100.008
100.085
100.269
100.662
100.851
100.805
100.789
100.802
100.854
100.943
101.064
101.226
101.451
101.765
107.058
107.111
107.123
107.139
107.171
107.224
107.29
107.386
107.466
107.916
205.358
206.022
205.837
205.981
206.483
207.36
208.579
209.839
211.255
210.573
3476.05
3475.52
3475.25
3475.38
3475.88
3476.72
3477.83
3479.05
3480.16
3481.08
2946.57
2946.88
2946.99
2947.01
2947
2946.96
2946.89
2946.88
2947.06
2947.11
167.081
166.338
166.099
166.039
166.022
166.025
166.098
166.411
167.371
169.121
102.741
102.729
102.718
102.714
102.714
102.722
102.756
102.876
103.233
103.881
99.9898
99.9769
99.9704
99.9672
99.9653
99.9659
99.9786
100.04
100.262
100.73
99.8568
99.8441
99.8336
99.8341
99.847
99.8712
99.9072
99.9686
100.112
100.438
99.889
99.8789
99.8707
99.8706
99.8785
99.8933
99.9152
99.9557
100.063
100.35
100.627
100.595
100.584
100.594
100.631
100.692
100.771
100.872
101.003
101.205
105.798
105.853
105.87
105.882
105.897
105.919
105.937
105.965
105.942
106.255
192.306
193.02
192.928
193.028
193.349
193.893
194.627
195.353
196.166
195.215
3263.9
3263.59
3263.44
3263.52
3263.83
3264.33
3264.98
3265.67
3266.25
3266.73
2767.27
2767.54
2767.62
2767.65
2767.64
2767.6
2767.55
2767.53
2767.65
2767.68
156.407
155.738
155.54
155.496
155.485
155.485
155.529
155.751
156.529
158.183
102.125
102.117
102.108
102.105
102.107
102.116
102.143
102.228
102.501
103.103
99.9837
99.978
99.9758
99.9734
99.97
99.9666
99.9688
99.9999
100.142
100.521
99.861
99.8515
99.8438
99.844
99.8526
99.8686
99.8916
99.9282
100.015
100.246
99.8785
99.8716
99.8662
99.8657
99.87
99.8782
99.8897
99.9101
99.9672
100.157
100.463
100.439
100.431
100.439
100.464
100.504
100.554
100.616
100.69
100.811
104.591
104.638
104.657
104.665
104.673
104.68
104.676
104.675
104.613
104.836
178.266
178.957
178.94
179.006
179.193
179.495
179.881
180.253
180.67
179.704
3047.8
3047.64
3047.56
3047.61
3047.78
3048.05
3048.4
3048.75
3049.01
3049.24
2584.83
2585.01
2585.07
2585.1
2585.09
2585.06
2585.02
2584.98
2585.03
2585.04
144.824
144.237
144.088
144.062
144.055
144.05
144.067
144.195
144.753
146.209
101.555
101.546
101.538
101.535
101.538
101.547
101.566
101.623
101.808
102.31
99.9854
99.9821
99.9815
99.9797
99.9765
99.9723
99.9702
99.9825
100.058
100.317
99.8816
99.875
99.8698
99.8697
99.8748
99.8843
99.8975
99.9171
99.9623
100.101
99.8939
99.8895
99.8861
99.8855
99.8874
99.8914
99.8965
99.9053
99.9313
100.038
100.308
100.29
100.285
100.29
100.305
100.328
100.358
100.391
100.43
100.498
103.408
103.442
103.458
103.464
103.466
103.465
103.455
103.443
103.377
103.53
163.066
163.68
163.723
163.767
163.854
163.977
164.108
164.238
164.38
163.567
2829.04
2828.96
2828.93
2828.95
2829.03
2829.17
2829.33
2829.48
2829.57
2829.66
2400.34
2400.47
2400.51
2400.53
2400.53
2400.51
2400.48
2400.44
2400.44
2400.41
132.095
131.606
131.518
131.51
131.507
131.497
131.49
131.536
131.843
132.944
101.042
101.031
101.024
101.021
101.023
101.03
101.044
101.077
101.184
101.532
99.9843
99.9808
99.9803
99.979
99.9769
99.9741
99.9718
99.9748
100.004
100.135
99.9109
99.9069
99.904
99.9039
99.9065
99.9114
99.9179
99.9268
99.9455
100.008
99.9213
99.9193
99.9175
99.9169
99.9175
99.9187
99.9201
99.9224
99.9307
99.9752
100.146
100.135
100.132
100.134
100.142
100.153
100.167
100.181
100.198
100.233
102.258
102.278
102.287
102.29
102.288
102.281
102.269
102.255
102.207
102.299
146.172
146.65
146.681
146.714
146.772
146.852
146.934
146.988
146.912
146.348
2609.07
2609.04
2609.03
2609.04
2609.07
2609.1
2609.14
2609.17
2609.19
2609.21
2214.32
2214.4
2214.41
2214.41
2214.41
2214.41
2214.4
2214.39
2214.38
2214.35
117.652
117.324
117.301
117.308
117.309
117.3
117.282
117.269
117.336
117.896
100.592
100.579
100.571
100.568
100.568
100.573
100.582
100.6
100.647
100.817
99.9836
99.9805
99.9797
99.979
99.9781
99.9771
99.9763
99.9768
99.9832
100.019
99.9508
99.9489
99.9477
99.9477
99.9489
99.951
99.9538
99.957
99.9622
99.9779
99.9575
99.957
99.9563
99.956
99.956
99.956
99.9558
99.9555
99.9562
99.9658
100.022
100.018
100.016
100.017
100.02
100.024
100.028
100.032
100.037
100.052
101.174
101.178
101.181
101.18
101.175
101.167
101.156
101.146
101.129
101.175
126.213
126.495
126.51
126.529
126.56
126.601
126.643
126.663
126.608
126.258
2388.63
2388.62
2388.63
2388.63
2388.63
2388.63
2388.62
2388.61
2388.58
2388.6
7151.66
7257.45
7213.97
7012.55
665273
686727
691391
702682
1.49994e+06
1.57931e+06
1.58364e+06
1.56546e+06
2.50652e+06
2.67171e+06
2.66316e+06
2.57761e+06
3.71279e+06
3.98667e+06
3.95189e+06
3.77593e+06
5.21508e+06
5.62499e+06
5.56906e+06
5.34843e+06
6.70625e+06
7.2578e+06
7.19102e+06
6.97379e+06
7.64509e+06
8.31229e+06
8.25621e+06
8.09285e+06
5.4307e+06
5.94477e+06
5.89116e+06
5.82775e+06
7806.14
8044.84
7891.91
7503.25
5725.36
5774.35
5775.99
5738.45
309511
321116
340899
374632
685092
768011
809645
847020
1.16296e+06
1.37262e+06
1.43066e+06
1.45351e+06
1.7357e+06
2.12411e+06
2.18962e+06
2.19445e+06
2.41029e+06
3.01821e+06
3.12015e+06
3.15509e+06
3.05751e+06
3.90144e+06
4.06893e+06
4.17664e+06
3.47291e+06
4.52131e+06
4.77369e+06
4.98382e+06
2.72198e+06
3.6574e+06
3.87127e+06
4.15621e+06
7070.44
7293.3
7230.11
7008.42
4916.12
4926.14
4924.45
4914.13
21757
25631.7
24174.3
19741.3
61110.8
71992.4
67044.4
54408.9
126969
149291
136931
110362
225024
264183
239229
192305
367379
432154
392424
316755
537483
633039
577860
470074
691217
816735
750138
615078
575470
677051
614592
507662
6305.23
6389.63
6367.01
6272
4694.55
4696.77
4696.86
4695.13
1642.21
1727.79
1679.98
1550.14
4713.81
5113.83
4916.71
4346.68
11120.4
12249
11599.9
9891.67
22284.9
24724.1
23040.1
19053.2
41359.2
46151.3
42570.1
34461.4
67866.7
75796.4
69324.3
55389.3
96664
108207
98393.3
77952.3
83376.9
92467
82732.5
65421.8
5871.67
5911.99
5908.72
5871.72
4547.65
4549.02
4548.99
4547.53
440.866
449.292
448.307
440.706
722.619
761.79
760.334
727.931
1589.02
1715.72
1696.84
1573.15
3173.22
3472.07
3381.04
3030.58
6104.89
6742.38
6466.4
5616
10467.7
11579.5
10931.3
9244.18
15705.9
17423.3
16232.5
13411.1
13993.5
15347.9
13978.8
11381.1
5551.49
5572.8
5574.24
5559.63
4425.8
4427.02
4426.93
4425.48
285.945
287.377
286.91
285.142
233.635
237.391
237.82
235.692
388.865
404.321
406.277
397.479
672.382
712.919
713.612
684.465
1212.35
1308.22
1298.43
1214.31
2022.8
2200.37
2153.93
1961.91
3061.69
3356.18
3239.34
2870.58
2972.84
3200.23
3020.68
2652.5
5294.96
5305.36
5307.62
5302.9
4304.93
4306.01
4305.9
4304.59
249.096
250.329
250.144
248.754
144.294
144.591
144.43
143.943
178.402
180.559
181.005
180.02
244.266
250.572
251.977
249.395
369.662
386.192
388.858
380.781
550.327
581.931
583.008
562.575
801.707
858.005
852.506
806.536
999.031
1039.54
1016.26
967.465
5076.01
5080.64
5082.66
5082.09
4179.37
4180.27
4180.17
4179.03
233.883
235.216
235.196
233.931
120.966
120.867
120.661
120.389
127.637
127.803
127.721
127.44
147.178
148.068
148.31
148.023
184.457
187.486
188.473
187.811
234.962
240.831
242.326
240.694
317.902
329.556
331.164
326.013
548.741
553.362
550.051
546.326
4876.93
4878.69
4880.13
4880.86
4047.39
4048.08
4047.97
4047.01
224.34
225.746
225.817
224.617
112.999
112.908
112.757
112.558
111.785
111.658
111.511
111.36
118.864
118.843
118.791
118.727
132.84
133.333
133.558
133.573
151.079
152.042
152.504
152.686
189.705
192.2
193.002
192.735
402.755
399.392
398.399
401.139
4684.37
4684.78
4685.65
4686.58
3908.61
3909.1
3908.97
3908.21
216.423
217.841
217.955
216.805
109.619
109.567
109.457
109.294
105.763
105.614
105.484
105.383
108.639
108.488
108.39
108.354
114.799
114.791
114.801
114.851
123.131
123.122
123.205
123.439
146.475
146.908
147.149
147.34
336.389
331.071
330.166
333.666
4492.01
4491.81
4492.29
4493.13
3763.06
3763.36
3763.22
3762.64
208.847
210.238
210.367
209.266
107.88
107.852
107.765
107.623
103.186
103.057
102.948
102.872
104.385
104.249
104.157
104.124
107.306
107.221
107.181
107.208
111.834
111.673
111.649
111.796
128.305
128.267
128.294
128.437
297.798
292.09
291.099
294.503
4297.29
4296.84
4297.09
4297.77
3610.93
3611.06
3610.92
3610.5
201.128
202.467
202.596
201.546
106.784
106.769
106.693
106.562
102.004
101.899
101.806
101.742
102.469
102.371
102.293
102.255
103.857
103.787
103.742
103.747
106.639
106.501
106.455
106.534
119.314
119.196
119.153
119.219
271.149
265.506
264.489
267.707
4099.04
4098.55
4098.66
4099.18
3452.51
3452.5
3452.36
3452.1
193.052
194.325
194.445
193.448
105.951
105.942
105.87
105.747
101.435
101.353
101.272
101.215
101.558
101.496
101.432
101.389
102.177
102.137
102.099
102.087
104.049
103.96
103.918
103.953
114.292
114.191
114.131
114.14
250.309
244.87
243.877
246.925
3896.72
3896.29
3896.33
3896.7
3288.19
3288.07
3287.94
3287.8
184.498
185.698
185.806
184.865
105.228
105.221
105.151
105.034
101.145
101.084
101.014
100.962
101.091
101.06
101.009
100.963
101.32
101.31
101.281
101.257
102.661
102.616
102.585
102.593
111.162
111.097
111.039
111.007
232.433
227.249
226.305
229.195
3690.14
3689.84
3689.84
3690.08
3118.43
3118.24
3118.12
3118.07
175.373
176.501
176.597
175.714
104.548
104.546
104.478
104.368
100.976
100.938
100.879
100.834
100.817
100.81
100.771
100.726
100.853
100.866
100.845
100.814
101.848
101.833
101.813
101.807
108.973
108.945
108.893
108.83
216.014
211.118
210.237
212.964
3479.44
3479.28
3479.28
3479.39
2943.79
2943.58
2943.46
2943.48
165.577
166.639
166.728
165.913
103.883
103.888
103.824
103.726
100.846
100.831
100.787
100.749
100.616
100.626
100.599
100.559
100.566
100.593
100.581
100.546
101.308
101.31
101.301
101.29
107.249
107.255
107.211
107.125
200.156
195.589
194.784
197.328
3265
3264.99
3264.98
3264.99
2765.04
2764.82
2764.72
2764.77
154.985
155.995
156.091
155.353
103.208
103.222
103.168
103.083
100.705
100.71
100.684
100.657
100.435
100.457
100.441
100.406
100.359
100.391
100.384
100.351
100.899
100.908
100.905
100.895
105.735
105.771
105.735
105.633
184.258
180.089
179.373
181.695
3047.51
3047.63
3047.63
3047.55
2583.17
2582.98
2582.88
2582.94
143.421
144.4
144.524
143.875
102.501
102.524
102.48
102.41
100.521
100.541
100.532
100.515
100.26
100.283
100.276
100.25
100.191
100.219
100.216
100.188
100.555
100.562
100.563
100.557
104.284
104.341
104.315
104.208
167.839
164.198
163.594
165.617
2828.02
2828.23
2828.24
2828.1
2399.37
2399.18
2399.1
2399.17
130.623
131.6
131.777
131.22
101.743
101.768
101.733
101.672
100.292
100.315
100.319
100.311
100.103
100.12
100.117
100.1
100.06
100.078
100.076
100.058
100.261
100.263
100.264
100.263
102.826
102.887
102.871
102.78
149.965
146.912
146.462
148.191
2607.87
2608.17
2608.18
2607.99
2214.1
2213.87
2213.81
2213.92
116.166
117.114
117.324
116.842
100.934
100.94
100.909
100.867
100.08
100.093
100.098
100.096
100.004
100.009
100.007
100.002
99.9911
99.9965
99.9953
99.9894
100.059
100.056
100.056
100.059
101.417
101.446
101.44
101.397
128.616
126.529
126.286
127.498
2387.77
2388.12
2388.13
2387.89
6095.03
5418.64
5141.47
5043.76
4988.03
4949.14
4923.24
4907.78
4899.18
4893.47
804354
189566
32777.3
11447.8
5149.5
2754.58
1704.15
1190.25
922.12
770.161
1.41297e+06
235778
42685.3
14500.8
6437.14
3430.06
2065.26
1370.83
989.895
767.586
1.94727e+06
222066
44454.1
14199.5
6084.91
3162.78
1860.88
1208.95
855.883
652.581
2.35476e+06
238186
46176
13643.5
5679.98
2873.65
1658.84
1063.15
744.23
563.636
2.7923e+06
259571
48053.8
13035.8
5230.28
2556.26
1443.46
911.959
634.955
480.766
3.11869e+06
274668
48565.2
12215.6
4763.83
2271.52
1270.3
801.078
559.122
426.224
3.15982e+06
265633
44319.1
10193.8
3837.93
1794.79
1014.77
656.835
477.174
377.592
2.16321e+06
167763
25358.6
5305.99
2126.4
1172.53
823.255
650.384
554.24
496.202
6023.24
5984.31
5840.41
5813.09
5769.13
5744.19
5724.25
5712.85
5704.44
5696.21
5418.35
5145.08
5012.88
4939.51
4893.79
4863.78
4844.35
4832.59
4825.94
4821.28
180031
44639.3
13433.8
5208.92
2572.58
1532.68
1047.61
796.482
658.693
581.607
368144
84119.7
22709.1
7956.93
3709.18
2077.12
1311.96
909.176
681.36
549.532
574092
120860
29288.2
9162.14
3994.41
2128.58
1291.5
864.813
629.331
495.82
791987
156254
34448.1
9842.53
4064.2
2081.98
1229.25
807.897
579.113
451.894
1.06051e+06
196222
39501.2
10272.6
3999.82
1961.76
1125.19
725.203
515.169
400.914
1.31825e+06
229897
42712.9
10236.8
3813.41
1816.92
1028.2
660.096
469.09
366.733
1.47546e+06
241768
41260.2
8998.76
3192.66
1489.46
850.064
559.063
412.693
334.188
1.11365e+06
166601
25094.9
4949.32
1870.18
1048.27
747.899
599.905
516.017
468.188
6226.71
5935.79
5779.79
5720.82
5670.17
5639.38
5616.82
5602.56
5592.14
5582.27
4877.91
4840.23
4811.2
4787.69
4769.57
4756.57
4747.97
4742.74
4739.69
4737.16
9244.33
4154.24
2263.46
1405.11
967.826
726.248
587.754
506.619
458.024
429.797
23490.9
9283.26
4478.33
2440.1
1473.98
965.573
683.202
519.481
420.337
360.392
43713.2
15269
6616.15
3243.22
1801.48
1099.82
734.37
532.225
414.065
344.531
70151.2
21785.6
8586.45
3860.52
2012.31
1168.32
752.288
531.737
405.626
332.979
107058
29634
10582.4
4354.32
2131.49
1176.19
730.308
503.367
378.888
309.094
148626
37062.7
12074
4599.09
2149.6
1147.25
699.596
478.711
359.362
293.51
181875
40807.2
12027.3
4212.96
1889.75
990.463
609.553
426.818
331.366
278.703
134782
26407.2
7006.71
2453.02
1265.21
820.311
628.475
526.244
465.107
429.813
5991.05
5815.96
5694.48
5621.86
5569.91
5537.39
5514.5
5498.57
5486.52
5475.46
4687.62
4677.21
4666.99
4658.2
4651.66
4647.28
4644.58
4643.15
4642.63
4642.07
1224.09
907.655
703.655
565.245
475.914
419.617
384.309
362.028
347.835
339.294
2970.94
1864.28
1225.62
828.701
590.191
445.746
357.163
301.72
265.798
242.905
5987.93
3332.18
1966.19
1196.67
777.72
541.834
405.465
323.925
273.09
241.629
10267.9
5119.09
2761.61
1546.07
938.775
618.133
443.117
343.438
282.723
245.821
16622.2
7394.16
3647.24
1879.14
1067.31
663.966
455.96
342.776
277.106
238.435
24160.6
9635.2
4385.68
2108.51
1141.46
684.457
459.495
341.442
274.033
234.921
30765.2
10927.8
4564.03
2047.6
1070.11
632.852
428.528
324.225
266.675
233.345
22678.2
7186.48
2900.53
1413.2
888.274
651.823
533.832
465.394
421.799
396.147
5763.69
5640.44
5544.13
5481.83
5439.02
5410.87
5390.44
5375.54
5364.1
5353.88
4543.8
4540.95
4538.93
4537.51
4536.64
4536.24
4536.2
4536.51
4537.23
4537.97
421.192
386.774
358.057
335.608
319.272
307.76
299.826
294.473
290.96
288.741
632.039
502.738
401.931
326.572
273.741
237.683
213.458
197.17
185.803
178.131
1248.14
892.816
642.801
470.342
358.656
287.134
241.479
211.957
192.21
179.308
2193.13
1430.53
944.321
634.548
449.722
339.202
272.851
232.185
205.491
188.199
3691.25
2188.13
1323.68
815.929
537.041
380.884
292.495
240.826
208.745
188.729
5533.79
2996.47
1680.34
966.108
603.114
410.895
307.286
249.079
213.433
191.443
7267.32
3569.78
1855.54
1004.7
607.977
409.422
307.418
251.415
218.339
198.108
5569.7
2626.89
1427.66
895.628
658.571
533.116
461.233
415.947
385.193
366.789
5513.02
5440.23
5376.85
5331.99
5299.27
5275.77
5257.89
5244.3
5233.66
5224.38
4422.74
4421.6
4421.31
4421.42
4421.77
4422.26
4422.85
4423.62
4424.73
4425.93
284.08
278.833
274.144
270.126
266.856
264.365
262.614
261.485
260.831
260.332
227.358
210.038
193.455
179.202
167.942
159.572
153.625
149.445
146.279
143.997
366.814
314.868
267.893
229.365
200.5
179.904
165.586
155.624
148.458
143.526
598.251
477.775
376.325
298.811
245.14
209.41
186.029
170.623
159.604
151.95
992.614
730.651
527.92
385.032
293.953
237.224
202.089
179.914
165.051
155.214
1497.71
1022.4
684.997
466.152
337.352
261.744
217.112
190.076
172.107
160.276
2026.93
1278.59
799.941
517.072
363.867
278.61
230.234
201.411
183.081
171.277
1817.47
1192.22
827.014
627.084
516.843
449.216
405.398
375.649
354.2
341.182
5283.26
5243.67
5205.29
5174.68
5150.26
5131.22
5116.05
5104.09
5094.53
5086.39
4302.42
4301.72
4301.7
4301.99
4302.46
4303.02
4303.63
4304.38
4305.49
4306.8
249.122
247.649
246.54
245.579
244.754
244.139
243.766
243.596
243.549
243.327
142.433
139.328
136.377
133.653
131.324
129.537
128.303
127.475
126.761
126.172
175.848
167.139
157.913
149.078
141.528
135.6
131.175
127.901
125.383
123.57
239.069
218.845
197.42
178.001
162.606
151.296
143.296
137.67
133.252
129.946
353.054
305.038
257.144
217.197
188.033
167.891
154.241
144.93
138.185
133.478
502.509
409.785
323.483
257.79
213.578
184.796
166.131
153.903
145.037
138.814
685.243
525.153
391.276
298.866
241.24
205.399
182.844
168.238
158.266
151.562
835.092
683.132
562.082
481.264
427.377
389.815
362.828
343.27
328.386
319.235
5074.28
5053.68
5030.92
5010.32
4992.43
4977.47
4965.04
4954.91
4946.63
4939.75
4177.34
4176.84
4176.79
4176.97
4177.29
4177.68
4178.12
4178.7
4179.67
4180.93
234.608
233.937
233.472
233.057
232.696
232.442
232.316
232.276
232.241
231.93
119.864
119.054
118.444
117.877
117.379
117.045
116.915
116.913
116.855
116.736
126.543
124.867
122.908
120.652
118.45
116.594
115.163
114.083
113.215
112.561
146.596
143.164
138.474
133.282
128.586
124.845
122.059
120.026
118.272
116.843
184.181
175.122
163.341
151.587
141.83
134.419
128.986
125.029
121.963
119.731
233.37
214.943
192.32
172.081
156.614
145.484
137.602
132.066
127.704
124.452
307.815
271.631
233.112
202.093
179.961
164.609
153.973
146.557
141.175
137.444
520.752
477.272
432.212
396.355
368.503
346.961
330.12
317.208
306.901
300.525
4877.47
4866.5
4852.83
4839.09
4826.27
4814.93
4805.12
4796.87
4789.97
4784.38
4045.8
4045.47
4045.37
4045.41
4045.57
4045.79
4046.05
4046.44
4047.24
4048.4
225.383
224.968
224.64
224.326
224.051
223.854
223.741
223.666
223.538
223.1
112.272
111.915
111.703
111.515
111.367
111.321
111.401
111.549
111.626
111.611
111.062
110.682
110.174
109.43
108.627
107.942
107.437
107.079
106.791
106.555
118.539
118.044
116.897
115.254
113.602
112.238
111.227
110.501
109.807
109.175
133.203
131.502
128.242
124.299
120.667
117.716
115.44
113.711
112.301
111.239
152.321
148.644
142.139
135.304
129.486
124.947