/*--------------------------------*- C++ -*----------------------------------*\
| =========                 |                                                 |
| \\      /  F ield         | foam-extend: Open Source CFD                    |
|  \\    /   O peration     | Version:     4.0                                |
|   \\  /    A nd           | Web:         http://www.foam-extend.org         |
|    \\/     M anipulation  |                                                 |
\*---------------------------------------------------------------------------*/
FoamFile
{
    version     2.0;
    format      ascii;
    class       volScalarField;
    location    "650";
    object      k;
}
// * * * * * * * * * * * * * * * * * * * * * * * * * * * * * * * * * * * * * //

dimensions      [0 2 -2 0 0 0 0];

internalField   nonuniform List<scalar> 
34480
(
8.72122
8.7176
8.71679
8.71853
8.72299
8.7308
8.74819
8.81462
9.04476
9.66851
9.26308
8.62535
8.51423
8.78445
9.37937
10.2764
11.9163
15.9479
29.2842
68.5381
14.7834
13.3588
12.9294
13.1015
13.6943
14.7488
17.1174
22.9111
42.0304
102.444
14.1653
12.6932
12.2668
12.4916
13.2247
14.6571
17.8595
25.3427
49.4667
128.119
13.0519
11.6896
11.3621
11.6568
12.5227
14.2446
18.0502
26.8638
55.5191
151.748
11.8513
10.6258
10.3348
10.6344
11.5264
13.417
17.6923
27.8193
61.4946
177.061
10.9586
9.87969
9.64017
9.92139
10.8025
12.7504
17.2759
28.2948
66.0266
198.431
9.56232
8.75342
8.55757
8.77109
9.46626
11.1179
15.2343
26.0494
65.1066
205.906
6.78156
6.5173
6.46866
6.57499
6.89789
7.62457
9.64787
16.2941
43.8205
149.959
9.21792
9.21505
9.21849
9.22948
9.24616
9.26749
9.29229
9.32873
9.39798
9.46557
8.63554
8.63146
8.63021
8.63186
8.63699
8.64641
8.66136
8.69384
8.772
9.04451
7.97334
7.51779
7.40281
7.55064
7.9921
8.84026
10.3033
12.1368
15.6934
42.6872
12.1391
11.0819
10.7819
10.9935
11.6888
12.9741
15.1895
18.0945
23.953
67.5682
11.9673
10.8167
10.4978
10.7571
11.5823
13.1567
15.9559
19.9404
28.4548
86.7482
11.36
10.2472
9.98408
10.2772
11.1853
12.9441
16.1536
20.9614
31.9439
104.863
10.5556
9.52535
9.27514
9.55973
10.4613
12.2881
15.7688
21.3117
35.0857
124.86
9.95031
9.01635
8.80187
9.0575
9.92026
11.7301
15.3331
21.3399
37.4477
142.647
8.85299
8.14119
7.95765
8.14497
8.80739
10.2829
13.426
19.1123
36.1595
149.534
6.56327
6.31557
6.25965
6.33056
6.5893
7.17545
8.53147
11.5116
22.8351
104.412
9.0915
9.08425
9.08277
9.08832
9.09957
9.11513
9.13476
9.16782
9.23817
9.42292
8.53656
8.53288
8.53143
8.53235
8.53581
8.5415
8.54829
8.56267
8.59426
8.66724
6.84227
6.59625
6.52296
6.59107
6.81814
7.26718
8.07822
9.40395
11.3074
17.1473
9.6886
9.05025
8.87749
9.04301
9.56874
10.5382
12.1731
14.5832
17.6525
29.7795
9.81829
9.0721
8.87352
9.09194
9.7608
11.0331
13.2498
16.6209
21.1433
40.9974
9.61916
8.86189
8.69161
8.93603
9.68248
11.1409
13.7739
17.8898
23.8272
52.4057
9.16801
8.44116
8.26966
8.51205
9.26642
10.8149
13.7529
18.5387
26.1607
65.4021
8.82857
8.14656
7.99628
8.21788
8.94928
10.5055
13.6008
18.8114
27.9414
77.9337
8.04949
7.52035
7.38734
7.55299
8.11533
9.38291
12.0966
17.0407
26.9474
84.5284
6.30526
6.11027
6.06798
6.12648
6.33344
6.79903
7.85968
10.3321
16.917
58.7691
8.97349
8.96364
8.95937
8.96181
8.97014
8.98292
8.9995
9.03042
9.10638
9.30586
8.42399
8.42164
8.42068
8.42141
8.42381
8.42689
8.42869
8.43325
8.44422
8.46796
6.06383
5.94387
5.90068
5.92553
6.02325
6.21749
6.56621
7.177
8.12302
10.2782
7.84823
7.50782
7.41239
7.50178
7.80474
8.37639
9.34652
10.8615
12.7563
17.428
8.11155
7.67338
7.55154
7.68773
8.11734
8.94958
10.4061
12.7421
15.6398
23.6663
8.17161
7.69887
7.58991
7.75048
8.25261
9.25055
11.0657
14.0812
17.9388
30.1334
7.98159
7.5035
7.38604
7.55472
8.08373
9.18598
11.2969
14.9731
19.9717
37.7794
7.84529
7.37516
7.26921
7.42952
7.95964
9.09915
11.3815
15.5043
21.4994
45.3687
7.34096
6.96465
6.86762
6.99278
7.4088
8.34731
10.3593
14.3217
20.8434
49.6062
6.07399
5.92335
5.89096
5.93543
6.09076
6.43251
7.17197
8.96221
13.1017
33.9489
8.84079
8.83127
8.82692
8.82896
8.8369
8.85016
8.86755
8.89902
8.96974
9.12523
8.29928
8.29823
8.29774
8.29819
8.2995
8.30017
8.2992
8.29878
8.30023
8.30497
5.58007
5.52271
5.49664
5.50186
5.53677
5.60784
5.73323
5.95062
6.2719
6.83886
6.61551
6.44967
6.39799
6.43178
6.5685
6.83369
7.29189
8.03806
8.98488
10.5902
6.88559
6.64508
6.5704
6.63776
6.86608
7.31542
8.11128
9.44753
11.1166
14.1146
7.06548
6.78754
6.71832
6.80615
7.09403
7.67002
8.72718
10.5868
12.9675
17.7992
7.03646
6.7362
6.65563
6.75679
7.08083
7.75733
9.06022
11.4809
14.732
22.311
7.03266
6.72053
6.64545
6.7468
7.08856
7.81968
9.28206
12.1125
16.1115
26.8525
6.74148
6.48174
6.41059
6.49496
6.77361
7.39364
8.70262
11.4622
15.8502
29.4579
5.87032
5.75558
5.73051
5.76155
5.87188
6.1081
6.58704
7.7235
10.1794
19.7107
8.69856
8.68948
8.68515
8.68684
8.69426
8.70735
8.72444
8.75375
8.81328
8.92532
8.16324
8.16331
8.16322
8.16346
8.16389
8.16309
8.16129
8.15951
8.15857
8.15902
5.29956
5.27054
5.25381
5.2524
5.26327
5.28805
5.33275
5.40993
5.51806
5.67271
5.85288
5.7771
5.74998
5.75785
5.80941
5.91269
6.09338
6.39116
6.77254
7.30387
6.06479
5.93912
5.89455
5.92337
6.03213
6.24619
6.62187
7.25969
8.07308
9.19832
6.26702
6.11271
6.07109
6.11431
6.26453
6.56099
7.09656
8.06054
9.33363
11.2534
6.3169
6.13733
6.08461
6.14095
6.32505
6.70246
7.41399
8.77496
10.6632
13.8807
6.38444
6.18634
6.13582
6.19576
6.40255
6.83455
7.6739
9.35198
11.7834
16.5337
6.24588
6.0744
6.02477
6.07903
6.25628
6.63991
7.41644
9.09169
11.8008
18.0356
5.69312
5.60827
5.58989
5.61086
5.68726
5.84618
6.14844
6.82024
8.14366
12.0825
8.54589
8.53748
8.53334
8.53481
8.54167
8.55405
8.57012
8.59622
8.6427
8.71694
8.01644
8.01734
8.01759
8.01768
8.01741
8.01617
8.01436
8.01254
8.01137
8.01105
5.14524
5.12831
5.1165
5.11354
5.11657
5.12589
5.14456
5.17859
5.22529
5.28029
5.40826
5.374
5.35947
5.35801
5.37385
5.40898
5.47378
5.58171
5.71409
5.86474
5.54742
5.48248
5.4558
5.46635
5.51495
5.61061
5.77534
6.0487
6.38996
6.76184
5.72185
5.63962
5.61555
5.63476
5.70819
5.85002
6.09813
6.53747
7.12238
7.81385
5.79677
5.69346
5.66014
5.68958
5.78876
5.98691
6.34546
7.02022
7.9796
9.26973
5.89199
5.77102
5.73842
5.77166
5.891
6.13285
6.58025
7.46086
8.77146
10.7783
5.85398
5.74561
5.71245
5.74566
5.85336
6.07966
6.51363
7.42568
8.92625
11.6534
5.54528
5.48407
5.47115
5.48475
5.53636
5.64074
5.82947
6.21602
6.91474
8.44456
8.38224
8.37469
8.37088
8.37217
8.37838
8.38955
8.40399
8.42631
8.46177
8.51066
7.85954
7.86059
7.86113
7.8611
7.86059
7.85947
7.85798
7.85655
7.85573
7.85545
5.06303
5.05162
5.0426
5.03978
5.04074
5.0454
5.05607
5.07706
5.10657
5.13661
5.15939
5.14312
5.13487
5.13126
5.13443
5.14502
5.16854
5.21082
5.26045
5.3024
5.23629
5.20191
5.18556
5.18859
5.20989
5.25246
5.32539
5.44358
5.58405
5.69568
5.36647
5.32388
5.31029
5.31795
5.35235
5.4177
5.52897
5.7199
5.9688
6.19025
5.43765
5.38009
5.35962
5.3742
5.42574
5.52633
5.70089
6.01488
6.45934
6.9358
5.53422
5.46283
5.44257
5.45995
5.52655
5.65767
5.88801
6.31866
6.95877
7.74745
5.55685
5.49152
5.47033
5.48977
5.55255
5.6811
5.91576
6.38144
7.14304
8.26996
5.42672
5.3835
5.37482
5.38336
5.41768
5.48525
5.60288
5.82429
6.19918
6.82321
8.20709
8.20054
8.19717
8.19829
8.20375
8.21335
8.22579
8.24415
8.27059
8.30329
7.69256
7.69354
7.69408
7.69406
7.69362
7.69275
7.69164
7.69065
7.69024
7.69008
5.01964
5.01113
5.00407
5.00172
5.00224
5.00551
5.01351
5.02999
5.05408
5.0762
5.02432
5.01582
5.01079
5.00748
5.007
5.00984
5.01981
5.04089
5.06646
5.08207
5.05695
5.03777
5.02744
5.02779
5.03738
5.05726
5.09204
5.14881
5.21492
5.25092
5.1446
5.1229
5.11529
5.11791
5.13368
5.16356
5.21409
5.29967
5.41005
5.48026
5.20056
5.16933
5.15702
5.16391
5.19008
5.24034
5.32511
5.47096
5.67541
5.8496
5.28564
5.2447
5.23248
5.24109
5.27747
5.34746
5.46539
5.67275
5.97553
6.27587
5.34115
5.30378
5.29087
5.30179
5.33696
5.40753
5.53189
5.76354
6.13572
6.59404
5.33554
5.30551
5.29993
5.30521
5.32793
5.37154
5.4451
5.57271
5.77666
6.05901
8.02001
8.01454
8.01167
8.01264
8.01727
8.02513
8.03542
8.04995
8.06916
8.09097
7.51527
7.51614
7.51662
7.51663
7.51631
7.51568
7.51491
7.51429
7.51421
7.51414
4.9962
4.98956
4.98398
4.98209
4.98254
4.98524
4.99197
5.00628
5.0282
5.04709
4.95272
4.94783
4.94464
4.9422
4.94112
4.94189
4.9475
4.96145
4.9804
4.99115
4.95784
4.9465
4.93982
4.93943
4.94408
4.95419
4.97263
5.00408
5.0425
5.05945
5.01194
5.00093
4.99663
4.99731
5.0046
5.01862
5.0427
5.08428
5.13982
5.16797
5.05103
5.03447
5.02717
5.03031
5.04345
5.0685
5.11019
5.18015
5.27966
5.35256
5.12062
5.09763
5.0904
5.0945
5.11427
5.15165
5.21272
5.31453
5.4614
5.58499
5.19139
5.17134
5.16389
5.16982
5.18875
5.22618
5.29076
5.40483
5.58572
5.78433
5.26838
5.24768
5.24428
5.24759
5.26279
5.29126
5.33766
5.41212
5.52357
5.66324
7.82069
7.81632
7.81398
7.81478
7.81855
7.82469
7.83288
7.84394
7.85753
7.87183
7.32737
7.32814
7.32855
7.32858
7.32838
7.32794
7.32742
7.32706
7.32721
7.32719
4.9827
4.97748
4.97309
4.97157
4.97197
4.97424
4.98003
4.99285
5.01355
5.03086
4.91536
4.91244
4.91041
4.9088
4.90792
4.90831
4.91234
4.92336
4.94038
4.95149
4.90547
4.89849
4.89417
4.8937
4.89616
4.90178
4.91254
4.93221
4.95901
4.97236
4.93614
4.93051
4.92802
4.92809
4.93167
4.93872
4.95113
4.97353
5.00603
5.02381
4.96119
4.95258
4.94831
4.94971
4.95632
4.96892
4.98981
5.02484
5.07718
5.1159
5.01616
5.00336
4.99912
5.00108
5.012
5.03237
5.06479
5.11662
5.19144
5.25098
5.09207
5.08218
5.07818
5.08133
5.09109
5.11022
5.14278
5.19826
5.2859
5.3818
5.22102
5.20673
5.20478
5.20699
5.21746
5.23652
5.26622
5.31042
5.37131
5.44458
7.60891
7.60559
7.60377
7.60442
7.60734
7.61192
7.61819
7.6263
7.63565
7.64482
7.12857
7.12925
7.1296
7.12965
7.12952
7.12923
7.12888
7.1287
7.12898
7.12898
4.97408
4.97003
4.96662
4.96542
4.96574
4.9676
4.97254
4.98407
5.00387
5.02046
4.896
4.89433
4.89312
4.89214
4.89158
4.89197
4.89521
4.90451
4.92064
4.93325
4.8792
4.87487
4.87212
4.87174
4.87313
4.87641
4.88305
4.89626
4.917
4.93067
4.89493
4.89201
4.8905
4.89046
4.89243
4.89639
4.90345
4.91673
4.93823
4.95391
4.90996
4.90558
4.90311
4.90373
4.90712
4.91357
4.92428
4.94254
4.97219
4.99804
4.95321
4.94604
4.94353
4.94455
4.95086
4.96243
4.98033
5.00796
5.04817
5.08214
5.02906
5.02479
5.0229
5.02456
5.02936
5.03869
5.05435
5.08061
5.12226
5.17425
5.18897
5.17902
5.178
5.17964
5.18715
5.20034
5.21976
5.24658
5.27974
5.31966
7.38459
7.38221
7.38088
7.38137
7.38351
7.38681
7.39143
7.39716
7.40338
7.40913
6.91862
6.91923
6.91953
6.91957
6.9195
6.9193
6.91907
6.91898
6.91932
6.91933
4.96785
4.96482
4.96224
4.96131
4.96155
4.96301
4.96716
4.97745
4.99642
5.0129
4.88593
4.88518
4.88453
4.88398
4.88369
4.88412
4.88679
4.89472
4.91003
4.92424
4.86686
4.86425
4.86258
4.86231
4.86307
4.86497
4.8691
4.87819
4.8949
4.90954
4.87379
4.87224
4.87128
4.87126
4.87251
4.87502
4.87941
4.88784
4.90306
4.91819
4.88243
4.88023
4.87882
4.87909
4.88088
4.88427
4.88987
4.8997
4.91743
4.93723
4.91713
4.91298
4.91148
4.91212
4.91601
4.92299
4.93339
4.94888
4.97157
4.99356
4.99055
4.98917
4.98851
4.9894
4.99163
4.99588
5.00281
5.01457
5.03329
5.06473
5.16803
5.16098
5.16053
5.1619
5.16757
5.17698
5.19002
5.20672
5.22457
5.24691
7.14776
7.14616
7.14527
7.14562
7.14706
7.14941
7.15267
7.15656
7.16056
7.16406
6.69735
6.69789
6.69814
6.69819
6.69814
6.698
6.69784
6.69781
6.69814
6.69817
4.96282
4.96069
4.95883
4.95816
4.95832
4.95941
4.96279
4.97181
4.98986
5.00673
4.88069
4.88058
4.88032
4.88006
4.87996
4.8804
4.8826
4.88926
4.90348
4.91913
4.86164
4.86018
4.85924
4.85904
4.85941
4.86043
4.86289
4.8691
4.88253
4.89782
4.86374
4.86288
4.86224
4.86226
4.86313
4.86485
4.86776
4.87329
4.88424
4.89849
4.8686
4.86751
4.8667
4.86682
4.86779
4.86963
4.87261
4.87799
4.88889
4.90473
4.89732
4.8948
4.89387
4.89437
4.89694
4.90141
4.90781
4.91693
4.93017
4.94528
4.96734
4.96729
4.96732
4.96782
4.96877
4.9705
4.97306
4.97776
4.98502
5.00593
5.15446
5.14945
5.14936
5.1506
5.15499
5.16194
5.17097
5.18165
5.19096
5.20376
6.89863
6.89757
6.89702
6.89725
6.8982
6.89982
6.90202
6.90456
6.90702
6.90908
6.46468
6.46517
6.46537
6.46541
6.46538
6.46528
6.46517
6.46515
6.46545
6.46548
4.95842
4.95713
4.95589
4.95546
4.95556
4.95631
4.95893
4.96656
4.98339
5.00102
4.87798
4.87831
4.87828
4.87819
4.87821
4.87865
4.88042
4.88583
4.89858
4.91534
4.85989
4.85917
4.85869
4.85855
4.85867
4.85911
4.86047
4.86453
4.875
4.89021
4.8595
4.85899
4.85853
4.85856
4.85919
4.86042
4.86238
4.86601
4.87372
4.88633
4.86225
4.86168
4.8612
4.86125
4.86179
4.86282
4.86443
4.86739
4.87407
4.88652
4.88664
4.88499
4.8844
4.88482
4.88661
4.88961
4.89372
4.8993
4.90713
4.91751
4.9527
4.95314
4.95351
4.95383
4.95419
4.95474
4.95528
4.9567
4.95835
4.97328
5.14537
5.14178
5.14194
5.14309
5.14657
5.15184
5.15829
5.16532
5.1698
5.17734
6.63743
6.63674
6.6364
6.63655
6.63718
6.63824
6.63966
6.64122
6.64265
6.64382
6.2207
6.22112
6.22128
6.22132
6.2213
6.22123
6.22113
6.22111
6.22135
6.22138
4.95439
4.95386
4.95316
4.95296
4.95301
4.95346
4.95531
4.96138
4.9765
4.9949
4.87664
4.8772
4.87726
4.87726
4.87734
4.87776
4.87914
4.88335
4.89419
4.91139
4.85968
4.85941
4.85921
4.8591
4.85907
4.85918
4.8598
4.86227
4.86993
4.88402
4.85808
4.85774
4.85741
4.85743
4.85788
4.85873
4.86004
4.86234
4.86749
4.87775
4.85968
4.85935
4.85905
4.85906
4.85937
4.85995
4.86083
4.86243
4.86637
4.87561
4.88048
4.87933
4.87894
4.87928
4.88054
4.88258
4.88528
4.88875
4.89334
4.90013
4.94196
4.94244
4.94295
4.94319
4.94332
4.94339
4.94314
4.94319
4.94227
4.95344
5.13846
5.13587
5.13617
5.13726
5.14006
5.14416
5.14889
5.15363
5.15531
5.16
6.36445
6.36404
6.36383
6.36394
6.36433
6.36498
6.36583
6.36673
6.36749
6.36813
5.96572
5.96607
5.96619
5.96623
5.96621
5.96616
5.96608
5.96605
5.9662
5.96622
4.95057
4.95072
4.95047
4.95047
4.95049
4.95067
4.95177
4.95611
4.96874
4.98729
4.87599
4.87657
4.87662
4.87663
4.87675
4.87712
4.87817
4.88123
4.88976
4.9063
4.86005
4.85998
4.85992
4.85984
4.85975
4.85968
4.85987
4.86119
4.86621
4.87795
4.85787
4.85764
4.8574
4.85741
4.8577
4.85825
4.85907
4.86044
4.86358
4.87101
4.85887
4.85865
4.85846
4.85845
4.85863
4.85894
4.8594
4.86022
4.86236
4.86856
4.87597
4.87513
4.87486
4.87512
4.87596
4.87731
4.87902
4.88112
4.88372
4.88784
4.9319
4.93225
4.93276
4.93296
4.93302
4.93295
4.93249
4.93211
4.93024
4.93867
5.13162
5.12977
5.13012
5.13113
5.1334
5.13662
5.14015
5.14337
5.14343
5.14663
6.08023
6.08
6.07989
6.07995
6.08017
6.08054
6.08101
6.08147
6.08183
6.08215
5.70043
5.70071
5.7008
5.70083
5.70082
5.70078
5.70071
5.70067
5.70073
5.70071
4.94664
4.94731
4.94745
4.94762
4.94763
4.94758
4.94798
4.9505
4.95968
4.97664
4.87551
4.87592
4.8759
4.87589
4.876
4.87632
4.87707
4.87911
4.8851
4.89939
4.86039
4.86036
4.86036
4.8603
4.8602
4.86008
4.86007
4.86063
4.86337
4.87159
4.85809
4.85792
4.85776
4.85776
4.85793
4.85825
4.85871
4.85943
4.86108
4.86562
4.85878
4.85865
4.85853
4.85851
4.85859
4.85874
4.85894
4.85929
4.86028
4.8638
4.87133
4.87074
4.87055
4.87071
4.87122
4.87201
4.873
4.87414
4.87549
4.87777
4.92038
4.92057
4.92099
4.92115
4.92117
4.92104
4.9206
4.92013
4.91821
4.92427
5.12181
5.12055
5.12089
5.12179
5.12358
5.12605
5.12865
5.13075
5.12988
5.1323
5.78558
5.78546
5.7854
5.78544
5.78555
5.78573
5.78596
5.78616
5.78629
5.78643
5.42574
5.42596
5.42602
5.42604
5.42604
5.42601
5.42596
5.42592
5.42591
5.42584
4.94113
4.94207
4.9426
4.94291
4.94293
4.94271
4.94253
4.94329
4.94804
4.96022
4.87467
4.87478
4.87469
4.87463
4.87471
4.87495
4.87545
4.87666
4.88021
4.89046
4.86034
4.86028
4.86027
4.86023
4.86017
4.86008
4.86002
4.86018
4.86126
4.8655
4.85846
4.85836
4.85827
4.85827
4.85836
4.85852
4.85873
4.85905
4.85972
4.86177
4.85896
4.8589
4.85884
4.85883
4.85885
4.8589
4.85895
4.85904
4.85936
4.86082
4.86598
4.86563
4.86552
4.8656
4.86585
4.86623
4.86667
4.86716
4.86773
4.86888
4.90609
4.90614
4.90641
4.90648
4.90641
4.9062
4.90579
4.90532
4.90393
4.90769
5.10143
5.10066
5.10094
5.10168
5.10298
5.10473
5.10651
5.10767
5.10635
5.10815
5.48151
5.48146
5.48145
5.48146
5.48149
5.48155
5.48161
5.48165
5.48167
5.48173
5.14157
5.14168
5.1417
5.1417
5.1417
5.14169
5.14168
5.14166
5.14166
5.14159
4.92615
4.9271
4.92796
4.92839
4.92844
4.92818
4.92767
4.92714
4.92733
4.93106
4.87234
4.87213
4.87194
4.87184
4.87187
4.87203
4.87234
4.87296
4.87456
4.8797
4.86003
4.85995
4.85993
4.85991
4.85988
4.85985
4.85983
4.85985
4.86009
4.86124
4.85909
4.85905
4.85901
4.85901
4.85905
4.85912
4.85921
4.85931
4.85949
4.85998
4.85937
4.85936
4.85934
4.85933
4.85933
4.85933
4.85932
4.85931
4.85933
4.85963
4.86146
4.86132
4.86128
4.86131
4.8614
4.86153
4.86167
4.86179
4.86195
4.8624
4.88843
4.88831
4.88838
4.88835
4.8882
4.88794
4.88757
4.88722
4.88671
4.88856
5.04607
5.04567
5.04585
5.0463
5.04706
5.04806
5.04904
5.04952
5.04838
5.0493
5.1681
5.16808
5.16809
5.16809
5.16809
5.16809
5.16808
5.16806
5.16802
5.16806
11.2375
11.3476
11.302
11.091
83.3105
85.0776
85.4513
86.3763
143.123
148.107
148.359
147.222
201.562
210.299
209.826
205.311
262.036
274.741
273.112
264.947
328.842
345.828
343.508
334.375
389.073
410.106
407.581
399.334
424.811
449.186
447.184
441.275
338.46
359.514
357.376
354.811
11.3867
11.6179
11.4697
11.0883
9.68808
9.74283
9.74436
9.70209
77.0447
79.5438
80.1494
80.5503
134.28
144.215
145.038
142.941
192.216
212.524
212.596
206.42
254.735
287.718
286.07
275.365
327.466
375.28
373.518
360.142
396.214
459.276
458.651
444.53
441.043
517.585
519.414
506.477
346.679
414.494
414.317
407.681
10.6593
10.8827
10.8195
10.5965
8.75054
8.76228
8.76014
8.74783
26.9256
29.0572
28.1922
25.7322
49.4317
53.437
51.568
46.8875
74.1068
80.3703
76.9774
69.3637
102.666
111.566
106.01
94.6673
138.692
151.213
143.334
126.97
176.522
192.692
182.293
160.604
206.692
226.257
213.852
187.532
164.711
180.031
168.639
147.161
9.87355
9.96159
9.93779
9.83832
8.4849
8.48748
8.48753
8.48541
11.7318
11.857
11.757
11.5653
21.3551
21.9052
21.7306
21.1637
31.8505
33.1361
32.7454
31.3642
44.1668
46.3636
45.5209
42.8752
60.3062
63.7677
62.215
57.7144
77.7992
82.4816
79.9109
73.2078
92.5455
98.5
94.8497
85.8439
72.3954
76.9181
73.1213
65.279
9.41491
9.45802
9.45443
9.41479
8.30676
8.30837
8.30829
8.30648
7.21567
7.26528
7.25983
7.22084
11.8252
12.0544
12.0835
11.9693
16.8608
17.3987
17.4321
17.1188
22.7085
23.6414
23.5975
22.9287
30.5748
32.0926
31.8809
30.6068
39.1177
41.1998
40.6511
38.5668
46.3186
49.0326
48.0475
44.9482
34.7141
36.6923
35.3552
32.3837
9.06929
9.09253
9.09406
9.0781
8.15773
8.15918
8.15903
8.15724
5.73191
5.72982
5.7208
5.71138
7.59892
7.64435
7.6513
7.63114
9.99381
10.1497
10.1848
10.1285
12.8171
13.1313
13.1821
13.0463
16.7633
17.3408
17.3905
17.0872
21.0237
21.8647
21.8375
21.2754
24.5544
25.7237
25.5564
24.5913
17.6679
18.4734
18.0551
17.0289
8.78773
8.79926
8.80174
8.7965
8.00864
8.00993
8.00978
8.00814
5.28826
5.28366
5.27708
5.27083
5.92982
5.93521
5.93134
5.921
6.97831
7.01911
7.02865
7.01234
8.28248
8.38034
8.40866
8.38205
10.2452
10.4545
10.5089
10.4479
12.3722
12.6948
12.749
12.6249
14.1246
14.6101
14.6369
14.3745
10.3278
10.6336
10.5329
10.2395
8.54388
8.54907
8.55134
8.5507
7.85234
7.85342
7.85326
7.85183
5.13507
5.13184
5.12718
5.12216
5.31003
5.30683
5.30148
5.29489
5.73789
5.74304
5.74114
5.73347
6.29831
6.3197
6.32623
6.32063
7.22126
7.2848
7.30871
7.30111
8.24243
8.34783
8.38262
8.36894
9.13027
9.31262
9.35259
9.29771
7.39836
7.50026
7.4876
7.42348
8.31912
8.32112
8.32275
8.3236
7.68634
7.68718
7.68701
7.68581
5.07293
5.07105
5.06758
5.06303
5.07931
5.076
5.07185
5.06716
5.24968
5.24669
5.24265
5.23796
5.48907
5.48898
5.48773
5.48584
5.91332
5.92713
5.93381
5.93495
6.39144
6.41607
6.42907
6.43565
6.86063
6.92019
6.94159
6.93708
6.2323
6.26149
6.26359
6.2552
8.09878
8.09926
8.10026
8.10135
7.50985
7.51044
7.51026
7.5093
5.04306
5.04185
5.03894
5.03464
4.98761
4.98521
4.98213
4.97848
5.04999
5.04595
5.04219
5.03896
5.15679
5.1525
5.1496
5.14841
5.35796
5.35793
5.35838
5.3599
5.59384
5.59416
5.59696
5.60378
5.86262
5.87943
5.88776
5.89081
5.71684
5.72164
5.72325
5.72571
7.87562
7.87539
7.87595
7.87695
7.32247
7.32282
7.32263
7.3219
5.02608
5.02505
5.02236
5.01821
4.94876
4.94704
4.94459
4.94147
4.96307
4.95944
4.95624
4.95377
5.01268
5.00861
5.0058
5.00466
5.11089
5.10825
5.10703
5.10785
5.2392
5.23463
5.23404
5.23838
5.40914
5.41348
5.41601
5.41794
5.46164
5.45865
5.45857
5.46225
7.64642
7.64589
7.64619
7.64701
7.12399
7.12413
7.12394
7.12342
5.01485
5.01368
5.01099
5.00698
4.93141
4.93005
4.92788
4.92503
4.92337
4.92035
4.91758
4.9155
4.94678
4.94376
4.94135
4.9401
4.99436
4.99205
4.99061
4.99078
5.07167
5.06753
5.06618
5.06851
5.19063
5.19222
5.19263
5.19271
5.32467
5.31951
5.31854
5.32183
7.40944
7.40886
7.409
7.40964
6.91428
6.91424
6.91406
6.91373
5.00651
5.005
5.00218
4.99832
4.92321
4.92202
4.91994
4.91721
4.90465
4.9022
4.89976
4.8979
4.91523
4.91326
4.91126
4.90989
4.93699
4.9356
4.93435
4.93403
4.98817
4.98549
4.98423
4.98522
5.08049
5.08208
5.08186
5.08052
5.2471
5.24163
5.24036
5.2432
7.16359
7.16307
7.16313
7.16359
6.69328
6.69311
6.69294
6.69277
4.99982
4.9979
4.99487
4.99117
4.919
4.9179
4.91582
4.91317
4.8955
4.89362
4.89148
4.8898
4.89905
4.89799
4.89637
4.89494
4.90759
4.90709
4.90614
4.90547
4.94418
4.94283
4.9419
4.94207
5.02308
5.02532
5.02498
5.02263
5.20135
5.19612
5.19487
5.19737
6.90811
6.90774
6.90776
6.90805
6.461
6.46075
6.46058
6.46054
4.99413
4.99183
4.98858
4.98509
4.91642
4.91544
4.91336
4.91083
4.89056
4.8893
4.88749
4.88601
4.88956
4.88924
4.88801
4.8866
4.89152
4.89174
4.89107
4.89018
4.91899
4.91858
4.91798
4.91773
4.99169
4.99457
4.99427
4.99119
5.17326
5.16848
5.16735
5.16959
6.64254
6.64235
6.64235
6.64249
6.21755
6.21726
6.21711
6.21714
4.98888
4.98632
4.98294
4.97976
4.91418
4.9134
4.91142
4.90911
4.88701
4.88639
4.88502
4.88381
4.88268
4.88292
4.88206
4.88078
4.88161
4.8823
4.88189
4.88089
4.90256
4.90266
4.90236
4.90198
4.9724
4.97581
4.97556
4.97195
5.15503
5.15083
5.14988
5.15184
6.36667
6.36667
6.36667
6.36667
5.96325
5.96297
5.96283
5.96289
4.98316
4.98058
4.97729
4.97464
4.91118
4.91074
4.90901
4.90701
4.88305
4.88308
4.88223
4.88134
4.8765
4.87709
4.87657
4.87548
4.87435
4.87524
4.87502
4.87403
4.89
4.89027
4.89018
4.88987
4.95728
4.96106
4.96088
4.9569
5.14165
5.13828
5.13756
5.13909
6.08062
6.08079
6.08079
6.08068
5.69877
5.6985
5.69838
5.69845
4.97525
4.97303
4.97025
4.96845
4.9062
4.90618
4.90478
4.90306
4.8775
4.87804
4.87773
4.87716
4.87037
4.87105
4.8708
4.86995
4.86827
4.86909
4.86898
4.86814
4.87907
4.87927
4.87929
4.87915
4.94108
4.94502
4.9449
4.94086
5.1283
5.12623
5.12581
5.12657
5.78492
5.78522
5.78524
5.78505
5.42502
5.42477
5.42466
5.42474
4.96159
4.96027
4.95865
4.95799
4.89762
4.89787
4.89673
4.89515
4.87017
4.87086
4.87094
4.87064
4.86463
4.86512
4.86501
4.86448
4.86329
4.86379
4.86373
4.8632
4.86934
4.86937
4.86939
4.86941
4.92037
4.92386
4.92382
4.92034
5.10583
5.10576
5.10571
5.10515
5.48053
5.48096
5.48098
5.48071
5.14189
5.14156
5.14147
5.14163
4.93246
4.93251
4.93253
4.93276
4.8837
4.88363
4.88262
4.88144
4.86299
4.86333
4.86347
4.86342
4.86067
4.86078
4.86071
4.86056
4.86029
4.86042
4.86037
4.86022
4.86237
4.86226
4.86226
4.86237
4.89483
4.89668
4.89667
4.89486
5.04791
5.04996
5.05018
5.04808
5.16749
5.16801
5.16802
5.16768
10.1025
9.34007
9.0182
8.90332
8.8374
8.79114
8.76017
8.74156
8.73148
8.72499
104.871
49.2159
35.4564
29.5561
24.1719
19.6206
16.0965
13.4927
11.6577
10.3623
160.762
70.1893
50.1474
42.6669
36.1129
30.4201
25.6992
21.9584
19.071
16.8648
203.892
81.2992
54.657
45.3298
38.0053
31.559
26.2074
21.9983
18.7804
16.3614
236.491
86.6053
57.3809
46.4328
38.5848
31.4237
25.5967
21.0897
17.6885
15.2014
271.245
92.0954
59.4922
46.708
38.2816
30.4412
24.2803
19.6346
16.2484
13.845
298.006
95.3991
60.2669
46.1471
37.4108
29.1436
22.8784
18.2715
14.9971
12.7494
304.244
91.0452
55.3789
40.7438
32.4322
24.6048
19.0563
15.1773
12.6053
10.8936
215.912
54.4882
29.8496
20.388
15.6427
11.805
9.68851
8.43574
7.68003
7.17546
9.57691
9.53494
9.38134
9.35194
9.30478
9.27801
9.25665
9.24444
9.23546
9.22683
9.33893
9.0217
8.86616
8.77929
8.72491
8.68905
8.66577
8.65165
8.64381
8.63862
53.6038
28.7109
22.3803
19.1927
16.4346
14.0086
12.0253
10.517
9.43183
8.69102
89.3261
45.6265
35.0885
30.2481
26.4478
22.8502
19.7266
17.1744
15.1631
13.6672
119.919
57.28
41.8114
34.6243
29.6162
24.9545
21.0255
17.8876
15.4624
13.6954
148.593
67.0455
46.7426
37.4856
31.3863
25.7992
21.2547
17.7232
15.0384
13.1366
181.774
77.0624
51.1491
39.4981
32.2628
25.7847
20.7354
16.9354
14.1633
12.2628
211.195
84.5719
53.8476
40.3052
32.3306
25.2693
19.9727
16.1054
13.354
11.5288
226.141
84.898
51.2333
36.6643
28.662
21.8016
16.985
13.6557
11.4567
10.048
162.518
53.5986
28.6331
18.9371
14.2857
10.9441
9.08758
7.9999
7.34101
6.92371
9.79214
9.48375
9.31669
9.25312
9.19846
9.16522
9.14086
9.12544
9.11416
9.10372
8.70585
8.66083
8.62604
8.59783
8.57607
8.56041
8.55003
8.54374
8.54024
8.5376
20.0768
16.5211
14.3546
12.5266
10.9816
9.71322
8.73688
8.02707
7.52707
7.18925
35.503
28.1814
24.3518
21.1519
18.4429
16.1084
14.1901
12.6645
11.4718
10.5936
49.889
36.9683
30.6951
25.6229
21.6436
18.3333
15.6952
13.6412
12.0671
10.9321
64.39
44.5735
35.778
28.8669
23.7371
19.5788
16.3701
13.9427
12.1128
10.8272
81.1982
52.3399
40.4673
31.4594
25.1347
20.1274
16.4022
13.6743
11.708
10.3736
96.8242
58.3527
43.6342
32.8907
25.7371
20.1587
16.1468
13.3002
11.298
9.97994
106.086
59.1686
42.2671
30.5364
23.2495
17.7636
14.0655
11.5874
9.96968
8.93648
74.6825
36.3562
23.6224
15.9937
11.9922
9.51651
8.17126
7.38186
6.89298
6.57972
9.543
9.35585
9.22503
9.14637
9.09
9.05466
9.02979
9.01245
8.99931
8.9875
8.47744
8.46482
8.45243
8.44178
8.43386
8.42855
8.42528
8.42359
8.42309
8.4228
11.0326
10.1316
9.22871
8.37407
7.67666
7.15148
6.77412
6.5101
6.32712
6.20445
19.6737
17.729
15.8469
14.0006
12.4295
11.1498
10.1389
9.35559
8.75112
8.31039
27.8729
24.0293
20.6629
17.5527
15.0432
13.0418
11.4858
10.2955
9.3931
8.74773
36.3314
29.9771
24.9108
20.4388
16.9989
14.3261
12.3097
10.8143
9.69682
8.91256
46.4403
36.4166
29.1649
23.0364
18.5431
15.1411
12.6622
10.8853
9.61885
8.76058
55.9733
41.7084
32.34
24.7503
19.4489
15.5243
12.7599
10.8444
9.50853
8.62468
61.8237
43.1475
32.0274
23.5302
17.9878
14.0631
11.4737
9.77816
8.67488
7.96096
42.3335
26.1718
17.8719
12.6587
9.90567
8.29724
7.39704
6.85424
6.50507
6.27647
9.29997
9.16678
9.06211
8.9941
8.94728
8.91647
8.89408
8.87774
8.86516
8.85417
8.30299
8.29948
8.297
8.29527
8.29422
8.29374
8.2937
8.29412
8.29512
8.29626
7.07899
6.78808
6.50543
6.25649
6.05708
5.90549
5.79471
5.71635
5.66277
5.62853
11.5655
10.8079
10.011
9.24174
8.57349
8.02448
7.59294
7.26234
7.00685
6.82034
16.1714
14.6604
13.1166
11.6464
10.3957
9.38039
8.58969
7.9892
7.53535
7.21151
21.1166
18.5962
16.113
13.8114
11.931
10.4533
9.34102
8.52532
7.91425
7.48132
27.3199
23.2181
19.3888
15.9673
13.2996
11.2722
9.79981
8.75617
8.01256
7.50441
33.3092
27.3104
22.0611
17.572
14.2452
11.7977
10.0823
8.90813
8.0844
7.5299
37.1112
28.9138
22.3701
17.1438
13.5478
11.045
9.40036
8.3294
7.62307
7.15499
24.4892
17.4112
12.8068
9.91311
8.31011
7.35219
6.78021
6.42011
6.1774
6.01552
9.02836
8.9487
8.8791
8.82969
8.7936
8.76765
8.74789
8.73284
8.72105
8.71098
8.15491
8.1535
8.15315
8.15328
8.15371
8.15433
8.15508
8.15607
8.15752
8.15917
5.67899
5.60419
5.53415
5.47188
5.41953
5.37841
5.34861
5.32882
5.31762
5.31278
7.53442
7.29436
7.02801
6.76684
6.53527
6.34516
6.19817
6.08716
5.99909
5.93311
9.88836
9.35786
8.75233
8.14612
7.60843
7.16678
6.8228
6.56142
6.36139
6.21725
12.5717
11.6457
10.5805
9.53152
8.63479
7.92435
7.39073
7.00023
6.70091
6.48319
16.1667
14.5642
12.7623
11.0514
9.65424
8.58584
7.80924
7.25807
6.8586
6.58021
19.7448
17.3108
14.6743
12.2943
10.4503
9.09164
8.1373
7.48264
7.01145
6.68472
22.1169
18.6201
15.1667
12.2934
10.2341
8.80355
7.85346
7.22581
6.79941
6.50846
14.4675
11.6375
9.46387
8.04832
7.19436
6.65039
6.29953
6.06799
5.90423
5.79376
8.77586
8.732
8.6894
8.65536
8.62818
8.60695
8.59003
8.57666
8.56596
8.55705
8.00649
8.00564
8.00562
8.00598
8.00657
8.00727
8.00804
8.00902
8.01047
8.01223
5.25507
5.22657
5.20398
5.1845
5.16795
5.15537
5.14743
5.14381
5.14416
5.14674
5.88389
5.80944
5.73534
5.66341
5.5987
5.54636
5.508
5.48053
5.45687
5.4374
6.93725
6.76576
6.56385
6.35058
6.15254
5.98616
5.85502
5.75389
5.67415
5.61531
8.25175
7.93914
7.54256
7.12719
6.75721
6.45942
6.23361
6.0662
5.93142
5.82871
10.188
9.58919
8.82979
8.06777
7.42202
6.92108
6.55135
6.28351
6.08231
5.93805
12.1936
11.2341
10.0387
8.90854
8.00222
7.32662
6.84368
6.50518
6.2501
6.06599
13.6069
12.146
10.5046
9.08824
8.0353
7.29096
6.7812
6.43303
6.18672
6.01359
9.50811
8.46895
7.54622
6.89313
6.45347
6.15037
5.93956
5.79403
5.68612
5.61304
8.54304
8.51997
8.49444
8.47128
8.45115
8.43432
8.4203
8.40886
8.3995
8.39189
7.85076
7.85017
7.85012
7.85034
7.85074
7.85124
7.85181
7.85257
7.85384
7.85552
5.11163
5.09513
5.08302
5.07288
5.06452
5.05869
5.05585
5.05577
5.05814
5.06137
5.27759
5.25266
5.23302
5.21463
5.19814
5.18628
5.18019
5.1779
5.17453
5.16996
5.70792
5.6593
5.60096
5.53227
5.46333
5.40347
5.35599
5.31922
5.28935
5.26646
6.28893
6.20436
6.07971
5.93319
5.79386
5.67828
5.58937
5.52255
5.46493
5.41795
7.23871
7.04826
6.7684
6.46282
6.19034
5.97194
5.8056
5.68106
5.58325
5.51097
8.27329
7.94189
7.46194
6.9791
6.57493
6.26417
6.03393
5.86672
5.73309
5.6321
9.08482
8.52799
7.82954
7.19451
6.69933
6.33495
6.07337
5.88689
5.74917
5.64987
7.24654
6.88075
6.49858
6.19672
5.97094
5.80297
5.67797
5.58811
5.5183
5.47125
8.32083
8.30843
8.29293
8.2773
8.26272
8.24981
8.23863
8.22921
8.22132
8.21503
7.68532
7.68495
7.68484
7.68489
7.68509
7.68537
7.68571
7.68624
7.68729
7.68883
5.05445
5.04202
5.03259
5.02466
5.01831
5.01414
5.01237
5.01277
5.01492
5.01739
5.05668
5.04485
5.0374
5.03088
5.02558
5.02325
5.02455
5.02787
5.02944
5.02869
5.22764
5.21386
5.19635
5.17171
5.14492
5.12153
5.10373
5.09062
5.07988
5.07104
5.47979
5.46314
5.42665
5.37423
5.32041
5.27496
5.24041
5.21483
5.19086
5.16933
5.92597
5.87702
5.7809
5.66101
5.54706
5.45223
5.37782
5.32047
5.27354
5.23784
6.43178
6.33826
6.16132
5.96537
5.79167
5.65225
5.54464
5.4636
5.39461
5.33974
6.89127
6.6997
6.42315
6.15142
5.92653
5.75235
5.62097
5.52336
5.44832
5.39311
6.21708
6.08265
5.91941
5.7765
5.65978
5.56677
5.49329