/*--------------------------------*- C++ -*----------------------------------*\
| =========                 |                                                 |
| \\      /  F ield         | foam-extend: Open Source CFD                    |
|  \\    /   O peration     | Version:     4.0                                |
|   \\  /    A nd           | Web:         http://www.foam-extend.org         |
|    \\/     M anipulation  |                                                 |
\*---------------------------------------------------------------------------*/
FoamFile
{
    version     2.0;
    format      ascii;
    class       volScalarField;
    location    "650";
    object      MaU;
}
// * * * * * * * * * * * * * * * * * * * * * * * * * * * * * * * * * * * * * //

dimensions      [0 0 0 0 0 0 0];

internalField   nonuniform List<scalar> 
34480
(
0.617636
0.618738
0.61933
0.619495
0.619257
0.618556
0.617257
0.614665
0.608608
0.602406
0.619467
0.620557
0.621159
0.621306
0.620882
0.619771
0.617995
0.615269
0.608363
0.602672
0.620065
0.62115
0.621753
0.621893
0.621433
0.620425
0.619025
0.617129
0.610443
0.605709
0.619079
0.620227
0.620972
0.621319
0.621163
0.620628
0.619785
0.618692
0.612576
0.608791
0.618501
0.619809
0.620763
0.621393
0.621618
0.621607
0.621357
0.621114
0.615938
0.613075
0.617146
0.618575
0.619672
0.620481
0.620982
0.621407
0.621732
0.622387
0.618546
0.616906
0.616509
0.61813
0.619372
0.620346
0.621077
0.621865
0.62273
0.624289
0.622054
0.621576
0.615383
0.617082
0.618293
0.619151
0.619759
0.6205
0.621547
0.623722
0.623158
0.62415
0.614817
0.616709
0.618029
0.618991
0.619721
0.62059
0.621911
0.624677
0.625565
0.626687
0.611083
0.612731
0.613268
0.612821
0.611619
0.610118
0.60887
0.609285
0.609926
0.613418
0.607449
0.609005
0.609629
0.609427
0.608346
0.606121
0.602133
0.595023
0.58445
0.570483
0.610486
0.612047
0.612714
0.612564
0.611445
0.609013
0.604679
0.597058
0.584567
0.568419
0.612094
0.613616
0.614302
0.614215
0.613139
0.610792
0.60666
0.599347
0.58622
0.569302
0.611988
0.613552
0.614365
0.61448
0.613685
0.611752
0.608085
0.601291
0.587932
0.570973
0.612162
0.613845
0.614835
0.615214
0.614776
0.61335
0.61026
0.604189
0.591058
0.574603
0.611416
0.613192
0.614312
0.614872
0.61471
0.613737
0.611237
0.60603
0.593581
0.578227
0.611288
0.613213
0.61446
0.61519
0.615269
0.614698
0.612786
0.608523
0.597151
0.583188
0.610508
0.612494
0.613723
0.614373
0.614397
0.613897
0.612309
0.608843
0.59881
0.586802
0.610175
0.6123
0.613623
0.614373
0.614547
0.614264
0.613096
0.610463
0.601871
0.590899
0.606597
0.608548
0.609333
0.609078
0.607887
0.605976
0.603157
0.599268
0.591246
0.583629
0.599463
0.601107
0.60171
0.601427
0.600237
0.597989
0.594384
0.588911
0.580883
0.570443
0.602832
0.604599
0.60529
0.605016
0.603694
0.601081
0.596666
0.589547
0.578186
0.562748
0.604863
0.606661
0.607406
0.60721
0.605925
0.603243
0.598533
0.59064
0.576831
0.557044
0.605333
0.607215
0.608088
0.608065
0.606974
0.604502
0.599859
0.591633
0.575817
0.552234
0.606069
0.608072
0.609105
0.609315
0.608509
0.606402
0.60206
0.593901
0.576705
0.550105
0.605814
0.607913
0.609075
0.609459
0.608897
0.607154
0.603208
0.595407
0.577439
0.548714
0.606111
0.608338
0.609619
0.610175
0.609842
0.608461
0.604981
0.59775
0.579608
0.549467
0.605658
0.607939
0.609218
0.609727
0.609374
0.608096
0.60493
0.598312
0.580524
0.549766
0.605578
0.607951
0.609306
0.609904
0.60967
0.608587
0.60582
0.599958
0.582986
0.551031
0.602209
0.604419
0.605379
0.60523
0.603994
0.601728
0.597832
0.591246
0.574935
0.543625
0.593483
0.594924
0.595428
0.595149
0.594097
0.592217
0.589409
0.585564
0.580612
0.574811
0.596649
0.598337
0.598975
0.598659
0.597352
0.59492
0.591108
0.585524
0.577634
0.568269
0.598693
0.600522
0.601242
0.600963
0.599587
0.596896
0.592449
0.585581
0.575051
0.561898
0.599463
0.601441
0.602291
0.602127
0.600816
0.598091
0.593319
0.585533
0.572459
0.55527
0.600565
0.602691
0.603686
0.603702
0.602567
0.600001
0.595186
0.586891
0.57166
0.550665
0.600684
0.602922
0.60404
0.604204
0.60324
0.600888
0.596183
0.587706
0.570769
0.546456
0.601323
0.603685
0.604912
0.605232
0.604454
0.602363
0.597902
0.589515
0.571413
0.544334
0.601159
0.603573
0.604811
0.605107
0.604323
0.602307
0.598024
0.589892
0.571222
0.542056
0.601303
0.603776
0.605077
0.605456
0.60478
0.602914
0.598859
0.591154
0.572619
0.541084
0.598153
0.600478
0.601505
0.601355
0.599984
0.597309
0.592507
0.58424
0.566007
0.533499
0.589163
0.590304
0.59069
0.590475
0.589688
0.58834
0.586443
0.584054
0.581279
0.578278
0.591847
0.593306
0.59386
0.593586
0.592484
0.590514
0.587594
0.583658
0.578675
0.573379
0.593608
0.595309
0.595974
0.595693
0.594417
0.59203
0.588302
0.582972
0.57568
0.567692
0.594419
0.596343
0.597144
0.596918
0.595582
0.59295
0.588614
0.582079
0.572333
0.561109
0.595669
0.597787
0.598726
0.598625
0.597348
0.594668
0.589988
0.582563
0.570497
0.55582
0.596004
0.598269
0.599332
0.599344
0.598153
0.595514
0.59066
0.582637
0.568494
0.550436
0.596865
0.59927
0.600439
0.600583
0.599518
0.597009
0.592153
0.58381
0.567974
0.546769
0.596917
0.599385
0.600579
0.600714
0.599639
0.597149
0.592299
0.583849
0.566842
0.542909
0.59724
0.599755
0.601002
0.601209
0.600221
0.59784
0.593085
0.584686
0.567191
0.540312
0.594294
0.596673
0.597737
0.597577
0.596111
0.593177
0.587917
0.579033
0.561413
0.532655
0.586047
0.586903
0.587181
0.587035
0.586501
0.585613
0.584416
0.582995
0.581445
0.579719
0.58822
0.589392
0.589848
0.589643
0.588802
0.587337
0.585259
0.582621
0.579544
0.576452
0.589574
0.591044
0.591624
0.591382
0.590306
0.588356
0.58546
0.581588
0.576776
0.571924
0.590262
0.592005
0.592724
0.592489
0.591257
0.588927
0.585298
0.580198
0.573355
0.566235
0.591485
0.593468
0.594321
0.594158
0.592881
0.59034
0.586168
0.580018
0.571088
0.561317
0.591898
0.594068
0.595048
0.594959
0.593681
0.591023
0.586458
0.57946
0.568502
0.555908
0.592869
0.595207
0.596293
0.596305
0.595083
0.592421
0.587639
0.580027
0.567255
0.551821
0.593053
0.595475
0.596601
0.596609
0.59536
0.592645
0.587704
0.579691
0.565493
0.54739
0.593508
0.59598
0.597151
0.59722
0.596028
0.593367
0.588398
0.580158
0.565099
0.544096
0.590737
0.593086
0.594143
0.593964
0.592449
0.589404
0.584066
0.575367
0.559892
0.536846
0.583764
0.584396
0.584589
0.584499
0.584161
0.583612
0.582894
0.582077
0.581205
0.580117
0.585514
0.586415
0.586776
0.586642
0.586047
0.585027
0.583624
0.58191
0.579998
0.578102
0.586454
0.587653
0.588137
0.587953
0.587112
0.585621
0.583492
0.580788
0.577662
0.574666
0.58694
0.588431
0.589048
0.588837
0.587788
0.585865
0.583003
0.57921
0.574545
0.570023
0.588021
0.589779
0.590525
0.590343
0.589173
0.586934
0.583447
0.578616
0.572254
0.565821
0.588405
0.590384
0.591257
0.591113
0.589869
0.587396
0.583385
0.577619
0.569494
0.560898
0.589391
0.591568
0.592549
0.592475
0.591219
0.588626
0.584243
0.577707
0.567895
0.556996
0.589626
0.591911
0.592945
0.592865
0.591555
0.588839
0.58417
0.577049
0.565807
0.552624
0.590166
0.592514
0.593592
0.59356
0.592274
0.589552
0.584752
0.577232
0.564997
0.549334
0.587531
0.589774
0.590788
0.590591
0.589087
0.586087
0.580989
0.57302
0.560211
0.542767
0.582041
0.582516
0.58265
0.582599
0.582395
0.582069
0.581651
0.581186
0.58068
0.579914
0.583499
0.584176
0.584459
0.584383
0.583987
0.58331
0.582395
0.581293
0.58007
0.578818
0.58408
0.585019
0.585408
0.585283
0.584664
0.583584
0.582082
0.580239
0.578196
0.57628
0.584359
0.585573
0.58608
0.585911
0.585072
0.583571
0.581418
0.578691
0.575542
0.572628
0.585235
0.586719
0.587347
0.587175
0.586173
0.584315
0.581544
0.577899
0.573459
0.569218
0.585521
0.587244
0.587997
0.587834
0.586706
0.584545
0.581205
0.57666
0.570801
0.56498
0.586457
0.588401
0.58926
0.58914
0.587946
0.58558
0.581785
0.576433
0.569142
0.56156
0.58667
0.588744
0.589666
0.589534
0.588259
0.585714
0.581553
0.575541
0.566969
0.557584
0.587257
0.589413
0.59038
0.590282
0.589
0.586393
0.582026
0.575534
0.565996
0.554687
0.584722
0.58679
0.587728
0.587522
0.586087
0.583269
0.57864
0.571714
0.561567
0.548892
0.580703
0.581075
0.581168
0.581142
0.581023
0.580835
0.580596
0.580332
0.580025
0.579437
0.581994
0.582501
0.582723
0.58269
0.582439
0.582005
0.581419
0.580706
0.579886
0.578994
0.582292
0.583006
0.583312
0.583236
0.582804
0.582053
0.581027
0.579789
0.578432
0.577147
0.582398
0.583347
0.583751
0.583626
0.58299
0.581871
0.580312
0.578401
0.576276
0.574347
0.583052
0.584252
0.584761
0.584615
0.583804
0.582336
0.580224
0.577561
0.574497
0.571671
0.583209
0.584647
0.585272
0.585116
0.584151
0.582358
0.579698
0.576243
0.572096
0.568157
0.584057
0.585725
0.586454
0.586317
0.58525
0.583207
0.580071
0.575858
0.570566
0.56534
0.58419
0.586001
0.586799
0.586644
0.585475
0.583216
0.579684
0.574821
0.568466
0.561894
0.584803
0.586714
0.587557
0.587424
0.586222
0.583859
0.580076
0.574719
0.567516
0.55955
0.582331
0.58417
0.585009
0.584805
0.583491
0.580956
0.576935
0.571178
0.56341
0.554488
0.579642
0.579947
0.580015
0.580003
0.579935
0.579829
0.579693
0.579541
0.579345
0.578866
0.580865
0.581251
0.581427
0.581422
0.581271
0.580999
0.580626
0.580152
0.579565
0.578876
0.580951
0.581485
0.581722
0.581683
0.581394
0.58089
0.580206
0.579377
0.578449
0.577537
0.580943
0.58166
0.581972
0.581886
0.581426
0.580624
0.57953
0.578215
0.576771
0.575446
0.581385
0.582316
0.582714
0.5826
0.581973
0.580862
0.57931
0.577415
0.575316
0.573399
0.581409
0.582559
0.583062
0.582925
0.582141
0.580718
0.57868
0.576133
0.573238
0.570562
0.582157
0.583533
0.584133
0.584
0.583095
0.58141
0.578922
0.575717
0.571947
0.568365
0.582168
0.58369
0.584358
0.584202
0.583184
0.581272
0.578397
0.574606
0.570002
0.565463
0.582799
0.584435
0.585148
0.585005
0.583936
0.581893
0.578753
0.574501
0.569202
0.563704
0.580361
0.581937
0.582663
0.582471
0.581315
0.579128
0.575772
0.571169
0.565392
0.559274
0.578795
0.579056
0.579106
0.579103
0.579065
0.579005
0.578927
0.578838
0.578706
0.578302
0.580023
0.580323
0.580466
0.580478
0.58039
0.580222
0.579982
0.579655
0.579203
0.57863
0.579949
0.580344
0.580525
0.580511
0.580326
0.579997
0.579548
0.578991
0.578331
0.577639
0.579889
0.580415
0.580649
0.580596
0.580275
0.57972
0.578972
0.578079
0.577086
0.576132
0.58014
0.580837
0.581138
0.581053
0.580589
0.579779
0.578673
0.577356
0.575924
0.574593
0.580047
0.580932
0.581322
0.581211
0.580601
0.579516
0.578006
0.57618
0.574184
0.572354
0.580703
0.581797
0.582274
0.582158
0.581426
0.580093
0.578188
0.575822
0.573181
0.570735
0.580565
0.581795
0.582336
0.582193
0.581347
0.579796
0.577541
0.574683
0.571416
0.568318
0.581223
0.582575
0.583159
0.583024
0.582117
0.580426
0.577917
0.574658
0.570847
0.567117
0.578796
0.580096
0.580702
0.580531
0.579553
0.57774
0.575041
0.571489
0.567302
0.563201
0.578125
0.578354
0.578392
0.578393
0.578372
0.578338
0.578294
0.57824
0.578147
0.5778
0.579407
0.579646
0.579765
0.579785
0.579736
0.579633
0.579475
0.579237
0.578865
0.578356
0.5792
0.579491
0.579629
0.579629
0.579515
0.579306
0.579014
0.578635
0.578146
0.577583
0.579148
0.579524
0.579698
0.579667
0.579452
0.579078
0.578578
0.577978
0.577283
0.576558
0.579235
0.579736
0.579957
0.579897
0.579567
0.578995
0.57823
0.577333
0.57636
0.575411
0.579049
0.579705
0.579997
0.579913
0.579457
0.578659
0.577574
0.576296
0.574935
0.573674
0.579634
0.580472
0.580839
0.580745
0.580178
0.579163
0.577752
0.576053
0.574231
0.572565
0.579326
0.580283
0.580706
0.580585
0.579911
0.578701
0.576993
0.574904
0.572629
0.570542
0.580037
0.581117
0.58158
0.581463
0.580725
0.579382
0.577449
0.575028
0.572345
0.569852
0.5776
0.578632
0.579121
0.578976
0.578181
0.576734
0.574639
0.571987
0.569023
0.566332
0.577606
0.57781
0.57784
0.577843
0.577831
0.577812
0.577786
0.577753
0.577685
0.577387
0.578981
0.579174
0.579273
0.579296
0.57927
0.579206
0.5791
0.578918
0.578597
0.578121
0.578643
0.578854
0.578957
0.578965
0.578897
0.578767
0.57858
0.578319
0.57794
0.577452
0.578653
0.578915
0.579041
0.579026
0.578886
0.578642
0.578313
0.577912
0.577417
0.576839
0.578594
0.578942
0.579098
0.579059
0.578831
0.57844
0.577924
0.577326
0.576667
0.575973
0.578346
0.578814
0.579026
0.578965
0.578636
0.578068
0.577311
0.576438
0.575521
0.574645
0.578885
0.579504
0.579777
0.579706
0.579283
0.578538
0.577525
0.576335
0.5751
0.573969
0.578393
0.579108
0.579428
0.57933
0.578814
0.577905
0.576653
0.575169
0.573617
0.57223
0.579196
0.58003
0.580385
0.58029
0.579715
0.578688
0.577248
0.575503
0.573653
0.572011
0.576729
0.577514
0.577896
0.577779
0.577157
0.576044
0.574473
0.572554
0.570502
0.568775
0.577218
0.577402
0.577424
0.577428
0.577421
0.577411
0.577396
0.577375
0.577325
0.577069
0.57872
0.578877
0.578958
0.578981
0.578968
0.578928
0.578854
0.57871
0.578425
0.577964
0.578226
0.578377
0.578452
0.578462
0.578422
0.578344
0.578225
0.578044
0.577744
0.577301
0.57835
0.578528
0.578617
0.578612
0.578524
0.578368
0.578156
0.57789
0.577533
0.577052
0.578161
0.578391
0.578498
0.578472
0.57832
0.578061
0.577722
0.577331
0.576889
0.576372
0.577878
0.578198
0.578348
0.578305
0.578077
0.577685
0.577171
0.576587
0.575978
0.575369
0.578393
0.578834
0.579031
0.578979
0.578675
0.578146
0.577441
0.576629
0.575806
0.575046
0.577703
0.578215
0.578448
0.578374
0.577994
0.577335
0.576445
0.575421
0.574381
0.57348
0.578653
0.579274
0.579538
0.579465
0.579035
0.578278
0.577242
0.576019
0.574768
0.573703
0.576125
0.576698
0.576986
0.576895
0.576427
0.575603
0.574464
0.573117
0.571728
0.570645
0.576937
0.577102
0.577118
0.577122
0.577118
0.577113
0.577104
0.577091
0.577054
0.576839
0.57861
0.578736
0.578801
0.578821
0.578816
0.57879
0.578738
0.578623
0.578369
0.577913
0.577912
0.578014
0.578066
0.578075
0.578052
0.578006
0.577933
0.577809
0.57757
0.577158
0.578198
0.578315
0.578377
0.578377
0.578323
0.578225
0.578091
0.577917
0.57766
0.577252
0.577888
0.578033
0.578103
0.578087
0.577989
0.577822
0.577605
0.577355
0.577063
0.576677
0.577598
0.577808
0.57791
0.577882
0.577728
0.577466
0.577125
0.576743
0.576346
0.575927
0.578103
0.578403
0.57854
0.578504
0.578294
0.577931
0.577454
0.576915
0.57638
0.575878
0.577198
0.577549
0.577713
0.577659
0.577389
0.576927
0.576314
0.575626
0.574943
0.574376
0.578361
0.57881
0.578999
0.578946
0.578637
0.5781
0.577377
0.576544
0.575717
0.575037
0.575725
0.576124
0.576334
0.576267
0.575928
0.57534
0.57454
0.573623
0.572703
0.572044
0.576716
0.576863
0.576873
0.576876
0.576874
0.576872
0.576867
0.576859
0.576834
0.576656
0.578644
0.578742
0.578793
0.578809
0.578807
0.578791
0.578754
0.578662
0.57844
0.57799
0.577667
0.57773
0.577762
0.577768
0.577756
0.57773
0.577687
0.577605
0.577421
0.577041
0.578166
0.578238
0.578278
0.57828
0.578248
0.578189
0.578106
0.577995
0.577815
0.577473
0.577749
0.577833
0.577877
0.577868
0.577806
0.577701
0.577565
0.57741
0.577223
0.576941
0.577474
0.577606
0.577674
0.577656
0.577556
0.577385
0.577165
0.57692
0.576666
0.576387
0.577969
0.578163
0.578254
0.578228
0.578088
0.577847
0.577535
0.577188
0.57685
0.576532
0.576833
0.577063
0.577175
0.577137
0.576953
0.576639
0.576228
0.575778
0.575337
0.574999
0.578288
0.578602
0.578732
0.578695
0.578482
0.578114
0.577627
0.577076
0.576542
0.576114
0.575445
0.57571
0.575858
0.575811
0.575575
0.575169
0.574625
0.57402
0.573421
0.573037
0.576443
0.576568
0.576574
0.576576
0.576576
0.576575
0.576574
0.57657
0.576555
0.576416
0.578826
0.5789
0.578937
0.578949
0.578948
0.578938
0.578912
0.578843
0.578658
0.578224
0.577473
0.577505
0.577523
0.577525
0.577519
0.577505
0.577482
0.577432
0.577298
0.576965
0.578225
0.578263
0.578286
0.578287
0.578268
0.578233
0.578185
0.578118
0.578002
0.577732
0.577727
0.577771
0.577798
0.577792
0.577754
0.57769
0.577607
0.577513
0.577398
0.577205
0.577492
0.577571
0.577614
0.577603
0.577539
0.577431
0.577291
0.577138
0.57698
0.576805
0.577959
0.578075
0.578131
0.578112
0.57802
0.577866
0.577669
0.577454
0.577251
0.577066
0.576604
0.576749
0.576824
0.576799
0.576677
0.57647
0.576201
0.575911
0.575628
0.575442
0.578426
0.578638
0.578724
0.578699
0.578556
0.578313
0.577995
0.577642
0.577308
0.577042
0.57515
0.575318
0.575421
0.575388
0.57523
0.574959
0.574599
0.574212
0.573826
0.573616
0.57588
0.575974
0.575976
0.575978
0.575978
0.575979
0.57598
0.575981
0.575976
0.575876
0.579196
0.579249
0.579271
0.579278
0.579277
0.57927
0.579253
0.579207
0.579069
0.578678
0.577353
0.577365
0.577375
0.577377
0.577374
0.577366
0.577352
0.577323
0.577235
0.576969
0.578344
0.578356
0.578363
0.578361
0.578348
0.578327
0.578301
0.578267
0.578204
0.578021
0.577811
0.577832
0.577847
0.577843
0.577819
0.57778
0.577729
0.577673
0.577607
0.577491
0.577637
0.577682
0.577708
0.5777
0.57766
0.577592
0.577505
0.57741
0.577315
0.577218
0.578054
0.578115
0.578146
0.578131
0.578071
0.577974
0.577853
0.577726
0.577613
0.577525
0.576583
0.576676
0.576728
0.576712
0.576633
0.576499
0.576324
0.576136
0.575949
0.575853
0.578827
0.578961
0.579015
0.578995
0.578901
0.578744
0.578544
0.578325
0.578128
0.577965
0.574614
0.574717
0.574788
0.574766
0.574661
0.574484
0.57425
0.574006
0.573753
0.573648
0.574676
0.574739
0.574741
0.574743
0.574744
0.574745
0.574745
0.574745
0.574745
0.574679
0.579862
0.579889
0.57989
0.579886
0.579881
0.579875
0.579868
0.579849
0.579774
0.57948
0.577394
0.577405
0.577417
0.577422
0.57742
0.577412
0.577396
0.577371
0.577313
0.577129
0.578473
0.578465
0.578461
0.578454
0.578443
0.578429
0.578414
0.5784
0.578378
0.578289
0.577969
0.577979
0.577988
0.577984
0.577967
0.577941
0.577907
0.577871
0.577833
0.577779
0.57787
0.577895
0.577909
0.577902
0.577875
0.57783
0.577774
0.577714
0.577656
0.577614
0.578226
0.578253
0.578266
0.578253
0.578213
0.57815
0.578074
0.577999
0.577941
0.577919
0.576922
0.576991
0.577028
0.577019
0.576967
0.576877
0.57676
0.576633
0.576499
0.576434
0.579611
0.579683
0.579713
0.579695
0.579631
0.579528
0.579401
0.579269
0.579165
0.579085
0.573551
0.573619
0.573669
0.573654
0.573583
0.573465
0.573311
0.57315
0.572974
0.572923
0.572911
0.572951
0.572963
0.572969
0.57297
0.572967
0.572958
0.572944
0.572927
0.572875
0.580842
0.580817
0.58079
0.580769
0.580757
0.580751
0.580752
0.580759
0.58076
0.58065
0.577643
0.577675
0.577698
0.577707
0.577705
0.577692
0.577667
0.57763
0.577572
0.577457
0.578556
0.578541
0.578532
0.578522
0.57851
0.578497
0.578483
0.578472
0.578465
0.578451
0.578143
0.578151
0.578157
0.578153
0.578139
0.578116
0.578088
0.578056
0.578026
0.578004
0.578109
0.578126
0.578135
0.578129
0.578107
0.578072
0.578029
0.577983
0.577941
0.577921
0.578411
0.578425
0.578431
0.578419
0.578387
0.57834
0.578284
0.57823
0.578195
0.5782
0.577618
0.577682
0.577712
0.577706
0.577666
0.577598
0.57751
0.577412
0.577304
0.577226
0.580768
0.580792
0.580805
0.580787
0.580738
0.580661
0.580569
0.580483
0.580435
0.580449
0.572083
0.572144
0.572181
0.572169
0.572115
0.572025
0.571911
0.571791
0.571659
0.571615
0.433594
0.412956
0.419838
0.460696
0.385907
0.362729
0.373569
0.430654
0.343404
0.316308
0.333243
0.411844
0.305991
0.276567
0.300227
0.401121
0.274971
0.244713
0.275247
0.398525
0.248521
0.218378
0.257451
0.391407
0.227096
0.198458
0.245983
0.387641
0.206903
0.181411
0.237527
0.384584
0.189089
0.169354
0.233577
0.38535
0.169833
0.157916
0.229021
0.380436
0.492985
0.482622
0.48291
0.492708
0.462113
0.449268
0.450272
0.46292
0.431655
0.414763
0.41675
0.43412
0.403174
0.382062
0.385322
0.407653
0.37888
0.353237
0.357958
0.38541
0.357267
0.326576
0.331079
0.363385
0.339777
0.303971
0.307857
0.345007
0.323734
0.282983
0.285975
0.327907
0.310545
0.265599
0.267645
0.313873
0.295834
0.248276
0.24752
0.296287
0.558997
0.556545
0.556004
0.55734
0.540257
0.536288
0.535528
0.537962
0.520476
0.514371
0.513458
0.517791
0.498693
0.49027
0.489315
0.495999
0.47793
0.467063
0.466194
0.475615
0.456985
0.44346
0.442621
0.454783
0.438219
0.42194
0.4211
0.436027
0.419801
0.400859
0.399971
0.41751
0.403652
0.382866
0.381844
0.401229
0.3853
0.364809
0.362945
0.381782
0.570874
0.569534
0.569167
0.569727
0.559894
0.55818
0.557636
0.558184
0.548063
0.545335
0.544543
0.545528
0.533656
0.529688
0.528683
0.530374
0.519363
0.51398
0.512815
0.515503
0.503796
0.496819
0.495512
0.499454
0.48923
0.480564
0.479151
0.484563
0.473989
0.46368
0.46221
0.46919
0.459713
0.448339
0.44683
0.455074
0.442376
0.431927
0.430076
0.437817
0.577203
0.576363
0.576141
0.576527
0.569879
0.569109
0.568833
0.56903
0.562279
0.561092
0.56061
0.560799
0.552495
0.550678
0.54995
0.550237
0.542654
0.540014
0.539033
0.539573
0.531335
0.527695
0.526473
0.527451
0.520582
0.515829
0.514402
0.516016
0.508791
0.502921
0.501356
0.503769
0.497461
0.490848
0.489238
0.492423
0.483131
0.477581
0.475793
0.478408
0.579323
0.578616
0.578448
0.578814
0.574397
0.573929
0.573778
0.573932
0.569102
0.56846
0.568192
0.568286
0.562138
0.561213
0.560773
0.560797
0.555181
0.553832
0.553178
0.553175
0.54684
0.544916
0.544024
0.544076
0.53897
0.536355
0.535234
0.53546
0.530026
0.526678
0.52538
0.525917
0.52139
0.517522
0.516163
0.517119
0.509832
0.507031
0.505561
0.505847
0.58004
0.5794
0.579256
0.579605
0.576743
0.576429
0.576337
0.576459
0.572999
0.572617
0.572464
0.572533
0.567839
0.567332
0.567076
0.567061
0.562714
0.561999
0.561599
0.5615
0.556343
0.555315
0.554735
0.554576
0.550455
0.549021
0.548247
0.548081
0.543596
0.541704
0.540762
0.540678
0.537204
0.534943
0.533932
0.534064
0.527823
0.526641
0.525555
0.524931
0.580019
0.57942
0.579287
0.579618
0.577822
0.577589
0.577522
0.577616
0.57519
0.57494
0.574843
0.574893
0.57135
0.57105
0.570892
0.570871
0.567519
0.567117
0.566869
0.566773
0.562543
0.561972
0.561606
0.561438
0.558062
0.557258
0.556756
0.556537
0.552724
0.551646
0.551015
0.550796
0.548089
0.546761
0.546063
0.545947
0.540283
0.540061
0.539327
0.53842
0.579682
0.579115
0.578988
0.579299
0.578241
0.578063
0.578009
0.578072
0.576399
0.576226
0.576156
0.576185
0.573553
0.573365
0.573258
0.573231
0.570694
0.570459
0.570299
0.570214
0.566797
0.566471
0.566237
0.566096
0.563399
0.562939
0.562616
0.562428
0.559206
0.558585
0.558176
0.557969
0.555863
0.55508
0.55462
0.554464
0.549221
0.549559
0.549097
0.548152
0.579226
0.578688
0.578566
0.578857
0.578302
0.578165
0.578116
0.578152
0.577009
0.576885
0.576829
0.576838
0.574927
0.574801
0.574722
0.574688
0.572805
0.572659
0.572549
0.572476
0.569768
0.569574
0.569419
0.569307
0.567247
0.566977
0.566767
0.566621
0.563939
0.563578
0.563315
0.56315
0.561573
0.561109
0.560814
0.56068
0.555811
0.556465
0.556189
0.555288
0.578763
0.578251
0.578132
0.578404
0.578191
0.578084
0.578037
0.578049
0.577262
0.577171
0.577122
0.577113
0.575775
0.575687
0.575622
0.575584
0.574211
0.574115
0.574034
0.573971
0.571866
0.571744
0.571637
0.571551
0.570064
0.5699
0.569761
0.569652
0.567437
0.567225
0.567055
0.566933
0.565853
0.565577
0.56539
0.565287
0.560758
0.561575
0.561419
0.560583
0.578347
0.577859
0.577743
0.577998
0.578016
0.57793
0.577884
0.577877
0.577304
0.577234
0.577189
0.577168
0.576296
0.576227
0.576172
0.576133
0.575145
0.575076
0.575014
0.574963
0.573356
0.573275
0.573198
0.573134
0.572148
0.572044
0.57195
0.571872
0.570032
0.569906
0.569797
0.569708
0.569095
0.568935
0.568817
0.56874
0.564503
0.56539
0.565308
0.564537
0.578005
0.577538
0.577425
0.577665
0.577842
0.577769
0.577723
0.577704
0.57723
0.577171
0.577127
0.577101
0.576621
0.576562
0.576512
0.576478
0.575767
0.575712
0.575662
0.575625
0.574423
0.574364
0.574308
0.574264
0.573702
0.573634
0.57357
0.573517
0.571947
0.571875
0.571804
0.571741
0.571569
0.571481
0.571408
0.571348
0.567345
0.568242
0.568204
0.567498
0.577743
0.577293
0.577184
0.577411
0.57771
0.577641
0.577593
0.57757
0.577095
0.577039
0.576997
0.576973
0.576843
0.576785
0.57674
0.576716
0.57619
0.576141
0.576102
0.576082
0.575201
0.575154
0.575114
0.57509
0.574875
0.57483
0.574787
0.574754
0.573345
0.573307
0.573263
0.573218
0.573468
0.573427
0.573382
0.573334
0.569498
0.570364
0.57035
0.569711
0.577548
0.577113
0.577007
0.577226
0.577645
0.577572
0.577523
0.577504
0.576936
0.576874
0.576833
0.57682
0.577027
0.576964
0.576925
0.576917
0.576501
0.576452
0.576422
0.57642
0.575794
0.575753
0.575726
0.575719
0.575777
0.575747
0.57572
0.575704
0.574347
0.574332
0.574305
0.574273
0.574942
0.574933
0.574906
0.574865
0.571116
0.571919
0.571918
0.571349
0.577378
0.576955
0.576855
0.577068
0.577674
0.577588
0.577538
0.577534
0.576775
0.576702
0.576664
0.57667
0.57722
0.577149
0.577117
0.577131
0.576765
0.576714
0.576693
0.57671
0.576282
0.576247
0.576229
0.576237
0.576493
0.576476
0.576461
0.576456
0.575049
0.575051
0.575036
0.575011
0.576115
0.576128
0.576114
0.576076
0.572293
0.573008
0.573013
0.57252
0.577122
0.576713
0.576622
0.576831
0.577833
0.577728
0.57768
0.577699
0.576641
0.576553
0.576521
0.576554
0.577457
0.577379
0.577355
0.577393
0.577036
0.576985
0.576972
0.577005
0.576733
0.576703
0.576693
0.576711
0.577088
0.577084
0.577079
0.577079
0.57555
0.575563
0.575556
0.575532
0.577107
0.577134
0.577128
0.577093
0.573042
0.573645
0.573649
0.573241
0.576533
0.576145
0.576068
0.576273
0.578206
0.578081
0.578038
0.578087
0.576595
0.576495
0.57647
0.576531
0.577752
0.577674
0.57766
0.577719
0.577349
0.577302
0.577296
0.577339
0.577187
0.577166
0.577163
0.577183
0.577609
0.57762
0.577622
0.577621
0.575986
0.576007
0.576002
0.575977
0.578069
0.578103
0.578102
0.57807
0.573234
0.573701
0.573703
0.573388
0.575231
0.574893
0.574839
0.575025
0.578971
0.578836
0.578805
0.578887
0.576747
0.576642
0.576625
0.576704
0.578082
0.578018
0.578015
0.578082
0.577694
0.577659
0.577659
0.577699
0.577635
0.577626
0.577627
0.577642
0.578061
0.578087
0.578093
0.578086
0.576539
0.576557
0.576552
0.576528
0.579224
0.579265
0.579268
0.579241
0.57263
0.572929
0.572926
0.572723
0.57321
0.573003
0.572977
0.573093
0.58026
0.580156
0.58015
0.580249
0.577139
0.577052
0.57704
0.577108
0.578361
0.578327
0.578333
0.578385
0.577984
0.577969
0.577972
0.577995
0.577975
0.577979
0.577982
0.577987
0.578364
0.578398
0.578406
0.578392
0.577229
0.577229
0.577223
0.57721
0.580691
0.580748
0.580758
0.580728
0.571355
0.571436
0.571431
0.571382
0.588563
0.597244
0.601368
0.604422
0.607482
0.61019
0.612396
0.614133
0.615527
0.616784
0.588204
0.591648
0.599024
0.603895
0.60822
0.611481
0.613871
0.615627
0.616943
0.618095
0.591225
0.587511
0.598339
0.603767
0.608814
0.61219
0.614611
0.616369
0.617659
0.618743
0.593532
0.582512
0.596921
0.602238
0.607875
0.611244
0.613708
0.615469
0.616755
0.617815
0.596226
0.57895
0.596039
0.601224
0.60738
0.610696
0.613226
0.614992
0.616259
0.617272
0.59738
0.574567
0.594173
0.59896
0.605673
0.608917
0.611575
0.613396
0.614755
0.615862
0.599471
0.571665
0.593436
0.597615
0.604836
0.607942
0.610731
0.612598
0.614017
0.615161
0.599382
0.567298
0.591215
0.594726
0.602523
0.605573
0.608629
0.610681
0.612384
0.613829
0.599706
0.564872
0.590751
0.593031
0.601032
0.603709
0.607074
0.609352
0.611322
0.613024
0.583814
0.54915
0.57751
0.580238
0.590106
0.594372
0.599424
0.602994
0.606021
0.608521
0.531487
0.553629
0.569906
0.581407
0.589253
0.594714
0.598666
0.601627
0.603937
0.605924
0.516501
0.546974
0.56887
0.582567
0.591232
0.597081
0.601229
0.604264
0.606534
0.608348
0.505772
0.543079
0.56902
0.583637
0.592794
0.598823
0.603045
0.606095
0.60833
0.610066
0.496897
0.5393
0.568287
0.583175
0.592722
0.598838
0.603096
0.606141
0.608356
0.61005
0.491482
0.537288
0.568227
0.58322
0.593099
0.599225
0.603494
0.606509
0.608679
0.61031
0.487216
0.534896
0.567289
0.582078
0.592264
0.59835
0.602651
0.605665
0.60787
0.609548
0.485626
0.534
0.567478
0.581794
0.592219
0.598175
0.602494
0.605496
0.607713
0.609404
0.483738
0.53192
0.566354
0.580039
0.590719
0.596562
0.600999
0.604107
0.606521
0.60844
0.483262
0.531361
0.566713
0.579198
0.58973
0.595177
0.599782
0.603075
0.60571
0.607869
0.473898
0.521241
0.557305
0.569371
0.580957
0.587445
0.593251
0.597486
0.600894
0.603548
0.561864
0.568377
0.57448
0.579805
0.584323
0.588095
0.591222
0.593815
0.596006
0.597959
0.547289
0.558814
0.568927
0.577122
0.583661
0.588801
0.592816
0.595958
0.598442
0.600452
0.533897
0.550901
0.564999
0.575607
0.583674
0.589726
0.594287
0.597751
0.600402
0.602471
0.52058
0.542993
0.560903
0.573527
0.582819
0.589513
0.59443
0.59809
0.600849
0.602957
0.51011
0.53729
0.558498
0.57267
0.582881
0.589985
0.595108
0.598859
0.601655
0.603749
0.500462
0.531743
0.555831
0.571123
0.582037
0.589394
0.594657
0.598472
0.601325
0.603471
0.493634
0.528223
0.554718
0.570698
0.582104
0.589552
0.594883
0.598719
0.601599
0.603761
0.487206
0.524325
0.552875
0.569184
0.580948
0.588413
0.593844
0.597776
0.600809
0.603147
0.482824
0.522292
0.552584
0.568569
0.580256
0.587492
0.593042
0.597126
0.600331
0.602862
0.472675
0.513326
0.544766
0.560719
0.573137
0.581123
0.587507
0.592273
0.596025
0.598843
0.571103
0.573795
0.576759
0.579688
0.582424
0.584895
0.587082
0.589004
0.590721
0.59234
0.560808
0.565841
0.571277
0.57636
0.580819
0.584604
0.587767
0.590394
0.592576
0.594411
0.549979
0.558079
0.566346
0.573588
0.579636
0.584558
0.588521
0.591697
0.594236
0.596281
0.537618
0.549457
0.560895
0.570303
0.577832
0.58372
0.58832
0.591917
0.594736
0.596943
0.526549
0.542425
0.557025
0.568389
0.57718
0.583819
0.588877
0.592749
0.595738
0.598023
0.51535
0.535343
0.552988
0.566035
0.575879
0.583087
0.588484
0.592559
0.59569
0.598074
0.506243
0.53018
0.550605
0.564981
0.57564
0.583225
0.588844
0.59304
0.596258
0.59869
0.497341
0.524906
0.547828
0.563179
0.574451
0.582278
0.588085
0.592424
0.595794
0.598379
0.490326
0.521492
0.546587
0.562319
0.573803
0.581645
0.587607
0.592094
0.595603
0.598342
0.479509
0.51316
0.539622
0.555731
0.567871
0.576299
0.582857
0.587835
0.591727
0.594601
0.577027
0.57809
0.579338
0.580709
0.582124
0.583516
0.584841
0.586084
0.587272
0.588483
0.570101
0.572271
0.574859
0.577572
0.580205
0.582643
0.584836
0.586774
0.588469
0.58996
0.562207
0.56575
0.570016
0.574307
0.578292
0.581822
0.584864
0.58744
0.589598
0.591408
0.552392
0.557899
0.56429
0.570374
0.575771
0.580361
0.584183
0.587331
0.589903
0.591986
0.542999
0.550977
0.559765
0.567679
0.574416
0.579933
0.584394
0.587978
0.590851
0.593112
0.532763
0.54359
0.554913
0.564584
0.572538
0.578843
0.583825
0.587757
0.590878
0.593309
0.523874
0.53775
0.551582
0.562818
0.571805
0.578722
0.584095
0.588275
0.591568
0.594101
0.514782
0.531769
0.547997
0.560542
0.570365