/*--------------------------------*- C++ -*----------------------------------*\
| =========                 |                                                 |
| \\      /  F ield         | foam-extend: Open Source CFD                    |
|  \\    /   O peration     | Version:     4.0                                |
|   \\  /    A nd           | Web:         http://www.foam-extend.org         |
|    \\/     M anipulation  |                                                 |
\*---------------------------------------------------------------------------*/
FoamFile
{
    version     2.0;
    format      ascii;
    class       volScalarField;
    location    "650";
    object      mut;
}
// * * * * * * * * * * * * * * * * * * * * * * * * * * * * * * * * * * * * * //

dimensions      [1 -1 -1 0 0 0 0];

internalField   nonuniform List<scalar> 
34480
(
0.00188705
0.00188571
0.00188545
0.00188622
0.00188828
0.00189215
0.00189969
0.00191824
0.00195835
0.00203103
0.0156496
0.0147809
0.0144367
0.0141517
0.0125719
0.00802217
0.00333142
0.00133836
0.00100348
0.0014951
0.0440988
0.0423074
0.0405342
0.0370164
0.0281454
0.0143075
0.00499222
0.00180493
0.00125119
0.00183676
0.0482941
0.0460508
0.0440367
0.0398836
0.0291707
0.0137852
0.00467795
0.00175541
0.00129563
0.00199375
0.0474802
0.0450117
0.0431966
0.039243
0.0282183
0.0127727
0.00429099
0.00166919
0.00131324
0.00211812
0.0456858
0.0431732
0.041468
0.0375523
0.0261489
0.0111911
0.00374661
0.00154512
0.00133095
0.00226108
0.0435294
0.0411845
0.0396755
0.0359128
0.0245209
0.0101088
0.0033825
0.00145655
0.0013472
0.00238431
0.0361616
0.0344466
0.0333752
0.0305122
0.0208427
0.00831063
0.00274006
0.00124598
0.00127785
0.00240244
0.0124123
0.012073
0.0119545
0.0116673
0.00984684
0.00506146
0.00166788
0.000749655
0.000867223
0.00184137
0.00181657
0.0018151
0.00181562
0.00181797
0.00182202
0.00182762
0.00183504
0.00184543
0.00186074
0.00181846
0.00188804
0.00188616
0.0018855
0.00188597
0.00188778
0.00189114
0.00189657
0.00190613
0.00192429
0.00196695
0.0148155
0.0141158
0.0138728
0.0140271
0.0144392
0.0145514
0.0128169
0.00757246
0.00251353
0.00213687
0.0407295
0.0393778
0.0386416
0.0380915
0.0365006
0.0318243
0.0228653
0.0111965
0.00328347
0.00286826
0.0448534
0.0431009
0.0422518
0.0416731
0.0398281
0.0343189
0.0240926
0.0113587
0.00329699
0.00320751
0.0445602
0.042547
0.0417732
0.0414224
0.039944
0.0346711
0.0243091
0.0112001
0.00324373
0.00349359
0.0432991
0.0411896
0.0404375
0.0402142
0.0389913
0.0339829
0.0237677
0.010751
0.00319126
0.0038611
0.0416615
0.0396393
0.0389731
0.0388191
0.0378162
0.0331631
0.0232938
0.0104324
0.0031698
0.00421372
0.0350294
0.0335166
0.0330162
0.0329803
0.0324541
0.029138
0.0209304
0.00930588
0.00291602
0.00432121
0.0123743
0.0120434
0.0119652
0.0120217
0.0121669
0.0120954
0.0106881
0.00546604
0.00175486
0.00293183
0.00181236
0.00180876
0.00180728
0.00180764
0.00180974
0.00181329
0.00181876
0.00182758
0.00185041
0.00189524
0.00188462
0.00188304
0.00188247
0.00188289
0.00188443
0.00188707
0.00189091
0.00189699
0.00190619
0.00192048
0.0139995
0.0135223
0.0133402
0.0134651
0.013899
0.0145696
0.01503
0.0141462
0.0100768
0.00599977
0.0372653
0.0362012
0.0357966
0.0359299
0.0362788
0.0359142
0.0329999
0.0252864
0.013266
0.00720082
0.0411905
0.0398145
0.039337
0.039565
0.0400949
0.0397822
0.0362573
0.0265804
0.0124659
0.00721904
0.0413167
0.0397447
0.039294
0.039647
0.0404932
0.0406833
0.0374116
0.0266439
0.0113629
0.00717311
0.040535
0.0388787
0.0384114
0.0388233
0.0398834
0.0405607
0.037709
0.0260652
0.0102625
0.0072868
0.039395
0.0377825
0.037356
0.0377601
0.0389061
0.0399379
0.0376072
0.0253364
0.00934831
0.00743383
0.0335966
0.032384
0.0320399
0.0323465
0.0332987
0.034528
0.0334541
0.022489
0.00798098
0.00722451
0.012281
0.0120008
0.011939
0.0119996
0.012216
0.0125452
0.0127561
0.010693
0.00450773
0.00463523
0.00180511
0.00180127
0.00179954
0.00179968
0.00180171
0.0018055
0.0018118
0.00182265
0.00184811
0.00189994
0.0018776
0.00187654
0.00187614
0.00187647
0.00187757
0.00187925
0.00188145
0.00188459
0.00188873
0.00189379
0.0134553
0.0131551
0.0130214
0.0130966
0.0133852
0.0138541
0.0143666
0.0148433
0.0146274
0.0130218
0.0341394
0.0333802
0.0331211
0.0333038
0.0338893
0.0346185
0.0346932
0.0324637
0.025669
0.0175153
0.0377994
0.0367963
0.0364775
0.0367614
0.0375933
0.0386476
0.0387489
0.0354131
0.025789
0.0167255
0.0382682
0.0371219
0.0368136
0.0371732
0.0382162
0.0396587
0.0401201
0.036271
0.0246461
0.0158255
0.037914
0.0366888
0.036352
0.036749
0.0379307
0.0397329
0.0406578
0.0364337
0.0231346
0.0152988
0.0372209
0.035999
0.0356834
0.036066
0.0372794
0.0392719
0.0405904
0.0360645
0.0214729
0.0148803
0.0322482
0.0313157
0.0310514
0.0313303
0.0322508
0.0339493
0.035556
0.0320498
0.0185
0.0138815
0.0122253
0.0119905
0.0119406
0.0119884
0.0121612
0.0124421
0.0127029
0.0128192
0.00960554
0.00851049
0.00179612
0.00179231
0.00179057
0.00179071
0.00179282
0.00179692
0.00180382
0.00181565
0.00184079
0.00188712
0.00186771
0.00186713
0.00186691
0.00186713
0.00186781
0.00186868
0.00186981
0.00187129
0.00187299
0.00187463
0.0131903
0.0130145
0.0129182
0.0129606
0.0131374
0.0133909
0.0136615
0.014013
0.0143757
0.0146115
0.0316439
0.0311768
0.0310108
0.031114
0.0315075
0.0321578
0.0329072
0.033245
0.0317931
0.0276784
0.0349627
0.0343031
0.0340834
0.0342651
0.0348709
0.0358919
0.0370566
0.0373428
0.0342786
0.0275796
0.0356469
0.0348716
0.0346545
0.0348909
0.0356501
0.0369602
0.0385017
0.0388382
0.0344455
0.0263345
0.0356195
0.0347616
0.0345116
0.034784
0.0356556
0.0372369
0.0392084
0.0397054
0.0340371
0.0254077
0.0352799
0.0343918
0.0341513
0.0344212
0.03533
0.0370398
0.0392851
0.0398467
0.0329763
0.0244939
0.0310589
0.0303624
0.0301555
0.0303578
0.0310418
0.0324056
0.0343946
0.0352886
0.0290869
0.0224655
0.0122159
0.012019
0.0119784
0.0120125
0.0121389
0.0123411
0.012454
0.0128749
0.0127239
0.0124184
0.0017856
0.00178192
0.00178023
0.0017804
0.00178253
0.00178677
0.00179378
0.00180542
0.00182739
0.00186342
0.00185542
0.00185525
0.00185517
0.0018553
0.00185564
0.00185599
0.00185651
0.00185714
0.00185782
0.00185828
0.0131437
0.0130571
0.0129909
0.0130147
0.0131195
0.0132427
0.0133769
0.0135485
0.0137403
0.0139234
0.0299036
0.0296523
0.0295522
0.0295921
0.0297917
0.0301469
0.0306667
0.0313028
0.0316881
0.0313892
0.0328176
0.0324231
0.0322777
0.0323693
0.032719
0.0333678
0.0343422
0.0354791
0.0357951
0.0341996
0.0335583
0.0330723
0.0329265
0.0330582
0.0335206
0.0343828
0.0356975
0.0372154
0.0372772
0.0342597
0.0337269
0.0331596
0.0329812
0.0331474
0.0337081
0.0347891
0.036488
0.0384729
0.0382511
0.0340315
0.0336257
0.03301
0.0328338
0.0330062
0.0336159
0.0348146
0.0367399
0.0389975
0.0383316
0.0332987
0.03005
0.0295493
0.0293933
0.0295304
0.0299995
0.030946
0.0325005
0.0345704
0.03417
0.0302445
0.0122564
0.0120922
0.0120602
0.0120837
0.0121727
0.012303
0.0122855
0.0125064
0.0129562
0.0138954
0.00177342
0.00176996
0.00176837
0.00176857
0.00177066
0.00177481
0.00178152
0.0017922
0.00181017
0.00183632
0.00184114
0.00184121
0.00184123
0.0018413
0.00184139
0.00184152
0.00184172
0.00184196
0.00184222
0.0018423
0.0132488
0.0132274
0.0131871
0.0131993
0.0132527
0.0133158
0.013391
0.013483
0.0135742
0.0136276
0.0288417
0.0287183
0.0286603
0.0286687
0.0287547
0.0289131
0.0291632
0.0295135
0.0298712
0.0301532
0.0313477
0.0311238
0.0310297
0.0310684
0.0312484
0.0315937
0.032151
0.0329504
0.0337212
0.0340908
0.0320194
0.0317314
0.0316377
0.0317028
0.0319578
0.0324427
0.0332379
0.0344205
0.0355129
0.0357066
0.0322657
0.0319077
0.0317852
0.0318787
0.0322129
0.0328646
0.0339597
0.0356407
0.0371323
0.0370614
0.0322965
0.0318868
0.0317626
0.031865
0.0322489
0.0330063
0.0342919
0.0363043
0.03797
0.0374714
0.0292487
0.0289014
0.0287878
0.0288757
0.0291805
0.0297855
0.0307817
0.0324814
0.0340715
0.0339826
0.0123555
0.0122178
0.0121935
0.0122089
0.012269
0.0123377
0.0122363
0.0122584
0.0124864
0.0132366
0.00175944
0.00175629
0.00175484
0.00175505
0.00175703
0.0017609
0.001767
0.0017763
0.00179038
0.00180881
0.0018251
0.00182522
0.00182531
0.00182534
0.00182536
0.00182538
0.00182542
0.00182549
0.00182559
0.00182553
0.0134706
0.0134787
0.0134621
0.0134661
0.013492
0.0135309
0.0135805
0.0136406
0.0136936
0.0136991
0.0282776
0.0282185
0.0281865
0.0281833
0.0282161
0.0282842
0.028398
0.0285607
0.0287247
0.0288495
0.0304215
0.0302953
0.0302345
0.0302479
0.0303372
0.0305116
0.0307969
0.031218
0.0316704
0.0319894
0.0309619
0.0307973
0.0307388
0.0307678
0.0309012
0.0311547
0.0315728
0.0322261
0.0329769
0.0334915
0.0312056
0.0309876
0.0309061
0.0309557
0.0311461
0.0315145
0.0321327
0.0331391
0.0343545
0.0352265
0.0312885
0.031025
0.0309405
0.0309976
0.0312297
0.0316814
0.0324406
0.0337123
0.0352701
0.0363598
0.0286603
0.0284271
0.0283473
0.0284009
0.02859
0.0289533
0.0295204
0.0305544
0.0319717
0.0331958
0.0125193
0.0124026
0.0123849
0.0123944
0.0124328
0.0124508
0.0123061
0.012212
0.0122239
0.012524
0.00174356
0.00174078
0.0017395
0.00173972
0.00174152
0.00174496
0.00175026
0.00175799
0.00176867
0.00178145
0.00180734
0.0018075
0.00180759
0.0018076
0.0018076
0.00180758
0.00180756
0.00180757
0.00180761
0.00180749
0.0137797
0.0138033
0.0137965
0.0137985
0.0138146
0.0138417
0.0138784
0.0139235
0.0139602
0.0139458
0.0280339
0.0280051
0.0279872
0.0279818
0.0279946
0.0280265
0.0280847
0.02817
0.028249
0.0282877
0.0298794
0.0298064
0.0297668
0.0297701
0.0298153
0.0299061
0.0300559
0.0302767
0.0305078
0.0306331
0.0302803
0.0301876
0.0301516
0.0301633
0.0302321
0.0303627
0.0305766
0.0309096
0.0313009
0.0315393
0.0304815
0.030352
0.0302991
0.0303243
0.0304305
0.0306336
0.0309676
0.0315036
0.0321906
0.0327183
0.0305681
0.0304029
0.0303468
0.0303772
0.0305142
0.0307764
0.0312033
0.0319068
0.0328457
0.0336409
0.0282726
0.0281204
0.0280662
0.0280973
0.0282096
0.0284146
0.0287104
0.0292557
0.0300921
0.0309715
0.0127529
0.0126524
0.0126402
0.0126458
0.012668
0.0126456
0.0124871
0.0123425
0.0122405
0.0123236
0.00172569
0.00172332
0.00172223
0.00172244
0.00172401
0.00172693
0.00173136
0.00173752
0.0017454
0.00175411
0.00178786
0.00178802
0.0017881
0.00178812
0.00178811
0.00178807
0.00178804
0.00178802
0.00178805
0.00178791
0.0141599
0.0141939
0.0141934
0.014195
0.0142062
0.0142263
0.014255
0.0142914
0.0143194
0.0142937
0.0279799
0.0279665
0.0279567
0.0279524
0.0279582
0.0279759
0.0280115
0.0280666
0.0281162
0.0281291
0.0295843
0.0295407
0.0295147
0.0295145
0.0295389
0.0295896
0.0296749
0.0298028
0.0299356
0.029985
0.0298666
0.0298145
0.0297923
0.0297967
0.0298329
0.0299022
0.0300155
0.030192
0.0304006
0.0304974
0.0300155
0.0299397
0.0299059
0.0299184
0.0299776
0.0300896
0.0302704
0.0305532
0.0309194
0.0311682
0.030084
0.0299819
0.0299453
0.0299609
0.0300416
0.0301929
0.0304314
0.0308092
0.0313177
0.0317154
0.0280601
0.0279631
0.0279275
0.0279448
0.0280084
0.0281145
0.0282559
0.0285205
0.0289502
0.0294015
0.0130607
0.0129723
0.0129652
0.0129681
0.0129779
0.0129261
0.0127729
0.0126183
0.0124719
0.0124874
0.00170577
0.00170383
0.00170293
0.00170313
0.00170444
0.00170682
0.00171037
0.0017151
0.00172076
0.00172659
0.00176659
0.00176674
0.00176682
0.00176683
0.00176682
0.00176679
0.00176675
0.00176673
0.00176676
0.00176663
0.0146067
0.0146491
0.0146533
0.0146551
0.0146634
0.0146788
0.0147018
0.014732
0.0147542
0.0147205
0.0280325
0.028028
0.0280234
0.0280208
0.0280241
0.0280357
0.0280609
0.0281022
0.0281415
0.0281482
0.0294364
0.0294099
0.0293929
0.0293919
0.029406
0.0294362
0.0294887
0.029571
0.0296605
0.0296881
0.0296299
0.0296004
0.0295867
0.0295883
0.0296084
0.0296473
0.0297113
0.0298127
0.0299372
0.0299886
0.0297327
0.0296887
0.0296674
0.0296736
0.0297071
0.02977
0.0298698
0.0300237
0.0302272
0.0303565
0.0297792
0.0297163
0.0296925
0.0297007
0.0297489
0.0298374
0.0299729
0.0301794
0.0304563
0.0306586
0.02799
0.0279296
0.0279072
0.0279164
0.0279499
0.0279969
0.0280574
0.0281766
0.0283847
0.0286167
0.0134473
0.0133683
0.013366
0.013367
0.0133664
0.0132976
0.0131605
0.013018
0.0128661
0.0128772
0.00168378
0.00168225
0.00168153
0.0016817
0.00168276
0.00168462
0.00168736
0.00169087
0.00169484
0.00169867
0.00174345
0.0017436
0.00174367
0.00174367
0.00174367
0.00174364
0.00174361
0.00174359
0.00174362
0.00174349
0.0151246
0.0151743
0.0151826
0.0151849
0.0151912
0.0152031
0.0152217
0.015247
0.0152649
0.0152248
0.0281429
0.0281443
0.0281432
0.0281422
0.0281445
0.0281528
0.028172
0.0282057
0.0282408
0.028247
0.02937
0.0293542
0.0293433
0.0293424
0.0293509
0.0293695
0.0294034
0.0294599
0.0295276
0.0295511
0.029502
0.0294853
0.0294768
0.0294775
0.0294896
0.029513
0.0295516
0.0296144
0.0296973
0.0297367
0.0295706
0.0295453
0.029532
0.0295352
0.0295546
0.0295908
0.0296473
0.0297343
0.0298544
0.0299357
0.0296003
0.0295613
0.0295459
0.0295505
0.0295802
0.0296335
0.029713
0.0298298
0.0299866
0.0301037
0.0280275
0.0279913
0.0279782
0.0279827
0.0279982
0.0280134
0.0280341
0.0280825
0.0281791
0.028314
0.0139187
0.0138477
0.013851
0.0138502
0.0138397
0.0137672
0.0136515
0.0135316
0.0133934
0.0134236
0.00165969
0.00165853
0.00165799
0.00165812
0.00165892
0.00166034
0.00166238
0.0016649
0.00166761
0.00167009
0.00171837
0.00171851
0.00171857
0.00171857
0.00171857
0.00171854
0.00171852
0.00171851
0.00171853
0.00171842
0.0157247
0.0157814
0.0157934
0.0157964
0.0158013
0.0158104
0.0158253
0.0158466
0.015861
0.0158157
0.0282844
0.0282898
0.0282911
0.0282912
0.028293
0.0282993
0.0283144
0.0283427
0.0283756
0.0283836
0.0293455
0.0293365
0.0293299
0.0293292
0.0293342
0.0293457
0.0293677
0.0294078
0.0294621
0.0294873
0.0294367
0.0294273
0.029422
0.0294225
0.0294302
0.0294451
0.0294696
0.0295106
0.0295695
0.0296064
0.0294825
0.029468
0.0294597
0.0294615
0.029473
0.0294943
0.029527
0.0295776
0.0296521
0.0297117
0.0295031
0.0294785
0.0294686
0.0294716
0.0294906
0.0295239
0.0295723
0.0296411
0.0297335
0.0298102
0.0281429
0.0281212
0.0281145
0.0281164
0.028121
0.0281222
0.0281253
0.0281414
0.0281838
0.0282752
0.0144863
0.0144214
0.0144315
0.0144288
0.0144071
0.0143459
0.0142534
0.0141593
0.0140424
0.0140984
0.00163349
0.00163265
0.00163226
0.00163236
0.00163294
0.00163398
0.00163545
0.00163719
0.001639
0.00164059
0.00169127
0.00169139
0.00169145
0.00169145
0.00169145
0.00169143
0.00169141
0.0016914
0.00169142
0.00169132
0.0164251
0.0164888
0.0165042
0.0165079
0.0165118
0.0165187
0.0165302
0.0165478
0.0165593
0.0165096
0.0284421
0.0284502
0.0284531
0.0284539
0.0284555
0.0284602
0.0284721
0.0284961
0.0285275
0.0285384
0.0293401
0.0293356
0.0293319
0.0293314
0.0293342
0.029341
0.029355
0.0293833
0.0294278
0.0294561
0.0294045
0.0293994
0.029396
0.0293965
0.0294016
0.0294115
0.0294275
0.0294547
0.0294976
0.0295331
0.0294359
0.0294277
0.0294226
0.0294236
0.0294305
0.0294432
0.0294625
0.0294923
0.0295398
0.0295868
0.0294544
0.0294386
0.0294321
0.0294343
0.0294469
0.0294686
0.0294991
0.0295409
0.0295969
0.0296506
0.0283111
0.0282956
0.0282934
0.0282937
0.0282929
0.0282903
0.028287
0.0282898
0.0283068
0.0283767
0.0151778
0.0151075
0.0151245
0.0151193
0.015097
0.0150511
0.0149813
0.0149121
0.0148177
0.0148986
0.00160521
0.0016046
0.00160433
0.0016044
0.00160482
0.00160555
0.00160657
0.00160774
0.00160891
0.00160991
0.0016621
0.0016622
0.00166224
0.00166225
0.00166224
0.00166223
0.00166221
0.0016622
0.00166222
0.00166214
0.017252
0.0173227
0.0173412
0.0173458
0.0173488
0.0173537
0.0173622
0.0173762
0.0173848
0.0173314
0.0286078
0.0286174
0.0286211
0.0286223
0.0286236
0.0286273
0.0286365
0.0286564
0.0286861
0.0287011
0.0293419
0.0293402
0.0293383
0.0293379
0.0293393
0.0293429
0.0293514
0.0293709
0.0294068
0.0294379
0.0293882
0.0293855
0.0293833
0.0293837
0.0293871
0.0293937
0.0294042
0.029422
0.0294528
0.0294857
0.0294105
0.0294057
0.0294026
0.0294032
0.0294074
0.029415
0.0294263
0.0294439
0.0294741
0.0295115
0.029431
0.0294206
0.0294164
0.0294182
0.0294268
0.0294412
0.0294609
0.0294869
0.0295209
0.0295588
0.0285105
0.0284972
0.0284965
0.0284964
0.0284951
0.0284923
0.0284881
0.0284866
0.0284919
0.0285491
0.0160228
0.0159455
0.0159595
0.0159558
0.0159405
0.0159091
0.0158604
0.0158134
0.0157397
0.0158411
0.00157482
0.0015744
0.00157421
0.00157427
0.00157455
0.00157505
0.00157573
0.00157649
0.00157722
0.00157784
0.00163082
0.00163091
0.00163094
0.00163095
0.00163094
0.00163093
0.00163092
0.00163091
0.00163092
0.00163084
0.0182431
0.0183209
0.0183421
0.0183473
0.0183497
0.0183527
0.0183584
0.0183686
0.0183741
0.0183173
0.0287756
0.0287858
0.0287895
0.0287907
0.0287919
0.0287946
0.0288015
0.0288174
0.0288446
0.0288641
0.0293446
0.0293444
0.0293436
0.0293433
0.0293438
0.0293455
0.0293501
0.0293627
0.0293901
0.0294222
0.0293778
0.0293764
0.029375
0.0293752
0.0293775
0.0293818
0.0293884
0.0293997
0.0294207
0.029449
0.029394
0.0293911
0.0293892
0.0293895
0.029392
0.0293966
0.0294031
0.0294132
0.0294318
0.0294603
0.0294179
0.0294109
0.0294083
0.0294097
0.0294155
0.0294252
0.0294379
0.029454
0.0294742
0.0294998
0.0287229
0.0287108
0.0287105
0.0287106
0.0287099
0.0287082
0.0287051
0.0287032
0.0287036
0.0287513
0.0170607
0.016978
0.0169871
0.0169857
0.0169774
0.0169592
0.0169296
0.0169014
0.0168457
0.0169617
0.00154235
0.00154208
0.00154195
0.00154199
0.00154218
0.0015425
0.00154294
0.00154341
0.00154386
0.00154423
0.00159755
0.00159762
0.00159764
0.00159765
0.00159764
0.00159763
0.00159762
0.00159761
0.00159761
0.00159754
0.0194538
0.0195387
0.0195617
0.0195672
0.0195688
0.0195703
0.0195734
0.0195798
0.0195813
0.0195202
0.0289398
0.0289493
0.0289525
0.0289536
0.0289544
0.0289564
0.0289614
0.0289732
0.0289964
0.0290199
0.0293452
0.0293456
0.0293455
0.0293454
0.0293454
0.0293459
0.0293479
0.0293551
0.029374
0.0294036
0.0293681
0.0293674
0.0293664
0.0293665
0.029368
0.0293706
0.0293745
0.0293811
0.0293943
0.029416
0.0293796
0.0293778
0.0293766
0.0293768
0.0293782
0.0293808
0.0293845
0.0293899
0.0294005
0.0294204
0.0294052
0.0294006
0.029399
0.0294001
0.029404
0.0294102
0.0294181
0.0294277
0.0294391
0.0294549
0.0289308
0.0289201
0.02892
0.0289202
0.0289202
0.0289198
0.0289183
0.0289172
0.0289157
0.0289547
0.0183492
0.0182634
0.018267
0.0182677
0.0182657
0.0182595
0.0182476
0.0182352
0.0181958
0.0183188
0.0015079
0.00150773
0.00150764
0.00150767
0.00150779
0.00150799
0.00150826
0.00150854
0.00150881
0.00150902
0.00156253
0.0015626
0.00156262
0.00156262
0.00156262
0.00156261
0.0015626
0.00156258
0.00156257
0.00156251
0.0209689
0.0210601
0.0210831
0.0210884
0.0210895
0.0210898
0.0210909
0.0210934
0.0210896
0.0210214
0.0290923
0.0290998
0.029102
0.0291026
0.0291032
0.0291046
0.0291079
0.029116
0.0291339
0.0291586
0.0293424
0.029343
0.0293433
0.0293432
0.0293431
0.0293431
0.0293437
0.0293469
0.0293576
0.02938
0.0293567
0.0293563
0.0293557
0.0293558
0.0293566
0.0293581
0.0293603
0.0293637
0.0293707
0.0293846
0.0293642
0.0293632
0.0293626
0.0293626
0.0293634
0.0293648
0.0293667
0.0293693
0.0293745
0.0293861
0.0293868
0.029384
0.0293831
0.0293838
0.0293862
0.02939
0.0293945
0.0293996
0.0294053
0.0294139
0.0291146
0.0291059
0.0291058
0.0291062
0.0291066
0.0291069
0.0291066
0.0291064
0.0291045
0.0291343
0.0199728
0.019887
0.019884
0.0198859
0.0198899
0.0198954
0.0199011
0.0199031
0.0198806
0.02
0.00147165
0.00147155
0.0014715
0.00147151
0.00147159
0.00147171
0.00147187
0.00147203
0.0014722
0.00147231
0.00152606
0.00152611
0.00152612
0.00152612
0.00152612
0.00152611
0.00152611
0.0015261
0.00152609
0.00152605
0.0229253
0.0230194
0.0230401
0.0230446
0.0230454
0.0230451
0.0230445
0.0230434
0.0230334
0.0229542
0.0292209
0.0292252
0.029226
0.0292261
0.0292265
0.0292275
0.0292297
0.0292348
0.0292466
0.0292679
0.0293366
0.029337
0.0293373
0.0293374
0.0293374
0.0293373
0.0293373
0.0293383
0.0293426
0.0293546
0.0293442
0.0293439
0.0293436
0.0293437
0.0293442
0.029345
0.0293461
0.0293477
0.0293506
0.029357
0.0293483
0.0293478
0.0293475
0.0293476
0.029348
0.0293487
0.0293496
0.0293507
0.0293526
0.0293576
0.0293615
0.02936
0.0293596
0.02936
0.0293614
0.0293633
0.0293656
0.029368
0.0293703
0.0293741
0.0292526
0.0292464
0.0292463
0.0292465
0.0292469
0.0292473
0.0292474
0.0292475
0.0292462
0.0292662
0.0220874
0.0220082
0.0220059
0.0220075
0.0220105
0.0220146
0.0220188
0.0220217
0.0220224
0.0221237
0.00143377
0.0014337
0.00143367
0.00143368
0.00143373
0.0014338
0.0014339
0.001434
0.00143412
0.00143418
0.00148734
0.00148733
0.00148732
0.00148731
0.00148731
0.00148731
0.00148732
0.00148734
0.00148736
0.00148739
0.0255673
0.0256497
0.0256644
0.0256676
0.0256682
0.0256677
0.0256663
0.0256631
0.0256498
0.0255653
0.0293123
0.0293128
0.0293122
0.0293118
0.029312
0.0293128
0.0293143
0.0293174
0.0293239
0.0293375
0.0293296
0.0293297
0.0293298
0.0293299
0.02933
0.0293301
0.0293303
0.0293307
0.0293318
0.0293351
0.0293333
0.029333
0.0293328
0.0293329
0.0293332
0.0293338
0.0293345
0.0293353
0.0293365
0.0293384
0.0293346
0.0293343
0.0293341
0.0293342
0.0293345
0.029335
0.0293356
0.0293363
0.029337
0.0293384
0.0293364
0.0293357
0.0293355
0.0293358
0.0293365
0.0293376
0.0293388
0.02934
0.029341
0.0293423
0.0293319
0.0293282
0.0293279
0.0293279
0.029328
0.0293281
0.0293282
0.0293285
0.0293289
0.0293395
0.025007
0.0249473
0.024946
0.024947
0.024949
0.0249517
0.0249544
0.0249561
0.0249562
0.0250336
0.0013935
0.00139344
0.00139342
0.00139343
0.00139347
0.00139353
0.00139361
0.00139369
0.00139377
0.00139382
0.00234019
0.00236043
0.00235026
0.00231727
0.00141226
0.00143223
0.00142868
0.00142633
0.00188184
0.00192036
0.00190966
0.0018862
0.00226316
0.00231743
0.00229599
0.00224931
0.00260899
0.00267594
0.00264195
0.00257498
0.00294948
0.00302725
0.00298859
0.00291361
0.00322861
0.00331448
0.00327497
0.00319886
0.00339233
0.00348462
0.00344851
0.00337602
0.00302724
0.00311327
0.00308006
0.00302071
0.00237211
0.00238926
0.00235762
0.00227952
0.0020286
0.00203365
0.00203453
0.00203174
0.0024089
0.0024772
0.00237076
0.00217851
0.00335307
0.00345651
0.00331918
0.00307774
0.00410373
0.00426199
0.00409589
0.00379106
0.00489189
0.00511644
0.00491144
0.00452321
0.00589333
0.0062038
0.00594923
0.00544357
0.00687008
0.00726228
0.00694782
0.00632427
0.00756819
0.00803768
0.00766904
0.00694489
0.00599368
0.00640174
0.00604423
0.00541972
0.00218665
0.00221907
0.002213
0.00217782
0.00193413
0.0019359
0.00193588
0.00193461
0.00417431
0.00412918
0.00412213
0.00420498
0.00505501
0.00501995
0.00502145
0.00511429
0.00551877
0.00552929
0.00553228
0.005571
0.00603047
0.00607824
0.00606304
0.00601008
0.00680368
0.00689258
0.00682318
0.00662513
0.0075929
0.00770416
0.00755683
0.00719838
0.00816327
0.00830484
0.00808117
0.00756255
0.00625217
0.00637015
0.00615996
0.00566355
0.00205534
0.00207257
0.00207085
0.00205344
0.0018963
0.0018964
0.00189643
0.00189641
0.0104209
0.0101184
0.0102321
0.0107312
0.0121047
0.0117442
0.0120227
0.0128992
0.0114927
0.0113009
0.0116565
0.0125397
0.0111043
0.0110409
0.0114254
0.0122542
0.0112377
0.0112766
0.0116427
0.0123715
0.0114699
0.0115647
0.0118752
0.0124655
0.0114775
0.0116404
0.0118775
0.0122684
0.0081708
0.00833746
0.008427
0.00848268
0.00196592
0.00197648
0.00197763
0.00197005
0.00187544
0.00187542
0.0018754
0.00187535
0.0146544
0.0145786
0.0145893
0.0146825
0.0241132
0.023773
0.0239358
0.024531
0.0224047
0.0221037
0.022439
0.0233413
0.0204567
0.020276
0.0207496
0.021855
0.0193866
0.0193563
0.0199238
0.021142
0.0185963
0.0186692
0.0192612
0.0204972
0.0174799
0.0176823
0.0182339
0.0193087
0.0110508
0.0112751
0.0115009
0.0118463
0.00190403
0.00191062
0.00191227
0.00190921
0.00185856
0.00185849
0.00185843
0.00185838
0.014244
0.0141624
0.014141
0.0141825
0.0307327
0.0306106
0.0306124
0.0307277
0.0320538
0.031803
0.0318726
0.0322206
0.0306115
0.0303134
0.0305239
0.0311732
0.029172
0.0289432
0.0293358
0.0302851
0.0276001
0.0274622
0.0279937
0.0291723
0.0249946
0.0250467
0.0256239
0.0267722
0.0133581
0.0135805
0.0137507
0.0139292
0.00185707
0.00186108
0.00186253
0.00186146
0.00184241
0.00184232
0.00184225
0.0018422
0.0139159
0.0138229
0.0137987
0.0138434
0.0302783
0.0302715
0.0302664
0.0302642
0.0340074
0.0339982
0.0340089
0.0340379
0.0350945
0.0350307
0.0350752
0.0352163
0.0356081
0.0355011
0.0356319
0.035969
0.0349752
0.0348378
0.0350791
0.0356518
0.0314159
0.0314244
0.031753
0.032372
0.0135031
0.0137659
0.0138212
0.0137217
0.0018194
0.00182186
0.00182295
0.00182266
0.00182555
0.00182544
0.00182537
0.00182534
0.0139772
0.0138801
0.0138561
0.0139041
0.0289536
0.0289425
0.0289337
0.028928
0.0321061
0.0321234
0.0321243
0.03211
0.0336275
0.0336564
0.0336733
0.0336803
0.035371
0.035421
0.0354712
0.0355241
0.0362497
0.0362858
0.0363689
0.0364987
0.032983
0.0331116
0.0332412
0.0333738
0.0125624
0.0128084
0.0128455
0.0127136
0.00178699
0.00178855
0.0017893
0.00178923
0.00180745
0.00180732
0.00180725
0.00180723
0.014226
0.0141266
0.0141027
0.014153
0.0283598
0.0283455
0.0283374
0.0283356
0.0306695
0.0306703
0.0306642
0.0306515
0.0315928
0.0315996
0.0316005
0.0315966
0.0328826
0.0329178
0.0329391
0.032949
0.0338274
0.0338783
0.0339163
0.0339469
0.0311255
0.031264
0.0313313
0.0313358
0.0121075
0.0123275
0.0123686
0.0122522
0.00175711
0.00175816
0.00175865
0.0017586
0.00178783
0.00178768
0.00178761
0.00178761
0.0145788
0.0144766
0.0144524
0.0145044
0.0281916
0.028178
0.0281717
0.0281725
0.0299871
0.029982
0.0299748
0.0299655
0.0304865
0.0304795
0.0304738
0.0304702
0.0312024
0.0312067
0.0312106
0.0312156
0.0317424
0.0317519
0.0317643
0.0317824
0.0293775
0.0294634
0.0295015
0.0294947
0.012168
0.0123864
0.0124289
0.0123097
0.00172826
0.00172901
0.00172932
0.00172924
0.00176652
0.00176635
0.00176628
0.0017663
0.0150114
0.0149058
0.0148807
0.0149343
0.0282066
0.0281943
0.0281892
0.0281911
0.0296815
0.0296757
0.029669
0.0296617
0.0299657
0.0299568
0.0299502
0.0299466
0.0303474
0.0303417
0.0303394
0.0303419
0.0306204
0.0306132
0.0306143
0.0306255
0.028506
0.028563
0.0285854
0.0285747
0.0125216
0.0127538
0.0127978
0.0126674
0.0016996
0.00170017
0.00170037
0.00170026
0.00174338
0.0017432
0.00174313
0.00174318
0.0155224
0.0154124
0.015386
0.0154415
0.0283014
0.0282898
0.0282852
0.0282872
0.0295431
0.0295375
0.0295314
0.0295252
0.029718
0.0297106
0.0297046
0.0297008
0.0299219
0.0299155
0.0299118
0.0299126
0.0300625
0.0300539
0.0300516
0.0300575
0.0281937
0.0282409
0.0282566
0.0282421
0.0130518
0.0133045
0.0133514
0.0132075
0.00167059
0.00167104
0.00167117
0.00167104
0.00171832
0.00171814
0.00171807
0.00171813
0.0161212
0.0160058
0.0159778
0.0160354
0.0284328
0.0284216
0.0284168
0.0284184
0.0294796
0.0294743
0.0294686
0.029463
0.0295949
0.0295895
0.0295843
0.0295804
0.0297036
0.0296988
0.0296955
0.0296951
0.0297822
0.0297764
0.0297739
0.0297762
0.0281704
0.0282144
0.0282274
0.0282105
0.0137134
0.0139896
0.0140403
0.0138821
0.00164082
0.00164121
0.0016413
0.00164115
0.00169126
0.00169107
0.00169101
0.00169108
0.0168251
0.0167034
0.0166734
0.0167334
0.0285816
0.0285704
0.0285652
0.0285663
0.0294498
0.0294449
0.0294395
0.0294346
0.0295287
0.0295251
0.0295208
0.0295168
0.0295859
0.0295831
0.0295805
0.0295794
0.0296362
0.0296336
0.0296316
0.0296317
0.0282923
0.0283348
0.0283464
0.0283282
0.0144978
0.0147994
0.0148543
0.0146812
0.00161
0.00161033
0.00161039
0.00161023
0.00166214
0.00166195
0.00166189
0.00166197
0.01766
0.0175308
0.0174984
0.0175616
0.0287378
0.0287267
0.0287211
0.0287216
0.0294343
0.0294301
0.0294252
0.029421
0.0294875
0.0294856
0.0294821
0.0294784
0.0295167
0.0295158
0.029514
0.0295124
0.0295538
0.0295534
0.0295522
0.0295511
0.0284847
0.0285253
0.0285359
0.0285171
0.0154196
0.0157484
0.0158077
0.0156189
0.00157784
0.00157814
0.00157818
0.00157802
0.00163093
0.00163075
0.00163069
0.00163077
0.0186632
0.018525
0.0184898
0.018557
0.0288947
0.0288839
0.0288781
0.0288784
0.0294229
0.0294198
0.0294158
0.0294124
0.0294558
0.0294553
0.0294528
0.0294494
0.0294699
0.0294704
0.0294692
0.0294674
0.0294995
0.0295002
0.0294996
0.0294983
0.0287058
0.028744
0.0287532
0.0287344
0.0165127
0.016871
0.0169348
0.0167291
0.00154419
0.00154445
0.00154448
0.00154433
0.00159772
0.00159755
0.0015975
0.00159758
0.0198883
0.0197387
0.0197003
0.0197731
0.0290463
0.0290366
0.0290311
0.0290313
0.0294091
0.0294076
0.0294048
0.0294024
0.0294258
0.0294264
0.0294248
0.0294219
0.0294316
0.0294329
0.0294323
0.0294303
0.0294552
0.029456
0.0294558
0.0294549
0.0289276
0.0289625
0.0289702
0.0289516
0.0178327
0.0182219
0.0182897
0.0180666
0.00150897
0.0015092
0.00150921
0.00150908
0.00156278
0.00156263
0.00156259
0.00156266
0.0214158
0.021251
0.0212088
0.0212894
0.0291836
0.0291761
0.0291714
0.0291713
0.0293891
0.0293891
0.0293877
0.0293861
0.0293944
0.0293955
0.0293946
0.0293923
0.0293959
0.0293973
0.0293969
0.0293951
0.0294125
0.0294127
0.0294127
0.0294126
0.0291246
0.0291554
0.0291614
0.0291435
0.0194615
0.0198772
0.0199475
0.0197096
0.00147228
0.00147247
0.00147248
0.00147237
0.00152642
0.00152629
0.00152625
0.00152632
0.0233714
0.0231846
0.0231383
0.0232307
0.0292915
0.0292868
0.029283
0.029282
0.0293623
0.029363
0.0293626
0.0293617
0.0293631
0.0293638
0.0293632
0.0293618
0.029363
0.0293638
0.0293635
0.0293624
0.029371
0.0293704
0.0293704
0.0293709
0.0292707
0.0292955
0.0292994
0.0292838
0.0215701
0.0220178
0.0220851
0.0218225
0.00143427
0.00143443
0.00143444
0.00143435
0.00148784
0.00148775
0.00148773
0.00148779
0.0259552
0.025744
0.0256976
0.0258064
0.0293524
0.0293496
0.0293464
0.0293448
0.0293368
0.0293367
0.0293365
0.0293366
0.0293392
0.0293389
0.0293385
0.0293383
0.0293394
0.0293393
0.029339
0.0293388
0.0293393
0.0293382
0.0293381
0.0293389
0.0293486
0.029363
0.0293648
0.0293552
0.0245567
0.0249808
0.0250308
0.0247729
0.00139419
0.00139432
0.00139432
0.00139423
0.00215605
0.00203826
0.00197315
0.00194067
0.00192157
0.00190913
0.00190087
0.00189548
0.00189216
0.00188995
0.00177507
0.00162164
0.00478239
0.00941563
0.0139173
0.0170795
0.0185367
0.0186185
0.0179212
0.0169417
0.00237931
0.00265042
0.00732954
0.0154727
0.024828
0.032946
0.0389619
0.0427875
0.044651
0.0450082
0.00277519
0.00377053
0.00834099
0.0178229
0.029082
0.0384607
0.0449836
0.0487171
0.0501082
0.0498552
0.0030802
0.00398155
0.00883545
0.019455
0.0321094
0.0419808
0.0481622
0.0509496
0.0511572
0.049868
0.00340403
0.00412622
0.00911907
0.0206159
0.0343532
0.0443456
0.049875
0.0515662
0.0506781
0.0485704
0.00365822
0.00417509
0.009243
0.021466
0.0360122
0.0457501
0.0503343
0.0508571
0.04905
0.0464785