/*--------------------------------*- C++ -*----------------------------------*\
| =========                 |                                                 |
| \\      /  F ield         | foam-extend: Open Source CFD                    |
|  \\    /   O peration     | Version:     4.0                                |
|   \\  /    A nd           | Web:         http://www.foam-extend.org         |
|    \\/     M anipulation  |                                                 |
\*---------------------------------------------------------------------------*/
FoamFile
{
    version     2.0;
    format      ascii;
    class       surfaceScalarField;
    location    "650";
    object      phi;
}
// * * * * * * * * * * * * * * * * * * * * * * * * * * * * * * * * * * * * * //

dimensions      [1 0 -1 0 0 0 0];

internalField   nonuniform List<scalar> 
97302
(
-0.000109936
6.76324e-07
-0.00086304
0.000872376
-0.000119544
8.6676e-07
-0.000864207
0.000872948
-0.000129279
9.42601e-07
-0.000864809
0.000873602
-0.000139719
9.05305e-07
-0.0008649
0.000874434
-0.000151692
7.45132e-07
-0.000864499
0.000875727
-0.000166675
4.487e-07
-0.000863406
0.00087794
-0.000187734
-1.4396e-08
-0.00086102
0.000882093
-0.000221795
-6.92638e-07
-0.0008555
0.000890254
-0.000269959
-1.70501e-06
-0.000845692
0.00089556
-4.39392e-06
-0.000817735
-0.000350972
0.000903142
-0.000151048
1.00372e-06
-0.00115453
0.00116463
-0.000161007
1.37176e-06
-0.00115602
0.00116548
-0.000171063
1.53413e-06
-0.0011569
0.00116636
-0.000181764
1.49623e-06
-0.0011571
0.00116721
-0.000193919
1.23813e-06
-0.00115647
0.00116813
-0.000209246
7.40944e-07
-0.00115466
0.0011697
-0.000231554
-6.07805e-08
-0.0011513
0.00117365
-0.000270127
-1.26941e-06
-0.00114468
0.00118383
-0.000326392
-3.17951e-06
-0.00113229
0.00119002
-7.65765e-06
-0.0010939
-0.000429964
0.00120074
-0.00019121
1.12e-06
-0.00144483
0.00145537
-0.000201349
1.63832e-06
-0.00144661
0.00145648
-0.000211495
1.88595e-06
-0.00144774
0.00145753
-0.000222173
1.87848e-06
-0.00144797
0.00145827
-0.000234341
1.59176e-06
-0.00144707
0.00145888
-0.000250139
1.00762e-06
-0.00144492
0.00146045
-0.000273987
4.08501e-08
-0.00144156
0.00146531
-0.000316893
-1.41637e-06
-0.00143546
0.00147851
-0.000379874
-3.8115e-06
-0.00142254
0.00148616
-9.53824e-06
-0.00137397
-0.000498217
0.00149419
-0.0002315
1.20294e-06
-0.00173269
0.00174356
-0.000241929
1.89004e-06
-0.00173483
0.00174501
-0.00025237
2.23118e-06
-0.00173638
0.00174648
-0.000263372
2.27044e-06
-0.001737
0.00174761
-0.000275963
1.97735e-06
-0.00173646
0.00174866
-0.000292473
1.3387e-06
-0.00173474
0.00175092
-0.000317654
2.48209e-07
-0.00173189
0.00175686
-0.000363827
-1.39733e-06
-0.00172637
0.00177252
-0.000431688
-4.2064e-06
-0.00171336
0.00178162
-1.11331e-05
-0.00165439
-0.000559174
0.00178347
-0.000271878
1.40547e-06
-0.00202187
0.00203288
-0.000282504
2.18528e-06
-0.00202451
0.00203484
-0.000293134
2.56892e-06
-0.0020267
0.00203699
-0.000304343
2.6249e-06
-0.00202792
0.00203878
-0.000317231
2.32473e-06
-0.00202806
0.0020406
-0.000334248
1.6604e-06
-0.00202713
0.00204382
-0.000360453
5.12688e-07
-0.00202509
0.00205103
-0.00040925
-1.21671e-06
-0.00202049
0.00206911
-0.000481211
-4.29507e-06
-0.00200821
0.00208026
-1.23447e-05
-0.00193812
-0.000614618
0.00207274
-0.000312972
1.55224e-06
-0.00230975
0.00232102
-0.000323746
2.3685e-06
-0.00231293
0.00232352
-0.000334471
2.73155e-06
-0.0023156
0.00232616
-0.000345747
2.75135e-06
-0.00231732
0.00232847
-0.00035873
2.41228e-06
-0.00231808
0.00233097
-0.000375956
1.72192e-06
-0.00231803
0.00233519
-0.000402775
5.60999e-07
-0.00231711
0.00234388
-0.000453516
-1.15058e-06
-0.0023139
0.00236457
-0.000528923
-4.24943e-06
-0.00230354
0.0023789
-1.31626e-05
-0.00222201
-0.000666477
0.00236038
-0.000354031
1.67874e-06
-0.00259752
0.00260888
-0.000364786
2.40486e-06
-0.00260134
0.00261206
-0.000375447
2.68077e-06
-0.00260459
0.0026153
-0.000386618
2.5987e-06
-0.00260679
0.00261812
-0.000399513
2.1737e-06
-0.00260819
0.00262133
-0.000416701
1.41526e-06
-0.00260911
0.0026266
-0.000443804
2.62632e-07
-0.00260958
0.00263698
-0.00049587
-1.31368e-06
-0.00260837
0.0026606
-0.000574088
-3.97833e-06
-0.0026012
0.00267915
-1.30718e-05
-0.00250806
-0.000713983
0.00264786
-0.000396357
1.53112e-06
-0.00288582
0.00289761
-0.000407205
2.06095e-06
-0.0028903
0.00290149
-0.000417885
2.13156e-06
-0.00289363
0.00290486
-0.000428997
1.82371e-06
-0.00289575
0.00290764
-0.000441718
1.18601e-06
-0.00289707
0.00291077
-0.000458564
2.39952e-07
-0.00289826
0.00291628
-0.00048532
-9.75078e-07
-0.0028997
0.0029277
-0.000537529
-2.3979e-06
-0.00290041
0.00295371
-0.000617182
-4.05524e-06
-0.0028973
0.00297702
-1.19968e-05
-0.00279438
-0.000757679
0.0029338
-0.000437879
8.40623e-07
-0.00317008
0.00318201
-0.000448385
9.6269e-07
-0.00317565
0.00318726
-0.000458756
6.95795e-07
-0.00317968
0.00319149
-0.000469617
-2.14708e-08
-0.00318244
0.00319514
-0.000482152
-1.06419e-06
-0.00318453
0.00319932
-0.000498777
-2.3907e-06
-0.00318684
0.00320609
-0.000525309
-3.80486e-06
-0.00319004
0.0032194
-0.000577164
-5.03031e-06
-0.00319371
0.0032482
-0.000656613
-5.32717e-06
-0.00319398
0.0032747
-1.00013e-05
-0.00308096
-0.000794508
0.00321686
-0.000479664
-0.00343575
0.00344831
-0.000490833
-0.00344096
0.00345309
-0.000501839
-0.00344275
0.00345445
-0.000513328
-0.00344109
0.00345256
-0.00052634
-0.00343692
0.00344887
-0.000543037
-0.00343163
0.00344594
-0.000568737
-0.0034267
0.00344859
-0.000617789
-0.00342396
0.00346798
-0.000690848
-0.00342494
0.00349267
-0.00332195
-0.000820964
0.00344207
1.44458e-05
6.00649e-07
-0.000854483
5.53724e-06
8.22184e-07
-0.000856121
-3.41599e-06
9.17128e-07
-0.000856773
-1.26037e-05
8.81415e-07
-0.000856593
-2.22325e-05
7.04478e-07
-0.000855575
-3.25331e-05
3.65045e-07
-0.000853471
-4.36684e-05
-1.74216e-07
-0.00084971
-5.50659e-05
-9.97005e-07
-0.000843106
-6.59034e-05
-2.30146e-06
-0.000832553
-4.02494e-06
-0.000815811
-6.38025e-05
1.54725e-05
8.85792e-07
-0.00114465
5.74509e-06
1.29938e-06
-0.00114677
-4.00475e-06
1.49386e-06
-0.00114772
-1.41044e-05
1.46751e-06
-0.00114759
-2.483e-05
1.19405e-06
-0.00114624
-3.65599e-05
6.43665e-07
-0.00114321
-5.01423e-05
-2.54599e-07
-0.00113763
-6.66331e-05
-1.62778e-06
-0.00112756
-8.74165e-05
-3.86585e-06
-0.00110994
-6.86936e-06
-0.00108019
-9.82845e-05
1.7114e-05
1.00291e-06
-0.00143406
6.78615e-06
1.58166e-06
-0.00143657
-3.51534e-06
1.87215e-06
-0.00143781
-1.41326e-05
1.88444e-06
-0.00143777
-2.54202e-05
1.58029e-06
-0.00143617
-3.81347e-05
9.2613e-07
-0.00143248
-5.40322e-05
-1.81552e-07
-0.00142574
-7.58579e-05
-1.87838e-06
-0.00141338
-0.000107715
-4.75787e-06
-0.0013898
-8.82582e-06
-0.00134585
-0.000133881
1.86812e-05
1.09153e-06
-0.00172132
7.86064e-06
1.86141e-06
-0.00172429
-2.94449e-06
2.25866e-06
-0.00172596
-1.414e-05
2.32839e-06
-0.00172625
-2.62013e-05
2.02295e-06
-0.00172484
-4.01431e-05
1.31163e-06
-0.00172118
-5.82857e-05
4.88132e-08
-0.00171398
-8.48004e-05
-1.89351e-06
-0.00169984
-0.000127326
-5.32849e-06
-0.00167027
-1.04164e-05
-0.0016105
-0.000169623
2.0142e-05
1.30132e-06
-0.00201014
8.98042e-06
2.17902e-06
-0.00201367
-2.15486e-06
2.62821e-06
-0.00201594
-1.37305e-05
2.7236e-06
-0.00201674
-2.63604e-05
2.41811e-06
-0.00201583
-4.12467e-05
1.68493e-06
-0.00201261
-6.11859e-05
3.39052e-07
-0.00200545
-9.16837e-05
-1.74016e-06
-0.00199015
-0.000144421
-5.56411e-06
-0.00195523
-1.15382e-05
-0.00187868
-0.000202742
2.11476e-05
1.47982e-06
-0.00229759
9.72031e-06
2.4087e-06
-0.00230173
-1.61441e-06
2.84762e-06
-0.00230448
-1.33808e-05
2.9186e-06
-0.00230575
-2.63168e-05
2.58543e-06
-0.00230531
-4.17925e-05
1.83801e-06
-0.00230271
-6.3051e-05
4.72094e-07
-0.00229598
-9.6813e-05
-1.62198e-06
-0.00228025
-0.000159199
-5.55766e-06
-0.00224116
-1.22069e-05
-0.00214758
-0.000232966
2.17755e-05
1.60474e-06
-0.00258507
1.02803e-05
2.44561e-06
-0.00258988
-1.06412e-06
2.80369e-06
-0.0025932
-1.27959e-05
2.78498e-06
-0.00259493
-2.57885e-05
2.39561e-06
-0.00259501
-4.15314e-05
1.61791e-06
-0.00259314
-6.3672e-05
2.70271e-07
-0.00258724
-0.000100013
-1.75661e-06
-0.00257189
-0.000171294
-5.38171e-06
-0.0025301
-1.2331e-05
-0.00241959
-0.000259634
2.16579e-05
1.4983e-06
-0.0028729
1.00703e-05
2.14597e-06
-0.00287841
-1.2257e-06
2.32772e-06
-0.00288186
-1.28108e-05
2.13311e-06
-0.00288351
-2.56186e-05
1.60465e-06
-0.00288347
-4.12191e-05
7.28887e-07
-0.00288177
-6.35836e-05
-5.80165e-07
-0.00287649
-0.000101392
-2.44229e-06
-0.00286192
-0.000180238
-5.14305e-06
-0.00281869
-1.17476e-05
-0.00269244
-0.000282762
2.13104e-05
8.27847e-07
-0.00315686
1.00976e-05
1.03424e-06
-0.00316333
-7.7885e-07
9.04085e-07
-0.00316738
-1.19065e-05
3.41222e-07
-0.00316952
-2.4357e-05
-5.15789e-07
-0.00316996
-3.98183e-05
-1.66254e-06
-0.00316898
-6.25009e-05
-3.03218e-06
-0.00316491
-0.000101614
-4.61562e-06
-0.00315243
-0.000186494
-5.98167e-06
-0.00310826
-9.8506e-06
-0.00296393
-0.000305423
2.01758e-05
-0.00342216
8.66781e-06
-0.00342842
-2.2973e-06
-0.00343088
-1.33732e-05
-0.00342967
-2.55109e-05
-0.0034253
-4.03723e-05
-0.00341844
-6.2019e-05
-0.00340808
-9.98966e-05
-0.0033907
-0.000186219
-0.0033446
-0.00319423
-0.000323797
1.20839e-05
4.83182e-07
-0.000847667
4.61562e-06
7.19646e-07
-0.000849372
-2.99165e-06
8.20893e-07
-0.000849987
-1.06521e-05
7.76166e-07
-0.000849709
-1.82495e-05
5.78043e-07
-0.000848556
-2.55478e-05
2.08e-07
-0.00084638
-3.20045e-05
-3.58473e-07
-0.000842895
-3.63189e-05
-1.16394e-06
-0.000837627
-3.65962e-05
-2.29563e-06
-0.00082998
-3.53728e-06
-0.000819845
-2.90249e-05
1.39296e-05
7.28932e-07
-0.00113607
5.14887e-06
1.16538e-06
-0.00113844
-3.72764e-06
1.36709e-06
-0.00113939
-1.27986e-05
1.32562e-06
-0.00113907
-2.208e-05
1.01563e-06
-0.00113739
-3.14355e-05
4.06321e-07
-0.00113406
-4.04795e-05
-5.63369e-07
-0.00112839
-4.80731e-05
-1.97712e-06
-0.00111915
-5.17583e-05
-4.0562e-06
-0.00110449
-6.4248e-06
-0.00108428
-4.47825e-05
1.63184e-05
8.80014e-07
-0.00142411
6.4626e-06
1.48956e-06
-0.00142703
-3.4525e-06
1.78892e-06
-0.00142832
-1.36302e-05
1.78174e-06
-0.00142805
-2.41788e-05
1.42643e-06
-0.00142603
-3.51835e-05
6.79036e-07
-0.00142175
-4.67784e-05
-5.66651e-07
-0.00141414
-5.85265e-05
-2.42433e-06
-0.00140118
-6.80593e-05
-5.31654e-06
-0.001379
-8.80082e-06
-0.00134615
-6.53749e-05
1.83033e-05
1.0191e-06
-0.00171045
7.65967e-06
1.83229e-06
-0.00171399
-3.05405e-06
2.24241e-06
-0.0017157
-1.41548e-05
2.29089e-06
-0.00171566
-2.59023e-05
1.92494e-06
-0.00171359
-3.86518e-05
1.09807e-06
-0.00170885
-5.2988e-05
-3.51139e-07
-0.00169986
-6.91645e-05
-2.56184e-06
-0.00168352
-8.5572e-05
-6.22338e-06
-0.00165295
-1.08473e-05
-0.00160474
-8.92826e-05
2.00425e-05
1.27505e-06
-0.00199865
8.85049e-06
2.20449e-06
-0.00200285
-2.3914e-06
2.6725e-06
-0.00200512
-1.41074e-05
2.75007e-06
-0.00200549
-2.67369e-05
2.3838e-06
-0.00200365
-4.0893e-05
1.52691e-06
-0.00199889
-5.76242e-05
-3.78309e-08
-0.00198903
-7.80149e-05
-2.48161e-06
-0.00196984
-0.000101995
-6.77456e-06
-0.0019307
-1.24594e-05
-0.00186515
-0.000113915
2.1279e-05
1.50207e-06
-0.0022855
9.67569e-06
2.48895e-06
-0.00229041
-1.90908e-06
2.9537e-06
-0.00229318
-1.39925e-05
3.01675e-06
-0.00229393
-2.71759e-05
2.63027e-06
-0.00229237
-4.2331e-05
1.76253e-06
-0.00228779
-6.10107e-05
1.66526e-07
-0.00227751
-8.52479e-05
-2.35189e-06
-0.00225615
-0.000117288
-6.97747e-06
-0.00220892
-1.35328e-05
-0.00212488
-0.000138914
2.20511e-05
1.64907e-06
-0.00257254
1.02881e-05
2.54865e-06
-0.00257818
-1.39156e-06
2.94035e-06
-0.00258151
-1.35489e-05
2.92924e-06
-0.00258268
-2.69572e-05
2.51254e-06
-0.00258148
-4.27105e-05
1.65476e-06
-0.00257728
-6.28742e-05
1.12759e-07
-0.00256702
-9.04602e-05
-2.35752e-06
-0.0025443
-0.000130632
-6.90087e-06
-0.00249
-1.4079e-05
-0.002387
-0.000162681
2.2023e-05
1.55561e-06
-0.00285986
1.01476e-05
2.25638e-06
-0.00286624
-1.50039e-06
2.48855e-06
-0.00286976
-1.35417e-05
2.34364e-06
-0.00287089
-2.685e-05
1.84728e-06
-0.00286949
-4.27176e-05
9.70089e-07
-0.00286522
-6.37052e-05
-4.3552e-07
-0.00285495
-9.37624e-05
-2.64965e-06
-0.00283157
-0.000141512
-6.32534e-06
-0.00277151
-1.36452e-05
-0.00264981
-0.000184569
2.1585e-05
9.03846e-07
-0.00314348
1.00785e-05
1.14288e-06
-0.00315071
-1.1417e-06
1.09593e-06
-0.00315477
-1.26857e-05
6.47925e-07
-0.00315628
-2.55752e-05
-7.16354e-08
-0.00315516
-4.13487e-05
-1.07166e-06
-0.00315117
-6.31019e-05
-2.33696e-06
-0.00314125
-9.56104e-05
-4.01067e-06
-0.00311856
-0.000149835
-6.20122e-06
-0.00305416
-1.13273e-05
-0.00291109
-0.000204991
2.04352e-05
-0.00340854
8.81039e-06
-0.00341565
-2.33421e-06
-0.00341864
-1.36814e-05
-0.00341768
-2.61399e-05
-0.00341291
-4.12614e-05
-0.00340439
-6.21919e-05
-0.00338949
-9.46026e-05
-0.0033623
-0.000151662
-0.00329374
-0.00313713
-0.000220089
9.39715e-06
3.13081e-07
-0.000842653
3.62594e-06
5.52846e-07
-0.000844154
-2.34857e-06
6.57165e-07
-0.000844669
-8.25617e-06
6.08447e-07
-0.00084441
-1.37957e-05
4.04263e-07
-0.00084342
-1.85506e-05
3.31368e-08
-0.000841658
-2.18831e-05
-5.14258e-07
-0.000839048
-2.27524e-05
-1.24384e-06
-0.000835514
-1.9563e-05
-2.15467e-06
-0.000831015
-3.00526e-06
-0.000825693
-1.07099e-05
1.17734e-05
4.93112e-07
-0.00112912
4.35324e-06
9.39713e-07
-0.00113141
-3.23016e-06
1.14418e-06
-0.0011323
-1.08461e-05
1.09045e-06
-0.00113193
-1.82867e-05
7.57775e-07
-0.00113031
-2.51755e-05
1.22835e-07
-0.00112726
-3.07663e-05
-8.51894e-07
-0.00112246
-3.35455e-05
-2.19741e-06
-0.00111542
-3.06667e-05
-3.97753e-06
-0.00110555
-5.7297e-06
-0.00109389
-1.83269e-05
1.47483e-05
6.7647e-07
-0.0014155
5.85378e-06
1.30318e-06
-0.0014185
-3.1689e-06
1.60277e-06
-0.00141976
-1.23282e-05
1.57017e-06
-0.00141937
-2.153e-05
1.16635e-06
-0.00141724
-3.04972e-05
3.49673e-07
-0.00141301
-3.8567e-05
-9.666e-07
-0.00140596
-4.41472e-05
-2.84919e-06
-0.00139495
-4.33261e-05
-5.50184e-06
-0.0013783
-8.30824e-06
-0.00135768
-2.92172e-05
1.71495e-05
8.73308e-07
-0.00170062
7.14554e-06
1.71623e-06
-0.0017044
-3.00077e-06
2.12822e-06
-0.00170608
-1.3432e-05
2.14283e-06
-0.0017058
-2.42058e-05
1.70823e-06
-0.00170336
-3.52546e-05
7.75014e-07
-0.00169823
-4.61301e-05
-8.04141e-07
-0.00168914
-5.52882e-05
-3.13881e-06
-0.00167407
-5.79275e-05
-6.67656e-06
-0.00164914
-1.06616e-05
-0.00161641
-4.3909e-05
1.92139e-05
1.18274e-06
-0.00198791
8.39926e-06
2.1513e-06
-0.00199247
-2.5321e-06
2.62653e-06
-0.00199469
-1.38606e-05
2.66947e-06
-0.00199468
-2.58359e-05
2.22489e-06
-0.0019922
-3.8649e-05
1.2373e-06
-0.00198653
-5.2167e-05
-5.05802e-07
-0.00197581
-6.50868e-05
-3.17315e-06
-0.00195688
-7.22609e-05
-7.50908e-06
-0.0019227
-1.26737e-05
-0.00187509
-6.03046e-05
2.07332e-05
1.4679e-06
-0.00227396
9.30912e-06
2.50074e-06
-0.00227934
-2.16488e-06
2.97998e-06
-0.00228206
-1.40942e-05
3.01739e-06
-0.00228235
-2.69096e-05
2.55754e-06
-0.00227989
-4.10881e-05
1.55387e-06
-0.00227392
-5.69161e-05
-2.49758e-07
-0.00226194
-7.35541e-05
-3.07397e-06
-0.00223961
-8.62085e-05
-7.93588e-06
-0.00219584
-1.41372e-05
-0.00213137
-7.82529e-05
2.17064e-05
1.65296e-06
-0.00256037
9.98151e-06
2.60028e-06
-0.00256656
-1.72595e-06
3.01404e-06
-0.00256983
-1.38984e-05
2.9915e-06
-0.00257048
-2.71593e-05
2.51865e-06
-0.00256818
-4.22605e-05
1.54673e-06
-0.00256217
-5.99781e-05
-1.91402e-07
-0.00254936
-8.00818e-05
-3.00052e-06
-0.00252427
-9.88238e-05
-7.99294e-06
-0.0024712
-1.50752e-05
-0.00238859
-9.629e-05
2.18362e-05
1.58173e-06
-0.00284708
9.93756e-06
2.32571e-06
-0.00285407
-1.80538e-06
2.59299e-06
-0.00285759
-1.39584e-05
2.47426e-06
-0.00285822
-2.72636e-05
1.97467e-06
-0.00285565
-4.27334e-05
1.05407e-06
-0.00284926
-6.16989e-05
-4.79341e-07
-0.0028357
-8.46865e-05
-3.00173e-06
-0.00280858
-0.000109691
-7.26399e-06
-0.00274724
-1.4806e-05
-0.0026459
-0.000113874
2.14542e-05
9.59816e-07
-0.00313027
9.87792e-06
1.22542e-06
-0.00313803
-1.48669e-06
1.24585e-06
-0.00314206
-1.31955e-05
8.87525e-07
-0.00314298
-2.61247e-05
2.66292e-07
-0.00314052
-4.15248e-05
-6.4468e-07
-0.00313407
-6.13772e-05
-1.87539e-06
-0.00312
-8.73644e-05
-3.65833e-06
-0.00309191
-0.000118453
-6.33158e-06
-0.003024
-1.20796e-05
-0.00290127
-0.000131002
2.03727e-05
-0.00339514
8.80728e-06
-0.00340286
-2.36363e-06
-0.00340622
-1.37896e-05
-0.00340537
-2.6261e-05
-0.00340017
-4.10695e-05
-0.00339022
-6.03062e-05
-0.00337213
-8.67669e-05
-0.0033395
-0.000121131
-0.00326571
-0.00312621
-0.000144129
6.91879e-06
1.30971e-07
-0.000839096
2.71362e-06
3.57906e-07
-0.000840307
-1.7105e-06
4.59837e-07
-0.000840705
-6.025e-06
4.12527e-07
-0.000840508
-9.88882e-06
2.18407e-07
-0.000839775
-1.29e-05
-1.25766e-07
-0.000838522
-1.45654e-05
-6.1391e-07
-0.000836769
-1.42755e-05
-1.22764e-06
-0.000834577
-1.1346e-05
-1.92294e-06
-0.000832022
-2.50035e-06
-0.000829054
-5.48494e-06
9.44141e-06
2.22323e-07
-0.00112378
3.50478e-06
6.58539e-07
-0.00112577
-2.64057e-06
8.58796e-07
-0.00112655
-8.72027e-06
7.98902e-07
-0.00112624
-1.43979e-05
4.64031e-07
-0.00112487
-1.92125e-05
-1.57027e-07
-0.00112241
-2.24576e-05
-1.07435e-06
-0.00111875
-2.3031e-05
-2.27258e-06
-0.0011138
-1.92575e-05
-3.70871e-06
-0.00110754
-4.95248e-06
-0.00110072
-9.97423e-06
1.27608e-05
4.15019e-07
-0.00140843
5.11368e-06
1.03915e-06
-0.00141124
-2.7233e-06
1.33168e-06
-0.00141239
-1.05744e-05
1.27724e-06
-0.001412
-1.81751e-05
8.42485e-07
-0.00141001
-2.50665e-05
-2.89966e-09
-0.00140627
-3.0382e-05
-1.31276e-06
-0.0014004
-3.25483e-05
-3.09993e-06
-0.00139196
-2.86702e-05
-5.38755e-06
-0.0013805
-7.52626e-06
-0.00136787
-1.59064e-05
1.54858e-05
6.55747e-07
-0.00169215
6.46509e-06
1.51132e-06
-0.00169585
-2.77168e-06
1.91788e-06
-0.00169743
-1.21624e-05
1.89841e-06
-0.00169703
-2.15536e-05
1.40592e-06
-0.00169453
-3.05957e-05
3.98055e-07
-0.00168959
-3.84085e-05
-1.2367e-06
-0.00168141
-4.30761e-05
-3.55433e-06
-0.00166895
-4.0285e-05
-6.75274e-06
-0.00165056
-9.9867e-06
-0.00162946
-2.47685e-05
1.78563e-05
1.01159e-06
-0.00197828
7.76783e-06
2.0051e-06
-0.00198287
-2.51231e-06
2.48035e-06
-0.00198497
-1.30644e-05
2.48467e-06
-0.00198472
-2.39058e-05
1.96454e-06
-0.00198191
-3.48839e-05
8.64661e-07
-0.00197602
-4.52419e-05
-9.95496e-07
-0.00196569
-5.28754e-05
-3.73879e-06
-0.00194906
-5.21727e-05
-7.81533e-06
-0.00192234
-1.22265e-05
-0.00188993
-3.50898e-05
1.96687e-05
1.35371e-06
-0.00226332
8.75559e-06
2.42165e-06
-0.00226884
-2.28743e-06
2.90869e-06
-0.00227145
-1.36841e-05
2.91383e-06
-0.00227138
-2.56272e-05
2.37736e-06
-0.00226836
-3.8219e-05
1.24469e-06
-0.00226171
-5.09682e-05
-7.20305e-07
-0.00224946
-6.18062e-05
-3.70967e-06
-0.0022288
-6.42028e-05
-8.44407e-06
-0.00219281
-1.39613e-05
-0.00214674
-4.70918e-05
2.087e-05
1.58616e-06
-0.00254891
9.48849e-06
2.57431e-06
-0.00255533
-1.95612e-06
3.00476e-06
-0.00255848
-1.37922e-05
2.96365e-06
-0.0025587
-2.6411e-05
2.42671e-06
-0.00255562
-4.01895e-05
1.33355e-06
-0.00254848
-5.50159e-05
-5.78785e-07
-0.00253468
-6.90405e-05
-3.60346e-06
-0.00251035
-7.53273e-05
-8.63361e-06
-0.00246473
-1.5169e-05
-0.00240315
-5.95623e-05
2.11992e-05
1.54202e-06
-0.00283489
9.55112e-06
2.32734e-06
-0.00284217
-2.03026e-06
2.62324e-06
-0.00284563
-1.39849e-05
2.51976e-06
-0.00284582
-2.6836e-05
2.00258e-06
-0.00284237
-4.12278e-05
1.01962e-06
-0.00283455
-5.755e-05
-6.4285e-07
-0.00281931
-7.44427e-05
-3.3821e-06
-0.00279191
-8.5235e-05
-7.86526e-06
-0.00273721
-1.5046e-05
-0.00265891
-7.23484e-05
2.09305e-05
9.74153e-07
-0.00311755
9.52928e-06
1.26581e-06
-0.00312557
-1.75482e-06
1.34451e-06
-0.00312949
-1.33637e-05
1.05864e-06
-0.00312991
-2.59662e-05
5.10963e-07
-0.00312642
-4.04185e-05
-3.43375e-07
-0.00311825
-5.76351e-05
-1.5698e-06
-0.00310186
-7.74159e-05
-3.4386e-06
-0.00307208
-9.31995e-05
-6.3263e-06
-0.00300975
-1.19888e-05
-0.00291211
-8.54137e-05
1.99515e-05
-0.00338225
8.64325e-06
-0.00339029
-2.37346e-06
-0.00339386
-1.36606e-05
-0.00339302
-2.58353e-05
-0.00338749
-3.98392e-05
-0.00337656
-5.67402e-05
-0.0033568
-7.72018e-05
-0.00332248
-9.58267e-05
-0.00325341
-0.00313891
-9.5115e-05
4.89185e-06
-3.52269e-08
-0.000836607
1.96372e-06
1.66144e-07
-0.000837545
-1.16521e-06
2.60923e-07
-0.000837837
-4.18665e-06
2.19323e-07
-0.000837706
-6.7958e-06
4.76606e-08
-0.000837214
-8.6709e-06
-2.51149e-07
-0.000836395
-9.48082e-06
-6.60603e-07
-0.000835298
-8.90515e-06
-1.15116e-06
-0.000834001
-6.70194e-06
-1.66718e-06
-0.000832558
-2.05714e-06
-0.000830735
-2.96292e-06
7.23545e-06
-4.36539e-08
-0.0011198
2.70009e-06
3.61692e-07
-0.00112143
-2.05718e-06
5.50615e-07
-0.00112208
-6.70844e-06
4.91555e-07
-0.00112186
-1.08847e-05
1.75453e-07
-0.00112083
-1.41486e-05
-3.9706e-07
-0.001119
-1.5945e-05
-1.21349e-06
-0.0011164
-1.55922e-05
-2.23054e-06
-0.00111307
-1.2298e-05
-3.35723e-06
-0.00110914
-4.23616e-06
-0.001105
-5.83922e-06
1.06375e-05
1.32202e-07
-0.00140285
4.33063e-06
7.29829e-07
-0.0014053
-2.20617e-06
1.00727e-06
-0.00140631
-8.67301e-06
9.38809e-07
-0.00140598
-1.47035e-05
4.98243e-07
-0.00140431
-1.9786e-05
-3.29503e-07
-0.00140126
-2.31281e-05
-1.56327e-06
-0.00139671
-2.35547e-05
-3.17113e-06
-0.00139059
-1.93475e-05
-5.07113e-06
-0.00138299
-6.67866e-06
-0.00137518
-9.60304e-06
1.35219e-05
3.92185e-07
-0.00168515
5.68853e-06
1.23697e-06
-0.00168853
-2.42236e-06
1.62996e-06
-0.00168994
-1.05729e-05
1.58256e-06
-0.00168952
-1.84437e-05
1.05559e-06
-0.00168722
-2.55293e-05
2.07636e-08
-0.00168285
-3.0876e-05
-1.5877e-06
-0.00167604
-3.28325e-05
-3.77004e-06
-0.0016664
-2.8406e-05
-6.54174e-06
-0.00165352
-9.10049e-06
-0.00164005
-1.53896e-05
1.61118e-05
7.76707e-07
-0.00196998
7.01069e-06
1.7738e-06
-0.00197431
-2.35311e-06
2.24091e-06
-0.00197622
-1.18613e-05
2.20962e-06
-0.00197584
-2.13181e-05
1.63205e-06
-0.00197303
-3.03231e-05
4.6174e-07
-0.00196746
-3.78728e-05
-1.43325e-06
-0.0019583
-4.19191e-05
-4.11315e-06
-0.00194468
-3.80141e-05
-7.77032e-06
-0.00192501
-1.14132e-05
-0.0019035
-2.21352e-05
1.81764e-05
1.16453e-06
-0.00225386
8.05743e-06
2.25007e-06
-0.0022592
-2.27315e-06
2.73718e-06
-0.00226161
-1.28375e-05
2.70944e-06
-0.00226132
-2.35861e-05
2.10756e-06
-0.00225809
-3.43007e-05
8.77925e-07
-0.00225141
-4.4071e-05
-1.17298e-06
-0.00223995
-5.06278e-05
-4.17901e-06
-0.00222218
-4.81251e-05
-8.55632e-06
-0.00219453
-1.32764e-05
-0.00216272
-3.02831e-05
1.95951e-05
1.44623e-06
-0.00253847
8.84146e-06
2.46299e-06
-0.00254479
-2.06258e-06
2.9039e-06
-0.00254775
-1.32559e-05
2.84191e-06
-0.00254764
-2.48749e-05
2.24646e-06
-0.00254413
-3.69319e-05
1.05285e-06
-0.0025366
-4.87389e-05
-9.73728e-07
-0.00252307
-5.79726e-05
-4.07145e-06
-0.00250122
-5.76283e-05
-8.84997e-06
-0.00246478
-1.45978e-05
-0.00242068
-3.87681e-05
2.01392e-05
1.42971e-06
-0.00282359
9.00996e-06
2.25078e-06
-0.00283083
-2.15032e-06
2.56843e-06
-0.00283414
-1.36145e-05
2.47236e-06
-0.00283398
-2.56552e-05
1.93246e-06
-0.00283002
-3.85249e-05
8.91642e-07
-0.00282152
-5.19018e-05
-8.60339e-07
-0.00280605
-6.3702e-05
-3.68483e-06
-0.0027805
-6.6303e-05
-8.08128e-06
-0.00273538
-1.45278e-05
-0.00267749
-4.7782e-05
2.00138e-05
9.39504e-07
-0.00310561
9.03741e-06
1.25445e-06
-0.00311359
-1.92685e-06
1.38177e-06
-0.00311734
-1.3164e-05
1.15232e-06
-0.00311735
-2.51082e-05
6.57647e-07
-0.0031132
-3.82097e-05
-1.60517e-07
-0.0031041
-5.2513e-05
-1.38709e-06
-0.00308703
-6.67514e-05
-3.27797e-06
-0.00305824
-7.29875e-05
-6.16054e-06
-0.00300544
-1.12375e-05
-0.00293137
-5.70173e-05
1.91655e-05
-0.00337013
8.31988e-06
-0.00337819
-2.34536e-06
-0.00338182
-1.32633e-05
-0.00338095
-2.48463e-05
-0.00337525
-3.76607e-05
-0.00336391
-5.19443e-05
-0.0033439
-6.69828e-05
-0.00331072
-7.54357e-05
-0.00325112
-0.00316235
-6.32262e-05
3.3719e-06
-1.6874e-07
-0.000834845
1.39676e-06
3.50605e-10
-0.00083557
-7.45333e-07
8.4993e-08
-0.00083578
-2.80163e-06
5.15081e-08
-0.000835701
-4.5321e-06
-9.11092e-08
-0.000835392
-5.70312e-06
-3.36594e-07
-0.000834888
-6.10742e-06
-6.63541e-07
-0.000834231
-5.58803e-06
-1.04061e-06
-0.00083348
-4.08659e-06
-1.41557e-06
-0.000832644
-1.67405e-06
-0.000831389
-1.75944e-06
5.33251e-06
-2.74938e-07
-0.00111689
1.99751e-06
8.4179e-08
-0.00111818
-1.54573e-06
2.56033e-07
-0.00111871
-4.9815e-06
2.03518e-07
-0.00111858
-7.9699e-06
-7.76787e-08
-0.00111785
-1.01483e-05
-5.7788e-07
-0.00111658
-1.11232e-05
-1.27013e-06
-0.00111482
-1.05088e-05
-2.09886e-06
-0.00111263
-7.99693e-06
-2.96305e-06
-0.0011101
-3.57998e-06
-0.00110741
-3.68002e-06
8.59119e-06
-1.37686e-07
-0.00139858
3.57038e-06
4.10425e-07
-0.0014006
-1.69261e-06
6.64917e-07
-0.00140146
-6.84472e-06
5.91052e-07
-0.00140121
-1.14892e-05
1.69632e-07
-0.00139991
-1.51427e-05
-5.9991e-07
-0.00139758
-1.71774e-05
-1.70714e-06
-0.00139424
-1.68308e-05
-3.09051e-06
-0.00138995
-1.3238e-05
-4.62091e-06
-0.00138493
-5.8222e-06
-0.00137994
-6.23485e-06
1.14464e-05
1.1392e-07
-0.00167956
4.87284e-06
9.21392e-07
-0.00168246
-2.01612e-06
1.29183e-06
-0.00168368
-8.86657e-06
1.22542e-06
-0.0016833
-1.52625e-05
6.92418e-07
-0.00168134
-2.06493e-05
-3.18452e-07
-0.00167775
-2.41767e-05
-1.82846e-06
-0.00167239
-2.46339e-05
-3.79164e-06
-0.00166524
-2.02496e-05
-6.11294e-06
-0.00165641
-8.11367e-06
-0.00164772
-1.02903e-05
1.41254e-05
5.02919e-07
-0.00196305
6.17271e-06
1.47647e-06
-0.00196691
-2.097e-06
1.9257e-06
-0.00196858
-1.04069e-05
1.86593e-06
-0.00196817
-1.84061e-05
1.25797e-06
-0.0019656
-2.55557e-05
7.07596e-08
-0.0019607
-3.08424e-05
-1.77383e-06
-0.00195306
-3.26038e-05
-4.27377e-06
-0.00194243
-2.78626e-05
-7.43427e-06
-0.00192843
-1.03858e-05
-0.00191417
-1.49116e-05
1.63591e-05
9.17092e-07
-0.00224571
7.24825e-06
1.99576e-06
-0.00225061
-2.1452e-06
2.47326e-06
-0.00225277
-1.16605e-05
2.41631e-06
-0.00225235
-2.10481e-05
1.77051e-06
-0.00224921
-2.98655e-05
4.92211e-07
-0.00224302
-3.70511e-05
-1.55627e-06
-0.00223298
-4.05951e-05
-4.43989e-06
-0.00221847
-3.61697e-05
-8.32156e-06
-0.00219806
-1.22537e-05
-0.00217636
-2.06518e-05
1.79485e-05
1.24205e-06
-0.00252925
8.0639e-06
2.26828e-06
-0.00253517
-2.05361e-06
2.71122e-06
-0.00253787
-1.23531e-05
2.62929e-06
-0.00253755
-2.27411e-05
1.99036e-06
-0.00253397
-3.29382e-05
7.34716e-07
-0.00252665
-4.19494e-05
-1.32618e-06
-0.00251429
-4.75424e-05
-4.35119e-06
-0.00249572
-4.40511e-05
-8.6792e-06
-0.00246791
-1.35449e-05
-0.00243696
-2.64856e-05
1.86971e-05
1.24794e-06
-0.00281339
8.32928e-06
2.0932e-06
-0.00282029
-2.16562e-06
2.42416e-06
-0.00282335
-1.28799e-05
2.33023e-06
-0.00282297
-2.3847e-05
1.77016e-06
-0.00281883
-3.49805e-05
6.89977e-07
-0.00281034
-4.54981e-05
-1.09533e-06
-0.00279576
-5.31859e-05
-3.86723e-06
-0.00277329
-5.14223e-05
-7.92691e-06
-0.0027379
-1.34147e-05
-0.00269619
-3.28527e-05
1.87255e-05
8.54759e-07
-0.00309471
8.40957e-06
1.18671e-06
-0.00310237
-1.99968e-06
1.35231e-06
-0.00310586
-1.26099e-05
1.1653e-06
-0.00310558
-2.36237e-05
7.08933e-07
-0.00310113
-3.51315e-05
-8.18177e-08
-0.00309182
-4.65896e-05
-1.29635e-06
-0.00307537
-5.62117e-05
-3.13997e-06
-0.00304935
-5.68196e-05
-5.84635e-06
-0.00300691
-1.00811e-05
-0.0029525
-3.90162e-05
1.80286e-05
-0.00335905
7.84417e-06
-0.00336681
-2.27026e-06
-0.00337035
-1.25956e-05
-0.00336946
-2.33332e-05
-0.0033638
-3.47005e-05
-0.00335262
-4.63494e-05
-0.00333355
-5.68045e-05
-0.0033034
-5.90738e-05
-0.00325469
-0.00318878
-4.27196e-05
2.29781e-06
-2.63346e-07
-0.000833564
9.94094e-07
-1.27297e-07
-0.000834139
-4.41665e-07
-5.36583e-08
-0.000834291
-1.81677e-06
-7.84119e-08
-0.000834247
-2.95535e-06
-1.90929e-07
-0.000834062
-3.69571e-06
-3.83712e-07
-0.000833764
-3.91089e-06
-6.34981e-07
-0.00083338
-3.52491e-06
-9.1661e-07
-0.000832949
-2.53911e-06
-1.18507e-06
-0.000832444
-1.35266e-06
-0.000831492
-1.08303e-06
3.79911e-06
-4.54219e-07
-0.00111478
1.42352e-06
-1.49189e-07
-0.00111578
-1.13183e-06
2.29471e-09
-0.00111621
-3.59773e-06
-4.01856e-08
-0.00111615
-5.69135e-06
-2.77502e-07
-0.00111567
-7.13449e-06
-6.94658e-07
-0.00111483
-7.66295e-06
-1.25833e-06
-0.00111367
-7.06899e-06
-1.9116e-06
-0.00111223
-5.26146e-06
-2.56113e-06
-0.00111054
-2.98469e-06
-0.00110864
-2.40079e-06
6.76241e-06
-3.68944e-07
-0.00139538
2.88225e-06
1.12164e-07
-0.00139699
-1.22746e-06
3.37388e-07
-0.00139768
-5.21781e-06
2.6539e-07
-0.00139753
-8.71437e-06
-1.17281e-07
-0.00139657
-1.13038e-05
-8.00462e-07
-0.00139489
-1.25229e-05
-1.75388e-06
-0.00139252
-1.1908e-05
-2.90231e-06
-0.00138957
-9.08086e-06
-4.10557e-06
-0.00138621
-4.99042e-06
-0.00138288
-4.13226e-06
9.41922e-06
-1.49839e-07
-0.00167522
4.0711e-06
5.95413e-07
-0.0016776
-1.60275e-06
9.3469e-07
-0.0016786
-7.19616e-06
8.58575e-07
-0.0016783
-1.22639e-05
3.46636e-07
-0.00167674
-1.62773e-05
-5.96309e-07
-0.00167394
-1.8549e-05
-1.9561e-06
-0.00166991
-1.82619e-05
-3.65602e-06
-0.00166477
-1.44834e-05
-5.54721e-06
-0.00165875
-7.08847e-06
-0.00165301
-7.09915e-06
1.20458e-05
2.17772e-07
-0.00195744
5.30305e-06
1.13881e-06
-0.00196071
-1.78586e-06
1.55985e-06
-0.00196212
-8.84302e-06
1.48075e-06
-0.00196173
-1.54321e-05
8.7238e-07
-0.00195954
-2.09728e-05
-2.78266e-07
-0.00195548
-2.45672e-05
-2.00005e-06
-0.00194943
-2.49869e-05
-4.24001e-06
-0.00194143
-2.04548e-05
-6.88689e-06
-0.00193162
-9.23447e-06
-0.00192209
-1.03905e-05
1.43408e-05
6.34301e-07
-0.0022389
6.36989e-06
1.6772e-06
-0.00224318
-1.93329e-06
2.13411e-06
-0.00224504
-1.02684e-05
2.05459e-06
-0.00224459
-1.825e-05
1.39233e-06
-0.00224175
-2.53174e-05
1.19641e-07
-0.00223635
-3.04379e-05
-1.84291e-06
-0.00222802
-3.20092e-05
-4.49486e-06
-0.00221664
-2.71915e-05
-7.81638e-06
-0.00220195
-1.10127e-05
-0.00218717
-1.46026e-05
1.60257e-05
9.89582e-07
-0.00252134
7.18898e-06
2.00045e-06
-0.00252666
-1.94722e-06
2.43521e-06
-0.00252903
-1.11691e-05
2.33705e-06
-0.00252861
-2.02059e-05
1.67646e-06
-0.00252521
-2.85882e-05
4.06486e-07
-0.00251855
-3.5232e-05
-1.60657e-06
-0.00250788
-3.82327e-05
-4.43623e-06
-0.00249278
-3.35661e-05
-8.20161e-06
-0.00247219
-1.21776e-05
-0.00245067
-1.86844e-05
1.69453e-05
1.00671e-06
-0.00280444
7.53511e-06
1.85885e-06
-0.00281074
-2.08556e-06
2.19338e-06
-0.00281349
-1.18407e-05
2.09916e-06
-0.00281298
-2.15639e-05
1.52864e-06
-0.00280896
-3.09223e-05
4.38331e-07
-0.00280102
-3.89167e-05
-1.31813e-06
-0.00278806
-4.35005e-05
-3.92549e-06
-0.00276922
-3.97e-05
-7.49665e-06
-0.0027424
-1.19446e-05
-0.00271284
-2.32798e-05
1.71173e-05
7.2388e-07
-0.00308504