/*--------------------------------*- C++ -*----------------------------------*\
| =========                 |                                                 |
| \\      /  F ield         | foam-extend: Open Source CFD                    |
|  \\    /   O peration     | Version:     4.0                                |
|   \\  /    A nd           | Web:         http://www.foam-extend.org         |
|    \\/     M anipulation  |                                                 |
\*---------------------------------------------------------------------------*/
FoamFile
{
    version     2.0;
    format      ascii;
    class       volScalarField;
    location    "650";
    object      T;
}
// * * * * * * * * * * * * * * * * * * * * * * * * * * * * * * * * * * * * * //

dimensions      [0 0 0 1 0 0 0];

internalField   nonuniform List<scalar> 
34480
(
279.199
279.083
278.999
278.942
278.906
278.891
278.897
278.971
279.238
279.227
278.756
278.624
278.524
278.451
278.411
278.402
278.412
278.441
278.648
278.212
278.749
278.601
278.484
278.398
278.344
278.309
278.266
278.185
278.287
277.481
278.856
278.686
278.542
278.423
278.329
278.24
278.127
277.936
277.903
276.713
278.942
278.743
278.566
278.41
278.272
278.123
277.939
277.631
277.433
275.852
279.076
278.849
278.646
278.46
278.285
278.085
277.831
277.405
277.01
275.014
279.161
278.906
278.675
278.464
278.256
278.011
277.693
277.149
276.533
274.12
279.271
278.99
278.746
278.525
278.311
278.051
277.699
277.066
276.232
273.377
279.355
279.05
278.786
278.549
278.313
278.029
277.634
276.913
275.856
272.628
280.158
279.839
279.604
279.435
279.305
279.156
278.908
278.321
277.218
273.549
279.746
279.648
279.609
279.622
279.69
279.83
280.081
280.524
281.18
282.05
279.204
279.105
279.063
279.073
279.145
279.301
279.576
280.056
280.832
281.845
279.093
278.997
278.954
278.961
279.031
279.183
279.448
279.91
280.73
281.812
279.099
279
278.949
278.943
278.996
279.122
279.358
279.79
280.629
281.734
279.087
278.981
278.918
278.895
278.925
279.019
279.22
279.609
280.44
281.538
279.134
279.022
278.951
278.917
278.929
278.994
279.158
279.493
280.287
281.344
279.142
279.02
278.941
278.896
278.892
278.932
279.059
279.336
280.068
281.065
279.192
279.066
278.989
278.948
278.948
278.982
279.088
279.314
279.965
280.856
279.23
279.095
279.011
278.964
278.953
278.973
279.051
279.225
279.784
280.581
279.98
279.857
279.808
279.824
279.9
280.021
280.199
280.443
280.947
281.455
280.238
280.136
280.098
280.116
280.19
280.331
280.554
280.892
281.384
282.017
279.686
279.575
279.532
279.549
279.632
279.797
280.074
280.517
281.216
282.153
279.551
279.437
279.39
279.402
279.484
279.654
279.951
280.444
281.295
282.494
279.52
279.401
279.346
279.348
279.418
279.575
279.869
280.384
281.359
282.789
279.474
279.347
279.282
279.269
279.321
279.455
279.731
280.245
281.308
282.925
279.49
279.357
279.283
279.259
279.296
279.408
279.659
280.152
281.266
283.02
279.471
279.33
279.249
279.214
279.236
279.325
279.547
280.006
281.136
282.988
279.5
279.356
279.275
279.243
279.266
279.348
279.551
279.971
281.081
282.98
279.52
279.37
279.285
279.247
279.262
279.332
279.509
279.882
280.945
282.911
280.241
280.102
280.042
280.052
280.13
280.273
280.516
280.925
281.927
283.798
280.601
280.511
280.48
280.497
280.563
280.679
280.852
281.088
281.39
281.741
280.072
279.967
279.927
279.947
280.029
280.18
280.417
280.762
281.246
281.815
279.936
279.822
279.777
279.794
279.881
280.049
280.327
280.753
281.398
282.194
279.888
279.764
279.71
279.721
279.804
279.975
280.274
280.757
281.558
282.593
279.819
279.685
279.623
279.622
279.694
279.856
280.158
280.675
281.608
282.87
279.812
279.671
279.601
279.59
279.652
279.8
280.097
280.626
281.664
283.125
279.772
279.623
279.546
279.526
279.575
279.708
279.989
280.515
281.627
283.256
279.783
279.631
279.553
279.534
279.584
279.712
279.982
280.492
281.64
283.395
279.788
279.633
279.551
279.527
279.57
279.688
279.945
280.428
281.571
283.464
280.478
280.333
280.269
280.278
280.365
280.532
280.831
281.341
282.448
284.358
280.856
280.786
280.763
280.776
280.824
280.907
281.023
281.169
281.338
281.52
280.37
280.28
280.245
280.262
280.331
280.453
280.633
280.876
281.181
281.503
280.252
280.147
280.105
280.123
280.202
280.351
280.582
280.911
281.357
281.841
280.202
280.082
280.032
280.046
280.13
280.294
280.563
280.966
281.561
282.237
280.124
279.992
279.933
279.94
280.02
280.187
280.479
280.938
281.674
282.555
280.104
279.962
279.895
279.895
279.97
280.135
280.438
280.934
281.797
282.877
280.05
279.9
279.826
279.817
279.884
280.042
280.345
280.863
281.829
283.096
280.048
279.893
279.818
279.81
279.877
280.034
280.337
280.862
281.899
283.326
280.042
279.884
279.806
279.793
279.856
280.005
280.303
280.825
281.894
283.492
280.701
280.553
280.487
280.497
280.589
280.772
281.097
281.642
282.705
284.386
281.036
280.984
280.967
280.976
281.009
281.063
281.136
281.222
281.316
281.421
280.594
280.521
280.493
280.506
280.558
280.648
280.776
280.938
281.126
281.315
280.502
280.411
280.375
280.39
280.457
280.577
280.756
280.994
281.288
281.583
280.459
280.351
280.307
280.321
280.398
280.542
280.766
281.079
281.496
281.926
280.384
280.261
280.208
280.218
280.297
280.455
280.713
281.091
281.635
282.223
280.358
280.223
280.162
280.168
280.248
280.413
280.696
281.126
281.792
282.547
280.298
280.153
280.085
280.084
280.161
280.327
280.623
281.092
281.869
282.791
280.288
280.137
280.067
280.066
280.144
280.313
280.62
281.114
281.976
283.054
280.273
280.119
280.046
280.042
280.117
280.283
280.592
281.1
282.015
283.262
280.903
280.758
280.692
280.703
280.798
280.986
281.315
281.846
282.776
284.126
281.163
281.125
281.113
281.118
281.139
281.172
281.216
281.265
281.318
281.384
280.76
280.704
280.682
280.691
280.727
280.79
280.876
280.981
281.098
281.214
280.694
280.62
280.59
280.602
280.654
280.746
280.876
281.042
281.233
281.415
280.664
280.572
280.534
280.547
280.612
280.73
280.906
281.139
281.423
281.696
280.598
280.489
280.443
280.454
280.527
280.665
280.88
281.176
281.562
281.95
280.574
280.452
280.398
280.407
280.484
280.637
280.884
281.237
281.73
282.246
280.513
280.379
280.318
280.322
280.4
280.561
280.831
281.232
281.827
282.48
280.5
280.358
280.294
280.299
280.38
280.549
280.837
281.273
281.954
282.741
280.48
280.334
280.267
280.269
280.349
280.518
280.815
281.277
282.018
282.95
281.081
280.943
280.88
280.892
280.985
281.171
281.483
281.968
282.737
283.763
281.254
281.226
281.218
281.221
281.233
281.253
281.278
281.306
281.336
281.383
280.883
280.842
280.824
280.829
280.853
280.895
280.951
281.018
281.093
281.169
280.84
280.782
280.758
280.766
280.804
280.871
280.963
281.075
281.2
281.317
280.823
280.748
280.717
280.727
280.779
280.871
281.003
281.17
281.362
281.538
280.769
280.678
280.639
280.65
280.711
280.826
280.996
281.219
281.488
281.745
280.752
280.645
280.599
280.609
280.679
280.812
281.017
281.295
281.65
282
280.694
280.574
280.521
280.529
280.602
280.748
280.982
281.309
281.75
282.206
280.682
280.554
280.497
280.505
280.584
280.741
280.997
281.364
281.883
282.444
280.658
280.525
280.465
280.471
280.551
280.712
280.981
281.378
281.956
282.631
281.233
281.105
281.047
281.06
281.149
281.322
281.605
282.025
282.635
283.384
281.32
281.299
281.293
281.295
281.302
281.313
281.327
281.343
281.362
281.397
280.975
280.944
280.93
280.932
280.948
280.974
281.01
281.054
281.104
281.158
280.949
280.906
280.887
280.892
280.918
280.964
281.027
281.103
281.186
281.264
280.943
280.885
280.86
280.868
280.907
280.975
281.071
281.187
281.317
281.434
280.903
280.829
280.798
280.807
280.857
280.947
281.076
281.239
281.425
281.596
280.893
280.805
280.767
280.776
280.836
280.946
281.109
281.319
281.571
281.809
280.842
280.739
280.694
280.703
280.768
280.894
281.086
281.343
281.664
281.978
280.834
280.723
280.674
280.683
280.755
280.894
281.111
281.407
281.792
282.186
280.808
280.691
280.639
280.647
280.721
280.866
281.099
281.426
281.862
282.34
281.356
281.244
281.192
281.204
281.285
281.441
281.686
282.035
282.501
283.031
281.369
281.351
281.347
281.348
281.352
281.358
281.367
281.376
281.387
281.416
281.043
281.02
281.009
281.009
281.019
281.035
281.058
281.087
281.123
281.165
281.032
280.999
280.985
280.987
281.005
281.035
281.077
281.128
281.184
281.24
281.032
280.988
280.969
280.974
281.002
281.052
281.118
281.199
281.286
281.367
281.005
280.948
280.924
280.931
280.969
281.037
281.132
281.248
281.375
281.491
281.004
280.933
280.902
280.911
280.959
281.046
281.171
281.326
281.501
281.663
280.958
280.874
280.837
280.845
280.9
281.004
281.156
281.351
281.58
281.796
280.958
280.865
280.824
280.833
280.896
281.013
281.189
281.42
281.698
281.972
280.93
280.83
280.786
280.795
280.86
280.986
281.178
281.438
281.759
282.089
281.452
281.356
281.311
281.323
281.394
281.528
281.732
282.011
282.358
282.723
281.403
281.388
281.385
281.386
281.388
281.392
281.396
281.401
281.409
281.433
281.094
281.076
281.067
281.066
281.072
281.082
281.097
281.117
281.144
281.179
281.093
281.069
281.058
281.059
281.07
281.09
281.117
281.151
281.192
281.234
281.096
281.064
281.05
281.053
281.073
281.107
281.152
281.207
281.267
281.325
281.081
281.039
281.02
281.025
281.054
281.103
281.171
281.251
281.338
281.419
281.087
281.033
281.009
281.016
281.053
281.119
281.211
281.323
281.444
281.555
281.047
280.98
280.951
280.958
281.003
281.084
281.2
281.344
281.505
281.653
281.056
280.981
280.948
280.956
281.008
281.103
281.241
281.415
281.613
281.799
281.025
280.943
280.907
280.915
280.971
281.074
281.228
281.426
281.658
281.883
281.522
281.442
281.405
281.416
281.476
281.586
281.75
281.965
282.217
282.463
281.426
281.413
281.411
281.411
281.412
281.414
281.416
281.42
281.425
281.446
281.131
281.117
281.109
281.108
281.111
281.117
281.127
281.141
281.164
281.195
281.139
281.121
281.112
281.112
281.119
281.132
281.15
281.173
281.203
281.237
281.142
281.119
281.108
281.11
281.123
281.146
281.176
281.213
281.255
281.299
281.136
281.106
281.092
281.096
281.116
281.151
281.198
281.252
281.311
281.369
281.148
281.108
281.09
281.095
281.123
281.172
281.238
281.315
281.398
281.475
281.112
281.061
281.038
281.044
281.079
281.141
281.227
281.33
281.441
281.542
281.132
281.073
281.047
281.055
281.096
281.17
281.274
281.401
281.539
281.665
281.097
281.031
281.002
281.01
281.055
281.137
281.255
281.402
281.565
281.716
281.567
281.504
281.474
281.483
281.531
281.62
281.747
281.907
282.086
282.248
281.438
281.426
281.425
281.424
281.425
281.426
281.428
281.43
281.434
281.452
281.156
281.145
281.139
281.137
281.139
281.143
281.149
281.16
281.18
281.209
281.173
281.16
281.153
281.153
281.157
281.165
281.176
281.192
281.215
281.245
281.172
281.156
281.148
281.149
281.157
281.172
281.192
281.217
281.247
281.282
281.175
281.154
281.145
281.147
281.161
281.185
281.216
281.253
281.293
281.335
281.191
281.162
281.149
281.153
281.173
281.207
281.254
281.307
281.362
281.416
281.158
281.12
281.103
281.107
281.133
281.179
281.24
281.313
281.388
281.457
281.188
281.145
281.125
281.131
281.163
281.218
281.294
281.385
281.479
281.563
281.147
281.096
281.074
281.08
281.115
281.178
281.266
281.372
281.485
281.584
281.59
281.543
281.519
281.526
281.564
281.632
281.727
281.843
281.967
282.071
281.441
281.43
281.429
281.429
281.429
281.43
281.431
281.432
281.435
281.45
281.172
281.162
281.157
281.156
281.157
281.159
281.163
281.172
281.19
281.218
281.198
281.189
281.184
281.184
281.186
281.191
281.198
281.209
281.227
281.254
281.19
281.179
281.174
281.174
281.179
281.189
281.202
281.218
281.24
281.269
281.202
281.188
281.181
281.183
281.192
281.208
281.228
281.252
281.279
281.31
281.219
281.199
281.19
281.193
281.207
281.231
281.262
281.298
281.335
281.372
281.187
281.161
281.149
281.152
281.17
281.202
281.245
281.295
281.345
281.391
281.23
281.199
281.185
281.189
281.212
281.253
281.307
281.369
281.432
281.487
281.179
281.141
281.125
281.129
281.155
281.202
281.265
281.339
281.415
281.48
281.596
281.561
281.543
281.549
281.577
281.627
281.696
281.778
281.862
281.927
281.436
281.427
281.426
281.425
281.426
281.426
281.426
281.427
281.429
281.442
281.178
281.17
281.166
281.165
281.165
281.167
281.17
281.177
281.192
281.22
281.217
281.211
281.208
281.207
281.208
281.211
281.216
281.223
281.238
281.263
281.199
281.192
281.188
281.188
281.192
281.198
281.206
281.216
281.232
281.257
281.218
281.209
281.205
281.206
281.212
281.222
281.235
281.251
281.268
281.292
281.236
281.223
281.217
281.218
281.228
281.244
281.265
281.288
281.312
281.338
281.205
281.187
281.178
281.18
281.193
281.215
281.244
281.277
281.31
281.341
281.261
281.239
281.229
281.233
281.249
281.277
281.314
281.356
281.398
281.432
281.195
281.168
281.156
281.159
281.178
281.211
281.255
281.306
281.356
281.398
281.587
281.563
281.55
281.554
281.574
281.61
281.659
281.714
281.77
281.81
281.425
281.418
281.417
281.417
281.417
281.417
281.417
281.418
281.419
281.43
281.175
281.169
281.166
281.165
281.165
281.166
281.168
281.174
281.187
281.215
281.232
281.228
281.226
281.226
281.226
281.228
281.231
281.236
281.247
281.27
281.201
281.197
281.194
281.194
281.196
281.2
281.205
281.212
281.223
281.243
281.227
281.221
281.219
281.219
281.223
281.229
281.238
281.247
281.259
281.276
281.243
281.235
281.231
281.232
281.238
281.249
281.262
281.277
281.292
281.31
281.213
281.201
281.196
281.197
281.206
281.22
281.239
281.261
281.281
281.301
281.283
281.269
281.262
281.264
281.275
281.294
281.319
281.347
281.374
281.394
281.198
281.179
281.171
281.173
281.186
281.209
281.238
281.272
281.305
281.331
281.569
281.553
281.544
281.547
281.561
281.585
281.618
281.655
281.691
281.715
281.417
281.411
281.41
281.41
281.41
281.41
281.41
281.411
281.411
281.42
281.163
281.158
281.156
281.155
281.155
281.156
281.158
281.162
281.173
281.2
281.243
281.242
281.24
281.24
281.241
281.241
281.243
281.246
281.254
281.274
281.197
281.195
281.194
281.194
281.195
281.197
281.2
281.204
281.211
281.227
281.228
281.225
281.223
281.224
281.226
281.23
281.235
281.241
281.248
281.26
281.242
281.237
281.235
281.235
281.239
281.246
281.254
281.263
281.273
281.284
281.213
281.206
281.203
281.204
281.21
281.219
281.231
281.244
281.257
281.268
281.296
281.287
281.283
281.284
281.292
281.304
281.321
281.338
281.356
281.367
281.188
281.175
281.17
281.172
281.18
281.195
281.215
281.236
281.257
281.273
281.55
281.539
281.533
281.535
281.545
281.561
281.583
281.606
281.63
281.643
281.426
281.421
281.42
281.42
281.42
281.42
281.42
281.42
281.42
281.426
281.14
281.136
281.135
281.135
281.135
281.135
281.136
281.139
281.147
281.171
281.251
281.25
281.249
281.249
281.249
281.25
281.251
281.252
281.258
281.274
281.19
281.189
281.189
281.189
281.19
281.191
281.193
281.195
281.199
281.21
281.222
281.221
281.22
281.22
281.222
281.224
281.227
281.231
281.235
281.242
281.233
281.23
281.229
281.229
281.232
281.236
281.241
281.247
281.253
281.259
281.207
281.204
281.202
281.203
281.206
281.212
281.22
281.227
281.234
281.24
281.297
281.292
281.288
281.289
281.294
281.302
281.313
281.324
281.336
281.342
281.163
281.154
281.151
281.152
281.158
281.168
281.18
281.193
281.205
281.215
281.543
281.537
281.532
281.534
281.54
281.551
281.565
281.58
281.595
281.601
281.471
281.468
281.467
281.467
281.467
281.467
281.467
281.467
281.467
281.471
281.098
281.097
281.096
281.097
281.097
281.097
281.098
281.099
281.104
281.122
281.248
281.247
281.246
281.246
281.246
281.247
281.248
281.249
281.253
281.264
281.182
281.182
281.183
281.183
281.184
281.185
281.186
281.186
281.188
281.193
281.213
281.212
281.211
281.212
281.213
281.214
281.216
281.219
281.221
281.224
281.219
281.217
281.216
281.217
281.218
281.221
281.224
281.228
281.232
281.234
281.197
281.195
281.194
281.195
281.198
281.201
281.206
281.211
281.214
281.216
281.276
281.272
281.27
281.27
281.274
281.279
281.286
281.294
281.302
281.306
281.114
281.109
281.107
281.108
281.112
281.119
281.126
281.134
281.141
281.146
281.566
281.562
281.559
281.56
281.564
281.571
281.581
281.59
281.601
281.604
281.549
281.546
281.545
281.545
281.545
281.545
281.546
281.546
281.548
281.551
281.038
281.039
281.041
281.042
281.043
281.043
281.043
281.043
281.043
281.05
281.233
281.231
281.229
281.229
281.229
281.23
281.231
281.233
281.237
281.244
281.177
281.178
281.178
281.179
281.18
281.18
281.181
281.182
281.182
281.183
281.202
281.201
281.201
281.201
281.202
281.203
281.205
281.207
281.209
281.21
281.204
281.203
281.202
281.203
281.204
281.206
281.209
281.212
281.214
281.215
281.185
281.185
281.184
281.185
281.187
281.19
281.193
281.196
281.199
281.198
281.234
281.23
281.228
281.228
281.231
281.235
281.24
281.246
281.253
281.258
281.042
281.04
281.04
281.041
281.044
281.049
281.054
281.059
281.062
281.061
281.611
281.608
281.605
281.606
281.609
281.615
281.622
281.629
281.637
281.64
289.736
291.47
291.737
290.176
290.882
292.988
293.403
291.776
292.473
295.069
295.61
293.682
293.69
296.723
297.397
295.266
294.584
298.022
298.835
296.571
295.272
299.084
300.064
298.07
295.783
299.952
301.126
299.457
296.227
300.716
302.096
300.795
296.425
301.211
302.805
301.914
296.967
301.94
303.794
303.453
286.493
287.042
287.025
286.502
287.799
288.445
288.391
287.748
289.361
290.164
290.064
289.226
290.756
291.703
291.549
290.528
291.899
292.987
292.777
291.582
292.888
294.119
293.922
292.59
293.666
295.031
294.859
293.403
294.335
295.81
295.67
294.112
294.753
296.297
296.197
294.579
295.498
297.027
297.039
295.477
282.702
282.849
282.88
282.8
283.483
283.714
283.757
283.615
284.622
284.968
285.017
284.771
285.848
286.309
286.357
285.99
286.982
287.558
287.597
287.096
288.095
288.785
288.818
288.195
289.063
289.864
289.893
289.154
289.978
290.875
290.901
290.065
290.72
291.664
291.695
290.811
291.914
292.797
292.869
292.063
281.978
282.059
282.081
282.048
282.317
282.419
282.451
282.418
283.015
283.175
283.221
283.163
283.858
284.086
284.143
284.046
284.68
284.983
285.048
284.895
285.558
285.942
286.011
285.793
286.362
286.828
286.9
286.608
287.183
287.723
287.795
287.427
287.929
288.508
288.579
288.158
289.223
289.734
289.821
289.444
281.584
281.635
281.649
281.625
281.714
281.761
281.778
281.766
282.166
282.237
282.266
282.254
282.75
282.858
282.9
282.883
283.331
283.485
283.542
283.51
283.991
284.2
284.269
284.212
284.608
284.877
284.956
284.864
285.274
285.6
285.684
285.549
285.91
286.268
286.353
286.18
287.117
287.41
287.503
287.365
281.444
281.487
281.497
281.475
281.439
281.468
281.477
281.468
281.753
281.792
281.808
281.802
282.172
282.228
282.254
282.252
282.588
282.668
282.707
282.707
283.082
283.195
283.247
283.244
283.544
283.696
283.76
283.746
284.062
284.254
284.328
284.296
284.569
284.786
284.862
284.808
285.651
285.805
285.886
285.87
281.388
281.427
281.436
281.414
281.296
281.315
281.321
281.313
281.516
281.539
281.549
281.544
281.828
281.859
281.874
281.875
282.137
282.179
282.203
282.209
282.517
282.579
282.613
282.622
282.867
282.951
282.997
283.006
283.271
283.382
283.436
283.441
283.658
283.788
283.846
283.839
284.622
284.688
284.75
284.785
281.376
281.412
281.42
281.4
281.23
281.244
281.248
281.242
281.383
281.398
281.404
281.401
281.615
281.633
281.643
281.644
281.847
281.871
281.886
281.892
282.146
282.18
282.202
282.212
282.414
282.462
282.491
282.504
282.732
282.796
282.833
282.846
283.021
283.098
283.138
283.145
283.885
283.897
283.94
283.993
281.382
281.416
281.424
281.405
281.204
281.214
281.218
281.214
281.309
281.32
281.324
281.322
281.482
281.493
281.499
281.501
281.655
281.669
281.679
281.684
281.89
281.91
281.924
281.932
282.094
282.122
282.141
282.152
282.346
282.383
282.407
282.42
282.559
282.605
282.632
282.642
283.341
283.321
283.348
283.404
281.394
281.426
281.434
281.416
281.199
281.208
281.211
281.208
281.272
281.279
281.283
281.282
281.398
281.406
281.41
281.412
281.527
281.536
281.542
281.547
281.711
281.722
281.732
281.738
281.863
281.879
281.892
281.9
282.063
282.084
282.1
282.11
282.218
282.245
282.262
282.271
282.929
282.89
282.906
282.959
281.405
281.436
281.443
281.427
281.205
281.212
281.215
281.214
281.256
281.262
281.265
281.265
281.346
281.352
281.356
281.358
281.442
281.447
281.452
281.456
281.584
281.591
281.598
281.603
281.693
281.703
281.711
281.718
281.852
281.865
281.875
281.883
281.959
281.976
281.987
281.993
282.609
282.56
282.569
282.619
281.412
281.442
281.449
281.433
281.215
281.221
281.223
281.224
281.254
281.258
281.261
281.262
281.315
281.319
281.322
281.325
281.385
281.389
281.393
281.396
281.494
281.498
281.503
281.507
281.567
281.573
281.579
281.584
281.696
281.703
281.71
281.715
281.763
281.772
281.779
281.784
282.357
282.304
282.309
282.355
281.413
281.442
281.449
281.434
281.225
281.23
281.233
281.234
281.258
281.262
281.264
281.266
281.295
281.299
281.302
281.304
281.347
281.35
281.353
281.356
281.429
281.432
281.436
281.438
281.473
281.477
281.481
281.484
281.58
281.584
281.588
281.592
281.612
281.617
281.621
281.625
282.157
282.103
282.105
282.148
281.409
281.436
281.443
281.429
281.233
281.237
281.24
281.241
281.266
281.27
281.272
281.274
281.282
281.285
281.288
281.289
281.321
281.324
281.327
281.328
281.382
281.384
281.387
281.388
281.402
281.404
281.407
281.409
281.495
281.497
281.5
281.503
281.495
281.497
281.5
281.503
281.997
281.944
281.945
281.984
281.399
281.425
281.432
281.418
281.236
281.24
281.243
281.244
281.276
281.28
281.282
281.283
281.27
281.274
281.277
281.277
281.303
281.305
281.307
281.307
281.346
281.348
281.35
281.35
281.347
281.349
281.35
281.351
281.434
281.435
281.437
281.439
281.404
281.404
281.406
281.409
281.866
281.817
281.817
281.852
281.386
281.412
281.418
281.405
281.233
281.239
281.242
281.242
281.286
281.29
281.292
281.292
281.259
281.263
281.265
281.264
281.287
281.29
281.291
281.29
281.316
281.318
281.319
281.319
281.303
281.304
281.305
281.306
281.391
281.391
281.392
281.394
281.331
281.33
281.331
281.334
281.76
281.716
281.716
281.746
281.377
281.402
281.407
281.394
281.223
281.23
281.233
281.231
281.294
281.299
281.301
281.299
281.244
281.249
281.251
281.248
281.27
281.273
281.274
281.272
281.289
281.29
281.291
281.29
281.267
281.267
281.268
281.268
281.361
281.36
281.361
281.362
281.269
281.268
281.268
281.27
281.677
281.641
281.64
281.665
281.386
281.41
281.415
281.402
281.2
281.208
281.21
281.207
281.297
281.303
281.304
281.301
281.226
281.231
281.232
281.228
281.251
281.254
281.254
281.252
281.261
281.262
281.262
281.261
281.235
281.235
281.234
281.234
281.334
281.333
281.333
281.335
281.21
281.207
281.207
281.209
281.627
281.598
281.598
281.617
281.438
281.458
281.461
281.45
281.153
281.161
281.163
281.158
281.288
281.294
281.295
281.29
281.206
281.21
281.21
281.206
281.23
281.232
281.232
281.23
281.233
281.234
281.234
281.233
281.207
281.206
281.206
281.206
281.3
281.299
281.299
281.301
281.138
281.135
281.135
281.137
281.622
281.604
281.604
281.616
281.53
281.543
281.545
281.538
281.074
281.08
281.08
281.074
281.264
281.269
281.27
281.266
281.189
281.191
281.191
281.188
281.212
281.213
281.213
281.211
281.213
281.212
281.212
281.212
281.189
281.187
281.186
281.187
281.258
281.258
281.258
281.259
281.047
281.044
281.043
281.045
281.655
281.65
281.651
281.654
282.568
281.267
280.723
280.383
280.096
279.859
279.671
279.522
279.4
279.29
282.789
281.556
280.738
280.23
279.827
279.531
279.312
279.144
279.013
278.896
283.393
282.111
281.011
280.397
279.919
279.591
279.351
279.168
279.026
278.903
284.029
282.702
281.344
280.666
280.125
279.772
279.511
279.312
279.156
279.022
284.578
283.247
281.648
280.916
280.313
279.937
279.652
279.436
279.266
279.123
285.221
283.828
282.013
281.244
280.578
280.179
279.867
279.631
279.441
279.277
285.784
284.314
282.305
281.511
280.787
280.368
280.029
279.773
279.564
279.385
286.414
284.87
282.681
281.868
281.084
280.641
280.268
279.981
279.739
279.524
286.912
285.308
282.947
282.155
281.337
280.887
280.474
280.154
279.879
279.634
288.614
287
284.498
283.65
282.711
282.138
281.604
281.182
280.825
280.503
284.336
283.034
282.06
281.36
280.878
280.54
280.295
280.11
279.966
279.841
284.854
283.09
281.785
280.949
280.413
280.048
279.788
279.597
279.453
279.339
285.467
283.321
281.775
280.88
280.31
279.932
279.666
279.473
279.332
279.222
285.974
283.548
281.823
280.91
280.315
279.931
279.662
279.47
279.329
279.222
286.288
283.672
281.83
280.909
280.292
279.907
279.637
279.446
279.308
279.205
286.542
283.819
281.891
280.98
280.344
279.961
279.689
279.499
279.359
279.253
286.649
283.877
281.882
280.998
280.346
279.971
279.699
279.509
279.369
279.262
286.763
284
281.951
281.106
280.439
280.072
279.793
279.597
279.444
279.323
286.775
284.042
281.945
281.176
280.521
280.179
279.889
279.68
279.513
279.377
287.68
285.087
282.998
282.276
281.572
281.174
280.815
280.552
280.339
280.173
282.53
282.14
281.772
281.448
281.173
280.941
280.749
280.589
280.453
280.332
283.068
282.386
281.779
281.281
280.88
280.563
280.313
280.117
279.961
279.835
283.848
282.855
282.015
281.372
280.876
280.501
280.216
279.999
279.832
279.702
284.617
283.324
282.265
281.501
280.931
280.515
280.208
279.978
279.804
279.671
285.214
283.661
282.413
281.556
280.929
280.487
280.166
279.93
279.753
279.621
285.759
283.987
282.576
281.653
280.982
280.524
280.194
279.954
279.774
279.638
286.145
284.195
282.645
281.68
280.979
280.515
280.18
279.938
279.756
279.62
286.501
284.42
282.756
281.772
281.05
280.585
280.245
279.998
279.806
279.659
286.739
284.544
282.784
281.822
281.106
280.657
280.31
280.054
279.852
279.692
287.711
285.513
283.721
282.78
282.034
281.548
281.156
280.861
280.628
280.452
281.965
281.802
281.623
281.445
281.279
281.128
280.994
280.876
280.77
280.671
282.262
281.96
281.633
281.324
281.051
280.819
280.623
280.461
280.325
280.211
282.901
282.421
281.926
281.488
281.118
280.816
280.571
280.373
280.215
280.087
283.627
282.935
282.256
281.689
281.23
280.868
280.584
280.36
280.184
280.046
284.268
283.351
282.49
281.808
281.272
280.864
280.55
280.309
280.122
279.979
284.907
283.767
282.733
281.952
281.353
280.91
280.575
280.321
280.125
279.976
285.421
284.068
282.877
282.017
281.369
280.902
280.553
280.291
280.09
279.937
285.916
284.372
283.042
282.126
281.442
280.96
280.6
280.33
280.119
279.957
286.305
284.576
283.127
282.191
281.495
281.014
280.645
280.366
280.146
279.975
287.327
285.503
284.002
283.059
282.335
281.826
281.425
281.119
280.879
280.7
281.595
281.531
281.455
281.372
281.286
281.201
281.12
281.045
280.972
280.898
281.701
281.57
281.413
281.247
281.087
280.937
280.802
280.683
280.579
280.486
282.17
281.957
281.7
281.44
281.197
280.981
280.794
280.635
280.501
280.389
282.755
282.429
282.046
281.68
281.352
281.071
280.836
280.642
280.482
280.353
283.31
282.841
282.319
281.844
281.436
281.098
280.824
280.602
280.424
280.284
283.906
283.278
282.611
282.032
281.551
281.166
280.86
280.616
280.423
280.272
284.418
283.62
282.81
282.14
281.596
281.174
280.843
280.585
280.38
280.223
284.934
283.968
283.023
282.277
281.685
281.235
280.885
280.613
280.397
280.23
285.364
284.221
283.157
282.364
281.744
281.28
280.917
280.634
280.41
280.234
286.373
285.119
283.991
283.17
282.519
282.031
281.644
281.342
281.103
280.926
281.455
281.419
281.382
281.34
281.294
281.247
281.2
281.154
281.106
281.053
281.424
281.356
281.276
281.186
281.092
280.999
280.911
280.829
280.754
280.685
281.757
281.651
281.514
281.361
281.208
281.063
280.93
280.812
280.707
280.616
282.202
282.041
281.827
281.598
281.377
281.174
280.994
280.838
280.705
280.593
282.64
282.401
282.092
281.778
281.485
281.226
281.004
280.816
280.659
280.531
283.143
282.806
282.39
281.987
281.624
281.314
281.054
280.839
280.661
280.519
283.59
283.139
282.611
282.122
281.696
281.341
281.05
280.813
280.619
280.467
284.063
283.487
282.847
282.281
281.8
281.41
281.093
280.838
280.631
280.467
284.466
283.749
283.007
282.384
281.867
281.453
281.119
280.851
280.635
280.463
285.419
284.611
283.806
283.145
282.595
282.158
281.803
281.52
281.292
281.123
281.4
281.377
281.357
281.335
281.311
281.285
281.259
281.231
281.2
281.162
281.282
281.243
281.2
281.15
281.095
281.039
280.984
280.93
280.878
280.828
281.516
281.459
281.383
281.295
281.201
281.107
281.016
280.932
280.855
280.785
281.851
281.767
281.646
281.506
281.361
281.22
281.09
280.972
280.867
280.776
282.185
282.06
281.878
281.676
281.474
281.285
281.115
280.965
280.835
280.726
282.591
282.41
282.155
281.884
281.623
281.387
281.178
280.998
280.845
280.719
282.957
282.705
282.37
282.028
281.71
281.428
281.186
280.981
280.808
280.67
283.359
283.024
282.605
282.196
281.825
281.506
281.235
281.008
280.82
280.669
283.699
283.267
282.77
282.307
281.897
281.55
281.258
281.018
280.819
280.659
284.577
284.082
283.532
283.03
282.588
282.217
281.908
281.653
281.445
281.289
281.391
281.374
281.361
281.349
281.336
281.322
281.307
281.29
281.27
281.242
281.219
281.194
281.169
281.14
281.108
281.074
281.039
281.004
280.969
280.933
281.381
281.348
281.305
281.252
281.194
281.134
281.074
281.016
280.961
280.909
281.631
281.585
281.514
281.427
281.334
281.239
281.148
281.061
280.982
280.911
281.883
281.814
281.705
281.575
281.439
281.306
281.18
281.065
280.963
280.875
282.204
282.103
281.946
281.767
281.585
281.411
281.251
281.107
280.981
280.875
282.493
282.349
282.137
281.904
281.674
281.46
281.267
281.098
280.952
280.832
282.821
282.625
282.355
282.069
281.793
281.543
281.322
281.13
280.967
280.833
283.091
282.834
282.508
282.177
281.866
281.588
281.345
281.138
280.964
280.821
283.889
283.594
283.229
282.863
282.523
282.223
281.963
281.744
281.561
281.423
281.4
281.386
281.378
281.371
281.364
281.356
281.347
281.337
281.324
281.301
281.197
281.181
281.165
281.147
281.127
281.106
281.084
281.061
281.037
281.012
281.309
281.289
281.263
281.231
281.194
281.156
281.116
281.077
281.038
281.001
281.494
281.468
281.424
281.369
281.309
281.245
281.182
281.121
281.063
281.01
281.682
281.641
281.573
281.49
281.399
281.307
281.217
281.132
281.054
280.986
281.933
281.873
281.775
281.657
281.532
281.407
281.289
281.179
281.079
280.994
282.153
282.068
281.933
281.777
281.615
281.457
281.309
281.175
281.056
280.957
282.415
282.299
282.125
281.929
281.731
281.541
281.368
281.213
281.077
280.964
282.622
282.469
282.258
282.027
281.798
281.584
281.39
281.219
281.072
280.95
283.344
283.171
282.933
282.675
282.422