/*--------------------------------*- C++ -*----------------------------------*\
| =========                 |                                                 |
| \\      /  F ield         | foam-extend: Open Source CFD                    |
|  \\    /   O peration     | Version:     4.0                                |
|   \\  /    A nd           | Web:         http://www.foam-extend.org         |
|    \\/     M anipulation  |                                                 |
\*---------------------------------------------------------------------------*/
FoamFile
{
    version     2.0;
    format      ascii;
    class       volScalarField;
    location    "2450";
    object      epsilon;
}
// * * * * * * * * * * * * * * * * * * * * * * * * * * * * * * * * * * * * * //

dimensions      [0 2 -3 0 0 0 0];

internalField   nonuniform List<scalar> 
34480
(
4930.66
4928.63
4928.52
4930.02
4933.24
4938.4
4951.02
5004.67
5194.52
5725.84
655.454
602.152
601.234
653.207
838.753
1576.07
5099.53
22849.9
103710
382387
618.855
523.192
509.541
569.178
809.979
1829.14
7041.68
35119
172535
699242
524.873
439.461
427.421
485.124
733.845
1883.45
8219.39
44412.5
232218
1.01098e+06
456.71
384.828
377.39
433.157
684.856
1927.59
9178.02
52591.4
289184
1.33361e+06
392.532
332.849
326.615
378.486
628.393
1956.3
10121.4
61045.7
350634
1.6987e+06
353.291
302.796
298.399
346.422
591.501
1962.8
10725.8
67199.8
400353
2.02276e+06
321.381
282.12
277.718
317.512
534.209
1820.52
10350.4
66983.9
412653
2.16764e+06
460.061
435.978
433.369
458.778
597.102
1410.15
6840.96
43696.2
275989
1.49853e+06
5709.13
5709.36
5714.81
5726.76
5743.59
5763.66
5787.87
5823.82
5890.22
5958.89
4856.08
4853.56
4853.08
4854.57
4858.57
4865.58
4876.71
4902.84
4965.48
5186.01
512.077
479.205
473.569
487.69
532.096
648.54
1002.87
2354.54
11801.3
103648
447.079
384.004
370.304
389.71
458.504
645.782
1229.71
3567.14
21358.2
197644
399.673
338.73
325.27
344.978
416.448
620.199
1294.5
4289.58
30234.6
294758
365.894
311.16
300.622
319.832
390.786
598.932
1321.85
4812.26
38717.1
396503
326.364
278.981
269.174
286.46
352.243
554.153
1294.14
5180.47
47348.9
508566
302.557
260.861
252.683
267.946
328.941
521.47
1256.2
5361.13
54216.6
607814
283.121
249.973
242.296
253.915
301.57
456.653
1074.66
4828.03
54992.4
652023
432.856
410.967
405.863
413.328
443.449
531.69
848.143
2980.69
36400
467548
5591.66
5587.34
5587.85
5594.49
5606.17
5620.75
5640.11
5673.13
5740.79
5913.69
4770.95
4768.55
4767.8
4768.61
4771.24
4775.38
4780.2
4790.99
4815.06
4870.12
399.894
386.447
383.784
388.542
403.676
439.044
527.095
758.604
1516.84
5758.5
308.158
276.925
270.09
279.268
309.68
379.298
550.416
1030.17
2859.52
14988.4
290.289
256.465
248.791
259.368
294.527
378.448
597.238
1279.81
4409.21
28919.6
280.882
247.921
241.473
252.43
289.541
380.33
629.046
1481.36
6140.46
47809.6
261.353
231.098
224.607
235.006
270.705
361.675
625.244
1625.64
8150.84
73152.7
250.558
222.536
216.945
226.436
260.527
349.192
617.201
1724.55
10165.4
101598
243.079
220.111
214.698
222.324
249.662
322.191
549.954
1594.47
11043.3
122897
402.726
386.384
382.633
388.281
408.716
461.626
607.137
1235.57
7680.99
92096.9
5481.98
5474.89
5472.59
5476.17
5484.97
5496.95
5513.46
5544.24
5616.72
5802.13
4674.93
4673.42
4673
4673.63
4675.43
4677.72
4678.72
4681.53
4688.93
4705.05
328.462
324.34
323.52
324.615
328.697
339.051
365.062
421.605
541.213
940.369
219.321
206.066
203.216
207.258
220.651
248.942
309.078
445.24
772.138
2085.84
214.448
197.728
193.795
199.317
217.274
256.765
345.551
565.541
1169.54
4141.65
217.581
199.543
195.956
202.155
222.76
269.307
379.541
675.984
1611.22
7155.34
210.719
192.773
188.735
195.126
216.354
266.435
392.106
761.683
2117.71
11599.9
208.514
190.732
187.087
193.239
214.636
266.168
401.084
827.42
2633.58
17124
209.986
194.709
190.987
196.28
214.35
258.903
379.803
795.223
2860.92
21851
375.692
363.707
360.873
365.065
380.029
417.004
508.761
782.715
2181.17
16545.5
5359.99
5352.91
5350.35
5353.42
5361.68
5374.06
5391.2
5422.06
5488.87
5632.08
4569.52
4568.84
4568.7
4569.1
4570.06
4570.77
4569.46
4568.33
4568.27
4570.03
285.509
284.768
284.669
284.438
284.433
286.169
293.406
307.379
329.716
375.956
167.907
162.889
161.848
163.267
168.3
178.521
198.303
237.436
308.117
484.23
166.473
158.749
156.789
159.286
167.542
184.777
219.574
294.216
443.138
889.759
173.919
164.611
162.678
165.769
176.217
198.557
246.04
356.474
601.426
1498
173.618
163.426
160.934
164.48
176.215
202.444
261.466
410.924
783.89
2434.97
176.095
165.194
162.823
166.448
179.081
207.886
275.365
457.583
966.539
3640.76
183.354
173.476
170.906
174.286
185.613
212.181
276.686
463.603
1058.69
4746.65
351.361
342.76
340.577
343.465
354.009
379.262
438.188
581.556
1009.52
3814.38
5230.32
5223.39
5220.67
5223.25
5230.87
5242.96
5259.62
5288
5343.69
5446.04
4455.71
4455.65
4455.73
4455.95
4456.32
4455.98
4453.96
4451.87
4450.1
4449.02
259.797
259.879
259.961
259.442
258.449
258.049
259.946
263.299
268.031
275.304
139.445
137.799
137.53
137.915
139.53
142.773
148.675
159.187
175.182
203.047
137.539
134.159
133.235
134.281
137.833
144.901
157.839
182.368
222.507
303.002
145.047
140.515
139.565
140.993
145.962
156.016
175.327
215.18
286.341
458.039
147.362
141.842
140.39
142.253
148.412
161.442
187.87
247.288
364.055
701.809
151.782
145.382
143.935
145.961
153.088
168.452
200.813
278.314
444.176
1014.09
162.271
156.17
154.494
156.573
163.401
178.662
212.139
297.469
500.456
1320.59
329.482
323.586
321.979
323.932
331.272
348.553
387.06
467.62
640.004
1290.6
5092.37
5085.83
5083.13
5085.34
5092.25
5103.54
5119.03
5143.94
5187.01
5254.27
4334.19
4334.55
4334.78
4334.88
4334.86
4333.9
4332.03
4330.03
4328.21
4326.87
243.796
243.75
243.775
243.3
242.371
241.927
242.289
243.018
244.121
245.925
123.985
123.572
123.579
123.618
124.004
124.852
126.395
128.976
132.496
137.195
120.667
119.232
118.809
119.223
120.696
123.518
128.27
136.263
147.554
163.746
126.667
124.564
124.142
124.754
127.007
131.347
138.964
152.943
174.38
210.557
129.507
126.63
125.819
126.752
129.859
136.117
147.662
170.704
209.285
285.81
134.273
130.645
129.807
130.879
134.752
142.688
157.841
190.046
247.845
381.556
146.169
142.568
141.526
142.752
146.714
155.223
172.353
210.936
286.968
489.914
310.15
306.301
305.142
306.435
311.516
323.507
349.145
396.336
480.003
667.553
4945.9
4939.96
4937.42
4939.29
4945.41
4955.45
4969.2
4990.2
5022.66
5066.5
4205.5
4206.11
4206.43
4206.45
4206.21
4205.13
4203.64
4202.04
4200.61
4199.54
232.908
232.483
232.378
232.027
231.434
231.251
231.268
231.417
231.803
232.794
115.601
115.579
115.658
115.608
115.615
115.728
116
116.503
117.191
117.984
111.053
110.449
110.256
110.416
111.022
112.154
113.944
116.657
120.073
123.797
115.292
114.365
114.202
114.446
115.432
117.258
120.25
125.186
131.928
140.366
117.754
116.307
115.873
116.324
117.847
120.798
125.852
134.851
148.24
167.558
122.085
120.092
119.633
120.172
122.222
126.251
133.356
146.776
167.939
202.423
134.229
132.211
131.594
132.293
134.517
139.159
147.946
165.502
195.873
252.188
293.17
290.808
289.978
290.834
294.387
302.96
320.356
349.004
394.127
462.635
4790.75
4785.57
4783.29
4784.86
4790.11
4798.63
4810.31
4827.3
4851.17
4880.1
4069.95
4070.7
4071.07
4071.05
4070.69
4069.8
4068.7
4067.54
4066.52
4065.73
224.503
223.703
223.467
223.231
222.984
222.932
222.911
222.974
223.259
224.15
111.006
111.069
111.145
111.089
111.014
110.94
110.888
110.889
110.952
111.059
105.704
105.442
105.35
105.412
105.667
106.138
106.847
107.834
108.975
109.978
108.446
108.058
108.01
108.099
108.519
109.274
110.456
112.242
114.482
116.707
110.262
109.561
109.337
109.548
110.279
111.653
113.89
117.508
122.46
128.095
113.879
112.811
112.573
112.833
113.9
115.93
119.311
125.065
133.3
143.385
125.601
124.541
124.197
124.585
125.796
128.288
132.824
140.976
153.817
171.851
278.196
276.873
276.266
276.849
279.404
285.767
297.757
315.706
341.527
371.322
4626.91
4622.59
4620.64
4621.92
4626.26
4633.16
4642.68
4655.9
4672.99
4691.97
3927.95
3928.61
3929
3928.97
3928.61
3927.99
3927.23
3926.43
3925.73
3925.16
216.926
216.032
215.685
215.537
215.482
215.461
215.461
215.538
215.834
216.725
108.393
108.455
108.507
108.466
108.394
108.3
108.2
108.116
108.073
108.077
102.811
102.686
102.638
102.664
102.779
102.988
103.292
103.688
104.115
104.434
104.449
104.294
104.29
104.318
104.495
104.808
105.281
105.948
106.728
107.39
105.648
105.322
105.211
105.308
105.652
106.284
107.281
108.777
110.711
112.634
108.536
107.972
107.856
107.978
108.531
109.557
111.197
113.759
117.161
120.569
119.493
118.986
118.807
119.02
119.662
120.986
123.326
127.18
132.824
139.521
264.785
264.159
263.691
264.113
266.038
270.906
279.257
290.783
306.142
320.303
4454.52
4451.07
4449.49
4450.5
4453.94
4459.28
4466.74
4476.63
4488.52
4500.77
3779.62
3780.14
3780.47
3780.44
3780.21
3779.79
3779.28
3778.75
3778.29
3777.87
209.481
208.599
208.259
208.151
208.116
208.112
208.133
208.227
208.539
209.427
106.794
106.836
106.869
106.841
106.787
106.715
106.636
106.566
106.529
106.536
101.296
101.227
101.2
101.212
101.269
101.371
101.516
101.695
101.88
101.999
102.197
102.134
102.14
102.148
102.226
102.362
102.563
102.829
103.116
103.338
102.916
102.771
102.717
102.761
102.921
103.21
103.654
104.284
105.065
105.813
105.178
104.879
104.824
104.883
105.174
105.704
106.521
107.712
109.189
110.496
115.215
115.009
114.926
115.043
115.377
116.078
117.268
119.1
121.602
124.389
252.454
252.278
251.887
252.22
253.76
257.512
263.35
270.866
280.27
287.089
4273.85
4271.23
4270.02
4270.8
4273.38
4277.37
4282.97
4290.1
4298.14
4305.89
3625.1
3625.52
3625.77
3625.76
3625.62
3625.35
3625.02
3624.67
3624.37
3624.05
201.821
200.966
200.655
200.561
200.535
200.539
200.57
200.671
200.985
201.856
105.699
105.721
105.739
105.721
105.686
105.639
105.589
105.546
105.532
105.552
100.53
100.488
100.472
100.478
100.509
100.563
100.638
100.728
100.821
100.874
100.979
100.947
100.951
100.953
100.993
101.062
101.161
101.283
101.404
101.494
101.368
101.306
101.28
101.301
101.375
101.506
101.704
101.973
102.295
102.619
103.14
102.975
102.95
102.981
103.142
103.429
103.854
104.44
105.119
105.681
112.203
112.15
112.12
112.186
112.359
112.725
113.312
114.17
115.245
116.503
240.737
240.838
240.481
240.768
242.081
244.89
248.95
253.875
259.758
262.813
4085.33
4083.46
4082.59
4083.15
4084.99
4087.88
4091.92
4096.86
4102.13
4106.94
3464.59
3464.93
3465.13
3465.13
3465.05
3464.88
3464.66
3464.44
3464.25
3463.98
193.767
192.947
192.664
192.581
192.559
192.565
192.597
192.695
193.002
193.847
104.848
104.856
104.864
104.852
104.831
104.804
104.776
104.755
104.76
104.79
100.159
100.133
100.124
100.127
100.143
100.172
100.211
100.259
100.311
100.338
100.35
100.328
100.326
100.328
100.353
100.397
100.457
100.528
100.591
100.641
100.535
100.509
100.497
100.507
100.541
100.601
100.69
100.806
100.941
101.098
101.943
101.844
101.832
101.852
101.949
102.116
102.352
102.664
103.001
103.28
110.018
110.035
110.032
110.072
110.165
110.347
110.619
111.003
111.418
112.027
229.211
229.478
229.125
229.391
230.528
232.498
235.28
238.493
242.218
243.259
3889.54
3888.28
3887.71
3888.09
3889.32
3891.36
3894.16
3897.46
3900.79
3903.72
3298.38
3298.67
3298.82
3298.83
3298.78
3298.68
3298.55
3298.41
3298.28
3298.04
185.211
184.43
184.175
184.103
184.082
184.087
184.115
184.204
184.498
185.309
104.114
104.113
104.114
104.107
104.096
104.082
104.07
104.063
104.079
104.114
99.9895
99.9743
99.9703
99.9719
99.9793
99.9922
100.011
100.034
100.064
100.08
100.045
100.025
100.02
100.022
100.04
100.073
100.117
100.167
100.21
100.245
100.114
100.102
100.096
100.101
100.118
100.146
100.187
100.239
100.296
100.382
101.253
101.188
101.181
101.197
101.261
101.366
101.509
101.691
101.876
102.044
108.329
108.384
108.393
108.42
108.468
108.549
108.66
108.813
108.924
109.246
217.326
217.84
217.516
217.775
218.588
219.934
221.795
223.859
226.221
226.18
3687.22
3686.36
3686.02
3686.26
3687.09
3688.47
3690.33
3692.43
3694.45
3696.19
3126.88
3127.13
3127.24
3127.25
3127.23
3127.16
3127.08
3126.99
3126.91
3126.69
176.069
175.332
175.106
175.044
175.023
175.026
175.048
175.125
175.401
176.174
103.439
103.433
103.429
103.425
103.42
103.415
103.412
103.414
103.437
103.475
99.9214
99.9142
99.9137
99.9141
99.9159
99.9192
99.9249
99.9341
99.9505
99.9613
99.9114
99.8931
99.8852
99.8867
99.9016
99.9279
99.9625
100
100.034
100.062
99.9195
99.9129
99.9091
99.9115
99.9203
99.9351
99.9549
99.9792
100.004
100.056
100.853
100.807
100.801
100.815
100.86
100.931
101.025
101.14
101.253
101.373
106.922
106.989
107.009
107.025
107.046
107.076
107.108
107.153
107.128
107.32
204.844
205.497
205.3
205.482
206.026
206.91
208.107
209.403
210.878
210.287
3479.13
3478.58
3478.36
3478.52
3479.06
3479.95
3481.12
3482.39
3483.54
3484.57
2950.62
2950.83
2950.91
2950.92
2950.91
2950.87
2950.82
2950.76
2950.7
2950.51
166.262
165.572
165.376
165.327
165.304
165.304
165.32
165.383
165.637
166.37
102.797
102.789
102.782
102.78
102.779
102.779
102.782
102.79
102.815
102.856
99.9046
99.9026
99.9041
99.9038
99.9024
99.9002
99.8985
99.8994
99.9073
99.9167
99.8648
99.8484
99.8401
99.8411
99.8525
99.8729
99.8995
99.9286
99.9548
99.9786
99.845
99.8398
99.8367
99.8378
99.8429
99.8514
99.8622
99.8747
99.8866
99.9198
100.607
100.572
100.567
100.578
100.61
100.66
100.724
100.801
100.875
100.969
105.657
105.722
105.745
105.756
105.764
105.77
105.767
105.765
105.687
105.818
191.596
192.299
192.204
192.327
192.67
193.217
193.938
194.722
195.605
194.785
3266.15
3265.82
3265.69
3265.8
3266.13
3266.66
3267.35
3268.07
3268.68
3269.26
2770.32
2770.49
2770.55
2770.56
2770.56
2770.54
2770.5
2770.46
2770.42
2770.24
155.694
155.055
154.886
154.85
154.833
154.831
154.84
154.889
155.115
155.807
102.185
102.174
102.167
102.165
102.166
102.17
102.176
102.186
102.211
102.254
99.9137
99.914
99.916
99.9154
99.9126
99.9081
99.9032
99.9003
99.9033
99.913
99.8611
99.8474
99.84
99.8404
99.8484
99.863
99.882
99.9031
99.923
99.9423
99.8324
99.8276
99.825
99.8253
99.8283
99.8334
99.8395
99.8464
99.8524
99.8736
100.43
100.403
100.399
100.407
100.429
100.463
100.506
100.557
100.606
100.683
104.458
104.51
104.532
104.54
104.542
104.539
104.524
104.506
104.416
104.516
177.436
178.12
178.104
178.183
178.379
178.681
179.06
179.502
179.976
179.134
3049.37
3049.19
3049.12
3049.18
3049.36
3049.66
3050.04
3050.4
3050.69
3051.01
2586.98
2587.12
2587.16
2587.18
2587.17
2587.16
2587.14
2587.11
2587.06
2586.91
144.231
143.654
143.513
143.489
143.484
143.482
143.484
143.516
143.706
144.352
101.609
101.596
101.588
101.586
101.588
101.593
101.601
101.611
101.633
101.677
99.9327
99.9326
99.934
99.9331
99.9303
99.926
99.9212
99.9177
99.9184
99.929
99.8784
99.868
99.8624
99.8622
99.8672
99.8765
99.8888
99.9027
99.9167
99.9315
99.8521
99.8482
99.8461
99.8459
99.8474
99.85
99.8531
99.8563
99.8592
99.8716
100.273
100.253
100.249
100.254
100.268
100.289
100.315
100.345
100.377
100.436
103.291
103.327
103.345
103.35
103.349
103.343
103.325
103.304
103.224
103.304
162.209
162.816
162.864
162.911
162.999
163.119
163.249
163.455
163.628
162.905
2830.08
2829.99
2829.95
2829.98
2830.08
2830.22
2830.4
2830.56
2830.68
2830.83
2401.73
2401.84
2401.87
2401.88
2401.88
2401.87
2401.85
2401.83
2401.8
2401.68
131.646
131.153
131.062
131.051
131.05
131.046
131.042
131.056
131.188
131.768
101.087
101.072
101.065
101.062
101.064
101.069
101.076
101.085
101.102
101.142
99.9496
99.9477
99.9479
99.9469
99.9449
99.9421
99.9391
99.937
99.9374
99.9479
99.9084
99.9014
99.8978
99.8975
99.9002
99.9053
99.9122
99.9202
99.929
99.9392
99.89
99.8876
99.8863
99.8859
99.8862
99.887
99.8878
99.8885
99.8893
99.895
100.119
100.106
100.103
100.105
100.113
100.123
100.136
100.151
100.168
100.208
102.169
102.188
102.198
102.2
102.196
102.187
102.17
102.151
102.097
102.156
145.452
145.928
145.962
145.998
146.058
146.138
146.22
146.28
146.212
145.693
2609.71
2609.66
2609.65
2609.66
2609.69
2609.74
2609.79
2609.84
2609.87
2609.94
2215.03
2215.09
2215.1
2215.1
2215.1
2215.1
2215.09
2215.09
2215.09
2215.03
117.389
117.051
117.021
117.025
117.027
117.022
117.012
117.005
117.05
117.478
100.625
100.609
100.602
100.598
100.599
100.602
100.608
100.617
100.63
100.662
99.9659
99.9636
99.963
99.9623
99.9614
99.9603
99.9592
99.9586
99.9594
99.9664
99.9506
99.9469
99.9451
99.9449
99.9461
99.9485
99.9518
99.9556
99.9602
99.9658
99.9406
99.9395
99.9389
99.9386
99.9385
99.9383
99.938
99.9376
99.9373
99.9386
100.009
100.004
100.002
100.003
100.006
100.01
100.014
100.019
100.026
100.045
101.125
101.127
101.129
101.128
101.122
101.113
101.1
101.087
101.069
101.111
125.762
126.044
126.062
126.082
126.115
126.157
126.2
126.224
126.174
125.833
2388.98
2388.96
2388.97
2388.97
2388.97
2388.97
2388.97
2388.97
2388.95
2388.99
7183.98
7294.29
7250.54
7044.09
658916
683864
689428
697310
1.49738e+06
1.58409e+06
1.5916e+06
1.57171e+06
2.52525e+06
2.70355e+06
2.70101e+06
2.6195e+06
3.76094e+06
4.05606e+06
4.02973e+06
3.86817e+06
5.30802e+06
5.75135e+06
5.69982e+06
5.48696e+06
6.86853e+06
7.4675e+06
7.4037e+06
7.20699e+06
7.88296e+06
8.6109e+06
8.55622e+06
8.42819e+06
5.6198e+06
6.17926e+06
6.1152e+06
6.08139e+06
7903.66
8151.41
7989.04
7569.81
5749.33
5802.12
5804.65
5765.51
308553
324673
345348
377328
689322
780866
824929
861812
1.17797e+06
1.40288e+06
1.4661e+06
1.49203e+06
1.76356e+06
2.17759e+06
2.2515e+06
2.26498e+06
2.45885e+06
3.11246e+06
3.21171e+06
3.2476e+06
3.13177e+06
4.04031e+06
4.2011e+06
4.31993e+06
3.57333e+06
4.70409e+06
4.94537e+06
5.18027e+06
2.80681e+06
3.81863e+06
4.00722e+06
4.32038e+06
7126.38
7357.97
7287.02
7066.66
4937.9
4948.86
4948.01
4938.29
21661.1
25960.4
24597.1
19966.5
61569.9
73409.8
68678.9
55731.3
128749
152839
140888
114033
228360
270536
246269
199439
372379
441932
401381
326405
545329
648541
591609
485407
702806
839403
769576
636850
584461
696875
629360
524660
6344.36
6431.67
6409.35
6314.02
4716.01
4718.13
4718.69
4717.88
1594.31
1711.29
1679.86
1544.99
4698.14
5172.43
5012.6
4434.6
11230.6
12505
11926.4
10213.6
22554.7
25253.7
23699.5
19746
41691.4
46923
43528
35537.1
68295.4
76985.7
70796.9
57129.8
97160.8
109914
100445
80430.3
83358.7
93766.4
84200.2
67267
5904.03
5945.73
5942.84
5904.92
4568.01
4568.92
4569.13
4568.59
423.281
436.211
438.464
431.551
710.107
757.046
761.559
731.373
1595.02
1736.81
1729.3
1610.29
3203.6
3529.29
3458.51
3118.64
6140.09
6823.35
6583.09
5758.24
10498.2
11693.8
11109.2
9472.73
15692.2
17555.7
16463.9
13724.8
13860.4
15397.4
14114
11586.5
5578.73
5600.76
5602.24
5586.63
4444.96
4445.71
4445.79
4445.16
275.585
278.457
279.169
277.91
226.357
231.456
233.284
232.244
385.581
403.071
407.309
400.541
674.046
717.855
722.107
696.116
1215.15
1316.47
1312.64
1233.51
2023.64
2211.45
2175.76
1991.41
3046.98
3360.5
3261.97
2904.57
2929.01
3183.35
3023.47
2664.19
5318.18
5328.96
5331.1
5325.54
4322.62
4323.34
4323.4
4322.77
241.774
243.68
244.079
243.022
140.134
140.888
141.241
141.227
175.865
178.564
179.692
179.438
243.198
250.226
252.462
250.762
368.97
386.595
390.324
383.183
549.225
582.688
585.331
565.812
795.528
854.993
852.15
807.141
984.696
1029.74
1010.27
962.51
5095.79
5100.67
5102.52
5101.27
4195.51
4196.21
4196.26
4195.66
228.094
229.812
230.151
229.141
118.189
118.327
118.381
118.358
125.852
126.302
126.527
126.554
146.029
147.259
147.803
147.782
183.405
186.917
188.184
187.623
233.788
240.343
242.099
240.312
314.615
327.19
329.129
323.572
543.036
548.701
546.186
542.495
4893.67
4895.68
4896.97
4897.16
4061.96
4062.62
4062.67
4062.11
219.49
221.144
221.473
220.498
110.888
110.945
110.954
110.915
110.347
110.419
110.457
110.466
117.765
117.976
118.086
118.118
131.711
132.522
132.876
132.843
149.878
151.236
151.777
151.736
187.36
190.302
191.148
190.488
400.188
397.213
396.467
399.125
4698.46
4699.15
4699.92
4700.41
3921.66
3922.27
3922.32
3921.81
212.195
213.794
214.115
213.177
107.868
107.917
107.921
107.881
104.484
104.491
104.494
104.494
107.574
107.596
107.61
107.623
113.656
113.877
113.978
113.969
121.961
122.213
122.352
122.429
144.58
145.284
145.547
145.485
335.332
330.251
329.471
332.887
4503.81
4503.91
4504.34
4504.8
3774.64
3775.2
3775.24
3774.77
205.055
206.595
206.907
206.006
106.338
106.386
106.391
106.353
101.988
101.986
101.984
101.983
103.358
103.35
103.347
103.35
106.198
106.278
106.31
106.297
110.766
110.778
110.805
110.858
126.729
126.86
126.913
126.907
297.592
292.083
291.177
294.493
4307.11
4306.97
4307.2
4307.54
3621.09
3621.59
3621.63
3621.2
197.657
199.135
199.437
198.575
105.37
105.417
105.423
105.388
100.853
100.851
100.849
100.849
101.489
101.481
101.476
101.476
102.817
102.857
102.87
102.856
105.715
105.686
105.684
105.714
117.998
117.976
117.958
117.946
271.429
265.975
265.022
268.136
4107.12
4106.94
4107.05
4107.27
3461.31
3461.74
3461.77
3461.39
189.834
191.247
191.537
190.716
104.624
104.668
104.674
104.641
100.318
100.317
100.316
100.316
100.637
100.632
100.629
100.628
101.224
101.249
101.256
101.244
103.288
103.261
103.254
103.27
113.192
113.133
113.093
113.071
250.821
245.573
244.627
247.55
3903.26
3903.14
3903.19
3903.3
3295.66
3296.03
3296.04
3295.72
181.495
182.841
183.12
182.341
103.966
104.007
104.013
103.983
100.064
100.064
100.064
100.064
100.245
100.243
100.241
100.239
100.469
100.488
100.492
100.482
102.072
102.055
102.049
102.055
110.241
110.18
110.135
110.104
232.986
227.997
227.087
229.832
3695.34
3695.31
3695.33
3695.34
3124.62
3124.91
3124.92
3124.64
172.573
173.852
174.119
173.384
103.349
103.387
103.392
103.365
99.9513
99.9524
99.9525
99.9516
100.065
100.064
100.063
100.061
100.119
100.132
100.135
100.127
101.425
101.42
101.416
101.415
108.201
108.151
108.107
108.067
216.462
211.761
210.904
213.476
3483.46
3483.54
3483.55
3483.47
2948.76
2948.99
2948.97
2948.75
163
164.211
164.468
163.779
102.757
102.792
102.798
102.772
99.9134
99.9155
99.9158
99.9143
99.9828
99.9829
99.9821
99.981
99.9645
99.9738
99.975
99.9685
101.04
101.044
101.042
101.036
106.605
106.574
106.534
106.484
200.395
196.013
195.224
197.615
3268
3268.19
3268.2
3268.04
2768.85
2769.01
2768.98
2768.8
152.691
153.837
154.086
153.445
102.191
102.224
102.229
102.205
99.9168
99.92
99.9203
99.918
99.9477
99.9483
99.948
99.9471
99.9035
99.9096
99.91
99.9049
100.762
100.771
100.771
100.761
105.208
105.199
105.166
105.106
184.225
180.218
179.515
181.701
3049.65
3049.93
3049.94
3049.73
2585.93
2586
2585.96
2585.83
141.542
142.634
142.878
142.281
101.648
101.68
101.685
101.662
99.9387
99.9428
99.9432
99.9401
99.9375
99.9385
99.9387
99.9381
99.889
99.8924
99.8924
99.8891
100.511
100.524
100.525
100.514
103.876
103.891
103.866
103.8
167.524
164.01
163.416
165.336
2829.46
2829.79
2829.81
2829.58
2401.16
2401.14
2401.08
2401.02
129.373
130.425
130.665
130.103
101.141
101.169
101.172
101.151
99.9599
99.9642
99.9646
99.9613
99.9448
99.946
99.9464
99.9463
99.9026
99.904
99.9038
99.9023
100.268
100.28
100.281
100.272
102.554
102.58
102.565
102.506
149.615
146.67
146.228
147.865
2608.74
2609.11
2609.12
2608.88
2215.02
2214.86
2214.81
2214.85
115.752
116.733
116.939
116.406
100.666
100.683
100.684
100.67
99.9739
99.9765
99.9767
99.9747
99.9697
99.9707
99.9711
99.9712
99.9404
99.9405
99.9404
99.9402
100.077
100.084
100.085
100.08
101.287
101.295
101.288
101.264
128.33
126.309
126.073
127.23
2388.2
2388.59
2388.6
2388.34
6105.84
5442.9
5173.15
5077.02
5022.21
4983.69
4958.08
4943.71
4935.73
4930.98
798395
193285
33403.8
11732.5
5300.85
2836.42
1749.4
1212.57
928.342
765.147
1.42406e+06
247050
44254.3
15129.5
6776.6
3637.54
2200.63
1460.54
1048.33
803.079
1.99548e+06
239538
46768.6
15018.3
6483.38
3391.29
2000.64
1297.58
912.984
688.635
2.45866e+06
252614
48935.4
14561.3
6098.47
3102.35
1792.14
1144.51
795.548
596.749
2.9304e+06
276402
51143.8
13975
5638.78
2768.71
1561.62
981.255
677.431
508.315
3.31263e+06
294977
52003.1
13162.8
5158.89
2467.97
1375.85
861.589
595.664
450.431
3.39662e+06
287394
47702.6
11002.5
4164.39
1946.82
1093.09
700.348
502.966
394.819
2.34169e+06
182158
27372.7
5711.48
2275.3
1237.96
858.047
671.635
568.204
506.593
6016.19
5992.96
5847.19
5822.78
5779.38
5755.08
5735.8
5725.56
5718.64
5712.69
5443.29
5175.2
5045.27
4972.7
4927.15
4897.14
4877.69
4866.14
4859.92
4855.98
180238
44895
13613.5
5322.79
2635.5
1567.23
1065.14
802.502
656.268
572.309
375677
86409.4
23467.3
8290.92
3889.14
2187.84
1383.92
956.244
710.825
565.78
595035
126245
30701.6
9651.68
4228.12
2261.63
1372.64
915.892
661.629
515.525
830504
165014
36427.8
10417.7
4317.68
2220.01
1310.41
857.667
610.432
472.032
1.1098e+06
207213
41753.8
10864.2
4247.26
2091.51
1198.79
768.928
542.11
418.5
1.38892e+06
244455
45356.5
10851
4055.92
1939.32
1095.74
699.621
493.253
382.967
1.5643e+06
258687
43999.4
9553.52
3395.91
1585.37
900.766
587.818
429.954
345.83
1.18226e+06
178733
26853.8
5249.98
1966.88
1091.44
771.682
615.224
526.615
476.3
6252.84
5952.91
5792.78
5733.95
5683.08
5652.31
5630.01
5616.41
5606.83
5598.53
4904
4869.17
4841.71
4818.9
4801.08
4788.17
4779.55
4774.4
4771.53
4769.48
9199.54
4175.81
2298.85
1432.78
985.412
735.874
591.229
504.974
452.26
420.447
23997.8
9564.63
4650.2
2546.86
1542.08
1010.26
712.7
538.367
431.133
364.773
45437.7
15961.8
6938.05
3411.15
1898.35
1159.06
771.555
555.712
428.551
352.757
73593.7
22902.5
9011.78
4056.11
2119.74
1232.38
791.825
556.678
421.558
343.297
112049
31041.6
11040.7
4548.44
2235.32
1237.06
767.211
526.306
393.531
319.001
156047
38869.4
12577.6
4795.15
2251.82
1206.04
734.795
500.607
373.485
303.549
191504
42871.7
12521.5
4385.68
1974.97
1036.76
636.287
443.074
341.778
286.19
141666
27756.1
7304.52
2547.42
1307.88
842.97
642.73
536.587
473.013
436.304
6018.33
5835.85
5711.23
5637.38
5584.28
5551.15
5528.14
5512.47
5500.88
5490.91
4712.99
4704.62
4695.45
4687.21
4680.96
4676.7
4674.05
4672.69
4672.36
4671.98
1208.04
906.489
708.871
570.478
479.265
420.778
383.197
358.485
341.801
331.527
3028.74
1919.5
1270.39
860.767
612.398
460.961
367.19
307.623
268.179
242.312
6220.96
3481.21
2057.52
1252.18
812.897
564.716
420.262
333.15
278.346
243.992
10747.1
5351.23
2878.31
1610.56
978.858
644.297
460.277
354.615
289.927
250.465
17346.4
7666.78
3761.53
1939.12
1105.24
689.182
472.665
353.789
284.448
243.628
25222.2
9947.82
4496.93
2165.94
1178.9
709.714
476.417
352.878
281.945
240.952
32103.9
11242.4
4659.37
2095.2
1100.7
652.788
441.617
333.009
272.803
238.107
23544.4
7367.3
2961.84
1443.43
906.154
663.6
542.635
472.681
427.921
401.459
5789.07
5660.54
5561.79
5497.89
5453.8
5424.92
5404.21
5389.35
5378.14
5368.66
4567.57
4566.35
4565.1
4564.14
4563.56
4563.31
4563.34
4563.71
4564.62
4565.47
412.728
382.966
356.67
334.887
318.459
306.415
297.566
290.937
285.858
282.61
637.765
512.55
411.729
334.519
279.764
241.963
216.08
198.179
185.241
176.184
1287.29
926.087
666.276
486.304
369.855
294.975
246.644
214.945
193.471
179.271
2276.14
1481.74
973.404
652.895
462.869
348.846
279.644
236.71
208.353
189.982
3814.32
2241
1346.91
830.655
548.862
390.265
299.442
245.702
212.124
191.244
5703.7
3044.36
1696.33
978.335
614.797
420.828
314.962
254.784
217.684
194.945
7460.58
3599.86
1861.21
1012.36
616.773
417.076
313.396
255.929
221.79
201.023
5662.35
2637.05
1436.18
904.152
665.897
539.39
466.868
421.218
389.978
371.108
5535.68
5459.63
5394.36
5347.96
5314.04
5289.79
5271.53
5257.82
5247.24
5238.43
4444.78
4444.9
4445.2
4445.67
4446.27
4446.91
4447.56
4448.36
4449.58
4451.01
277.886
274.889
271.417
267.992
264.974
262.415
260.261
258.414
256.791
255.486
225.926
210.878
194.963
180.654
169.147
160.378
153.854
148.966
145.038
142.077
373.138
321.832
273.24
233.345
203.639
182.284
167.103
156.246
148.281
142.755
613.197
488.037
382.073
302.911
248.82
212.621
188.488
172.251
160.538
152.457
1013.14
737.749
529.286
386.6
296.647
240.223
204.684
181.853
166.428
156.308
1522.13
1022.7
681.306
465.942
339.924
265.201
220.361
192.773
174.285
162.241
2045.5
1267
790.204
514.301
364.937
280.923
232.641
203.528
184.884
172.96
1814.39
1182.37
824.912
628.737
519.813
452.697
409.13
379.523
357.941
344.66
5303.34
5261.69
5221.85
5189.96
5164.53
5144.8
5129.22
5117.07
5107.46
5099.59
4322.51
4322.78
4323.23
4323.84
4324.53
4325.21
4325.87
4326.63
4327.76
4329.22
244.175
244.014
243.667
243.198
242.683
242.149
241.601
241.016
240.375
239.617
140.671
138.603
136.041
133.465
131.203
129.35
127.884
126.701
125.586
124.655
176.557
168.271
158.709
149.715
142.178
136.162
131.445
127.754
124.826
122.728
241.578
220.116
197.593
178.253
163.323
152.234
144.106
138.163
133.437
129.974
355.626
303.665
254.575
215.797
188
168.571
155.052
145.574
138.636
133.883
503.852
404.346
318.116
255.351
213.453
185.773
167.409
155.119
146.114
139.901
681.127
513.398
382.533
294.842
240.145
205.646
183.591
169.093
159.113
152.473
826.665
675.2
559.134
481.201
428.733
391.953
365.449
346.197
331.333
322.028
5091.78
5069.9
5046.1
5024.51
5005.82
4990.28
4977.47
4967.13
4958.74
4951.97
4195.42
4195.63
4195.96
4196.42
4196.94
4197.44
4197.91
4198.47
4199.39
4200.66
230.441
230.669
230.774
230.786
230.728
230.604
230.41
230.124
229.721
229.085
118.339
118.071
117.706
117.305
116.937
116.635
116.405
116.208
115.927
115.639
126.158
124.612
122.561
120.39
118.366
116.582
115.051
113.751
112.652
111.858
146.602
142.548
137.535
132.672
128.478
125.038
122.287
120.124
118.22
116.742
183.562
172.777
160.744
149.914
141.153
134.338
129.116
125.144
122.025
119.834
231.573
210.503
188.327
169.881
155.901
145.594
138.05
132.59
128.226
125.06
302.861
263.978
227.247
198.861
178.536
164.16
153.999
146.779
141.495
137.891
515.49
472.596
430.216
396.142
369.331
348.456
332.072
319.472
309.237
302.746
4892.53
4880.77
4866.39
4851.94
4838.52
4826.72
4816.58
4808.13
4801.1
4795.51
4061.88
4062.02
4062.23
4062.53
4062.87
4063.18
4063.46
4063.8
4064.5
4065.56
221.791
222.057
222.205
222.275
222.282
222.224
222.094
221.865
221.499
220.867
110.951
110.94
110.928
110.913
110.91
110.929
110.97
111.005
110.953
110.857
110.388
110.046
109.543
108.952
108.349
107.773
107.24
106.755
106.327
106.022
117.935
117.078
115.871
114.565
113.325
112.221
111.277
110.493
109.72
109.081
132.023
129.423
126.187
122.907
119.953
117.43
115.337
113.635
112.222
111.225
150.423
145.53
139.433
133.686
128.788
124.801
121.628
119.18
117.057
115.445
186.106