/*--------------------------------*- C++ -*----------------------------------*\
| =========                 |                                                 |
| \\      /  F ield         | foam-extend: Open Source CFD                    |
|  \\    /   O peration     | Version:     4.0                                |
|   \\  /    A nd           | Web:         http://www.foam-extend.org         |
|    \\/     M anipulation  |                                                 |
\*---------------------------------------------------------------------------*/
FoamFile
{
    version     2.0;
    format      ascii;
    class       volScalarField;
    location    "2450";
    object      k;
}
// * * * * * * * * * * * * * * * * * * * * * * * * * * * * * * * * * * * * * //

dimensions      [0 2 -2 0 0 0 0];

internalField   nonuniform List<scalar> 
34480
(
8.76721
8.7648
8.76467
8.76645
8.77026
8.77638
8.79132
8.85472
9.07726
9.68613
9.27995
8.66823
8.57553
8.85517
9.45428
10.3411
11.9397
15.8519
28.7376
67.024
15.0401
13.5707
13.1247
13.2729
13.8433
14.8762
17.2097
22.9053
41.6355
101.406
14.4917
12.9642
12.5141
12.7083
13.4188
14.8333
18.0054
25.4063
49.2499
127.781
13.4286
12.0128
11.6618
11.9288
12.7803
14.4905
18.2599
26.956
55.27
151.575
12.2198
10.9463
10.6339
10.9157
11.8073
13.7008
17.9423
27.9026
61.0604
176.656
11.3268
10.2066
9.95202
10.227
11.1221
13.0878
17.5897
28.42
65.5181
198.015
9.83986
9.00359
8.79876
9.0145
9.72707
11.3973
15.4916
26.1248
64.5441
205.594
6.88246
6.6139
6.56525
6.67528
7.00472
7.72933
9.72993
16.2735
43.4115
149.668
9.23848
9.23873
9.24461
9.2575
9.27562
9.29722
9.32323
9.3618
9.43283
9.506
8.67858
8.67557
8.675
8.67677
8.68154
8.68989
8.70314
8.73419
8.80843
9.06734
7.93
7.51012
7.41678
7.57449
8.02151
8.86389
10.3054
12.1078
15.4274
41.1732
12.2355
11.1728
10.8806
11.0838
11.7625
13.0236
15.2213
18.1223
23.7876
66.4128
12.1395
10.9713
10.6525
10.8957
11.7008
13.2513
16.032
20.0143
28.3902
86.1792
11.5989
10.465
10.1982
10.4743
11.3671
13.1085
16.2971
21.0754
31.8419
104.294
10.8053
9.75499
9.49961
9.77345
10.6718
12.4986
15.9682
21.456
34.8376
123.7
10.2149
9.26276
9.04559
9.29919
10.1727
12.001
15.6081
21.5522
37.1092
140.952
9.05423
8.33236
8.14823
8.33979
9.01756
10.5152
13.6624
19.2851
35.7043
147.363
6.6449
6.39755
6.34336
6.41754
6.68225
7.26727
8.61414
11.5618
22.4916
102.418
9.11132
9.10663
9.10718
9.1144
9.12708
9.1429
9.16388
9.19961
9.27261
9.45787
8.57684
8.57397
8.57307
8.57405
8.57719
8.58215
8.58793
8.60085
8.62963
8.69529
6.78268
6.57107
6.51702
6.59293
6.82435
7.27135
8.06588
9.35982
11.1353
16.4368
9.69152
9.07141
8.91808
9.08568
9.60536
10.5603
12.1753
14.5698
17.5471
29.1789
9.88915
9.15117
8.96581
9.17972
9.83912
11.0949
13.2873
16.6419
21.1138
40.7608
9.75973
9.00455
8.84175
9.0785
9.81702
11.2607
13.8638
17.9407
23.778
52.2519
9.3311
8.60369
8.4362
8.67413
9.42851
10.9743
13.889
18.6189
26.0238
64.9004
9.01608
8.3317
8.18549
8.40812
9.14965
10.7177
13.8026
18.9565
27.7477
76.9243
8.19532
7.66701
7.53776
7.70816
8.28321
9.5657
12.2714
17.1625
26.652
82.8777
6.37362
6.18139
6.14156
6.20251
6.41345
6.8762
7.92512
10.3685
16.6987
57.106
8.99179
8.98403
8.98151
8.98543
8.99505
9.00815
9.02618
9.05974
9.13853
9.33854
8.46137
8.45956
8.45905
8.45981
8.46198
8.46474
8.46595
8.46934
8.47827
8.49768
6.00866
5.91785
5.89076
5.9216
6.02182
6.21442
6.55114
7.13254
7.99602
9.88098
7.80879
7.49614
7.42327
7.51871
7.8202
8.38304
9.33409
10.821
12.6577
17.0737
8.12486
7.70742
7.60368
7.74116
8.1673
8.98962
10.4232
12.7267
15.5982
23.5539
8.24752
7.78892
7.69207
7.84989
8.34815
9.33573
11.1226
14.0847
17.8846
30.1247
8.08397
7.61555
7.50594
7.67291
8.20251
9.30167
11.3877
14.9954
19.8641
37.6351
7.97594
7.51164
7.41219
7.57371
8.11069
9.25635
11.5229
15.5771
21.3677
44.9591
7.44534
7.07506
6.98302
7.11148
7.53539
8.48144
10.48
14.382
20.6524
48.7679
6.13165
5.98468
5.95478
6.00076
6.15816
6.49616
7.22484
8.98544
12.9806
33.0374
8.85789
8.85009
8.84727
8.85064
8.85976
8.87339
8.89224
8.92614
8.99932
9.15518
8.33371
8.33288
8.3327
8.33319
8.33437
8.33523
8.33363
8.33226
8.33218
8.33433
5.53765
5.5032
5.49012
5.5
5.53618
5.60493
5.7202
5.91164
6.17867
6.62115
6.56609
6.42841
6.39762
6.43789
6.57426
6.83256
7.27157
7.98209
8.87906
10.3566
6.87211
6.65546
6.59884
6.66959
6.89682
7.33946
8.11417
9.40821
11.0453
14.0195
7.10212
6.84239
6.78605
6.87336
7.15886
7.72701
8.75929
10.56
12.8858
17.7757
7.09735
6.81076
6.73905
6.83955
7.16336
7.83583
9.11558
11.4645
14.6136
22.2336
7.12088
6.8181
6.75001
6.85196
7.19686
7.92884
9.37342
12.1314
15.9826
26.6474
6.81347
6.56186
6.49577
6.58185
6.86395
7.48525
8.77855
11.4747
15.6918
29.013
5.91845
5.80757
5.78483
5.81664
5.92766
6.15998
6.63032
7.7414
10.1054
19.2392
8.71445
8.70675
8.70373
8.7066
8.71506
8.72847
8.74696
8.7784
8.83992
8.95244
8.19475
8.19468
8.19477
8.19504
8.1955
8.19508
8.19261
8.19004
8.18787
8.18655
5.27036
5.25896
5.25263
5.25488
5.26618
5.28802
5.32348
5.37807
5.4475
5.53732
5.80945
5.75802
5.74832
5.76173
5.81274
5.90959
6.07214
6.33472
6.6742
7.13891
6.04304
5.93936
5.91058
5.94306
6.05128
6.25977
6.61648
7.2117
7.98782
9.10665
6.28235
6.1457
6.11586
6.1595
6.30775
6.59751
7.11208
8.02114
9.2379
11.2029
6.35111
6.18554
6.14135
6.19755
6.38058
6.75308
7.44442
8.74051
10.5396
13.8037
6.44217
6.25422
6.21044
6.27059
6.47792
6.9072
7.72907
9.34062
11.6533
16.3938
6.29323
6.13034
6.08554
6.1405
6.31828
6.69922
7.46014
9.07708
11.6574
17.7685
5.73295
5.6518
5.63558
5.65691
5.73317
5.88845
6.18402
6.83624
8.10063
11.8448
8.56053
8.55321
8.55018
8.55265
8.5604
8.57304
8.59038
8.61823
8.66627
8.74103
8.04507
8.04552
8.0458
8.04592
8.0459
8.04471
8.0424
8.03992
8.03766
8.03601
5.12662
5.12321
5.11976
5.11969
5.12258
5.12897
5.13907
5.15344
5.16958
5.18565
5.37595
5.36102
5.36015
5.36302
5.37803
5.40723
5.45623
5.5339
5.63282
5.75052
5.52657
5.47966
5.46572
5.47949
5.5276
5.61836
5.76708
6.00381
6.30875
6.68034
5.72721
5.65979
5.64551
5.66549
5.73719
5.87331
6.10452
6.49908
7.03138
7.75012
5.81507
5.72402
5.69814
5.72773
5.82547
6.0186
6.36063
6.98393
7.86724
9.1869
5.92899
5.81723
5.79064
5.82396
5.94247
6.18003
6.61217
7.4397
8.65433
10.6616
5.88359
5.78313
5.7543
5.78769
5.89433
6.1162
6.53638
7.40182
8.80325
11.4704
5.57814
5.52018
5.50921
5.52295
5.57399
5.67524
5.85872
6.23087
6.89041
8.32517
8.39558
8.38887
8.38599
8.38811
8.39503
8.40639
8.42194
8.44564
8.48223
8.53152
7.88502
7.88578
7.88618
7.88621
7.88591
7.88456
7.88269
7.8807
7.87891
7.87757
5.052
5.05077
5.04852
5.04801
5.04863
5.05067
5.05363
5.05744
5.061
5.0634
5.13788
5.13623
5.13827
5.13787
5.14013
5.14559
5.15603
5.17355
5.19603
5.22003
5.21962
5.19899
5.19237
5.19797
5.21876
5.25717
5.31722
5.40615
5.51475
5.62679
5.3681
5.33679
5.3308
5.33925
5.3722
5.43289
5.5311
5.68808
5.8927
6.12695
5.44709
5.39924
5.3848
5.39968
5.44978
5.54587
5.70755
5.98377
6.36786
6.85608
5.55774
5.49381
5.47857
5.49603
5.56128
5.68794
5.90594
6.29793
6.86482
7.64808
5.57428
5.51558
5.49808
5.51748
5.57855
5.70234
5.92566
6.3573
7.04568
8.13532
5.45383
5.41324
5.40626
5.41485
5.44844
5.51344
5.62685
5.83779
6.18542
6.75855
8.21908
8.21316
8.21055
8.21234
8.21835
8.22809
8.24144
8.26084
8.28805
8.32096
7.71466
7.71561
7.71608
7.71606
7.7156
7.71448
7.71309
7.71163
7.71033
7.70933
5.01365
5.01275
5.01108
5.01065
5.01094
5.01193
5.01317
5.01455
5.0155
5.01565
5.01145
5.01362
5.0161
5.01509
5.01376
5.01244
5.01195
5.01303
5.01554
5.01856
5.04477
5.03555
5.03233
5.03461
5.0437
5.06024
5.08502
5.11906
5.15789
5.19174
5.14541
5.13165
5.1296
5.13289
5.14751
5.17375
5.21452
5.27517
5.34997
5.42252
5.20532
5.18122
5.17351
5.18073
5.20563
5.25218
5.32729
5.44636
5.60503
5.77831
5.30063
5.2652
5.25695
5.26567
5.30065
5.36669
5.47512
5.65553
5.90511
6.19339
5.35056
5.31836
5.30843
5.31926
5.35259
5.4188
5.53421
5.74205
6.06226
6.49183
5.35789
5.32981
5.32566
5.33097
5.35295
5.39452
5.46462
5.58462
5.76939
6.0209
8.03061
8.0256
8.02335
8.02483
8.02985
8.03783
8.04884
8.06411
8.08383
8.10571
7.53417
7.535
7.53551
7.53546
7.53501
7.53422
7.53324
7.53222
7.53133
7.5306
4.99322
4.9924
4.99109
4.99082
4.99116
4.99192
4.99283
4.99375
4.99433
4.99423
4.94617
4.9488
4.95089
4.95006
4.94829
4.94587
4.94333
4.94113
4.93966
4.93897
4.94929
4.94483
4.94314
4.94413
4.94835
4.95593
4.96687
4.98093
4.99593
5.00713
5.01296
5.00712
5.00666
5.00785
5.01426
5.02558
5.04259
5.06624
5.09365
5.11683
5.05337
5.0417
5.03772
5.04115
5.05326
5.07543
5.1101
5.16146
5.22691
5.2911
5.13023
5.11097
5.10673
5.11095
5.12948
5.16364
5.21766
5.30112
5.41038
5.51827
5.19569
5.17943
5.17428
5.18011
5.19735
5.23112
5.28882
5.38657
5.53154
5.70579
5.28669
5.2673
5.26505
5.26838
5.28293
5.30979
5.35335
5.42232
5.52054
5.64046
7.82987
7.82583
7.82398
7.82517
7.82919
7.83546
7.84418
7.85576
7.86967
7.88398
7.34328
7.34395
7.34438
7.34434
7.34404
7.3435
7.34284
7.34215
7.34156
7.34101
4.98135
4.98063
4.97968
4.97952
4.97987
4.98054
4.98135
4.98216
4.98272
4.98262
4.91316
4.91533
4.91689
4.91637
4.91499
4.91302
4.91083
4.90874
4.9072
4.90635
4.89945
4.89701
4.89603
4.89652
4.89867
4.90247
4.90779
4.91429
4.92088
4.92515
4.93748
4.93493
4.93493
4.93535
4.93829
4.94343
4.95092
4.96068
4.97119
4.97929
4.96218
4.95671
4.95472
4.95635
4.96217
4.97264
4.98862
5.01099
5.03837
5.06425
5.02226
5.01176
5.00966
5.01173
5.02165
5.03953
5.06688
5.1065
5.15535
5.19848
5.09316
5.08592
5.08362
5.08668
5.09501
5.11122
5.13865
5.18313
5.2465
5.32169
5.23575
5.22222
5.22117
5.2234
5.23333
5.25109
5.27852
5.31882
5.37093
5.43181
7.6167
7.6136
7.61216
7.61307
7.61615
7.62088
7.62754
7.636
7.64554
7.65473
7.14175
7.14229
7.14263
7.14262
7.14243
7.14207
7.14164
7.14118
7.14079
7.14036
4.97347
4.97292
4.97226
4.97218
4.9725
4.97307
4.97376
4.97446
4.97501
4.97486
4.89667
4.89828
4.89938
4.89911
4.89821
4.89691
4.89546
4.89407
4.89314
4.89263
4.87472
4.87324
4.87265
4.87291
4.87409
4.87615
4.87897
4.8823
4.88565
4.88753
4.89636
4.89504
4.89505
4.89523
4.89676
4.89944
4.9032
4.90781
4.91235
4.91573
4.91008
4.90757
4.90658
4.90737
4.91018
4.91514
4.92253
4.93242
4.94409
4.95558
4.95689
4.95095
4.94991
4.95104
4.95657
4.96631
4.98069
5.0004
5.02319
5.04215
5.02816
5.02567
5.02497
5.02655
5.03021
5.03731
5.04926
5.06827
5.09394
5.12881
5.20038
5.19076
5.19041
5.19208
5.19917
5.2113
5.22897
5.2531
5.2807
5.31355
7.39105
7.38879
7.38774
7.38842
7.39063
7.39411
7.39899
7.40495
7.41129
7.41709
6.92934
6.9298
6.93007
6.93007
6.92996
6.92973
6.92945
6.92915
6.9289
6.92853
4.96746
4.9671
4.9667
4.96667
4.96693
4.96737
4.96792
4.96848
4.96899
4.96874
4.88842
4.8896
4.89035
4.89025
4.88973
4.88897
4.88814
4.88736
4.88696
4.88674
4.86323
4.86231
4.86198
4.86212
4.86277
4.86388
4.86541
4.86721
4.86908
4.87002
4.87504
4.87413
4.87402
4.87413
4.8751
4.87679
4.87908
4.88173
4.88415
4.88599
4.88185
4.88068
4.88018
4.88058
4.88196
4.88436
4.88783
4.8923
4.89739
4.90306
4.91901
4.91541
4.91485
4.91558
4.9189
4.92458
4.93263
4.94318
4.95461
4.96418
4.98843
4.98821
4.98835
4.98917
4.99053
4.99313
4.99747
5.00457
5.0131
5.03087
5.17623
5.16923
5.16927
5.17067
5.176
5.18459
5.19634
5.21125
5.22581
5.24495
7.15297
7.15142
7.15072
7.15119
7.1527
7.1552
7.15864
7.16267
7.16675
7.17034
6.70592
6.70632
6.70652
6.70653
6.70647
6.70632
6.70614
6.70595
6.70578
6.70546
4.96236
4.96222
4.96202
4.96203
4.96222
4.96254
4.96293
4.96335
4.96382
4.96346
4.88423
4.8851
4.8856
4.8856
4.88533
4.88496
4.88456
4.88421
4.88419
4.88417
4.85845
4.85792
4.85776
4.85784
4.85815
4.8587
4.85946
4.86039
4.86147
4.862
4.8646
4.86384
4.86362
4.86371
4.86442
4.86565
4.86729
4.86911
4.87071
4.87198
4.86743
4.86685
4.86658
4.86679
4.8675
4.86871
4.87039
4.87248
4.87478
4.8779
4.89784
4.89543
4.8951
4.89566
4.89784
4.90143
4.90632
4.91248
4.91882
4.92462
4.96448
4.96519
4.96573
4.96618
4.96649
4.96704
4.96787
4.96965
4.97065
4.98099
5.15954
5.1544
5.15467
5.15594
5.16006
5.1664
5.17452
5.1841
5.19164
5.20393
6.90272
6.90165
6.90122
6.90152
6.90256
6.90428
6.9066
6.90922
6.91173
6.91392
6.47141
6.47175
6.4719
6.47192
6.47189
6.4718
6.47168
6.47156
6.47144
6.47115
4.95775
4.95784
4.95779
4.95785
4.95797
4.95817
4.95843
4.95871
4.95918
4.95871
4.88198
4.88265
4.88297
4.88301
4.88291
4.88279
4.88268
4.88261
4.88284
4.88298
4.85696
4.85671
4.85667
4.8567
4.85681
4.85699
4.85727
4.85768
4.85828
4.85863
4.85988
4.85922
4.85894
4.85901
4.85956
4.86051
4.86175
4.86312
4.86432
4.86531
4.86061
4.86026
4.86009
4.8602
4.86059
4.86125
4.86212
4.86315
4.86424
4.86613
4.88611
4.88438
4.88414
4.8846
4.88613
4.88857
4.89176
4.89568
4.89957
4.90373
4.94944
4.95038
4.95107
4.95134
4.95125
4.951
4.95044
4.95008
4.94803
4.95503
5.1474
5.1436
5.14402
5.14521
5.1485
5.15337
5.15922
5.16563
5.16929
5.17803
6.6405
6.63981
6.63953
6.63973
6.64042
6.64155
6.64304
6.64465
6.64612
6.64742
6.22587
6.22616
6.22627
6.22629
6.22628
6.22622
6.22615
6.22607
6.22599
6.22571
4.95347
4.95377
4.95384
4.95394
4.95402
4.95412
4.95425
4.95442
4.95492
4.95441
4.88063
4.88113
4.8813
4.88136
4.88136
4.8814
4.88148
4.88159
4.88198
4.88229
4.85702
4.85695
4.85699
4.85699
4.85697
4.85694
4.85694
4.85704
4.85735
4.85764
4.85804
4.85747
4.85719
4.85723
4.85764
4.85836
4.8593
4.86032
4.86124
4.86205
4.85775
4.85749
4.85736
4.85742
4.85765
4.85803
4.85851
4.85907
4.85962
4.86082
4.87923
4.87793
4.87773
4.8781
4.8792
4.88091
4.88309
4.88569
4.88826
4.89155
4.93853
4.93935
4.94005
4.94025
4.94008
4.93964
4.93871
4.93771
4.93472
4.94011
5.1376
5.13482
5.13531
5.13644
5.13913
5.14299
5.14737
5.15182
5.15325
5.16001
6.36666
6.36624
6.36607
6.3662
6.36663
6.36732
6.36822
6.36915
6.36995
6.37071
5.96959
5.96984
5.96992
5.96994
5.96994
5.9699
5.96985
5.9698
5.96973
5.96947
4.94939
4.94989
4.95004
4.95018
4.95023
4.95025
4.95028
4.95036
4.95092
4.95047
4.87957
4.8799
4.87995
4.87999
4.88005
4.88018
4.88036
4.88059
4.88107
4.88157
4.85775
4.85776
4.85782
4.8578
4.85772
4.8576
4.85748
4.85742
4.85755
4.85786
4.85756
4.8571
4.85685
4.85686
4.85714
4.85765
4.85831
4.85904
4.85973
4.86037
4.85687
4.85666
4.85655
4.85657
4.85671
4.85693
4.85721
4.85752
4.85781
4.85858
4.87435
4.87336
4.87318
4.87345
4.87422
4.87539
4.87684
4.87856
4.88028
4.88293
4.92851
4.92907
4.92969
4.92986
4.92974
4.92935
4.92849
4.9275
4.92454
4.92896
5.12817
5.1262
5.12669
5.12776
5.12999
5.13309
5.13645
5.1396
5.13969
5.14512
6.08174
6.0815
6.0814
6.08148
6.08173
6.08212
6.08262
6.08311
6.08349
6.08391
5.70321
5.70342
5.70349
5.7035
5.7035
5.70348
5.70345
5.7034
5.70334
5.70311
4.94522
4.94586
4.94608
4.94626
4.9463
4.94626
4.94619
4.94618
4.94677
4.94657
4.87839
4.87852
4.87849
4.87849
4.87856
4.87873
4.87895
4.87924
4.87971
4.88042
4.85859
4.85858
4.85862
4.8586
4.85851
4.85838
4.85824
4.85815
4.85819
4.85854
4.85769
4.85734
4.85715
4.85715
4.85732
4.85763
4.85805
4.85853
4.85901
4.8595
4.85697
4.85681
4.85674
4.85673
4.8568
4.85691
4.85705
4.8572
4.85734
4.85779
4.8697
4.86899
4.86883
4.869
4.86947
4.87019
4.87108
4.87211
4.87321
4.87525
4.91724
4.91752
4.918
4.91814
4.91805
4.91774
4.91707
4.91626
4.91381
4.91738
5.11634
5.11506
5.11552
5.11649
5.11829
5.12073
5.12328
5.12542
5.1247
5.12893
5.78656
5.78643
5.78638
5.78642
5.78655
5.78674
5.787
5.78721
5.78737
5.78758
5.42759
5.42776
5.4278
5.42781
5.42781
5.4278
5.42778
5.42775
5.4277
5.42751
4.93954
4.94018
4.94056
4.94079
4.94084
4.94075
4.94058
4.94042
4.94079
4.94109
4.87679
4.87667
4.87656
4.87652
4.87657
4.87673
4.87695
4.87724
4.87765
4.87849
4.8591
4.85904
4.85905
4.85901
4.85895
4.85886
4.85877
4.85871
4.85874
4.85908
4.85815
4.85791
4.85779
4.85778
4.85787
4.85804
4.85828
4.85855
4.85884
4.85918
4.8576
4.85751
4.85746
4.85745
4.85747
4.8575
4.85754
4.85758
4.85763
4.85783
4.86472
4.86428
4.86417
4.86424
4.86448
4.86484
4.86528
4.86578
4.86637
4.86774
4.90353
4.90357
4.90385
4.90391
4.90378
4.90347
4.90293
4.9023
4.90068
4.9033
5.09506
5.09436
5.09474
5.09554
5.09688
5.09865
5.10044
5.1017
5.10054
5.10335
5.48212
5.48206
5.48205
5.48206
5.4821
5.48216
5.48224
5.4823
5.48235
5.48245
5.14253
5.14263
5.14264
5.14265
5.14264
5.14264
5.14264
5.14263
5.14263
5.14254
4.92471
4.92528
4.92589
4.92622
4.92631
4.92619
4.9259
4.92549
4.92509
4.92571
4.87368
4.87333
4.87313
4.87303
4.87305
4.87316
4.87336
4.87364
4.87404
4.87487
4.85937
4.8593
4.85928
4.85925
4.85922
4.85919
4.85915
4.85914
4.85916
4.85939
4.85895
4.85883
4.85877
4.85876
4.8588
4.85888
4.85899
4.85912
4.85927
4.85945
4.85863
4.85859
4.85857
4.85856
4.85856
4.85855
4.85854
4.85853
4.85853
4.85857
4.86083
4.86064
4.86059
4.86061
4.8607
4.86083
4.86098
4.86115
4.86139
4.86202
4.88685
4.88669
4.88674
4.88669
4.88651
4.8862
4.88578
4.88536
4.88479
4.88649
5.04092
5.04062
5.04087
5.04138
5.04217
5.0432
5.04422
5.04478
5.04378
5.04482
5.16848
5.16845
5.16846
5.16846
5.16847
5.16847
5.16846
5.16846
5.16843
5.16849
11.269
11.3841
11.3385
11.1223
82.8104
84.8876
85.3474
85.9966
143.137
148.611
149.081
147.836
202.8
212.237
212.104
207.815
264.481
278.143
276.937
269.485
332.777
351.057
348.957
340.214
395.161
417.812
415.429
408.038
433.169
459.441
457.494
452.919
345.683
368.261
365.711
364.362
11.4769
11.7155
11.5594
11.1514
9.71377
9.77314
9.77597
9.73198
76.0778
79.3216
80.081
80.2022
133.884
144.804
145.905
143.741
192.904
214.534
215.069
209.173
256.139
290.981
290.034
280.085
329.51
380.273
378.498
365.623
399.601
466.622
465.655
452.625
446.088
527.577
528.618
517.427
350.523
422.884
420.974
416.139
10.7115
10.9424
10.8719
10.6516
8.77684
8.78981
8.7888
8.77729
26.5381
28.9549
28.2176
25.7085
49.3568
53.7628
52.0988
47.4252
74.5823
81.3416
78.2223
70.707
103.456
112.996
107.817
96.7355
139.441
152.805
145.177
129.285
177.31
194.675
184.516
163.493
207.529
228.706
216.446
190.91
164.729
181.623
170.14
149.304
9.91284
10.0036
9.98041
9.8812
8.51189
8.51445
8.51511
8.51414
11.4729
11.7226
11.693
11.4959
21.2127
21.9399
21.8765
21.3344
31.997
33.4838
33.2319
31.9163
44.5103
46.9437
46.2796
43.7577
60.6337
64.4022
63.0826
58.7665
78.0553
83.1683
80.9017
74.4579
92.5754
99.1261
95.8395
87.1475
71.9351
77.0756
73.5639
65.9626
9.44869
9.49313
9.49006
9.44964
8.33286
8.33396
8.33422
8.33357
7.04185
7.13341
7.15861
7.12876
11.6778
11.9741
12.0571
11.9711
16.871
17.4855
17.586
17.3194
22.8364
23.8564
23.8923
23.2884
30.7128
32.3379
32.2253
31.0366
39.223
41.4578
41.0403
39.0611
46.2614
49.1976
48.3808
45.4008
34.401
36.6198
35.4296
32.5496
9.09835
9.12229
9.1239
9.10694
8.18254
8.18346
8.18356
8.18279
5.60669
5.62097
5.62619
5.62446
7.45584
7.52578
7.5585
7.55987
9.93736
10.1211
10.1883
10.1632
12.8335
13.1794
13.2657
13.1652
16.796
17.4125
17.5025
17.2348
21.0456
21.9425
21.9659
21.4368
24.4782
25.7303
25.6289
24.6927
17.4809
18.375
18.0206
17.0169
8.81281
8.82472
8.82708
8.82094
8.0317
8.0326
8.03266
8.03188
5.19692
5.20011
5.20098
5.2
5.8231
5.83891
5.84756
5.84976
6.91424
6.96714
6.99232
6.99341
8.2589
8.37117
8.41551
8.40581
10.2336
10.4613
10.5312
10.4824
12.3586
12.7064
12.7767
12.6576
14.0531
14.5728
14.6195
14.3553
10.2218
10.5581
10.4796
10.1884
8.56538
8.57085
8.57293
8.57152
7.87347
7.87434
7.87441
7.87365
5.06321
5.06438
5.06439
5.06345
5.23312
5.2355
5.23694
5.23759
5.68404
5.6964
5.70295
5.70433
6.26557
6.29593
6.31049
6.31202
7.19408
7.2697
7.30037
7.29467
8.21562
8.33662
8.37649
8.35783
9.06872
9.26926
9.31386
9.24846
7.33896
7.45171
7.44566
7.37956
8.33737
8.33965
8.34111
8.34133
7.70548
7.70632
7.70638
7.70568
5.01329
5.01422
5.01416
5.01323
5.02032
5.02044
5.0205
5.02054
5.20441
5.20675
5.20804
5.20841
5.45535
5.46198
5.46557
5.46669
5.88058
5.90358
5.91414
5.914
6.35902
6.39486
6.41019
6.41048
6.80641
6.87773
6.90026
6.88558
6.19854
6.23248
6.23682
6.2263
8.11415
8.11494
8.11583
8.11639
7.52702
7.5278
7.52786
7.5272
4.99133
4.99219
4.99214
4.99126
4.93893
4.93883
4.93873
4.93864
5.00959
5.00982
5.00995
5.01001
5.12348
5.12438
5.12496
5.12535
5.32339
5.33041
5.33374
5.33366
5.55978
5.56824
5.57288
5.57494
5.81409
5.83897
5.84805
5.84381
5.69867
5.70624
5.70891
5.70967
7.88847
7.88859
7.88909
7.88962
7.3377
7.33842
7.33848
7.33787
4.97959
4.98037
4.98032
4.97948
4.90613
4.9061
4.90602
4.9059
4.92538
4.92528
4.92522
4.92523
4.9803
4.98016
4.9801
4.98018
5.07669
5.07926
5.08037
5.08006
5.20667
5.20777
5.20885
5.21021
5.36632
5.37604
5.37938
5.37668
5.45416
5.45323
5.45382
5.45611
7.65708
7.65692
7.65719
7.65759
7.13733
7.13798
7.13803
7.13748
4.97183
4.97253
4.97246
4.97167
4.89242
4.89243
4.89237
4.89225
4.8873
4.88718
4.88713
4.88714
4.91575
4.91554
4.91542
4.9154
4.96187
4.96314
4.9636
4.96325
5.04267
5.04221
5.0423
5.04305
5.15355
5.15841
5.15956
5.15698
5.32496
5.32166
5.32116
5.32309
7.41818
7.41797
7.4181
7.41837
6.92579
6.92637
6.92641
6.92591
4.9658
4.9664
4.9663
4.96555
4.88654
4.88656
4.88651
4.88638
4.86973
4.86964
4.86961
4.86964
4.88596
4.88583
4.88574
4.8857
4.90699
4.9078
4.90805
4.90774
4.96376
4.96323
4.96312
4.96349
5.04878
5.052
5.05235
5.04978
5.25296
5.24942
5.24851
5.24981
7.17064
7.17048
7.17055
7.17068
6.70303
6.70353
6.70355
6.70311
4.96066
4.96114
4.96102
4.96031
4.88397
4.884
4.88395
4.88382
4.86175
4.8617
4.86169
4.86171
4.87203
4.87197
4.87191
4.87187
4.88064
4.88121
4.88136
4.8811
4.92485
4.92457
4.92447
4.92458
4.99617
4.9988
4.99884
4.99627
5.2109
5.20786
5.20687
5.20752
6.91368
6.91364
6.91367
6.91367
6.46905
6.46946
6.46947
6.46909
4.9561
4.95647
4.95631
4.95566
4.88285
4.88289
4.88284
4.88271
4.85849
4.85848
4.85847
4.85848
4.86542
4.8654
4.86536
4.86532
4.8681
4.86851
4.8686
4.86838
4.90484
4.90484
4.90479
4.90472
4.96894
4.97136
4.97128
4.96867
5.18477
5.18251
5.18159
5.18161
6.64681
6.64692
6.64693
6.64682
6.22399
6.22431
6.2243
6.22397
4.95205
4.95231
4.95212
4.95151
4.88233
4.88241
4.88237
4.88221
4.85766
4.85768
4.85768
4.85767
4.86219
4.86219
4.86217
4.86214
4.86223
4.86251
4.86256
4.86238
4.89336
4.89359
4.89359
4.89337
4.95328
4.9557
4.95557
4.95289
5.1668
5.16545
5.16469
5.16407
6.36982
6.37007
6.37008
6.36987
5.96819
5.96841
5.96837
5.96811
4.94847
4.94864
4.94844
4.94788
4.88193
4.88208
4.88205
4.88185
4.85805
4.85811
4.85812
4.85808
4.86054
4.86056
4.86055
4.86053
4.85952
4.85971
4.85973
4.85959
4.88513
4.88551
4.88554
4.88524
4.94148
4.94401
4.94389
4.9411
5.15202
5.1517
5.15114
5.14988
6.08284
6.08321
6.08322
6.08294
5.70235
5.70246
5.70239
5.7022
4.94521
4.94538
4.9452
4.94467
4.88123
4.88148
4.88147
4.8812
4.85888
4.85898
4.85899
4.85892
4.85969
4.85972
4.85973
4.85971
4.85835
4.85846
4.85846
4.85837
4.87745
4.8779
4.87795
4.87762
4.92867
4.93133
4.93126
4.92843
5.13573
5.13662
5.13634
5.13438
5.78641
5.78685
5.78687
5.78656
5.42738
5.42735
5.42726
5.42716
4.941
4.94139
4.94128
4.94066
4.8796
4.87994
4.87994
4.8796
4.85947
4.85959
4.8596
4.85952
4.85936
4.8594
4.85941
4.85941
4.85808
4.85813
4.85812
4.85808
4.86956
4.86996
4.87001
4.86974
4.91187
4.91428
4.91426
4.91178
5.10926
5.11165
5.11173
5.10892
5.48142
5.48193
5.48196
5.48162
5.14313
5.14289
5.1428
5.14287
4.92733
4.92821
4.92819
4.92723
4.87564
4.87587
4.87584
4.87558
4.85963
4.8597
4.85971
4.85965
4.85958
4.85961
4.85963
4.85963
4.85863
4.85864
4.85863
4.85863
4.86301
4.86323
4.86327
4.86313
4.89063
4.8918
4.89177
4.89056
5.04765
5.05118
5.05149
5.04806
5.16797
5.16853
5.16854
5.16817
10.1126
9.36667
9.05458
8.94205
8.87758
8.83213
8.80185
8.78482
8.77537
8.76974
103.674
49.1181
35.7478
29.9538
24.5569
19.9494
16.3633
13.6895
11.7816
10.4195
160.952
70.8602
51.0935
43.7433
37.1921
31.4262
26.5935
22.7128
19.6691
17.2945
206.426
82.5934
55.9825
46.7288
39.3629
32.7674
27.2294
22.8358
19.4442
16.8564
242.064
88.9522
58.8267
47.9662
40.0782
32.7371
26.6775
21.955
18.3683
15.7229
278.038
94.6917
60.9749
48.3031
39.8462
31.7877
25.353
20.4653
16.8824
14.3312
307.097
98.16
61.6914
47.7818
39.0465
30.5202
23.9438
19.0745
15.5949
13.2107
315.211
93.7536
56.6289
42.2284
33.9179
25.7872
19.9244
15.7972
13.0461
11.2293
224.476
56.1349
30.5437
21.1163
16.2835
12.2242
9.95522
8.61312
7.80415
7.27997
9.56919
9.54455
9.38914
9.363
9.31641
9.29028
9.26952
9.25848
9.25102
9.2446
9.36711
9.05697
8.90474
8.81914
8.7652
8.72957
8.70644
8.69269
8.68528
8.68059
53.1032
28.6709
22.5567
19.4497
16.6689
14.1981
12.1634
10.6008
9.46101
8.66887
89.9992
46.2747
35.8008
31.0213
27.1818
23.5095
20.291
17.632
15.504
13.885
122.266
58.6123
42.8652
35.6348
30.5511
25.7672
21.6967
18.4235
15.8734
13.9868
152.565
68.7682
47.8569
38.521
32.3853
26.679
21.978
18.2987
15.4861
13.4759
186.439
78.8764
52.1457
40.4764
33.2587
26.6703
21.4547
17.4964
14.5918
12.5916
217.207
86.4758
54.7142
41.2508
33.3541
26.1782
20.6985
16.6614
13.7711
11.8536
233.199
86.7512
51.9187
37.4848
29.5788
22.5779
17.5745
14.0837
11.7636
10.2832
167.41
54.7565
29.0627
19.3797
14.6949
11.2266
9.27463
8.12957
7.43364
7.00278
9.81852
9.50197
9.33081
9.26752
9.21263
9.17935
9.15519
9.14044
9.13004
9.12103
8.73773
8.69631
8.66357
8.63635
8.61504
8.59958
8.58927
8.58309
8.57966
8.5772
19.9484
16.5765
14.5029
12.6846
11.115
9.81195
8.79766
8.04877
7.51001
7.13741
35.9208
28.7124
24.9256
21.6897
18.9142
16.506
14.5109
12.9065
11.6312
10.6693
51.0379
37.9365
31.5411
26.3508
22.2598
18.8403
16.097
13.9478
12.2884
11.0745
66.129
45.6928
36.6304
29.5942
24.3797
20.1259
16.8139
14.2908
12.3793
11.0261
83.2267
53.3444
41.1447
32.0849
25.7358
20.662
16.8424
14.0204
11.9744
10.5808
99.1252
59.1914
44.151
33.4588
26.3368
20.7057
16.598
13.6545
11.5707
10.1995
108.42
59.7589
42.6002
31.0009
23.7648
18.2182
14.4247
11.857
10.1705
9.09761
75.9447
36.6497
23.8686
16.273
12.2257
9.68246
8.28974
7.4715
6.9627
6.6433
9.57147
9.377
9.24303
9.16317
9.10554
9.0695
9.04441
9.02731
9.01466
9.00376
8.50933
8.49926
8.48821
8.47827
8.47073
8.4656
8.4624
8.46076
8.46036
8.4599
10.9415
10.1335
9.28435
8.43995
7.73279
7.19009
6.79129
6.50326
6.29471
6.14964
19.868
18.0288
16.1769
14.304
12.6883
11.36
10.2986
9.46286
8.80362
8.30907
28.4781
24.6334
21.1905
17.9887
15.4008
13.3287
11.7051
10.4522
9.49369
8.79849
37.2436
30.6671
25.4315
20.8638
17.3677
14.6403
12.5635
11.0096
9.84188
9.01758
47.4705
36.9715
29.5248
23.3602
18.865
15.44
12.9155
11.0864
9.77451
8.88365
57.0695
42.0772
32.5535
25.0137
19.7599
15.8316
13.027
11.0614
9.68099
8.76942
62.7993
43.2654
32.0892
23.7127
18.2356
14.3065
11.6799
9.94109
8.80283
8.06978
42.7462
26.2043
17.9727
12.7916
10.0236
8.39137
7.47314
6.91841
6.55963
6.32899
9.32682
9.18825
9.08108
9.01139
8.96315
8.93148
8.90873
8.89239
8.88006
8.86963
8.33339
8.3319
8.33038
8.32921
8.32851
8.32821
8.32823
8.32869
8.3298
8.33083
6.9988
6.75861
6.50564
6.26725
6.06893
5.91253
5.79218
5.70053
5.63119
5.58322
11.6112
10.9252
10.1514
9.3738
8.68704
8.11477
7.65557
7.29399
7.00552
6.78759
16.4401
14.9574
13.3756
11.8596
10.5721
9.52176
8.69358
8.05538
7.56711
7.21431
21.5365
18.9348
16.3583
14.0119
12.1133
10.6149
9.47271
8.62381
7.98365
7.52916
27.768
23.4443
19.5088
16.0872
13.4439
11.4221
9.93343
8.86352
8.09578
7.57182
33.7359
27.3832
22.066
17.6423
14.3795
11.9552
10.2306
9.03394
8.18816
7.62148
37.3945
28.7911
22.2626
17.1545
13.6363
11.1587
9.50879
8.42156
7.70021
7.22516
24.5289
17.3348
12.8095
9.95722
8.36368
7.40494
6.83004
6.46705
6.22052
6.05875
9.05264
8.96954
8.8979
8.84681
8.80936
8.78253
8.76231
8.74712
8.73538
8.7256
8.18336
8.18351
8.18387
8.18445
8.18519
8.18597
8.18677
8.18776
8.18924
8.19101
5.60801
5.56479
5.51343
5.46125
5.41406
5.37359
5.3401
5.31314
5.29258
5.27961
7.50457
7.31351
7.0651
6.80573
6.57051
6.37234
6.21227
6.08445
5.97783
5.89487
9.97773
9.47192
8.85067
8.22743
7.67866
7.22433
6.86236
6.57999
6.36007
6.20035
12.7362
11.7743
10.6615
9.59964
8.70701
7.99566
7.45056
7.04308
6.72812
6.5002
16.3274
14.6098
12.7534
11.0609
9.69839
8.64825
7.87073
7.30844
6.89762
6.61333
19.8649
17.2467
14.5835
12.2679
10.4874
9.16071
8.21199
7.55018
7.06994
6.74002
22.1186
18.4205
14.9979
12.2242
10.2382
8.84211
7.90162
7.27199
6.84165
6.55063
14.3943
11.5385
9.42798
8.052
7.21592
6.68001
6.33283
6.10285
5.93849
5.82919
8.79753
8.75141
8.70718
8.67169
8.64334
8.62131
8.6039
8.59031
8.57955
8.57073
8.03259
8.03292
8.03348
8.03423
8.03508
8.03593
8.03674
8.03768
8.03909
8.04089
5.19671
5.18854
5.17887
5.16821
5.15758
5.14755
5.13864
5.13124
5.12618
5.1243
5.83875
5.7928
5.73041
5.66328
5.60092
5.54739
5.50339
5.46696
5.43314
5.40496
6.95006
6.79203
6.58424
6.3681
6.17124
6.00318
5.86453
5.75208
5.66102
5.59418
8.29791
7.96324
7.54439
7.13202
6.77524
6.48489
6.25687
6.08151
5.93869
5.83183
10.2207
9.55378
8.76946
8.03162
7.41932
6.93867
6.57424
6.30299
6.09725
5.95215
12.1905
11.1261
9.92516
8.84936
7.99555
7.34972
6.87718
6.53874
6.28124
6.09835
13.5197
11.9507
10.3399
8.99922
8.00464
7.292
6.79593
6.45176
6.20677
6.03686
9.42633
8.38637
7.50734
6.88478
6.46192
6.16836
5.96314
5.82085
5.71383
5.6423
8.56198
8.53743
8.5107
8.48641
8.46534
8.44782
8.43336
8.42166
8.41218
8.40453
7.87436
7.87461
7.87503
7.8756
7.87625
7.87688
7.87747
7.87816
7.87932
7.88091
5.06296
5.06119
5.05922
5.05687
5.05424
5.05148
5.04889
5.04684
5.04609
5.047
5.23564
5.22717
5.21544
5.20229
5.18989
5.17939
5.17106
5.16393
5.15498
5.14624
5.69442
5.65146
5.59144
5.52541
5.46179
5.40434
5.35415
5.31111
5.27462
5.24774
6.28733
6.18741
6.05372
5.91586
5.79087
5.68442
5.59689
5.52648
5.46471
5.41643
7.22115
6.9885
6.69977
6.41672
6.17133
5.97027
5.81045
5.68575
5.5866
5.51565
8.22909
7.83674
7.36138
6.91977
6.55428
6.26682
6.04674
5.88215
5.74898
5.65088
8.98512
8.36907
7.69625
7.11399
6.66033
6.32045
6.07147
5.89051
5.75608
5.66117
7.18614
6.82359
6.4692
6.18827
5.97537
5.81564
5.69603
5.60963
5.54127
5.49572
8.33714
8.32377
8.30742
8.29095
8.27566
8.2622
8.25063
8.24097
8.23294
8.22655
7.70635
7.70653
7.7068
7.70718
7.70761
7.70801
7.70835
7.70879
7.70968
7.71102
5.01329
5.01254
5.0118
5.01096
5.00997
5.00886
5.00781
5.00712
5.00735
5.0086
5.02003
5.01895
5.01783
5.01664
5.01585
5.01578
5.01646
5.01712
5.0156
5.01306
5.20582
5.19451
5.17768
5.15772
5.13713
5.11729
5.09886
5.08212
5.06736
5.05657
5.46129
5.43457
5.39596
5.35329
5.31201
5.27473
5.24248
5.21528
5.18907
5.16742
5.89253
5.81797
5.72103
5.61962
5.52587
5.44424
5.37553
5.31908
5.27214
5.23843
6.38044
6.25268
6.08406
5.9175
5.77047
5.64772
5.54824
5.47018
5.40262
5.35087
6.80415
6.58123
6.3245
6.08763
5.89037
5.73347
5.61194
5.51944
5.44804
5.39726
6.17814
6.04685
5.90093
5.77168
5.664
5.57727
5.50821
5.4565
5.4134
5.38504