/*--------------------------------*- C++ -*----------------------------------*\
| =========                 |                                                 |
| \\      /  F ield         | foam-extend: Open Source CFD                    |
|  \\    /   O peration     | Version:     4.0                                |
|   \\  /    A nd           | Web:         http://www.foam-extend.org         |
|    \\/     M anipulation  |                                                 |
\*---------------------------------------------------------------------------*/
FoamFile
{
    version     2.0;
    format      ascii;
    class       volScalarField;
    location    "2450";
    object      MaU;
}
// * * * * * * * * * * * * * * * * * * * * * * * * * * * * * * * * * * * * * //

dimensions      [0 0 0 0 0 0 0];

internalField   nonuniform List<scalar> 
34480
(
0.623809
0.624806
0.625341
0.625454
0.625147
0.624348
0.622914
0.620168
0.614071
0.608274
0.627232
0.628058
0.628519
0.62855
0.627991
0.626696
0.62469
0.621725
0.614706
0.60915
0.62942
0.630178
0.63055
0.630457
0.629721
0.628372
0.626596
0.624301
0.617264
0.612143
0.629416
0.630195
0.630636
0.630674
0.630162
0.629217
0.627941
0.62636
0.61971
0.615063
0.629878
0.630762
0.631343
0.6316
0.631411
0.630944
0.630215
0.629404
0.623539
0.619377
0.629476
0.630418
0.631083
0.63147
0.631518
0.631457
0.631263
0.631274
0.626592
0.62325
0.629682
0.630765
0.631539
0.632066
0.632324
0.632604
0.632905
0.633735
0.6305
0.627959
0.629093
0.630218
0.630948
0.631361
0.631504
0.631737
0.632191
0.63356
0.631841
0.630487
0.628844
0.630126
0.630969
0.631517
0.631837
0.632231
0.632934
0.634799
0.634351
0.632903
0.625042
0.626066
0.626104
0.625226
0.623605
0.621618
0.619718
0.619172
0.618371
0.619156
0.61391
0.615372
0.615945
0.615696
0.614552
0.612236
0.608121
0.600851
0.59014
0.576283
0.618527
0.619835
0.62036
0.620097
0.618855
0.616258
0.611716
0.603868
0.591209
0.575049
0.621599
0.622822
0.623294
0.622998
0.621682
0.61904
0.614568
0.606881
0.593376
0.576038
0.622409
0.623643
0.624181
0.624019
0.62291
0.620612
0.616539
0.609281
0.595386
0.577627
0.623553
0.624863
0.625518
0.625562
0.624753
0.622908
0.619356
0.612742
0.598941
0.581337
0.62369
0.625044
0.625779
0.625959
0.625386
0.623956
0.62095
0.615123
0.601872
0.585057
0.624345
0.625806
0.626636
0.626961
0.626605
0.625547
0.623077
0.618105
0.605781
0.59004
0.624079
0.625569
0.626367
0.626609
0.626198
0.625203
0.623025
0.618769
0.607634
0.593582
0.624077
0.625674
0.626564
0.62692
0.626688
0.625927
0.62414
0.620631
0.610755
0.597503
0.620466
0.621879
0.622213
0.62155
0.619946
0.617552
0.614093
0.609284
0.599883
0.589753
0.606281
0.607848
0.608412
0.608092
0.60685
0.60453
0.600835
0.595267
0.587194
0.577004
0.611183
0.612717
0.613274
0.612897
0.611465
0.608714
0.604139
0.59688
0.585491
0.570334
0.614528
0.616061
0.616613
0.616232
0.614736
0.611806
0.606822
0.598658
0.58464
0.564818
0.615832
0.617426
0.618056
0.617788
0.61642
0.613631
0.608642
0.60005
0.58388
0.559953
0.617454
0.619137
0.619876
0.619789
0.618653
0.61617
0.611418
0.602808
0.585138
0.557923
0.618011
0.619751
0.620575
0.620621
0.619686
0.617525
0.613118
0.604786
0.586229
0.556644
0.619028
0.620862
0.621777
0.621968
0.621234
0.619399
0.6154
0.607544
0.588675
0.557424
0.619062
0.620922
0.621821
0.621957
0.621196
0.619448
0.61572
0.608392
0.589736
0.557643
0.619319
0.621242
0.622211
0.622438
0.621807
0.620252
0.616886
0.610222
0.59221
0.558716
0.61595
0.617704
0.61826
0.617727
0.616088
0.613343
0.608831
0.601396
0.583941
0.550861
0.600721
0.602095
0.602567
0.602258
0.601167
0.599235
0.596364
0.59246
0.5875
0.58197
0.605357
0.606822
0.607331
0.606922
0.605522
0.602984
0.599061
0.593407
0.585581
0.576656
0.608551
0.610136
0.61068
0.61024
0.608688
0.605798
0.601145
0.594102
0.583508
0.570572
0.610053
0.611775
0.612408
0.612032
0.610487
0.607498
0.602448
0.594402
0.58115
0.563936
0.611942
0.613792
0.61453
0.614288
0.612865
0.609977
0.604819
0.596183
0.580679
0.559468
0.61279
0.614723
0.615547
0.615414
0.614121
0.6114
0.606298
0.597403
0.580103
0.555414
0.61408
0.61611
0.617016
0.617011
0.615874
0.613374
0.608455
0.59956
0.58098
0.553346
0.614371
0.616426
0.617329
0.617287
0.61613
0.613682
0.608896
0.600171
0.580899
0.551006
0.61485
0.616941
0.617896
0.61793
0.616879
0.614566
0.609968
0.601578
0.582279
0.549849
0.61173
0.613666
0.614333
0.613825
0.61207
0.608943
0.603579
0.594583
0.575478
0.541847
0.596858
0.597941
0.598301
0.598064
0.597249
0.595866
0.593929
0.591509
0.588755
0.586037
0.600938
0.602179
0.60261
0.602254
0.601078
0.599033
0.596048
0.592101
0.587253
0.582468
0.603679
0.605152
0.605657
0.605238
0.603822
0.601285
0.597415
0.591996
0.584751
0.577131
0.60511
0.606805
0.607416
0.607012
0.605483
0.602642
0.5981
0.5914
0.581616
0.570567
0.607041
0.60892
0.609639
0.609319
0.607801
0.604856
0.599906
0.592244
0.580067
0.56543
0.608017
0.610025
0.610836
0.610593
0.609119
0.606169
0.600992
0.592661
0.578339
0.560218
0.609455
0.611582
0.612475
0.612336
0.610955
0.608094
0.602855
0.594122
0.578017
0.556636
0.609922
0.61209
0.612993
0.612827
0.611419
0.608549
0.60327
0.594351
0.576973
0.552747
0.610574
0.612767
0.61371
0.613604
0.612271
0.609488
0.604264
0.595311
0.577303
0.550002
0.607681
0.609733
0.61048
0.609994
0.608175
0.604829
0.59908
0.589604
0.57137
0.54199
0.594216
0.59502
0.595277
0.595115
0.594561
0.593651
0.592431
0.590996
0.58948
0.588028
0.597699
0.598656
0.598994
0.598717
0.59782
0.596306
0.5942
0.591597
0.588701
0.586123
0.599869
0.601121
0.601555
0.601197
0.600012
0.597956
0.594975
0.591084
0.586396
0.581971
0.601062
0.602597
0.60315
0.602768
0.601384
0.598896
0.595124
0.589941
0.58316
0.576322
0.602857
0.604633
0.605299
0.604954
0.603481
0.600731
0.596359
0.590061
0.581137
0.571553
0.60382
0.605774
0.606541
0.606237
0.604724
0.601814
0.596999
0.589791
0.578786
0.566316
0.605293
0.6074
0.608251
0.608022
0.606531
0.603576
0.598488
0.590596
0.577708
0.56233
0.605849
0.608021
0.608897
0.608644
0.607105
0.604068
0.598778
0.590416
0.576021
0.557901
0.606618
0.608822
0.60973
0.609521
0.608023
0.605013
0.599657
0.590996
0.575623
0.554509
0.603919
0.605996
0.606778
0.606308
0.604477
0.601073
0.595328
0.586172
0.570297
0.54697
0.5924
0.592988
0.593164
0.593062
0.592711
0.592149
0.591418
0.590597
0.589766
0.588935
0.595365
0.596055
0.596302
0.596104
0.595468
0.594419
0.593015
0.591368
0.589668
0.588271
0.596968
0.597958
0.598307
0.598027
0.597104
0.595543
0.593372
0.590701
0.587753
0.58519
0.597849
0.59915
0.599622
0.599293
0.598127
0.59609
0.593138
0.589324
0.584789
0.580596
0.599394
0.600973
0.601562
0.601233
0.599909
0.597513
0.593884
0.588976
0.582699
0.576532
0.600239
0.602037
0.602733
0.602413
0.600979
0.598309
0.594113
0.588218
0.580134
0.571764
0.601653
0.60364
0.604425
0.604149
0.602671
0.599842
0.595227
0.588504
0.578679
0.567965
0.602214
0.604294
0.605116
0.604814
0.60326
0.60028
0.59534
0.587975
0.576658
0.563616
0.603049
0.605177
0.60603
0.605758
0.60421
0.601196
0.596091
0.588269
0.575865
0.560276
0.600501
0.602519
0.603297
0.602847
0.601069
0.597768
0.592346
0.584044
0.570998
0.553481
0.591122
0.591558
0.591677
0.591618
0.591406
0.591073
0.590649
0.590186
0.589722
0.58919
0.59369
0.59416
0.594332
0.5942
0.593773
0.593082
0.592183
0.591171
0.590178
0.589404
0.594794
0.595532
0.595797
0.595591
0.594913
0.593789
0.592278
0.590504
0.588672
0.587177
0.595366
0.596406
0.59679
0.596526
0.5956
0.594021
0.591817
0.589112
0.586136
0.58357
0.596607
0.597938
0.598435
0.598147
0.597027
0.595054
0.59219
0.588518
0.584211
0.580276
0.59727
0.598843
0.59945
0.599147
0.59787
0.595561
0.592091
0.587476
0.581711
0.576169
0.598564
0.600353
0.601051
0.600766
0.599394
0.596846
0.592882
0.587414
0.580173
0.572844
0.599056
0.600962
0.601709
0.601392
0.599918
0.597165
0.592803
0.586631
0.578062
0.568899
0.599916
0.601892
0.60267
0.602371
0.60087
0.59803
0.593432
0.586736
0.577127
0.565988
0.597478
0.599361
0.600101
0.599681
0.598016
0.594954
0.590078
0.582924
0.572653
0.560021
0.59019
0.590528
0.590609
0.590577
0.590453
0.590261
0.59002
0.589761
0.589495
0.589116
0.592475
0.592783
0.592899
0.592815
0.592541
0.592103
0.591545
0.590935
0.590357
0.589921
0.593172
0.593697
0.593888
0.593745
0.59327
0.592495
0.591481
0.590333
0.589206
0.588329
0.593484
0.594277
0.594574
0.594374
0.593676
0.592506
0.590924
0.589061
0.587133
0.585561
0.594417
0.595485
0.595887
0.595651
0.594752
0.593204
0.591035
0.588378
0.585472
0.582972
0.594874
0.596188
0.596696
0.596429
0.595352
0.593451
0.590705
0.58722
0.583193
0.579557
0.596015
0.597558
0.598157
0.597889
0.596684
0.594504
0.59125
0.586974
0.581765
0.57682
0.596381
0.598059
0.598713
0.598408
0.597082
0.594665
0.590989
0.58603
0.579721
0.573404
0.597242
0.599009
0.599697
0.599399
0.598021
0.595477
0.591528
0.586043
0.578829
0.571067
0.594875
0.596563
0.597239
0.596858
0.595358
0.592633
0.588432
0.582529
0.574712
0.565885
0.589482
0.589759
0.589817
0.589801
0.58973
0.589621
0.589485
0.58934
0.589181
0.588884
0.591577
0.591774
0.591851
0.5918
0.591629
0.59136
0.591021
0.590658
0.59032
0.590069
0.591956
0.592313
0.592446
0.59235
0.59203
0.591515
0.590855
0.590129
0.589441
0.588923
0.592081
0.59266
0.592881
0.592737
0.592232
0.591398
0.590299
0.589048
0.58781
0.586845
0.592727
0.593549
0.593861
0.593677
0.592988
0.591822
0.590237
0.588368
0.586435
0.584851
0.592984
0.594036
0.594446
0.594225
0.593357
0.591859
0.589765
0.587216
0.584449
0.582082
0.593969
0.595248
0.595744
0.595509
0.594501
0.592717
0.59015
0.586916
0.583241
0.579942
0.594171
0.595588
0.596141
0.595867
0.594729
0.592701
0.589728
0.585886
0.581348
0.577063
0.595025
0.596547
0.597135
0.596861
0.595654
0.593478
0.590223
0.585899
0.580622
0.575324
0.592697
0.594152
0.594745
0.594411
0.593109
0.59078
0.587299
0.58261
0.576829
0.57082
0.588928
0.589166
0.589207
0.589201
0.58916
0.5891
0.589023
0.588941
0.588842
0.588591
0.590899
0.591024
0.591074
0.591044
0.590941
0.590779
0.590577
0.590362
0.590162
0.590013
0.591028
0.591263
0.591351
0.591289
0.591081
0.590749
0.59033
0.589879
0.589464
0.589157
0.591045
0.591453
0.591612
0.591513
0.591161
0.590586
0.589844
0.58902
0.588232
0.587638
0.591442
0.592051
0.592283
0.592147
0.591638
0.590792
0.589669
0.588388
0.587118
0.586118
0.591527
0.592336
0.592653
0.59248
0.59181
0.590673
0.58913
0.587315
0.585444
0.583912
0.592371
0.593391
0.593787
0.593594
0.592786
0.591384
0.589429
0.587056
0.584509
0.582329
0.592385
0.593536
0.593987
0.593753
0.592817
0.591184
0.588866
0.585987
0.582789
0.579925
0.593242
0.594507
0.594992
0.594754
0.593743
0.591957
0.589375
0.586079
0.582306
0.578753
0.590927
0.592132
0.592633
0.592351
0.591262
0.589346
0.586565
0.582969
0.578802
0.574804
0.588481
0.588693
0.588725
0.588723
0.5887
0.588667
0.588624
0.588577
0.588511
0.588289
0.590379
0.590458
0.590492
0.590475
0.590414
0.590318
0.590198
0.59007
0.58995
0.589857
0.590302
0.590451
0.590507
0.590468
0.590337
0.590128
0.589869
0.589594
0.589345
0.589165
0.590286
0.590566
0.590677
0.590612
0.590374
0.58999
0.5895
0.588967
0.588469
0.588101
0.590474
0.590908
0.591075
0.590978
0.590616
0.590021
0.589249
0.58839
0.587567
0.586938
0.590423
0.591023
0.59126
0.591129
0.590631
0.589799
0.588696
0.587436
0.586188
0.585205
0.591155
0.591941
0.592246
0.592095
0.591472
0.590412
0.588971
0.587277
0.585541
0.584113
0.590968
0.591866
0.59222
0.592031
0.591292
0.590027
0.58828
0.586187
0.583978
0.582091
0.591855
0.592869
0.593255
0.59306
0.592247
0.590839
0.58886
0.586427
0.583786
0.581436
0.589531
0.590488
0.590895
0.590666
0.589789
0.588271
0.586127
0.583456
0.580523
0.57792
0.588117
0.58831
0.588333
0.588334
0.588321
0.588303
0.588278
0.588251
0.588205
0.588004
0.58998
0.590032
0.590056
0.590047
0.590011
0.589953
0.589883
0.589806
0.589731
0.589668
0.589714
0.589806
0.58984
0.589816
0.589734
0.589606
0.589449
0.589285
0.589139
0.589034
0.589737
0.589923
0.59
0.589959
0.589804
0.589552
0.589236
0.588896
0.588583
0.588354
0.589748
0.590047
0.590162
0.590095
0.589846
0.589441
0.588924
0.58836
0.587834
0.587442
0.589601
0.59003
0.590201
0.590107
0.589749
0.58916
0.588394
0.58754
0.586719
0.586093
0.590255
0.590839
0.591067
0.590953
0.590492
0.589717
0.588688
0.587509
0.586346
0.585418
0.589856
0.590531
0.590799
0.590651
0.59009
0.589145
0.587872
0.586394
0.584897
0.583671
0.590816
0.591601
0.591898
0.591745
0.591118
0.590048
0.588583
0.586839
0.585028
0.583493
0.588462
0.589189
0.589508
0.589329
0.588649
0.58749
0.585891
0.583969
0.58195
0.580293
0.587815
0.587991
0.588009
0.588011
0.588004
0.587994
0.58798
0.587963
0.58793
0.587747
0.589682
0.589718
0.589736
0.589732
0.589711
0.589677
0.589634
0.589586
0.589536
0.58949
0.58922
0.589274
0.589293
0.589277
0.589227
0.589151
0.589058
0.588963
0.58888
0.588822
0.589345
0.589467
0.58952
0.589495
0.589396
0.589236
0.589035
0.58882
0.588624
0.588481
0.589204
0.589403
0.58948
0.589435
0.589268
0.589
0.588663
0.588301
0.587971
0.58773
0.588999
0.589297
0.589416
0.589351
0.589103
0.588699
0.58818
0.587614
0.587083
0.586688
0.589607
0.590026
0.59019
0.590108
0.589779
0.589232
0.588519
0.587719
0.586953
0.586355
0.588987
0.589474
0.589669
0.589559
0.589149
0.588467
0.587567
0.586553
0.585558
0.584776
0.590075
0.590663
0.590883
0.590769
0.590303
0.58952
0.588472
0.587256
0.58604
0.585048
0.58766
0.588189
0.58843
0.588295
0.587787
0.586933
0.58578
0.584439
0.58308
0.582051
0.587556
0.587716
0.587729
0.587732
0.587727
0.587722
0.587714
0.587704
0.58768
0.587515
0.58948
0.589508
0.589522
0.589521
0.589508
0.589487
0.589461
0.589429
0.589392
0.589352
0.588786
0.588815
0.588824
0.588813
0.588783
0.588739
0.588686
0.588633
0.588589
0.588559
0.589074
0.589154
0.58919
0.589175
0.589114
0.589014
0.588889
0.588755
0.588632
0.588541
0.588801
0.588929
0.588978
0.588948
0.58884
0.588668
0.588453
0.588226
0.588023
0.587878
0.588573
0.588773
0.588854
0.58881
0.588644
0.588374
0.588033
0.587666
0.587326
0.58708
0.589153
0.589443
0.589557
0.5895
0.589273
0.588899
0.58842
0.587893
0.587399
0.587017
0.588301
0.588638
0.588775
0.588696
0.588406
0.587931
0.587315
0.586637
0.585989
0.585501
0.589586
0.590013
0.590171
0.590089
0.589757
0.589204
0.588477
0.587654
0.586855
0.586218
0.587059
0.587426
0.587603
0.587504
0.587139
0.586533
0.585728
0.584821
0.583926
0.583306
0.587301
0.587444
0.587452
0.587455
0.587452
0.587449
0.587445
0.58744
0.587423
0.587276
0.589379
0.589404
0.589417
0.589417
0.589409
0.589396
0.589377
0.589354
0.589324
0.589283
0.588391
0.588403
0.588405
0.588397
0.588379
0.588354
0.588326
0.588299
0.588279
0.588268
0.5889
0.588952
0.588975
0.588968
0.58893
0.588869
0.588792
0.58871
0.588635
0.588575
0.588514
0.588593
0.588625
0.588605
0.588537
0.588429
0.588296
0.588157
0.588033
0.587948
0.588292
0.588423
0.588477
0.588449
0.588341
0.588166
0.587947
0.587714
0.587499
0.587347
0.588848
0.58904
0.589116
0.589077
0.588926
0.588679
0.588368
0.58803
0.587721
0.58748
0.587752
0.587978
0.588071
0.588017
0.58782
0.587499
0.587088
0.586647
0.58623
0.585936
0.589315
0.589616
0.589725
0.589669
0.58944
0.589064
0.588577
0.588035
0.587523
0.587114
0.586574
0.586816
0.586941
0.586872
0.58662
0.586204
0.585659
0.585064
0.584486
0.584129
0.586951
0.587073
0.587077
0.587079
0.587078
0.587077
0.587076
0.587073
0.587063
0.58694
0.589406
0.589431
0.589442
0.589443
0.589438
0.589429
0.589415
0.589396
0.589367
0.589322
0.588032
0.588035
0.588034
0.588028
0.588018
0.588004
0.587989
0.587977
0.587969
0.58797
0.588805
0.588838
0.588851
0.588846
0.588824
0.588787
0.588742
0.588693
0.588649
0.588611
0.588335
0.588383
0.588404
0.588392
0.58835
0.588284
0.588203
0.588118
0.588044
0.587994
0.588145
0.58823
0.588266
0.588249
0.58818
0.58807
0.587932
0.587786
0.587651
0.587557
0.588662
0.588783
0.58883
0.588804
0.588705
0.588548
0.588352
0.588143
0.587958
0.587812
0.587339
0.587486
0.58755
0.587515
0.587385
0.587174
0.586906
0.586623
0.586355
0.586183
0.589255
0.589461
0.589534
0.589496
0.589344
0.589096
0.588781
0.588434
0.588116
0.58785
0.586067
0.586219
0.586307
0.58626
0.586092
0.585816
0.585458
0.585078
0.584707
0.584515
0.586284
0.586379
0.586381
0.586382
0.586382
0.586383
0.586384
0.586384
0.586382
0.586286
0.589628
0.589654
0.589662
0.589664
0.58966
0.589653
0.589642
0.589627
0.589601
0.589547
0.587757
0.587758
0.58776
0.587759
0.587753
0.587745
0.587735
0.587726
0.58772
0.587724
0.588773
0.588789
0.588794
0.588789
0.588775
0.588754
0.588729
0.588704
0.588683
0.588662
0.588262
0.588293
0.588307
0.588301
0.588277
0.588236
0.588187
0.588135
0.588089
0.588058
0.588125
0.58818
0.588204
0.588194
0.588152
0.588083
0.587997
0.587906
0.587821
0.58776
0.588582
0.588651
0.588678
0.588659
0.588597
0.588499
0.588379
0.588255
0.58815
0.588068
0.587138
0.587237
0.587282
0.587262
0.587179
0.587043
0.586869
0.586686
0.586505
0.5864
0.589459
0.589593
0.589639
0.589612
0.589513
0.589355
0.589156
0.588942
0.588753
0.588579
0.58531
0.585403
0.585465
0.585435
0.585325
0.585145
0.584914
0.584674
0.584431
0.584338
0.584989
0.585054
0.585058
0.58506
0.585061
0.585062
0.585062
0.585061
0.58506
0.584992
0.590185
0.590202
0.590199
0.590194
0.590189
0.590185
0.590183
0.590179
0.590168
0.590118
0.587679
0.587692
0.587704
0.58771
0.587709
0.587703
0.587691
0.587676
0.587658
0.587647
0.588773
0.588775
0.588773
0.588767
0.588757
0.588746
0.588734
0.588724
0.58872
0.588716
0.58828
0.588302
0.588313
0.58831
0.588295
0.58827
0.588239
0.588205
0.588174
0.588151
0.588202
0.588238
0.588254
0.588248
0.588222
0.588178
0.588123
0.588065
0.58801
0.587968
0.588583
0.588621
0.588635
0.588621
0.58858
0.588518
0.588444
0.588369
0.588312
0.588274
0.587302
0.587379
0.587415
0.587405
0.587351
0.587261
0.587145
0.587019
0.586887
0.5868
0.590052
0.590127
0.590152
0.590131
0.590065
0.589962
0.589836
0.589708
0.589607
0.58951
0.584027
0.584091
0.584135
0.584115
0.584042
0.583923
0.583771
0.583614
0.583444
0.583398
0.583166
0.583207
0.583219
0.583227
0.583229
0.583226
0.583219
0.583207
0.58319
0.583135
0.59111
0.591082
0.591052
0.591033
0.591024
0.591025
0.591036
0.591059
0.591092
0.591103
0.587862
0.587898
0.587922
0.587934
0.587936
0.58793
0.587915
0.58789
0.587854
0.58781
0.588764
0.588755
0.588748
0.588741
0.588734
0.588726
0.588721
0.588719
0.588725
0.588738
0.588336
0.588354
0.588362
0.588361
0.58835
0.588332
0.58831
0.588285
0.588261
0.588241
0.588298
0.588325
0.588337
0.588332
0.588313
0.588282
0.588243
0.588201
0.588162
0.58813
0.588604
0.588627
0.588635
0.588624
0.588595
0.588549
0.588496
0.588445
0.588409
0.588396
0.587823
0.587894
0.587925
0.587918
0.587879
0.587812
0.587727
0.58763
0.587522
0.587423
0.59101
0.591038
0.591049
0.59103
0.59098
0.590904
0.590815
0.590731
0.590684
0.590682
0.582341
0.582398
0.582431
0.582417
0.582361
0.582273
0.582161
0.582045
0.581917
0.581875
0.439206
0.418453
0.425359
0.466318
0.39143
0.368192
0.379233
0.436469
0.348241
0.321094
0.338432
0.417356
0.31017
0.280773
0.305108
0.406435
0.278692
0.248626
0.280195
0.404023
0.251587
0.222071
0.261907
0.401216
0.22987
0.202227
0.250852
0.398581
0.209484
0.185368
0.242831
0.396487
0.191542
0.17352
0.239249
0.398119
0.17208
0.16221
0.234936
0.393622
0.499287
0.489089
0.489414
0.499128
0.468797
0.456181
0.457326
0.470005
0.437919
0.421199
0.423409
0.440982
0.408898
0.387931
0.391526
0.414247
0.384236
0.358772
0.36403
0.392096
0.36219
0.331841
0.337893
0.371223
0.344308
0.308971
0.314858
0.353284
0.327865
0.28773
0.293169
0.336586
0.314322
0.270153
0.275139
0.322949
0.29896
0.252366
0.254966
0.305308
0.56669
0.564475
0.563945
0.565078
0.548931
0.545235
0.54454
0.546841
0.528944
0.523049
0.522241
0.526577
0.506705
0.498437
0.497638
0.504472
0.485707
0.474985
0.474358
0.484092
0.46463
0.451323
0.450915
0.46366
0.445692
0.429718
0.429486
0.445178
0.427057
0.408537
0.408449
0.426907
0.410795
0.390595
0.390553
0.410935
0.391879
0.372167
0.371402
0.391311
0.579156
0.578072
0.577724
0.578074
0.569526
0.568115
0.567625
0.567988
0.557666
0.555182
0.554465
0.555365
0.542893
0.539103
0.538197
0.539922
0.528457
0.523217
0.522199
0.525053
0.512892
0.506078
0.505003
0.50925
0.49829
0.489828
0.488737
0.494576
0.482976
0.472944
0.471892
0.479402
0.468752
0.457775
0.456772
0.465582
0.450911
0.44098
0.439718
0.448068
0.586024
0.585434
0.585234
0.585422
0.580197
0.579717
0.579487
0.579497
0.572718
0.571777
0.571355
0.571426
0.562614
0.560978
0.560326
0.560593
0.552656
0.550152
0.549279
0.549911
0.541361
0.537846
0.536779
0.537958
0.53063
0.526016
0.524798
0.52671
0.518846
0.513157
0.511858
0.514648
0.507675
0.501334
0.500031
0.503605
0.492923
0.487723
0.486293
0.489315
0.588603
0.588127
0.587981
0.588166
0.585158
0.584947
0.584838
0.58483
0.580073
0.579652
0.579436
0.579419
0.57285
0.572088
0.571711
0.571703
0.565795
0.564564
0.563995
0.564051
0.557478
0.555651
0.554877
0.555075
0.549649
0.547134
0.546167
0.546616
0.540752
0.537529
0.536422
0.537241
0.532328
0.528658
0.527513
0.528739
0.520417
0.517865
0.516643
0.517203
0.589728
0.589296
0.589174
0.589361
0.587848
0.587755
0.587704
0.587695
0.58431
0.584115
0.584008
0.583989
0.578941
0.578571
0.578369
0.578332
0.573737
0.573116
0.572788
0.57274
0.567386
0.56643
0.565944
0.565904
0.561544
0.560178
0.559525
0.559536
0.554746
0.552939
0.552145
0.552277
0.548586
0.546469
0.545615
0.545936
0.538912
0.537909
0.53701
0.536568
0.590059
0.589643
0.589529
0.589718
0.58919
0.589142
0.589116
0.58911
0.586728
0.586631
0.586576
0.586565
0.582712
0.58252
0.582411
0.582385
0.578813
0.578484
0.578298
0.578253
0.573852
0.573332
0.573044
0.572979
0.569414
0.568655
0.568247
0.568174
0.564137
0.563113
0.562594
0.562546
0.559727
0.558501
0.557917
0.557937
0.551685
0.551592
0.550994
0.550213
0.590014
0.589603
0.589493
0.589683
0.589805
0.58978
0.589765
0.589761
0.588087
0.588035
0.588006
0.588
0.585089
0.584985
0.584925
0.584908
0.582168
0.581988
0.581882
0.581851
0.578276
0.577985
0.577816
0.577765
0.574911
0.574479
0.574231
0.574162
0.570766
0.570178
0.569853
0.569781
0.567621
0.566906
0.566527
0.56647
0.560802
0.56123
0.560864
0.560009
0.589788
0.589379
0.589269
0.58946
0.590002
0.589987
0.589977
0.589974
0.588786
0.588758
0.588742
0.588738
0.58657
0.586511
0.586475
0.586465
0.584386
0.584284
0.584222
0.584203
0.581341
0.581173
0.581072
0.581038
0.578837
0.578584
0.578434
0.578385
0.575555
0.575212
0.575012
0.574953
0.573349
0.572927
0.572688
0.572629
0.567472
0.568184
0.567977
0.567141
0.589489
0.589079
0.58897
0.589162
0.589972
0.589962
0.589955
0.589953
0.589079
0.589063
0.589054
0.589052
0.587471
0.587435
0.587414
0.587407
0.58584
0.58578
0.585743
0.585731
0.583468
0.583368
0.583307
0.583285
0.581663
0.581511
0.581419
0.581386
0.579036
0.578832
0.57871
0.578669
0.577568
0.577314
0.577166
0.577122
0.572423
0.573276
0.573168
0.572381
0.589173
0.588761
0.588652
0.588845
0.58983
0.589822
0.589817
0.589814
0.58912
0.589112
0.589107
0.589106
0.587997
0.587975
0.587961
0.587956
0.586769
0.586733
0.586711
0.586704
0.584932
0.584871
0.584833
0.584819
0.583697
0.583603
0.583546
0.583525
0.581554
0.581431
0.581355
0.581328
0.580694
0.580537
0.580445
0.580417
0.576115
0.577022
0.576972
0.57624
0.588868
0.588453
0.588344
0.58854
0.589647
0.58964
0.589636
0.589633
0.589011
0.589007
0.589005
0.589004
0.588286
0.588272
0.588263
0.588259
0.587339
0.587318
0.587305
0.5873
0.585923
0.585886
0.585862
0.585853
0.585152
0.585093
0.585057
0.585043
0.583344
0.583269
0.583222
0.583204
0.583007
0.582908
0.582851
0.582835
0.578861
0.579766
0.579749
0.579075
0.588585
0.588167
0.588059
0.588257
0.58947
0.589463
0.589459
0.589455
0.588811
0.58881
0.58881
0.58881
0.588435
0.588425
0.588419
0.588416
0.587668
0.587656
0.587648
0.587645
0.586582
0.586558
0.586543
0.586537
0.586182
0.586145
0.586122
0.586113
0.584577
0.584531
0.584502
0.58449
0.584715
0.584651
0.584616
0.584608
0.580885
0.58175
0.581751
0.581137
0.588319
0.587898
0.587792
0.587994
0.58933
0.589324
0.589318
0.589315
0.588558
0.588559
0.588559
0.58856
0.588509
0.588501
0.588497
0.588494
0.587841
0.587835
0.587831
0.587829
0.587013
0.586998
0.586989
0.586985
0.586904
0.586881
0.586866
0.586861
0.585383
0.585355
0.585337
0.58533
0.585979
0.585936
0.585915
0.585913
0.582349
0.583146
0.583154
0.582607
0.588038
0.587615
0.587514
0.58772
0.589257
0.589249
0.589243
0.589239
0.588273
0.588275
0.588277
0.588278
0.588552
0.588547
0.588543
0.588542
0.587928
0.587924
0.587922
0.587922
0.587304
0.587294
0.587288
0.587285
0.587409
0.587395
0.587387
0.587384
0.585868
0.585851
0.585839
0.585834
0.586932
0.586902
0.586889
0.586894
0.583352
0.584057
0.584067
0.583593
0.587644
0.587226
0.587133
0.587344
0.589288
0.589277
0.58927
0.589265
0.587979
0.587982
0.587984
0.587986
0.588596
0.588593
0.588591
0.58859
0.587982
0.58798
0.587979
0.587978
0.587526
0.587519
0.587514
0.587512
0.587772
0.587765
0.587762
0.587761
0.586141
0.586129
0.586121
0.586117
0.587705
0.587682
0.587675
0.587683
0.583908
0.584499
0.584508
0.584114
0.586913
0.586512
0.586433
0.586644
0.589501
0.589488
0.589479
0.589475
0.587731
0.587733
0.587733
0.587734
0.588656
0.588655
0.588655
0.588655
0.588047
0.588045
0.588044
0.588043
0.587734
0.587727
0.587724
0.587723
0.588054
0.588054
0.588053
0.588053
0.586355
0.586343
0.586335
0.586333
0.588459
0.58844
0.588436
0.588449
0.583893
0.584349
0.584353
0.58405
0.5855
0.585146
0.58509
0.585286
0.590061
0.590045
0.590038
0.590038
0.587632
0.587629
0.587625
0.587622
0.588724
0.588726
0.588728
0.58873
0.588138
0.588136
0.588134
0.588133
0.587943
0.587937
0.587934
0.587934
0.588285
0.588289
0.588291
0.588291
0.586712
0.586691
0.586682
0.586684
0.589434
0.58942
0.58942
0.589436
0.58308
0.583369
0.583367
0.583173
0.58343
0.583209
0.583183
0.583308
0.591077
0.591072
0.591076
0.591089
0.587748
0.587735
0.587725
0.587719
0.588763
0.588769
0.588773
0.588776
0.588225
0.588222
0.58822
0.588219
0.588106
0.588101
0.588098
0.588099
0.588428
0.588435
0.588438
0.588437
0.587259
0.587222
0.58721
0.587223
0.590754
0.590765
0.590772
0.590776
0.581599
0.581672
0.581668
0.581624
0.59528
0.603737
0.607739
0.610843
0.613967
0.616724
0.618963
0.62071
0.622077
0.623223
0.596212
0.599548
0.606971
0.61202
0.616486
0.619874
0.622338
0.624103
0.625347
0.62629
0.600072
0.596429
0.607414
0.61313
0.618413
0.62201
0.624579
0.626401
0.627655
0.628546
0.603486
0.592555
0.607169
0.612742
0.618602
0.622152
0.624708
0.626486
0.627702
0.628566
0.607978
0.590544
0.607916
0.613216
0.619521
0.622921
0.625448
0.627143
0.62827
0.629053
0.611064
0.587887
0.607657
0.612483
0.61924
0.622455
0.624996
0.626642
0.627775
0.628599
0.615065
0.586624
0.608481
0.612591
0.619752
0.622704
0.62526
0.626849
0.627955
0.628755
0.616634
0.583572
0.607486
0.610827
0.618497
0.62125
0.623969
0.625641
0.626947
0.627984
0.618297
0.582088
0.607935
0.609942
0.617755
0.620041
0.622988
0.624809
0.626317
0.627546
0.602751
0.566222
0.594714
0.597067
0.606753
0.610621
0.615269
0.618381
0.620942
0.622963
0.537861
0.559929
0.576276
0.587903
0.595867
0.601411
0.605418
0.608409
0.610718
0.612637
0.524151
0.554696
0.576782
0.590731
0.599584
0.605575
0.609818
0.612894
0.615137
0.6168
0.513886
0.551566
0.577888
0.592906
0.602359
0.608623
0.613012
0.616154
0.618391
0.619986
0.505499
0.548534
0.578061
0.593401
0.603259
0.6096
0.613999
0.617104
0.619295
0.620848
0.501041
0.547716
0.579326
0.594717
0.604865
0.611157
0.615498
0.618505
0.620594
0.622056
0.497844
0.546644
0.579739
0.594894
0.605283
0.611454
0.615737
0.618659
0.620708
0.622173
0.497446
0.547075
0.581243
0.595874
0.606426
0.612375
0.616582
0.619406
0.621394
0.62282
0.496651
0.546127
0.581197
0.595129
0.605874
0.611607
0.615842
0.618683
0.620795
0.622393
0.497141
0.546448
0.582376
0.595051
0.605591
0.610853
0.615183
0.618144
0.620423
0.622207
0.488057
0.536412
0.573091
0.585279
0.596841
0.603122
0.608643
0.612534
0.615575
0.617843
0.568979
0.575253
0.581331
0.586707
0.591291
0.595124
0.598298
0.600919
0.603112
0.605003
0.555744
0.567137
0.577323
0.58565
0.592318
0.597567
0.601661
0.604844
0.607306
0.609181
0.542658
0.559833
0.574203
0.585092
0.593403
0.599654
0.604362
0.607911
0.610565
0.612511
0.529502
0.552409
0.570763
0.583759
0.593343
0.600255
0.605315
0.609047
0.611797
0.613787
0.519578
0.547554
0.569339
0.583917
0.594419
0.601717
0.606946
0.610725
0.613472
0.615435
0.510733
0.543023
0.567748
0.583452
0.594628
0.602129
0.607438
0.61122
0.613971
0.615956
0.504705
0.540499
0.567677
0.584066
0.595697
0.603232
0.608545
0.612283
0.615005
0.61697
0.499013
0.537464
0.566708
0.58341
0.595358
0.602843
0.608185
0.611951
0.614766
0.616863
0.495305
0.536124
0.567104
0.583472
0.595308
0.602509
0.607909
0.611774
0.614719
0.616967
0.485215
0.527232
0.559418
0.57573
0.588264
0.59619
0.602407
0.606935
0.610413
0.612938
0.578793
0.581202
0.584107
0.587054
0.589832
0.592345
0.594567
0.596509
0.598223
0.599782
0.570021
0.574786
0.580201
0.585343
0.58988
0.59374
0.596961
0.599616
0.601772
0.603475
0.5595
0.567579
0.575989
0.583413
0.589634
0.594703
0.598778
0.602017
0.604552
0.606482
0.547184
0.559288
0.571032
0.580715
0.588471
0.594536
0.599257
0.602916
0.605725
0.607828
0.536492
0.552887
0.567915
0.579605
0.58864
0.595452
0.600614
0.604523
0.607479
0.609657
0.525875
0.546579
0.564729
0.578124
0.588204
0.595561
0.601026
0.605097
0.608158
0.610417
0.517342
0.542171
0.563171
0.577914
0.588797
0.596498
0.602143
0.60629
0.609398
0.611681
0.508966
0.537554
0.561095
0.576824
0.588302
0.596203
0.601984
0.606223
0.609437
0.611841
0.502452
0.534669
0.56041
0.576543
0.588222
0.596104
0.601998
0.606345
0.609666
0.612189
0.491552
0.526366
0.553558
0.570079
0.582397
0.590844
0.597313
0.602131
0.605822
0.60847
0.585288
0.586049
0.587213
0.588578
0.590013
0.59143
0.592776
0.59403
0.595209
0.596362
0.579955
0.581811
0.584329
0.587052
0.589723
0.592205
0.594432
0.596378
0.598034
0.599391
0.572418
0.57582
0.580129
0.584518
0.588609
0.592235
0.59535
0.597963
0.600103
0.601798
0.562601
0.568213
0.574781
0.58104
0.586592
0.591307
0.595218
0.598406
0.60096
0.602944
0.55348
0.56177
0.570829
0.578963
0.585879
0.59153
0.596077
0.599691
0.602535
0.604703
0.543684
0.554977
0.566635
0.576553
0.584693
0.591124
0.596173
0.600112
0.603182
0.605514
0.535234
0.549713
0.563944
0.575456
0.584633
0.591664
0.597081
0.601239
0.604454
0.606874
0.52654
0.54423
0.560907
0.573755
0.583766
0.591235
0.596933
0.601278