/*--------------------------------*- C++ -*----------------------------------*\
| =========                 |                                                 |
| \\      /  F ield         | foam-extend: Open Source CFD                    |
|  \\    /   O peration     | Version:     4.0                                |
|   \\  /    A nd           | Web:         http://www.foam-extend.org         |
|    \\/     M anipulation  |                                                 |
\*---------------------------------------------------------------------------*/
FoamFile
{
    version     2.0;
    format      ascii;
    class       surfaceScalarField;
    location    "2450";
    object      phi;
}
// * * * * * * * * * * * * * * * * * * * * * * * * * * * * * * * * * * * * * //

dimensions      [1 0 -1 0 0 0 0];

internalField   nonuniform List<scalar> 
97302
(
-0.000109786
9.51658e-07
-0.000869496
0.000878773
-0.0001196
1.14099e-06
-0.000870499
0.000879173
-0.000129523
1.2001e-06
-0.000871025
0.000879747
-0.000140125
1.13813e-06
-0.000871063
0.000880527
-0.000152232
9.46024e-07
-0.000870611
0.000881773
-0.000167326
6.13654e-07
-0.000869444
0.000883924
-0.000188496
1.14543e-07
-0.000866957
0.000888013
-0.000222747
-5.95613e-07
-0.000861331
0.000896178
-0.000271326
-1.63918e-06
-0.000851542
0.000901759
-4.39607e-06
-0.000824043
-0.000352997
0.00091011
-0.000150901
1.60308e-06
-0.00116596
0.00117606
-0.000161174
1.96534e-06
-0.00116691
0.00117636
-0.000171518
2.08387e-06
-0.0011675
0.00117697
-0.000182474
1.9919e-06
-0.00116753
0.00117763
-0.000194834
1.67445e-06
-0.00116673
0.00117836
-0.000210315
1.12024e-06
-0.00116472
0.0011797
-0.000232767
2.71679e-07
-0.00116113
0.00118342
-0.000271568
-9.66383e-07
-0.00115433
0.00119351
-0.00032835
-2.89691e-06
-0.00114203
0.00120007
-7.45974e-06
-0.00110414
-0.00043277
0.00121162
-0.000191208
1.89643e-06
-0.00146133
0.00147218
-0.000201778
2.39261e-06
-0.00146234
0.00147248
-0.000212297
2.57414e-06
-0.00146296
0.00147299
-0.000223274
2.49773e-06
-0.00146276
0.00147323
-0.000235634
2.14525e-06
-0.00146141
0.0014733
-0.000251511
1.50614e-06
-0.00145874
0.00147423
-0.000275388
5.01139e-07
-0.00145486
0.00147851
-0.000318359
-9.68163e-07
-0.00144829
0.00149126
-0.000381693
-3.35353e-06
-0.00143513
0.00149892
-9.1351e-06
-0.00138641
-0.000500693
0.00150709
-0.000231437
2.08583e-06
-0.00175271
0.00176398
-0.0002423
2.72174e-06
-0.00175394
0.00176448
-0.000253115
2.98204e-06
-0.00175482
0.00176522
-0.000264406
2.9465e-06
-0.00175482
0.00176566
-0.000277164
2.58637e-06
-0.00175364
0.00176596
-0.000293713
1.89288e-06
-0.00175121
0.00176737
-0.000318864
7.6372e-07
-0.00174764
0.00177253
-0.00036497
-8.92693e-07
-0.00174142
0.00178745
-0.000432991
-3.68e-06
-0.00172781
0.00179616
-1.06292e-05
-0.00166796
-0.000560755
0.00179722
-0.000271568
2.31846e-06
-0.00204524
0.00205669
-0.000282602
3.0237e-06
-0.00204685
0.00205758
-0.000293585
3.32178e-06
-0.00204823
0.00205887
-0.000305071
3.30251e-06
-0.0020487
0.00205983
-0.000318118
2.93489e-06
-0.00204805
0.00206075
-0.000335168
2.20981e-06
-0.00204624
0.00206297
-0.000361326
1.0107e-06
-0.00204332
0.00206923
-0.000409968
-7.4634e-07
-0.00203778
0.00208628
-0.000481932
-3.81496e-06
-0.00202453
0.00209663
-1.18637e-05
-0.00195287
-0.000615168
0.00208735
-0.00031227
2.40414e-06
-0.00233637
0.00234812
-0.000323407
3.13498e-06
-0.00233843
0.00234945
-0.000334458
3.4209e-06
-0.0023402
0.00235115
-0.000346003
3.37395e-06
-0.00234109
0.00235256
-0.00035915
2.97207e-06
-0.00234096
0.00235407
-0.000376427
2.21501e-06
-0.0023399
0.00235718
-0.000403211
9.8487e-07
-0.00233791
0.00236472
-0.000453747
-7.84538e-07
-0.00233348
0.00238405
-0.000529016
-3.91261e-06
-0.00232173
0.0023971
-1.28333e-05
-0.00223797
-0.000665772
0.0023757
-0.000352795
2.38354e-06
-0.00262732
0.00263919
-0.000363874
3.02211e-06
-0.00262998
0.00264117
-0.000374849
3.23717e-06
-0.00263232
0.00264347
-0.000386303
3.10428e-06
-0.00263367
0.00264539
-0.000399398
2.62828e-06
-0.00263412
0.00264756
-0.000416696
1.80179e-06
-0.00263388
0.00265159
-0.000443818
5.60976e-07
-0.00263302
0.00266056
-0.000495693
-1.10974e-06
-0.00263019
0.00268239
-0.000573747
-3.86138e-06
-0.00262109
0.0026991
-1.29897e-05
-0.002525
-0.000712509
0.00266392
-0.000394591
2.02472e-06
-0.00291885
0.00293115
-0.000405722
2.47404e-06
-0.0029221
0.00293378
-0.000416696
2.5027e-06
-0.00292455
0.00293626
-0.0004281
2.16391e-06
-0.00292585
0.00293819
-0.000441061
1.49383e-06
-0.00292619
0.00294029
-0.000458082
4.90544e-07
-0.00292612
0.00294445
-0.000484931
-8.17721e-07
-0.00292595
0.00295418
-0.000536997
-2.36015e-06
-0.00292457
0.00297788
-0.000616518
-4.14962e-06
-0.00291882
0.00299863
-1.21413e-05
-0.00281223
-0.000755679
0.00295054
-0.000435787
1.06835e-06
-0.00320673
0.00321917
-0.000446492
1.13582e-06
-0.00321084
0.00322288
-0.000457072
8.44891e-07
-0.00321391
0.00322614
-0.000468173
1.11301e-07
-0.00321582
0.00322897
-0.000480962
-9.48166e-07
-0.00321695
0.00323218
-0.000497827
-2.30825e-06
-0.00321788
0.00323754
-0.000524529
-3.78329e-06
-0.00321913
0.0032488
-0.000576322
-5.09821e-06
-0.00322003
0.00327457
-0.000655775
-5.50573e-06
-0.00321667
0.00329748
-1.01952e-05
-0.00309931
-0.000792425
0.00323402
-0.000477198
-0.00347531
0.00348832
-0.000488543
-0.00347891
0.00349139
-0.000499732
-0.00347962
0.00349165
-0.000511445
-0.00347706
0.00348889
-0.00052472
-0.00347191
0.00348423
-0.000541687
-0.00346521
0.00347987
-0.000567579
-0.00345814
0.00348025
-0.000616583
-0.00345221
0.00349611
-0.000689674
-0.00344859
0.00351618
-0.00333961
-0.000818673
0.00345841
1.43958e-05
8.88982e-07
-0.00086104
5.31252e-06
1.11361e-06
-0.00086253
-3.79153e-06
1.19434e-06
-0.000863115
-1.31001e-05
1.13666e-06
-0.000862892
-2.28123e-05
9.3066e-07
-0.00086183
-3.31464e-05
5.57985e-07
-0.000859668
-4.42496e-05
-1.55094e-08
-0.000855839
-5.55407e-05
-8.68612e-07
-0.000849171
-6.62355e-05
-2.19721e-06
-0.00083865
-3.96821e-06
-0.000822397
-6.39129e-05
1.54089e-05
1.5138e-06
-0.00115611
5.39054e-06
1.93002e-06
-0.00115771
-4.61742e-06
2.08372e-06
-0.00115839
-1.49323e-05
2.00449e-06
-0.00115808
-2.58193e-05
1.67046e-06
-0.00115658
-3.76409e-05
1.05933e-06
-0.0011534
-5.12338e-05
1.09366e-07
-0.00114766
-6.76412e-05
-1.29562e-06
-0.0011375
-8.82617e-05
-3.54268e-06
-0.00112007
-6.60873e-06
-0.00109112
-9.86424e-05
1.6738e-05
1.8246e-06
-0.00145028
6.00712e-06
2.3886e-06
-0.00145207
-4.63105e-06
2.61211e-06
-0.00145285
-1.55085e-05
2.54986e-06
-0.00145242
-2.6963e-05
2.16872e-06
-0.00145045
-3.97283e-05
1.44505e-06
-0.00144636
-5.55499e-05
2.86891e-07
-0.00143922
-7.71568e-05
-1.42771e-06
-0.00142655
-0.000108636
-4.28356e-06
-0.00140291
-8.39585e-06
-0.00135938
-0.000133882
1.79546e-05
2.03276e-06
-0.00174097
6.74014e-06
2.75407e-06
-0.00174309
-4.38335e-06
3.06508e-06
-0.00174415
-1.58114e-05
3.04899e-06
-0.00174389
-2.79996e-05
2.65841e-06
-0.00174194
-4.19398e-05
1.87175e-06
-0.00173769
-5.99424e-05
5.56377e-07
-0.00172991
-8.61301e-05
-1.40133e-06
-0.00171526
-0.000128053
-4.79456e-06
-0.00168538
-9.90581e-06
-0.0016255
-0.000168998
1.90697e-05
2.27897e-06
-0.0020331
7.56881e-06
3.07898e-06
-0.00203567
-3.83518e-06
3.43385e-06
-0.00203719
-1.55987e-05
3.44004e-06
-0.00203732
-2.83155e-05
3.0461e-06
-0.00203572
-4.3163e-05
2.22989e-06
-0.00203175
-6.29173e-05
8.19712e-07
-0.00202383
-9.29969e-05
-1.28836e-06
-0.00200782
-0.000144892
-5.07624e-06
-0.00197236
-1.1064e-05
-0.00189522
-0.000201392
1.9774e-05
2.39733e-06
-0.00232381
8.09592e-06
3.23201e-06
-0.0023269
-3.43876e-06
3.58242e-06
-0.00232881
-1.53451e-05
3.57127e-06
-0.00232931
-2.83366e-05
3.15413e-06
-0.00232808
-4.37545e-05
2.31882e-06
-0.00232458
-6.48031e-05
8.73701e-07
-0.00231692
-9.80694e-05
-1.2751e-06
-0.00230023
-0.000159356
-5.20879e-06
-0.00226031
-1.1883e-05
-0.00216571
-0.000230799
2.01864e-05
2.3685e-06
-0.0026145
8.53116e-06
3.10935e-06
-0.0026182
-2.95328e-06
3.39421e-06
-0.00262064
-1.47986e-05
3.30987e-06
-0.00262156
-2.78482e-05
2.85136e-06
-0.00262076
-4.35538e-05
1.98933e-06
-0.00261784
-6.54983e-05
5.4832e-07
-0.00261075
-0.000101308
-1.5654e-06
-0.00259409
-0.000171275
-5.24607e-06
-0.00255109
-1.22485e-05
-0.00243911
-0.000256801
1.99282e-05
2.03376e-06
-0.0029056
8.27123e-06
2.5891e-06
-0.00290992
-3.10671e-06
2.7179e-06
-0.0029125
-1.47851e-05
2.4804e-06
-0.00291334
-2.76625e-05
1.9075e-06
-0.00291237
-4.32645e-05
9.66193e-07
-0.00290949
-6.54739e-05
-4.35826e-07
-0.00290276
-0.000102751
-2.40757e-06
-0.00288645
-0.000180119
-5.22077e-06
-0.00284148
-1.18991e-05
-0.00271328
-0.000279418
1.93979e-05
1.07388e-06
-0.00319321
8.21085e-06
1.21878e-06
-0.00319828
-2.66251e-06
1.05876e-06
-0.00320137
-1.38327e-05
4.74176e-07
-0.00320264
-2.63528e-05
-4.03998e-07
-0.00320212
-4.18589e-05
-1.5851e-06
-0.00319982
-6.44381e-05
-3.0107e-06
-0.00319397
-0.00010304
-4.67528e-06
-0.00317917
-0.000186368
-6.14903e-06
-0.00313242
-1.00752e-05
-0.00298564
-0.00030186
1.82425e-05
-0.00346151
6.80396e-06
-0.00346626
-4.11857e-06
-0.00346764
-1.52134e-05
-0.00346549
-2.74207e-05
-0.0034601
-4.23449e-05
-0.00345187
-6.39063e-05
-0.00343959
-0.000101289
-0.0034195
-0.000186015
-0.00337001
-0.00321569
-0.000320006
1.2026e-05
7.77611e-07
-0.000854369
4.42322e-06
1.01764e-06
-0.000855944
-3.29471e-06
1.10566e-06
-0.000856503
-1.10378e-05
1.0412e-06
-0.00085619
-1.86828e-05
8.17704e-07
-0.000855002
-2.59847e-05
4.19375e-07
-0.000852786
-3.23916e-05
-1.75804e-07
-0.000849256
-3.65994e-05
-1.00574e-06
-0.000843957
-3.67275e-05
-2.15419e-06
-0.000836368
-3.43237e-06
-0.000826722
-2.89703e-05
1.3878e-05
1.36199e-06
-0.0011476
4.85244e-06
1.80212e-06
-0.00114947
-4.23417e-06
1.96518e-06
-0.00115016
-1.34727e-05
1.87452e-06
-0.00114968
-2.28693e-05
1.50863e-06
-0.00114788
-3.2273e-05
8.4296e-07
-0.00114442
-4.12831e-05
-1.75935e-07
-0.00113865
-4.87474e-05
-1.62055e-06
-0.00112942
-5.22014e-05
-3.70596e-06
-0.00111506
-6.12803e-06
-0.00109587
-4.47546e-05
1.59825e-05
1.70811e-06
-0.00144012
5.78029e-06
2.30319e-06
-0.00144237
-4.41643e-06
2.53675e-06
-0.00144323
-1.4803e-05
2.45653e-06
-0.00144262
-2.54747e-05
2.02452e-06
-0.0014403
-3.64948e-05
1.2055e-06
-0.0014357
-4.7977e-05
-9.53915e-08
-0.00142782
-5.94529e-05
-1.97595e-06
-0.00141472
-6.8512e-05
-4.84606e-06
-0.00139271
-8.36589e-06
-0.00136071
-6.4945e-05
1.76324e-05
1.96688e-06
-0.00172977
6.64099e-06
2.73036e-06
-0.00173253
-4.3418e-06
3.05351e-06
-0.00173368
-1.56268e-05
3.01485e-06
-0.00173316
-2.746e-05
2.56028e-06
-0.00173064
-4.01708e-05
1.65213e-06
-0.00172543
-5.43203e-05
1.42393e-07
-0.001716
-7.01002e-05
-2.08957e-06
-0.00169937
-8.58011e-05
-5.70621e-06
-0.00166881
-1.03348e-05
-0.0016211
-8.82322e-05
1.90376e-05
2.25831e-06
-0.00202122
7.53735e-06
3.10728e-06
-0.00202455
-3.93373e-06
3.47831e-06
-0.00202614
-1.57944e-05
3.46312e-06
-0.00202591
-2.84699e-05
3.00281e-06
-0.00202349
-4.25423e-05
2.05546e-06
-0.00201808
-5.90246e-05
4.17912e-07
-0.00200763
-7.8906e-05
-2.05865e-06
-0.00198797
-0.000101936
-6.30199e-06
-0.00194873
-1.19702e-05
-0.0018834
-0.000112116
1.99756e-05
2.42567e-06
-0.00231132
8.13862e-06
3.3137e-06
-0.00231527
-3.61551e-06
3.68487e-06
-0.00231727
-1.57996e-05
3.65979e-06
-0.00231732
-2.89964e-05
3.18202e-06
-0.00231506
-4.40382e-05
2.2182e-06
-0.0023097
-6.24244e-05
5.35049e-07
-0.00229865
-8.6049e-05
-2.03964e-06
-0.00227662
-0.000116871
-6.63844e-06
-0.00222915
-1.31802e-05
-0.00214514
-0.000136227
2.05277e-05
2.42021e-06
-0.00260158
8.61017e-06
3.21433e-06
-0.00260618
-3.18635e-06
3.52588e-06
-0.00260869
-1.54204e-05
3.44097e-06
-0.00260911
-2.88412e-05
2.94638e-06
-0.00260711
-4.44908e-05
1.99594e-06
-0.00260197
-6.43531e-05
3.54092e-07
-0.0025907
-9.12584e-05
-2.20188e-06
-0.00256702
-0.000129976
-6.76631e-06
-0.00251224
-1.39492e-05
-0.00240904
-0.000159273
2.03515e-05
2.09674e-06
-0.0028922
8.40367e-06
2.70155e-06
-0.00289746
-3.30929e-06
2.87377e-06
-0.00290013
-1.54088e-05
2.67666e-06
-0.00290048
-2.87389e-05
2.12609e-06
-0.00289822
-4.45308e-05
1.17538e-06
-0.00289288
-6.52372e-05
-3.27407e-07
-0.00288137
-9.45836e-05
-2.64766e-06
-0.00285665
-0.000140685
-6.40235e-06
-0.00279574
-1.37381e-05
-0.0026736
-0.000180578
1.97384e-05
1.15068e-06
-0.00317949
8.24332e-06
1.32804e-06
-0.00318541
-2.96944e-06
1.24788e-06
-0.00318854
-1.45262e-05
7.72608e-07
-0.00318918
-2.74285e-05
2.57907e-08
-0.00318711
-4.31506e-05
-1.01356e-06
-0.00318191
-6.46505e-05
-2.33691e-06
-0.00317047
-9.64405e-05
-4.09062e-06
-0.00314593
-0.000148897
-6.37122e-06
-0.00307999
-1.15129e-05
-0.00293619
-0.000200578
1.85763e-05
-0.00344764
6.99917e-06
-0.00345335
-4.1054e-06
-0.00345529
-1.54472e-05
-0.00345338
-2.79185e-05
-0.00344761
-4.30034e-05
-0.0034378
-6.37007e-05
-0.00342123
-9.54114e-05
-0.00339188
-0.00015068
-0.00332112
-0.00316254
-0.000215349
9.33371e-06
6.08691e-07
-0.000849538
3.46348e-06
8.52216e-07
-0.000850926
-2.58787e-06
9.44332e-07
-0.000851396
-8.54701e-06
8.7826e-07
-0.000851109
-1.41072e-05
6.526e-07
-0.000850095
-1.88457e-05
2.58465e-07
-0.000848306
-2.21201e-05
-3.11083e-07
-0.00084567
-2.28923e-05
-1.05823e-06
-0.000842127
-1.95794e-05
-1.97943e-06
-0.000837701
-2.86307e-06
-0.000832856
-1.05823e-05
1.17249e-05
1.11588e-06
-0.00114077
4.10695e-06
1.56625e-06
-0.00114257
-3.63961e-06
1.73451e-06
-0.0011432
-1.13772e-05
1.63639e-06
-0.0011427
-1.88896e-05
1.25472e-06
-0.00114097
-2.57879e-05
5.71467e-07
-0.00113784
-3.13125e-05
-4.44851e-07
-0.00113299
-3.39459e-05
-1.81639e-06
-0.00112603
-3.08494e-05
-3.60318e-06
-0.00111653
-5.41817e-06
-0.00110601
-1.81518e-05
1.44342e-05
1.48695e-06
-0.00143135
5.25747e-06
2.09847e-06
-0.00143372
-3.98587e-06
2.33489e-06
-0.00143458
-1.32964e-05
2.23412e-06
-0.00143391
-2.25677e-05
1.75984e-06
-0.00143153
-3.15048e-05
8.77361e-07
-0.00142707
-3.94303e-05
-4.90746e-07
-0.00141984
-4.47344e-05
-2.39726e-06
-0.00140883
-4.34911e-05
-5.03624e-06
-0.00139252
-7.89335e-06
-0.00137302
-2.87079e-05
1.65213e-05
1.79829e-06
-0.00171967
6.22592e-06
2.59084e-06
-0.00172273
-4.13269e-06
2.91777e-06
-0.00172391
-1.46919e-05
2.84861e-06
-0.00172322
-2.54967e-05
2.32971e-06
-0.00172041
-3.64584e-05
1.31911e-06
-0.00171491
-4.71094e-05
-3.19238e-07
-0.00170552
-5.58657e-05
-2.67772e-06
-0.00169033
-5.78754e-05
-6.17849e-06
-0.00166566
-1.01736e-05
-0.00163381
-4.28844e-05
1.82721e-05
2.14075e-06
-0.00201013
7.19103e-06
3.02809e-06
-0.0020139
-3.92228e-06
3.40675e-06
-0.00201552
-1.53441e-05
3.35822e-06
-0.002015
-2.73115e-05
2.82202e-06
-0.00201201
-3.99857e-05
1.74687e-06
-0.00200584
-5.32041e-05
-6.79443e-08
-0.00199466
-6.55998e-05
-2.76828e-06
-0.00197548
-7.19268e-05
-7.05509e-06
-0.00194153
-1.21926e-05
-0.00189468
-5.86284e-05
1.95047e-05
2.36831e-06
-0.0022994
7.87352e-06
3.3008e-06
-0.00230391
-3.73244e-06
3.68441e-06
-0.00230594
-1.57154e-05
3.63202e-06
-0.00230562
-2.8489e-05
3.08072e-06
-0.00230254
-4.24903e-05
1.98283e-06
-0.00229593
-5.7959e-05
9.40797e-08
-0.00228334
-7.39575e-05
-2.78361e-06
-0.00226061
-8.55261e-05
-7.6074e-06
-0.00221703
-1.37669e-05
-0.0021533
-7.58005e-05
2.02613e-05
2.4069e-06
-0.00258902
8.39456e-06
3.24701e-06
-0.00259426
-3.40102e-06
3.57637e-06
-0.00259678
-1.5606e-05
3.47531e-06
-0.00259675
-2.88216e-05
2.92138e-06
-0.00259373
-4.37447e-05
1.85679e-06
-0.00258692
-6.1076e-05
2.17854e-08
-0.0025733
-8.04485e-05
-2.86702e-06
-0.00254756
-9.78696e-05
-7.85546e-06
-0.00249457
-1.48967e-05
-0.00241265
-9.31307e-05
2.02415e-05
2.11171e-06
-0.00287905
8.27192e-06
2.75922e-06
-0.00288501
-3.51482e-06
2.96159e-06
-0.00288773
-1.56844e-05
2.78367e-06
-0.00288762
-2.89509e-05
2.22341e-06
-0.00288426
-4.42602e-05
1.22615e-06
-0.00287694
-6.28399e-05
-4.01569e-07
-0.00286237
-8.50382e-05
-3.02085e-06
-0.0028343
-0.000108508
-7.3308e-06
-0.0027728
-1.48307e-05
-0.00267208
-0.00011009
1.96938e-05
1.19961e-06
-0.00316592
8.11893e-06
1.40477e-06
-0.00317248
-3.229e-06
1.38953e-06
-0.00317562
-1.49162e-05
9.99241e-07
-0.00317571
-2.77956e-05
3.45809e-07
-0.00317236
-4.30465e-05
-6.07668e-07
-0.00316482
-6.25184e-05
-1.89522e-06
-0.0031495
-8.76699e-05
-3.75207e-06
-0.00312005
-0.000117052
-6.49583e-06
-0.00305145
-1.22158e-05
-0.00292921
-0.000126645
1.86064e-05
-0.00343398
7.07103e-06
-0.00344041
-4.05779e-06
-0.00344277
-1.54501e-05
-0.00344099
-2.78755e-05
-0.00343484
-4.2553e-05
-0.00342373
-6.14332e-05
-0.00340425
-8.70673e-05
-0.00337
-0.000119681
-0.003295
-0.00315503
-0.000139403
6.84918e-06
4.23662e-07
-0.000846192
2.57472e-06
6.54243e-07
-0.000847306
-1.89886e-06
7.44932e-07
-0.000847667
-6.24115e-06
6.82598e-07
-0.000847449
-1.01075e-05
4.70769e-07
-0.000846699
-1.30929e-05
1.08545e-07
-0.000845429
-1.47038e-05
-3.95656e-07
-0.000843664
-1.43362e-05
-1.02053e-06
-0.000841474
-1.13196e-05
-1.72038e-06
-0.000838997
-2.32872e-06
-0.000836483
-5.36405e-06
9.38717e-06
8.21515e-07
-0.00113556
3.29723e-06
1.26116e-06
-0.00113708
-2.96875e-06
1.42784e-06
-0.00113762
-9.13084e-06
1.32872e-06
-0.00113718
-1.48465e-05
9.52375e-07
-0.00113573
-1.96462e-05
2.92133e-07
-0.00113322
-2.28143e-05
-6.57079e-07
-0.00112956
-2.32474e-05
-1.87339e-06
-0.00112474
-1.92824e-05
-3.31371e-06
-0.00111891
-4.63249e-06
-0.00111323
-9.76441e-06
1.2456e-05
1.18724e-06
-0.00142417
4.59124e-06
1.79535e-06
-0.00142639
-3.4065e-06
2.02831e-06
-0.00142719
-1.13543e-05
1.91198e-06
-0.00142654
-1.89771e-05
1.41536e-06
-0.00142437
-2.58026e-05
5.13893e-07
-0.00142047
-3.09547e-05
-8.38725e-07
-0.00141451
-3.28545e-05
-2.64476e-06
-0.00140616
-2.86145e-05
-4.92429e-06
-0.00139515
-7.14058e-06
-0.00138374
-1.5386e-05
1.48907e-05
1.53293e-06
-0.00171098
5.6391e-06
2.33842e-06
-0.00171402
-3.75159e-06
2.66367e-06
-0.00171515
-1.32151e-05
2.56615e-06
-0.00171441
-2.25872e-05
1.99719e-06
-0.00171162
-3.15024e-05
9.21292e-07
-0.0017064
-3.90682e-05
-7.6413e-07
-0.00169803
-4.33523e-05
-3.10123e-06
-0.00168559
-4.00335e-05
-6.26998e-06
-0.00166764
-9.53729e-06
-0.00164761
-2.38429e-05
1.6973e-05
1.9184e-06
-0.00200021
6.6667e-06
2.83201e-06
-0.00200409
-3.74469e-06
3.21345e-06
-0.00200566
-1.43385e-05
3.13031e-06
-0.00200497
-2.51209e-05
2.52476e-06
-0.00200176
-3.59144e-05
1.34608e-06
-0.00199547
-4.59411e-05
-5.76539e-07
-0.00198482
-5.30692e-05
-3.34599e-06
-0.00196811
-5.1661e-05
-7.37643e-06
-0.00194183
-1.17705e-05
-0.00191047
-3.36388e-05
1.85162e-05
2.20645e-06
-0.00228843
7.43033e-06
3.1754e-06
-0.00229317
-3.70309e-06
3.56735e-06
-0.00229516
-1.51052e-05
3.48379e-06
-0.00229457
-2.69531e-05
2.85941e-06
-0.00229103
-3.93132e-05
1.64019e-06
-0.00228386
-5.1659e-05
-3.99357e-07
-0.00227117
-6.1872e-05
-3.43196e-06
-0.00225031
-6.33682e-05
-8.122e-06
-0.00221479
-1.3588e-05
-0.00216984
-4.5007e-05
1.95098e-05
2.30222e-06
-0.0025772
8.00683e-06
3.18456e-06
-0.00258277
-3.49283e-06
3.52893e-06
-0.00258525
-1.53154e-05
3.40731e-06
-0.00258485
-2.78316e-05
2.7895e-06
-0.00258115
-4.13654e-05
1.60896e-06
-0.00257336
-5.57437e-05
-3.89278e-07
-0.00255893
-6.90374e-05
-3.47966e-06
-0.00253422
-7.42166e-05
-8.48674e-06
-0.00248903
-1.49514e-05
-0.00242865
-5.68551e-05
1.96926e-05
2.04635e-06
-0.0028665
7.98169e-06
2.73734e-06
-0.00287285
-3.61839e-06
2.9656e-06
-0.00287557
-1.55461e-05
2.79848e-06
-0.00287508
-2.82978e-05
2.21727e-06
-0.00287093
-4.24519e-05
1.15872e-06
-0.00286233
-5.83085e-05
-5.8916e-07
-0.00284631
-7.4392e-05
-3.40852e-06
-0.00281829
-8.38713e-05
-7.9108e-06
-0.00276389
-1.50076e-05
-0.00268685
-6.90453e-05
1.92701e-05
1.19961e-06
-0.00315283
7.86684e-06
1.43335e-06
-0.00315978
-3.38663e-06
1.47497e-06
-0.00316287
-1.49375e-05
1.15375e-06
-0.00316251
-2.74301e-05
5.70563e-07
-0.00315822
-4.16493e-05
-3.27305e-07
-0.00314912
-5.83929e-05
-1.60673e-06
-0.00313174
-7.72892e-05
-3.53832e-06
-0.00310102
-9.15605e-05
-6.4754e-06
-0.00303861
-1.2078e-05
-0.00294222
-8.14825e-05
1.82918e-05
-0.0034208
7.0019e-06
-0.00342769
-3.96614e-06
-0.00343033
-1.51892e-05
-0.00342861
-2.72611e-05
-0.00342219
-4.10522e-05
-0.00341026
-5.75075e-05
-0.0033894
-7.70925e-05
-0.00335395
-9.41523e-05
-0.00328441
-0.00317041
-9.08526e-05
4.81644e-06
2.50681e-07
-0.000843932
1.84258e-06
4.55355e-07
-0.000844788
-1.31466e-06
5.39708e-07
-0.000845049
-4.34629e-06
4.85174e-07
-0.000844903
-6.94564e-06
2.99158e-07
-0.000844399
-8.79006e-06
-1.33394e-08
-0.000843571
-9.55038e-06
-4.34026e-07
-0.000842469
-8.91208e-06
-9.30925e-07
-0.000841181
-6.64594e-06
-1.44763e-06
-0.000839816
-1.8661e-06
-0.000838417
-2.84599e-06
7.16929e-06
5.20324e-07
-0.00113173
2.51921e-06
9.28538e-07
-0.00113291
-2.32268e-06
1.08654e-06
-0.00113332
-7.02496e-06
9.93297e-07
-0.00113299
-1.1215e-05
6.42961e-07
-0.00113189
-1.44513e-05
4.0038e-08
-0.00113004
-1.61746e-05
-7.98933e-07
-0.00112747
-1.57044e-05
-1.82561e-06
-0.00112432
-1.22593e-05
-2.95158e-06
-0.00112085
-3.90776e-06
-0.00111779
-5.6521e-06
1.03345e-05
8.47964e-07
-0.00141854
3.86894e-06
1.42907e-06
-0.00142043
-2.77473e-06
1.65124e-06
-0.00142111
-9.2914e-06
1.52773e-06
-0.00142056
-1.53073e-05
1.03441e-06
-0.00141875
-2.03022e-05
1.61188e-07
-0.0014156
-2.34789e-05
-1.10406e-06
-0.00141103
-2.36623e-05
-2.72177e-06
-0.00140508
-1.91472e-05
-4.61266e-06
-0.001398
-6.31309e-06
-0.00139139
-9.0907e-06
1.29534e-05
1.1993e-06
-0.00170381
4.94854e-06
1.99547e-06
-0.00170658
-3.2609e-06
2.31236e-06
-0.0017076
-1.14351e-05
2.19398e-06
-0.0017069
-1.92468e-05
1.59987e-06
-0.00170437
-2.61813e-05
5.0842e-07
-0.00169982
-3.12794e-05
-1.1388e-06
-0.0016929
-3.28878e-05
-3.33086e-06
-0.00168337
-2.80246e-05
-6.07401e-06
-0.00167104
-8.68548e-06
-0.00165872
-1.45455e-05
1.52831e-05
1.60909e-06
-0.00199166
6.01572e-06
2.52969e-06
-0.00199536
-3.42912e-06
2.90778e-06
-0.00199681
-1.29318e-05
2.79495e-06
-0.00199607
-2.2288e-05
2.14017e-06
-0.00199294
-3.10799e-05
9.02333e-07
-0.00198707
-3.82934e-05
-1.04177e-06
-0.0019777
-4.1877e-05
-3.73521e-06
-0.00196412
-3.73983e-05
-7.34546e-06
-0.00194504
-1.09853e-05
-0.00192469
-2.08736e-05
1.71005e-05
1.94759e-06
-0.00227867
6.84808e-06
2.93817e-06
-0.00228333
-3.53029e-06
3.33317e-06
-0.00228521
-1.40551e-05
3.2202e-06
-0.00228447
-2.46643e-05
2.53633e-06
-0.00228082
-3.51116e-05
1.2307e-06
-0.00227375
-4.44662e-05
-8.79816e-07
-0.00226198
-5.04418e-05
-3.91258e-06
-0.00224415
-4.72134e-05
-8.23833e-06
-0.00221713
-1.29082e-05
-0.00218661
-2.85177e-05
1.8325e-05
2.10567e-06
-0.00256643
7.47639e-06
3.02092e-06
-0.002572
-3.44769e-06
3.37664e-06
-0.00257436
-1.4584e-05
3.23474e-06
-0.00257373
-2.60512e-05
2.56129e-06
-0.00256971
-3.78168e-05
1.28869e-06
-0.00256165
-4.91489e-05
-8.08521e-07
-0.00254767
-5.76871e-05
-3.95165e-06
-0.00252564
-5.64451e-05
-8.68943e-06
-0.00248982
-1.43509e-05
-0.00244717
-3.64857e-05
1.87301e-05
1.89511e-06
-0.00285486
7.55216e-06
2.62641e-06
-0.00286128
-3.59942e-06
2.87598e-06
-0.00286391
-1.4995e-05
2.71448e-06
-0.00286316
-2.68832e-05
2.11007e-06
-0.00285859
-3.94578e-05
9.97897e-07
-0.00284947
-5.23275e-05
-8.27049e-07
-0.00283342
-6.33402e-05
-3.71025e-06
-0.00280752
-6.48621e-05
-8.09822e-06
-0.00276296
-1.44353e-05
-0.00270665
-4.49764e-05
1.84651e-05
1.1439e-06
-0.00314054
7.48954e-06
1.40463e-06
-0.00314758
-3.42683e-06
1.49461e-06
-0.00315057
-1.45706e-05
1.22786e-06
-0.00314988
-2.63521e-05
6.96106e-07
-0.00314502
-3.91568e-05
-1.6455e-07
-0.00313515
-5.29371e-05
-1.4384e-06
-0.00311735
-6.63028e-05
-3.37887e-06
-0.00308799
-7.1261e-05
-6.28902e-06
-0.00303546
-1.12878e-05
-0.00296301
-5.36127e-05
1.76242e-05
-0.00340841
6.79146e-06
-0.00341545
-3.81508e-06
-0.00341822
-1.46388e-05
-0.00341656
-2.60687e-05
-0.00341007
-3.86064e-05
-0.00339789
-5.23917e-05
-0.00337705
-6.65667e-05
-0.00334315
-7.36968e-05
-0.00328357
-0.00319581
-5.95782e-05
3.291e-06
1.06778e-07
-0.000842408
1.28805e-06
2.78526e-07
-0.000843063
-8.66477e-07
3.53375e-07
-0.000843248
-2.92019e-06
3.08693e-07
-0.000843158
-4.63259e-06
1.54512e-07
-0.000842841
-5.77056e-06
-1.01138e-07
-0.000842332
-6.12986e-06
-4.35664e-07
-0.000841674
-5.55922e-06
-8.15775e-07
-0.000840936
-4.01133e-06
-1.18945e-06
-0.000840174
-1.47574e-06
-0.000839306
-1.64569e-06
5.24908e-06
2.44218e-07
-0.00112897
1.8312e-06
6.05408e-07
-0.00112982
-1.76727e-06
7.48906e-07
-0.00113012
-5.22959e-06
6.66884e-07
-0.00112988
-8.21496e-06
3.57978e-07
-0.00112911
-1.03601e-05
-1.65007e-07
-0.00112783
-1.12715e-05
-8.71991e-07
-0.00112613
-1.05667e-05
-1.70331e-06
-0.00112414
-7.94659e-06
-2.56222e-06
-0.0011221
-3.25287e-06
-0.00112043
-3.53709e-06
8.28517e-06
5.06716e-07
-0.00141424
3.15597e-06
1.03826e-06
-0.00141573
-2.16821e-06
1.24225e-06
-0.00141628
-7.33233e-06
1.12031e-06
-0.00141585
-1.19358e-05
6.55006e-07
-0.00141444
-1.5492e-05
-1.49781e-07
-0.00141205
-1.7373e-05
-1.27812e-06
-0.00140874
-1.68206e-05
-2.66198e-06
-0.00140468
-1.29826e-05
-4.17816e-06
-0.00140023
-5.46983e-06
-0.00139638
-5.77708e-06
1.09003e-05
8.32593e-07
-0.00169809
4.20964e-06
1.59406e-06
-0.00170044
-2.72851e-06
1.89476e-06
-0.00170132
-9.56151e-06
1.76534e-06
-0.00170071
-1.58696e-05
1.17503e-06
-0.00169858
-2.10948e-05
1.19018e-07
-0.00169486
-2.43881e-05
-1.41781e-06
-0.00168946
-2.45462e-05
-3.37954e-06
-0.0016825
-1.98146e-05
-5.6682e-06
-0.00167428
-7.72345e-06
-0.00166674
-9.5406e-06
1.33487e-05
1.24153e-06
-0.00198453
5.28017e-06
2.14385e-06
-0.00198784
-3.02401e-06
2.51062e-06
-0.00198912
-1.12883e-05
2.37677e-06
-0.00198841
-1.91567e-05
1.70096e-06
-0.0019856
-2.60807e-05
4.58e-07
-0.00198048
-3.10471e-05
-1.42187e-06
-0.00197273
-3.24059e-05
-3.92133e-06
-0.00196222
-2.72134e-05
-7.03028e-06
-0.00194887
-9.98218e-06
-0.00193583
-1.38204e-05
1.53601e-05
1.61197e-06
-0.00227027
6.15701e-06
2.60209e-06
-0.00227458
-3.24347e-06
2.99271e-06
-0.00227629
-1.26807e-05
2.85611e-06
-0.00227551
-2.18962e-05
2.13607e-06
-0.00227204
-3.04298e-05
7.93499e-07
-0.00226555
-3.72139e-05
-1.29896e-06
-0.00225532
-4.02438e-05
-4.19138e-06
-0.00224085
-3.52502e-05
-8.013e-06
-0.00222114
-1.18948e-05
-0.00220079
-1.91553e-05
1.67727e-05
1.82901e-06
-0.00255691
6.82329e-06
2.76053e-06
-0.00256221
-3.27987e-06
3.12158e-06
-0.00256439
-1.34846e-05
2.96284e-06
-0.00256363
-2.36835e-05
2.25111e-06
-0.00255962
-3.35637e-05
9.26602e-07
-0.0025519
-4.21058e-05
-1.18864e-06
-0.00253924
-4.70696e-05
-4.23762e-06
-0.00252063
-4.28701e-05
-8.50891e-06
-0.00249352
-1.32802e-05
-0.00246408
-2.45665e-05
1.73931e-05
1.66318e-06
-0.00284435
6.99532e-06
2.42527e-06
-0.00285054
-3.4633e-06
2.68991e-06
-0.00285302
-1.40725e-05
2.53133e-06
-0.00285212
-2.48455e-05
1.90896e-06
-0.00284748
-3.5649e-05
7.64088e-07
-0.0028385
-4.56548e-05
-1.08032e-06
-0.00282353
-5.26162e-05
-3.88988e-06
-0.00280091
-4.99891e-05
-7.91772e-06
-0.00276618
-1.32845e-05
-0.00272615
-3.04922e-05
1.72978e-05
1.03244e-06
-0.00312931
6.99093e-06
1.31487e-06
-0.00313616
-3.35173e-06
1.44402e-06
-0.00313899
-1.3837e-05
1.21932e-06
-0.00313808
-2.46462e-05
7.26038e-07
-0.00313303
-3.58164e-05
-1.04309e-07
-0.00312311
-4.67385e-05
-1.35916e-06
-0.00310615
-5.55504e-05
-3.23939e-06
-0.00307983
-5.51164e-05
-5.95537e-06
-0.00303786
-1.01072e-05
-0.00298517
-3.61379e-05
1.66151e-05
-0.00339708
6.44365e-06
-0.00340396
-3.60007e-06
-0.00340674
-1.38039e-05
-0.00340514
-2.43478e-05
-0.0033988
-3.53957e-05
-0.00338695
-4.65286e-05
-0.00336728
-5.61807e-05
-0.00333674
-5.7376e-05
-0.00328833
-0.00322361
-3.96877e-05
2.21188e-06
-1.72054e-09
-0.000841365
8.93567e-07
1.36107e-07
-0.000841881
-5.42967e-07
2.00339e-07
-0.000842012
-1.90622e-06
1.6574e-07
-0.00084196
-3.02093e-06
4.39388e-08
-0.00084177
-3.72703e-06
-1.5638e-07
-0.00084147
-3.90065e-06
-4.12551e-07
-0.000841088
-3.47113e-06
-6.95042e-07
-0.000840671
-2.44938e-06
-9.61379e-07
-0.000840235
-1.15663e-06
-0.00083963
-9.69423e-07
3.69421e-06
1.25002e-08
-0.00112699
1.26096e-06
3.18627e-07
-0.00112757
-1.32601e-06
4.44116e-07
-0.00112778
-3.79929e-06
3.76315e-07
-0.00112762
-5.87774e-06
1.16946e-07
-0.0011271
-7.28499e-06
-3.16753e-07
-0.00112626
-7.75932e-06
-8.89085e-07
-0.00112517
-7.09736e-06
-1.5399e-06
-0.00112395
-5.21301e-06
-2.18156e-06
-0.00112276
-2.6748e-06
-0.00112183
-2.29047e-06
6.44979e-06
1.93102e-07
-0.00141101
2.5024e-06
6.57828e-07
-0.00141212
-1.63119e-06
8.37602e-07
-0.00141254
-5.60404e-06
7.24402e-07
-0.00141223
-9.04155e-06
3.06078e-07
-0.00141119
-1.15315e-05
-4.0322e-07
-0.00140948
-1.26147e-05
-1.36904e-06
-0.00140718
-1.1835e-05
-2.51044e-06
-0.00140448
-8.82542e-06
-3.69478e-06
-0.00140172
-4.66035e-06
-0.00139947
-3.74691e-06
8.89291e-06
4.66908e-07
-0.00169366
3.47502e-06
1.16966e-06
-0.00169554
-2.20615e-06
1.44637e-06
-0.00169624
-7.74958e-06
1.31571e-06
-0.00169576
-1.27102e-05
7.56335e-07
-0.00169407
-1.65609e-05
-2.20976e-07
-0.00169119
-1.86213e-05
-1.59732e-06
-0.00168717
-1.80879e-05
-3.28647e-06
-0.00168225
-1.40469e-05
-5.14028e-06
-0.00167687
-6.72623e-06
-0.00167227
-6.45193e-06
1.13194e-05
8.48245e-07
-0.00197877
4.50724e-06
1.70481e-06
-0.00198156
-2.57536e-06
2.05134e-06
-0.00198264
-9.55491e-06
1.90676e-06
-0.00198203
-1.59937e-05
1.24051e-06
-0.00197964
-2.13085e-05
4.55341e-08
-0.00197544
-2.46099e-05
-1.69922e-06
-0.00196933
-2.46921e-05
-3.92706e-06
-0.0019615
-1.98187e-05
-6.51785e-06
-0.00195236
-8.85876e-06
-0.00194406
-9.45625e-06
1.34191e-05
1.22717e-06
-0.00226325
5.39601e-06
2.18986e-06
-0.00226704
-2.87768e-06
2.567e-06
-0.00226853
-1.11041e-05
2.41521e-06
-0.00226779
-1.8893e-05
1.68777e-06
-0.0022647
-2.56755e-05
3.627e-07
-0.00225908
-3.04247e-05
-1.62964e-06
-0.00225064
-3.15585e-05
-4.27529e-06
-0.00223937
-2.63099e-05
-7.53023e-06
-0.00222537
-1.06715e-05
-0.00221195
-1.3338e-05
1.49476e-05
1.49209e-06
-0.00254877
6.07716e-06
2.41709e-06
-0.00255357
-3.01331e-06
2.77538e-06
-0.00255551
-1.21105e-05
2.60574e-06
-0.00255472
-2.09339e-05
1.87943e-06
-0.00255099
-2.89926e-05
5.5156e-07
-0.00254403
-3.51951e-05
-1.50059e-06
-0.00253317
-3.76505e-05
-4.33607e-06
-0.00251812
-3.24412e-05
-8.03382e-06
-0.00249823
-1.19121e-05
-0.00247821
-1.70767e-05
1.57524e-05
1.36344e-06
-0.00283513
6.33347e-06
2.14066e-06
-0.00284085
-3.22525e-06
2.41255e-06
-0.0028431
-1.2846e-05
2.25681e-06
-0.00284215
-2.23469e-05
1.62849e-06
-0.00283773
-3.13615e-05
4.8175e-07
-0.00282942
-3.88668e-05
-1.31998e-06
-0.0028162
-4.28116e-05
-3.94733e-06
-0.00279735
-3.83392e-05
-7.47149e-06
-0.00277122
-1.18001e-05
-0.00274329
-2.13099e-05
1.58177e-05
8.70847e-07