/*--------------------------------*- C++ -*----------------------------------*\
| =========                 |                                                 |
| \\      /  F ield         | foam-extend: Open Source CFD                    |
|  \\    /   O peration     | Version:     4.0                                |
|   \\  /    A nd           | Web:         http://www.foam-extend.org         |
|    \\/     M anipulation  |                                                 |
\*---------------------------------------------------------------------------*/
FoamFile
{
    version     2.0;
    format      ascii;
    class       volVectorField;
    location    "2450";
    object      U;
}
// * * * * * * * * * * * * * * * * * * * * * * * * * * * * * * * * * * * * * //

dimensions      [0 1 -1 0 0 0 0];

internalField   nonuniform List<vector> 
34480
(
(209.006 2.16683 3.26218)
(209.326 1.19969 1.52484)
(209.483 0.413825 -0.272677)
(209.489 -0.210328 -2.17601)
(209.34 -0.705117 -4.32562)
(208.998 -1.06676 -6.89884)
(208.382 -1.26886 -10.2973)
(207.216 -1.18845 -14.8665)
(204.545 -0.590079 -22.7773)
(197.607 1.98008 -50.0421)
(209.939 3.081 2.87492)
(210.198 2.25948 1.05404)
(210.325 1.5343 -0.770417)
(210.298 0.899759 -2.66944)
(210.063 0.327783 -4.76317)
(209.56 -0.192691 -7.26138)
(208.752 -0.671737 -10.6256)
(207.46 -1.04638 -15.599)
(204.324 -1.14613 -24.4048)
(196.164 0.636975 -55.1001)
(210.628 2.7174 3.28998)
(210.862 1.83721 1.4064)
(210.956 1.06171 -0.498506)
(210.885 0.407311 -2.44278)
(210.59 -0.171141 -4.55749)
(210.062 -0.69687 -7.10231)
(209.311 -1.1863 -10.608)
(208.167 -1.55853 -16.1048)
(204.866 -1.63538 -25.7843)
(195.656 0.361607 -59.4547)
(210.635 3.2615 3.24003)
(210.87 2.42879 1.30087)
(210.979 1.68486 -0.636397)
(210.942 1.0605 -2.60819)
(210.708 0.511761 -4.75353)
(210.293 0.0145731 -7.3619)
(209.677 -0.450313 -10.9672)
(208.697 -0.790616 -16.8198)
(205.371 -0.819849 -27.1189)
(195.357 1.32578 -62.7272)
(210.794 2.72712 3.74641)
(211.058 1.82036 1.76885)
(211.206 1.02568 -0.247653)
(211.23 0.376302 -2.29445)
(211.088 -0.188819 -4.53637)
(210.808 -0.691626 -7.27529)
(210.34 -1.14355 -11.0425)
(209.544 -1.43939 -17.2756)
(206.317 -1.38332 -28.2387)
(195.66 0.926727 -65.3969)
(210.679 3.41694 3.52191)
(210.955 2.52624 1.54674)
(211.122 1.74765 -0.430798)
(211.181 1.11879 -2.44638)
(211.106 0.589393 -4.65795)
(210.943 0.134051 -7.39244)
(210.628 -0.258258 -11.1655)
(210.047 -0.482702 -17.5872)
(207.066 -0.321028 -29.0315)
(196.01 2.08747 -67.3687)
(210.761 2.58065 4.03794)
(211.077 1.59498 2.06186)
(211.272 0.742315 0.0422105)
(211.37 0.05243 -2.0051)
(211.354 -0.5306 -4.26789)
(211.288 -1.02369 -7.0748)
(211.114 -1.41155 -10.9458)
(210.749 -1.57082 -17.6129)
(208.099 -1.21001 -29.6317)
(196.748 1.49024 -68.9926)
(210.589 3.35698 3.56685)
(210.909 2.35903 1.62291)
(211.084 1.52559 -0.317162)
(211.14 0.862706 -2.29864)
(211.083 0.33814 -4.47297)
(211 -0.0837656 -7.17432)
(210.87 -0.378196 -10.9066)
(210.662 -0.415286 -17.4915)
(208.421 0.25014 -29.6951)
(197.104 3.31533 -69.5911)
(210.533 2.04084 4.11475)
(210.897 0.925655 2.22414)
(211.104 -0.0310234 0.308586)
(211.198 -0.845244 -1.64897)
(211.192 -1.54881 -3.84197)
(211.153 -2.14762 -6.58123)
(211.092 -2.56114 -10.4058)
(211.024 -2.61222 -17.1068)
(209.112 -1.55744 -29.679)
(197.68 2.45885 -69.545)
(209.569 2.78747 3.53098)
(209.843 1.57021 1.5986)
(209.79 0.616412 -0.311785)
(209.431 -0.169526 -2.27856)
(208.813 -0.775541 -4.43737)
(208.027 -1.21635 -7.0744)
(207.158 -1.40004 -10.6665)
(206.371 -1.10919 -16.8186)
(204.433 0.41554 -28.536)
(194.247 5.2807 -66.5005)
(205.891 1.91219 3.00058)
(206.369 1.10966 1.54393)
(206.556 0.426557 -0.00995313)
(206.473 -0.1174 -1.61006)
(206.095 -0.546517 -3.31981)
(205.333 -0.861326 -5.15158)
(203.985 -1.06593 -7.1591)
(201.62 -1.1718 -9.31733)
(198.154 -1.25689 -11.245)
(193.579 -1.15905 -14.3934)
(207.19 2.86852 2.79795)
(207.621 2.16419 1.16183)
(207.793 1.51933 -0.492233)
(207.704 0.943818 -2.18909)
(207.292 0.416443 -3.99632)
(206.437 -0.0688472 -5.97182)
(204.943 -0.527168 -8.20873)
(202.358 -0.993442 -10.9582)
(198.189 -1.58387 -14.0068)
(192.505 -1.82412 -20.5815)
(208.139 2.5775 3.3072)
(208.548 1.77142 1.54481)
(208.705 1.04475 -0.25672)
(208.606 0.422599 -2.09019)
(208.169 -0.133602 -4.02982)
(207.295 -0.636383 -6.15934)
(205.811 -1.11505 -8.66771)
(203.233 -1.5863 -12.0868)
(198.689 -2.15716 -16.3332)
(192.07 -2.07118 -26.7166)
(208.382 3.17786 3.30367)
(208.797 2.40332 1.45626)
(208.976 1.6943 -0.403323)
(208.918 1.08813 -2.29696)
(208.545 0.546311 -4.31002)
(207.773 0.0571357 -6.5689)
(206.401 -0.412515 -9.29943)
(203.916 -0.855495 -13.2587)
(199.143 -1.36363 -18.4766)
(191.71 -0.933607 -32.4541)
(208.735 2.66829 3.83854)
(209.178 1.80888 1.93593)
(209.396 1.04202 -0.0202495)
(209.402 0.40846 -2.00858)
(209.121 -0.147042 -4.14611)
(208.485 -0.635777 -6.58666)
(207.263 -1.09263 -9.57244)
(204.941 -1.48875 -14.0629)
(200.089 -1.90237 -20.2309)
(191.949 -1.07305 -37.6932)
(208.771 3.39296 3.63447)
(209.228 2.54109 1.7201)
(209.471 1.78348 -0.20666)
(209.521 1.16361 -2.1755)
(209.313 0.634786 -4.29764)
(208.805 0.182593 -6.77304)
(207.75 -0.224226 -9.84346)
(205.648 -0.548115 -14.6623)
(200.884 -0.830216 -21.5476)
(192.218 0.364583 -42.21)
(208.976 2.56676 4.16024)
(209.469 1.61598 2.23773)
(209.743 0.786324 0.259252)
(209.839 0.114124 -1.74945)
(209.699 -0.450793 -3.93576)
(209.306 -0.92002 -6.51571)
(208.412 -1.31008 -9.74444)
(206.556 -1.56832 -14.9178)
(201.998 -1.65629 -22.5677)
(192.908 0.0010282 -46.2451)
(208.891 3.37379 3.6959)
(209.392 2.40954 1.80367)
(209.656 1.59809 -0.0880755)
(209.725 0.950738 -2.02425)
(209.569 0.44113 -4.12031)
(209.197 0.0371798 -6.62278)
(208.398 -0.264039 -9.78129)
(206.762 -0.418474 -15.0053)
(202.533 -0.208185 -23.0527)
(193.316 1.83439 -49.2174)
(208.903 2.05543 4.24526)
(209.436 0.977363 2.40211)
(209.728 0.0661304 0.526103)
(209.834 -0.688956 -1.37761)
(209.735 -1.31845 -3.48063)
(209.437 -1.83479 -6.03044)
(208.759 -2.1901 -9.33539)
(207.35 -2.32167 -14.7937)
(203.46 -1.74191 -23.4886)
(193.992 1.00289 -51.498)
(207.981 2.86381 3.63704)
(208.458 1.69312 1.78968)
(208.575 0.79633 -0.0345919)
(208.362 0.0678002 -1.90539)
(207.834 -0.474197 -3.92983)
(207.026 -0.855639 -6.35384)
(205.826 -1.01331 -9.46976)
(204.024 -0.832124 -14.5641)
(200.282 0.222235 -23.038)
(191.635 4.03739 -51.3446)
(203.517 1.42789 2.33439)
(204.02 0.833545 1.21631)
(204.201 0.302512 -0.0132539)
(204.097 -0.131771 -1.2634)
(203.696 -0.482377 -2.55461)
(202.95 -0.746732 -3.83244)
(201.764 -0.93461 -5.04906)
(199.988 -1.07153 -6.0548)
(197.434 -1.2429 -6.49851)
(194.217 -1.43226 -6.51691)
(204.912 2.41422 2.31329)
(205.407 1.87188 0.946173)
(205.587 1.34559 -0.448769)
(205.464 0.854943 -1.86576)
(205 0.389853 -3.33135)
(204.111 -0.0550295 -4.84814)
(202.638 -0.493016 -6.37974)
(200.31 -0.955735 -7.86299)
(196.687 -1.55457 -8.80245)
(191.847 -2.13662 -9.81072)
(205.947 2.21194 2.94816)
(206.447 1.52874 1.39551)
(206.627 0.890526 -0.208705)
(206.502 0.32707 -1.83803)
(206.014 -0.193682 -3.53881)
(205.061 -0.681654 -5.32774)
(203.445 -1.1616 -7.21464)
(200.8 -1.66369 -9.29203)
(196.299 -2.33225 -11.0028)
(189.857 -2.91124 -13.584)
(206.344 2.89682 2.99433)
(206.866 2.22018 1.31821)
(207.072 1.57942 -0.380784)
(206.982 1.01433 -2.1123)
(206.531 0.491407 -3.94029)
(205.615 0.000912046 -5.92305)
(203.983 -0.489053 -8.10649)
(201.17 -0.995918 -10.7406)
(195.931 -1.68103 -13.2006)
(187.995 -2.16632 -17.5587)
(206.846 2.42628 3.56897)
(207.4 1.64983 1.80561)
(207.642 0.940601 -0.0194534)
(207.609 0.340402 -1.87735)
(207.228 -0.201231 -3.86946)
(206.401 -0.692796 -6.0863)
(204.828 -1.16978 -8.60261)
(201.97 -1.6382 -11.8317)
(196.184 -2.28622 -15.1302)
(186.926 -2.57778 -21.5717)
(207.012 3.20006 3.38991)
(207.585 2.41726 1.59402)
(207.855 1.7077 -0.222362)
(207.863 1.1148 -2.08433)
(207.544 0.593999 -4.09221)
(206.815 0.13297 -6.3875)
(205.341 -0.303736 -9.06303)
(202.542 -0.715673 -12.7146)
(196.409 -1.27671 -16.715)
(186.061 -1.34009 -25.333)
(207.329 2.3904 3.93897)
(207.935 1.50279 2.11682)
(208.234 0.7201 0.231419)
(208.288 0.0784802 -1.68937)
(208.032 -0.470476 -3.78528)
(207.402 -0.935075 -6.22103)
(206.047 -1.33775 -9.12169)
(203.367 -1.66932 -13.2321)
(197.06 -2.06874 -18.0275)
(185.782 -1.79928 -28.9562)
(207.337 3.2355 3.47899)
(207.95 2.33241 1.68367)
(208.243 1.56576 -0.117496)
(208.28 0.948576 -1.97002)
(208.017 0.454288 -3.98465)
(207.414 0.0566086 -6.36729)
(206.144 -0.25729 -9.26056)
(203.617 -0.487937 -13.5544)
(197.326 -0.620624 -18.8723)
(185.387 -0.0697117 -31.8726)
(207.429 1.90358 4.03289)
(208.061 0.887443 2.27512)
(208.376 0.0349056 0.472793)
(208.441 -0.660695 -1.36152)
(208.22 -1.23125 -3.38779)
(207.679 -1.68701 -5.81517)
(206.521 -1.99267 -8.87651)
(204.187 -2.12673 -13.515)
(198.029 -1.86076 -19.6421)
(185.306 -0.799308 -34.2637)
(206.573 2.76961 3.39234)
(207.153 1.6767 1.66383)
(207.338 0.850662 -0.0525722)
(207.166 0.187359 -1.82451)
(206.629 -0.293658 -3.7485)
(205.717 -0.615382 -6.03822)
(204.201 -0.72652 -8.92241)
(201.63 -0.547168 -13.3058)
(195.609 0.217588 -19.5469)
(182.827 2.30023 -34.6945)
(201.781 0.949083 1.70181)
(202.218 0.547681 0.911431)
(202.369 0.165613 0.00791852)
(202.27 -0.157895 -0.896401)
(201.922 -0.428617 -1.80007)
(201.306 -0.641194 -2.62148)
(200.395 -0.80785 -3.29566)
(199.161 -0.952096 -3.68718)
(197.602 -1.12932 -3.58049)
(195.871 -1.3649 -2.75288)
(203.103 1.90742 1.79144)
(203.57 1.53194 0.718172)
(203.733 1.13477 -0.387684)
(203.602 0.741741 -1.49709)
(203.154 0.354059 -2.60168)
(202.344 -0.0310679 -3.67093)
(201.095 -0.424295 -4.62882)
(199.303 -0.848086 -5.34701)
(196.838 -1.37063 -5.40303)
(194.04 -1.93794 -4.6197)
(204.092 1.75979 2.50362)
(204.602 1.2199 1.20614)
(204.778 0.690081 -0.150772)
(204.636 0.20452 -1.51796)
(204.136 -0.260254 -2.91213)
(203.208 -0.712567 -4.3134)
(201.717 -1.17184 -5.6553)
(199.468 -1.66434 -6.84636)
(196.113 -2.29577 -7.29999)
(192.034 -2.99158 -6.92404)
(204.551 2.52644 2.58722)
(205.108 1.97204 1.13188)
(205.313 1.42067 -0.354493)
(205.19 0.91598 -1.86113)
(204.69 0.43275 -3.42368)
(203.723 -0.0383185 -5.05636)
(202.095 -0.526303 -6.71335)
(199.508 -1.05364 -8.37937)
(195.292 -1.75946 -9.29353)
(189.826 -2.52576 -9.54032)
(205.137 2.10086 3.20289)
(205.738 1.43185 1.62548)
(205.978 0.800098 -0.0198704)
(205.897 0.249798 -1.68734)
(205.432 -0.26157 -3.45162)
(204.489 -0.741945 -5.35624)
(202.811 -1.22429 -7.38186)
(200.008 -1.72786 -9.61126)
(195.04 -2.44216 -11.1402)
(188.235 -3.18131 -12.3679)
(205.394 2.92924 3.05283)
(206.023 2.23918 1.41852)
(206.29 1.59612 -0.243717)
(206.243 1.04554 -1.94374)
(205.817 0.548651 -3.75859)
(204.923 0.0929637 -5.78005)
(203.254 -0.359209 -8.01114)
(200.343 -0.826465 -10.6685)
(194.77 -1.50691 -12.7414)
(186.758 -2.16659 -15.135)
(205.796 2.14598 3.63101)
(206.458 1.3431 1.94771)
(206.753 0.623275 0.19453)
(206.746 0.0241463 -1.5889)
(206.368 -0.498287 -3.521)
(205.538 -0.951815 -5.71763)
(203.915 -1.36297 -8.22169)
(200.976 -1.74477 -11.3675)
(194.944 -2.30053 -14.1236)
(185.842 -2.77408 -17.9494)
(205.883 3.04178 3.18197)
(206.553 2.2193 1.51807)
(206.846 1.51085 -0.159239)
(206.828 0.9338 -1.88656)
(206.444 0.463245 -3.75584)
(205.63 0.0769377 -5.92612)
(204.048 -0.24707 -8.46758)
(201.146 -0.536049 -11.8565)
(194.857 -0.880785 -15.1101)
(184.868 -1.19396 -20.3182)
(206.044 1.7084 3.7646)
(206.724 0.77087 2.12365)
(207.033 -0.0164563 0.423958)
(207.039 -0.65289 -1.30792)
(206.689 -1.16976 -3.21025)
(205.919 -1.57421 -5.43808)
(204.393 -1.84579 -8.14335)
(201.582 -1.99545 -11.8892)
(195.221 -1.94757 -15.9862)
(184.257 -1.89924 -22.3805)
(205.256 2.64804 3.10265)
(205.889 1.64523 1.51477)
(206.107 0.893068 -0.0758544)
(205.943 0.293637 -1.72669)
(205.373 -0.131741 -3.51642)
(204.348 -0.403142 -5.61278)
(202.582 -0.481763 -8.16707)
(199.582 -0.316644 -11.7257)
(193.24 0.228203 -16.0578)
(181.785 1.20165 -22.863)
(200.571 0.551087 1.19396)
(200.913 0.294885 0.666127)
(201.028 0.034023 0.0357761)
(200.952 -0.195314 -0.583076)
(200.694 -0.396689 -1.18742)
(200.255 -0.56243 -1.69751)
(199.643 -0.702099 -2.06661)
(198.88 -0.830833 -2.20479)
(198.015 -0.97511 -2.02033)
(197.164 -1.14162 -1.42912)
(201.727 1.43445 1.3114)
(202.121 1.19995 0.510293)
(202.258 0.920664 -0.321205)
(202.144 0.622095 -1.14559)
(201.771 0.313444 -1.93589)
(201.122 -0.00403597 -2.64895)
(200.178 -0.334859 -3.21065)
(198.934 -0.688828 -3.5126)
(197.411 -1.0942 -3.32758)
(195.914 -1.51133 -2.51764)
(202.577 1.2926 2.0505)
(203.047 0.890502 1.01571)
(203.209 0.470693 -0.0832402)
(203.075 0.0688784 -1.18034)
(202.623 -0.329717 -2.26755)
(201.814 -0.729733 -3.3034)
(200.583 -1.14439 -4.20335)
(198.865 -1.59117 -4.83741)
(196.582 -2.12537 -4.81327)
(194.193 -2.69429 -3.92698)
(203.017 2.11721 2.14846)
(203.559 1.69096 0.935575)
(203.755 1.23742 -0.315405)
(203.626 0.803124 -1.57414)
(203.135 0.372773 -2.84705)
(202.225 -0.0601542 -4.11444)
(200.774 -0.519792 -5.29413)
(198.642 -1.02534 -6.27062)
(195.552 -1.66474 -6.46643)
(192.083 -2.36914 -5.60755)
(203.616 1.72863 2.79435)
(204.221 1.17882 1.43105)
(204.453 0.635648 -0.00647777)
(204.349 0.145806 -1.4538)
(203.858 -0.323 -2.95351)
(202.908 -0.776735 -4.5065)
(201.316 -1.24391 -6.04463)
(198.86 -1.74685 -7.49226)
(194.996 -2.42643 -8.08614)
(190.379 -3.19391 -7.53438)
(203.913 2.60702 2.6697)
(204.56 2.02443 1.22698)
(204.822 1.46002 -0.251763)
(204.741 0.96214 -1.75765)
(204.264 0.500682 -3.33663)
(203.308 0.0644892 -5.02972)
(201.637 -0.383825 -6.78407)
(198.952 -0.870543 -8.60572)
(194.393 -1.55934 -9.5598)
(188.652 -2.35314 -9.4595)
(204.362 1.8533 3.27572)
(205.049 1.15101 1.7612)
(205.338 0.505726 0.169165)
(205.29 -0.0420226 -1.44477)
(204.839 -0.529121 -3.16827)
(203.906 -0.962524 -5.06302)
(202.205 -1.37103 -7.11181)
(199.37 -1.77965 -9.39676)
(194.214 -2.37976 -10.8781)
(187.389 -3.0996 -11.5021)
(204.504 2.80591 2.83938)
(205.204 2.07973 1.334)
(205.495 1.44062 -0.193464)
(205.439 0.912128 -1.76638)
(204.98 0.473476 -3.44897)
(204.044 0.106074 -5.34437)
(202.327 -0.218658 -7.45838)
(199.42 -0.543211 -9.9907)
(193.839 -0.991271 -11.8663)
(186.055 -1.65657 -13.2455)
(204.717 1.47463 3.45735)
(205.425 0.630488 1.95868)
(205.729 -0.0843309 0.386473)
(205.692 -0.659612 -1.21505)
(205.256 -1.1242 -2.95746)
(204.348 -1.48267 -4.93715)
(202.644 -1.7272 -7.22513)
(199.715 -1.89032 -10.0745)
(193.889 -1.98185 -12.6837)
(185.057 -2.39472 -14.8185)
(203.99 2.50148 2.77476)
(204.655 1.59935 1.34473)
(204.897 0.925144 -0.103707)
(204.741 0.389866 -1.61322)
(204.153 0.0174512 -3.24027)
(203.068 -0.209342 -5.10201)
(201.2 -0.264037 -7.27268)
(198.102 -0.119003 -10.0005)
(192.174 0.260003 -12.811)
(182.633 0.640328 -15.1308)
(199.739 0.251652 0.824899)
(199.993 0.093098 0.488427)
(200.074 -0.0795822 0.0636167)
(200.023 -0.236523 -0.342699)
(199.848 -0.38211 -0.735385)
(199.56 -0.507357 -1.04649)
(199.175 -0.618508 -1.25087)
(198.723 -0.723039 -1.29412)
(198.247 -0.831679 -1.14384)
(197.791 -0.943228 -0.777502)
(200.717 1.04037 0.91091)
(201.019 0.911004 0.336774)
(201.126 0.728148 -0.260115)
(201.038 0.512401 -0.84514)
(200.754 0.277173 -1.38646)
(200.276 0.0266882 -1.8433)
(199.612 -0.237803 -2.15828)
(198.793 -0.516868 -2.25868)
(197.885 -0.815428 -2.03778)
(197.078 -1.10371 -1.43095)
(201.39 0.861477 1.6361)
(201.788 0.574937 0.842304)
(201.926 0.25471 -0.0152188)
(201.813 -0.066159 -0.863735)
(201.436 -0.395852 -1.68085)
(200.784 -0.734861 -2.41794)
(199.839 -1.08977 -2.99863)
(198.61 -1.46924 -3.3146)
(197.136 -1.89535 -3.14389)
(195.749 -2.32534 -2.34649)
(201.757 1.71194 1.72049)
(202.246 1.40377 0.746312)
(202.423 1.04614 -0.269178)
(202.301 0.685359 -1.28311)
(201.86 0.315063 -2.2803)
(201.068 -0.0671131 -3.22106)
(199.87 -0.477834 -4.01848)
(198.23 -0.929586 -4.54531)
(196.096 -1.46861 -4.43727)
(193.954 -2.0408 -3.43908)
(202.315 1.34302 2.3776)
(202.884 0.910787 1.23674)
(203.097 0.459344 0.0180628)
(202.986 0.0358922 -1.20012)
(202.514 -0.381626 -2.43262)
(201.634 -0.795835 -3.64942)
(200.238 -1.22847 -4.7637)
(198.234 -1.69906 -5.64698)
(195.416 -2.29725 -5.77443)
(192.408 -2.96212 -4.7657)
(202.61 2.25817 2.26794)
(203.236 1.78718 1.03197)
(203.481 1.30754 -0.246487)
(203.383 0.869354 -1.54184)
(202.897 0.451981 -2.87077)
(201.963 0.047218 -4.23242)
(200.423 -0.377738 -5.54364)
(198.122 -0.849326 -6.71201)
(194.64 -1.48321 -7.04643)
(190.723 -2.22645 -6.09539)
(203.069 1.53064 2.89464)
(203.746 0.936682 1.56783)
(204.02 0.373295 0.15689)
(203.944 -0.116394 -1.26709)
(203.463 -0.560879 -2.76053)
(202.51 -0.965199 -4.33683)
(200.874 -1.35703 -5.93764)
(198.341 -1.76603 -7.50453)
(194.246 -2.34324 -8.2248)
(189.396 -3.07474 -7.55861)
(203.239 2.54055 2.46836)
(203.936 1.92018 1.14027)
(204.217 1.35839 -0.217851)
(204.135 0.885131 -1.61524)
(203.638 0.48515 -3.087)
(202.659 0.143948 -4.68427)
(200.957 -0.168948 -6.36134)
(198.267 -0.501291 -8.14046)
(193.684 -0.97338 -9.13447)
(187.954 -1.71697 -8.7934)
(203.488 1.21048 3.12318)
(204.195 0.469744 1.78561)
(204.487 -0.167035 0.360859)
(204.418 -0.679463 -1.088)
(203.934 -1.09256 -2.64474)
(202.962 -1.40838 -4.35249)
(201.235 -1.62844 -6.21896)
(198.441 -1.7948 -8.27892)
(193.522 -1.95813 -9.83222)
(186.815 -2.51404 -9.91446)
(202.812 2.33618 2.41852)
(203.481 1.5422 1.1588)
(203.733 0.949071 -0.133975)
(203.582 0.478221 -1.48544)
(202.994 0.156472 -2.92834)
(201.898 -0.030842 -4.53211)
(200.047 -0.0680828 -6.30675)
(197.093 0.0555913 -8.29696)
(191.995 0.313707 -9.9837)
(184.567 0.412596 -10.0824)
(199.165 0.0420955 0.576377)
(199.35 -0.056606 0.369776)
(199.406 -0.170447 0.0876449)
(199.374 -0.275836 -0.172433)
(199.263 -0.379293 -0.425527)
(199.085 -0.471429 -0.616458)
(198.855 -0.556094 -0.736405)
(198.596 -0.635559 -0.752733)
(198.335 -0.712831 -0.658276)
(198.074 -0.784058 -0.45163)
(199.987 0.740638 0.599069)
(200.205 0.682313 0.200273)
(200.282 0.572001 -0.21118)
(200.22 0.42351 -0.609793)
(200.019 0.251648 -0.966796)
(199.689 0.0621017 -1.25028)
(199.247 -0.139787 -1.42132)
(198.729 -0.349655 -1.43692)
(198.196 -0.56237 -1.25228)
(197.758 -0.754335 -0.850824)
(200.485 0.495432 1.28429)
(200.798 0.296329 0.694394)
(200.909 0.0589788 0.0457982)
(200.82 -0.189436 -0.591035)
(200.528 -0.453167 -1.18888)
(200.034 -0.729486 -1.70219)
(199.348 -1.01966 -2.07147)
(198.506 -1.32488 -2.22261)
(197.579 -1.64864 -2.04288)
(196.775 -1.95769 -1.47325)
(200.757 1.34198 1.33074)
(201.169 1.13245 0.574029)
(201.319 0.861442 -0.22267)
(201.215 0.571746 -1.01229)
(200.845 0.263591 -1.76781)
(200.199 -0.0614331 -2.44284)
(199.265 -0.411905 -2.96163)
(198.062 -0.792788 -3.2204)
(196.637 -1.22228 -3.01375)
(195.324 -1.65807 -2.19304)
(201.237 0.972586 1.97827)
(201.74 0.646335 1.05186)
(201.928 0.282953 0.0481616)
(201.823 -0.0726629 -0.947989)
(201.401 -0.433818 -1.93188)
(200.638 -0.799425 -2.85718)
(199.485 -1.18358 -3.63816)
(197.931 -1.59958 -4.14866)
(195.952 -2.097 -4.06607)
(194.019 -2.6279 -3.11853)
(201.496 1.90618 1.87003)
(202.069 1.54166 0.842079)
(202.292 1.14705 -0.231646)
(202.189 0.77208 -1.31386)
(201.731 0.404765 -2.39857)
(200.88 0.0406105 -3.45747)
(199.545 -0.345594 -4.39853)
(197.675 -0.77517 -5.09978)
(195.126 -1.32002 -5.10528)
(192.504 -1.94577 -4.03108)
(201.938 1.1969 2.5065)
(202.573 0.711027 1.37488)
(202.824 0.232163 0.155203)
(202.735 -0.195411 -1.06958)
(202.261 -0.591803 -2.32906)
(201.356 -0.959374 -3.60161)
(199.882 -1.32173 -4.80836)
(197.739 -1.70687 -5.82718)
(194.631 -2.22179 -6.09925)
(191.266 -2.86463 -5.07345)
(202.11 2.25992 2.08461)
(202.774 1.74812 0.943456)
(203.037 1.26772 -0.233583)
(202.939 0.854089 -1.44316)
(202.442 0.497821 -2.69427)
(201.488 0.188557 -3.99747)
(199.91 -0.102068 -5.27597)
(197.561 -0.417686 -6.45331)
(193.978 -0.857881 -6.88317)
(189.879 -1.53916 -5.92335)
(202.378 0.926444 2.77521)
(203.058 0.293479 1.60963)
(203.331 -0.262317 0.345935)
(203.243 -0.71119 -0.935434)
(202.746 -1.07369 -2.29245)
(201.78 -1.34943 -3.72569)
(200.146 -1.54599 -5.201)
(197.646 -1.70592 -6.62901)
(193.704 -1.88956 -7.46376)
(188.79 -2.4186 -6.70012)
(201.74 2.16028 2.0453)
(202.387 1.47795 0.962332)
(202.636 0.96743 -0.165664)
(202.492 0.560756 -1.34762)
(201.923 0.287417 -2.59383)
(200.867 0.134965 -3.93392)
(199.131 0.110287 -5.33124)
(196.475 0.213098 -6.71451)
(192.319 0.384834 -7.61553)
(186.787 0.372408 -6.78112)
(198.759 -0.0985362 0.417794)
(198.896 -0.16276 0.295573)
(198.934 -0.239721 0.107044)
(198.915 -0.310354 -0.0578329)
(198.848 -0.38351 -0.222976)
(198.743 -0.450033 -0.34334)
(198.609 -0.512483 -0.420358)
(198.463 -0.570441 -0.432977)
(198.317 -0.623719 -0.383268)
(198.15 -0.668277 -0.273332)
(199.463 0.530634 0.367298)
(199.611 0.516869 0.0967517)
(199.665 0.457789 -0.176549)
(199.623 0.360734 -0.437962)
(199.489 0.240312 -0.664889)
(199.271 0.102521 -0.8351)
(198.989 -0.0454361 -0.924319)
(198.67 -0.197234 -0.908711)
(198.359 -0.34487 -0.771822)
(198.116 -0.470692 -0.513387)
(199.805 0.204814 1.00211)
(200.038 0.06663 0.574613)
(200.122 -0.106117 0.0961438)
(200.057 -0.293545 -0.370743)
(199.843 -0.498205 -0.800139)
(199.488 -0.715738 -1.15461)
(199.011 -0.94403 -1.39157)
(198.452 -1.17955 -1.46532)
(197.875 -1.4172 -1.32179)
(197.406 -1.6322 -0.946331)
(199.982 1.02635 0.994639)
(200.311 0.892818 0.424508)
(200.432 0.695009 -0.180618)
(200.348 0.469902 -0.776243)
(200.056 0.221716 -1.33173)
(199.557 -0.0451572 -1.80319)
(198.861 -0.332549 -2.13148)
(198.009 -0.639565 -2.24269)
(197.074 -0.967894 -2.0296)
(196.27 -1.28573 -1.42353)
(200.369 0.639072 1.6151)
(200.791 0.401429 0.883345)
(200.949 0.117448 0.0790473)
(200.857 -0.172893 -0.713815)
(200.502 -0.476327 -1.47946)
(199.876 -0.788597 -2.1674)
(198.969 -1.11711 -2.70374)
(197.808 -1.46812 -2.98661)
(196.452 -1.86409 -2.83146)
(195.218 -2.26687 -2.08458)
(200.572 1.57159 1.49523)
(201.072 1.30151 0.664782)
(201.265 0.987151 -0.210986)
(201.168 0.675387 -1.08911)
(200.762 0.361187 -1.94897)
(200.029 0.0435859 -2.74879)
(198.93 -0.294138 -3.40236)
(197.471 -0.666127 -3.79557)
(195.657 -1.1101 -3.647)
(193.921 -1.60344 -2.71225)
(200.976 0.8706 2.1291)
(201.546 0.485661 1.18922)
(201.768 0.0893943 0.161076)
(201.677 -0.274919 -0.865925)
(201.24 -0.619947 -1.90113)
(200.428 -0.945184 -2.90241)
(199.167 -1.26877 -3.78745)
(197.434 -1.61292 -4.42104)
(195.148 -2.04665 -4.44748)
(192.849 -2.56762 -3.45693)
(201.127 1.97911 1.70442)
(201.733 1.57213 0.750299)
(201.971 1.17313 -0.242346)
(201.87 0.820931 -1.26108)
(201.4 0.511481 -2.29428)
(200.524 0.238246 -3.3255)
(199.137 -0.0225832 -4.26586)
(197.18 -0.305875 -5.00178)
(194.477 -0.683654 -5.08974)
(191.603 -1.24168 -4.02938)
(201.402 0.634411 2.42791)
(202.031 0.107755 1.43671)
(202.28 -0.367126 0.340322)
(202.183 -0.753165 -0.767046)
(201.705 -1.06637 -1.92176)
(200.799 -1.30419 -3.09462)
(199.335 -1.47736 -4.22895)
(197.207 -1.62396 -5.18397)
(194.167 -1.79833 -5.56509)
(190.666 -2.23199 -4.57259)
(200.789 1.98329 1.66783)
(201.39 1.41182 0.761395)
(201.626 0.983328 -0.198107)
(201.492 0.639597 -1.20543)
(200.962 0.412112 -2.25177)
(199.986 0.290276 -3.33737)
(198.433 0.274572 -4.39691)
(196.157 0.358296 -5.31039)
(192.901 0.468954 -5.69502)
(188.926 0.424343 -4.5912)
(198.46 -0.191792 0.321294)
(198.567 -0.237017 0.25223)
(198.592 -0.291996 0.122502)
(198.582 -0.340161 0.0170354)
(198.543 -0.392401 -0.0945534)
(198.482 -0.440106 -0.174408)
(198.406 -0.485322 -0.229684)
(198.325 -0.526568 -0.245343)
(198.241 -0.562617 -0.22632)
(198.122 -0.590042 -0.173606)
(199.082 0.39624 0.199466)
(199.178 0.408909 0.0190802)
(199.215 0.384323 -0.155769)
(199.188 0.324804 -0.320367)
(199.102 0.244086 -0.458576)
(198.964 0.147835 -0.556178)
(198.789 0.0433177 -0.598974)
(198.597 -0.062946 -0.574081)
(198.416 -0.163221 -0.477333)
(198.279 -0.244535 -0.311637)
(199.297 -0.0130158 0.785488)
(199.462 -0.111599 0.481421)
(199.523 -0.236549 0.134791)
(199.478 -0.375207 -0.202045)
(199.328 -0.529832 -0.507329)
(199.083 -0.695941 -0.75283)
(198.763 -0.869678 -0.909793)
(198.402 -1.04546 -0.952076)
(198.047 -1.21551 -0.854329)
(197.771 -1.36186 -0.621825)
(199.394 0.772642 0.717147)
(199.644 0.693735 0.299646)
(199.738 0.554448 -0.145868)
(199.674 0.385007 -0.581579)
(199.454 0.191454 -0.978586)
(199.085 -0.0202828 -1.30018)
(198.586 -0.247683 -1.50354)
(198.001 -0.486331 -1.54015)
(197.395 -0.730037 -1.35775)
(196.902 -0.955152 -0.931578)
(199.684 0.356028 1.29894)
(200.023 0.187876 0.735263)
(200.15 -0.0282269 0.107012)
(200.075 -0.258956 -0.50851)
(199.791 -0.506655 -1.09109)
(199.3 -0.764992 -1.59402)
(198.615 -1.03651 -1.95892)
(197.776 -1.32156 -2.11245)
(196.862 -1.62683 -1.95422)
(196.077 -1.92112 -1.4113)
(199.825 1.26971 1.15775)
(200.241 1.07815 0.505747)
(200.402 0.835546 -0.187798)
(200.317 0.583813 -0.879787)
(199.976 0.322838 -1.54229)
(199.375 0.0544089 -2.13055)
(198.507 -0.230365 -2.57195)
(197.408 -0.539243 -2.77558)
(196.142 -0.886786 -2.57472)
(195.003 -1.2573 -1.84133)
(200.182 0.567683 1.77731)
(200.671 0.271652 1.01661)
(200.862 -0.0477673 0.17137)
(200.777 -0.350526 -0.668447)
(200.394 -0.643334 -1.49881)
(199.702 -0.923129 -2.26928)
(198.67 -1.20272 -2.90499)
(197.318 -1.49706 -3.28528)
(195.676 -1.84707 -3.19662)
(194.124 -2.24545 -2.37608)
(200.294 1.71216 1.34265)
(200.826 1.40094 0.567098)
(201.033 1.0796 -0.246067)
(200.936 0.787992 -1.07967)
(200.515 0.526392 -1.90796)
(199.749 0.291495 -2.69977)
(198.585 0.0651974 -3.36782)
(197.018 -0.178126 -3.8003)
(195.032 -0.485384 -3.70299)
(193.052 -0.910394 -2.75649)
(200.568 0.346096 2.09535)
(201.129 -0.0808848 1.2728)
(201.348 -0.477977 0.342451)
(201.253 -0.803572 -0.592722)
(200.815 -1.06954 -1.5527)
(200.007 -1.27153 -2.49084)
(198.754 -1.42129 -3.34288)
(197.017 -1.55011 -3.96245)
(194.741 -1.70151 -4.08204)
(192.303 -2.03017 -3.1472)
(199.968 1.81518 1.29874)
(200.506 1.34963 0.56208)
(200.72 1.00025 -0.2311)
(200.599 0.716966 -1.06536)
(200.123 0.53228 -1.91749)
(199.257 0.437121 -2.76896)
(197.923 0.427784 -3.54128)
(196.053 0.494868 -4.1095)
(193.583 0.562941 -4.17925)
(190.808 0.519246 -3.11546)
(198.232 -0.255834 0.265858)
(198.319 -0.290773 0.229555)
(198.337 -0.333227 0.135481)
(198.332 -0.367359 0.0658098)
(198.31 -0.405685 -0.0139993)
(198.275 -0.440171 -0.0711336)
(198.232 -0.472785 -0.115477)
(198.187 -0.501818 -0.135258)
(198.137 -0.52591 -0.135992)
(198.043 -0.542353 -0.116919)
(198.8 0.320868 0.078257)
(198.861 0.348703 -0.0402646)
(198.885 0.346607 -0.147074)
(198.869 0.313555 -0.245226)
(198.816 0.262313 -0.324141)
(198.731 0.197859 -0.375322)
(198.625 0.126564 -0.390983)
(198.511 0.0542689 -0.363994)
(198.405 -0.0126718 -0.295281)
(198.326 -0.0647077 -0.185952)
(198.915 -0.168049 0.624973)
(199.028 -0.242307 0.411119)
(199.07 -0.33333 0.162527)
(199.04 -0.434651 -0.078716)
(198.939 -0.548912 -0.295588)
(198.776 -0.672484 -0.468015)
(198.568 -0.800918 -0.577344)
(198.339 -0.928441 -0.609512)
(198.123 -1.04754 -0.552217)
(197.96 -1.14559 -0.417695)
(198.954 0.579768 0.495871)
(199.137 0.537747 0.198464)
(199.206 0.443102 -0.119603)
(199.161 0.319499 -0.428766)
(199.002 0.173274 -0.704619)
(198.739 0.0109001 -0.918866)
(198.393 -0.163119 -1.04216)
(198 -0.342839 -1.04429)
(197.611 -0.519589 -0.902079)
(197.308 -0.676315 -0.609738)
(199.156 0.129363 1.03358)
(199.416 0.0127815 0.608956)
(199.514 -0.147882 0.129533)
(199.456 -0.326628 -0.3377)
(199.238 -0.523214 -0.772468)
(198.87 -0.730553 -1.13573)
(198.369 -0.947946 -1.38416)
(197.78 -1.17198 -1.46912)
(197.172 -1.40173 -1.33826)
(196.674 -1.61145 -0.963705)
(199.235 1.00968 0.866193)
(199.567 0.879623 0.368525)
(199.697 0.69812 -0.164607)
(199.627 0.500772 -0.694126)
(199.353 0.290467 -1.1904)
(198.88 0.0708036 -1.61233)
(198.219 -0.160998 -1.90292)
(197.416 -0.40809 -1.99708)
(196.547 -0.671658 -1.7986)
(195.804 -0.940762 -1.25429)
(199.543 0.300114 1.46169)
(199.948 0.0784303 0.861141)
(200.105 -0.172604 0.183154)
(200.031 -0.417976 -0.487047)
(199.711 -0.66006 -1.13799)
(199.146 -0.893895 -1.71954)
(198.334 -1.12804 -2.16946)
(197.313 -1.37043 -2.39231)
(196.156 -1.6442 -2.26743)
(195.12 -1.93658 -1.63863)
(199.604 1.47058 1.01137)
(200.053 1.24244 0.399088)
(200.228 0.992002 -0.246644)
(200.141 0.757714 -0.908211)
(199.78 0.542943 -1.55196)
(199.139 0.34682 -2.14157)
(198.2 0.157201 -2.59941)
(196.988 -0.0438661 -2.83416)
(195.562 -0.284712 -2.65424)
(194.218 -0.594826 -1.88857)
(199.876 0.0717014 1.78971)
(200.358 -0.26621 1.12325)
(200.545 -0.591351 0.350763)
(200.457 -0.860573 -0.42147)
(200.075 -1.08226 -1.20233)
(199.385 -1.2508 -1.938)
(198.355 -1.37757 -2.56668)
(196.989 -1.48634 -2.96)
(195.327 -1.60997 -2.9481)
(193.663 -1.84765 -2.17776)
(199.279 1.66539 0.949189)
(199.741 1.2974 0.369882)
(199.929 1.02194 -0.264825)
(199.823 0.795285 -0.933921)
(199.41 0.649781 -1.60483)
(198.672 0.577634 -2.24966)
(197.57 0.5728 -2.78836)
(196.087 0.625855 -3.11461)
(194.265 0.66453 -3.01091)
(192.377 0.633189 -2.10694)
(198.051 -0.304406 0.237565)
(198.126 -0.333782 0.221008)
(198.139 -0.369478 0.147736)
(198.137 -0.395178 0.0987577)
(198.124 -0.424571 0.0372781)
(198.105 -0.45014 -0.00769262)
(198.081 -0.473943 -0.0468924)
(198.055 -0.49439 -0.0705254)
(198.024 -0.510321 -0.0839979)
(197.945 -0.519658 -0.0851124)
(198.587 0.289369 -0.0112347)
(198.626 0.326053 -0.0878021)
(198.641 0.338332 -0.148329)
(198.632 0.323567 -0.201448)
(198.6 0.293591 -0.24094)
(198.548 0.25253 -0.261992)
(198.485 0.205616 -0.260763)
(198.418 0.157695 -0.232986)
(198.355 0.113584 -0.181751)
(198.308 0.0804905 -0.105166)
(198.624 -0.273173 0.509495)
(198.698 -0.33313 0.359383)
(198.726 -0.400792 0.181178)
(198.707 -0.474594 0.00782386)
(198.641 -0.557776 -0.147786)
(198.536 -0.647692 -0.2721)
(198.404 -0.740254 -0.353214)
(198.262 -0.830423 -0.384062)
(198.131 -0.912051 -0.357716)
(198.035 -0.976537 -0.288291)
(198.629 0.441079 0.324053)
(198.758 0.422497 0.118234)
(198.808 0.360578 -0.101725)
(198.777 0.273254 -0.314174)
(198.666 0.166323 -0.500156)
(198.485 0.0459373 -0.638966)
(198.252 -0.0829982 -0.711382)
(197.993 -0.214413 -0.699099)
(197.745 -0.339895 -0.593746)
(197.558 -0.44767 -0.395124)
(198.753 -0.041113 0.81736)
(198.945 -0.121136 0.503513)