/*--------------------------------*- C++ -*----------------------------------*\
  =========                 |
  \\      /  F ield         | OpenFOAM: The Open Source CFD Toolbox
   \\    /   O peration     | Website:  https://openfoam.org
    \\  /    A nd           | Version:  6
     \\/     M anipulation  |
\*---------------------------------------------------------------------------*/
FoamFile
{
    version     2.0;
    format      ascii;
    class       volScalarField;
    location    "150";
    object      k;
}
// * * * * * * * * * * * * * * * * * * * * * * * * * * * * * * * * * * * * * //

dimensions      [0 2 -2 0 0 0 0];

internalField   nonuniform List<scalar> 
3072
(
0.101649
0.105631
0.113813
0.109261
0.125867
0.310267
0.602691
0.737943
0.800854
0.848052
0.870506
0.881951
0.154452
0.237435
0.291044
0.359318
0.449501
0.552881
0.767247
0.9476
1.13456
1.30757
1.45211
1.56621
0.233801
0.478377
0.541348
0.535507
0.646116
0.852127
1.10678
1.33552
1.53516
1.69758
1.81513
1.87691
0.283099
0.574782
0.638828
0.667728
0.848174
1.08583
1.33064
1.54102
1.71737
1.85256
1.94315
1.98311
0.311792
0.657725
0.735751
0.799104
0.99152
1.22957
1.45511
1.64745
1.80378
1.9212
1.99649
2.02815
0.305024
0.676324
0.797963
0.890893
1.07982
1.30111
1.50692
1.68341
1.82455
1.92993
1.99724
2.02651
0.28322
0.657059
0.817887
0.944287
1.12467
1.32313
1.51031
1.67362
1.80539
1.90318
1.96566
1.99398
0.260867
0.616662
0.822379
0.980711
1.15575
1.33275
1.49788
1.63814
1.75358
1.84089
1.89852
1.9272
0.261762
0.614595
0.872798
1.07497
1.23781
1.37609
1.5029
1.60497
1.69235
1.76392
1.81404
1.84095
0.288571
0.703617
1.10041
1.34518
1.46433
1.52941
1.57858
1.6272
1.67043
1.70608
1.73566
1.75255
0.357184
0.987315
1.61477
1.89212
1.92264
1.88105
1.80184
1.74139
1.71251
1.70066
1.6905
1.68253
1.15936
1.63648
2.21105
2.41636
2.39781
2.28572
2.12038
1.96447
1.83682
1.74759
1.69272
1.64752
0.87649
0.870555
0.856882
0.834034
0.799742
0.758016
0.704694
0.641678
0.561834
0.466516
0.381536
0.314507
1.63107
1.64678
1.63103
1.57179
1.5063
1.43734
1.36509
1.28617
1.18512
0.995252
0.751465
0.6563
1.8909
1.87121
1.8228
1.75982
1.69443
1.633
1.57612
1.52005
1.45023
1.31916
1.01843
0.847489
1.98918
1.96457
1.91837
1.86072
1.80189
1.75092
1.71173
1.68011
1.64885
1.5809
1.34557
1.00601
2.02995
2.00249
1.95578
1.90006
1.84628
1.8053
1.78417
1.77864
1.78093
1.76295
1.60269
1.121
2.0273
2.00167
1.95849
1.90751
1.85917
1.82614
1.81604
1.83531
1.88028
1.91157
1.84525
1.23458
1.99436
1.97161
1.93286
1.88771
1.84651
1.82143
1.82186
1.85815
1.93786
2.02203
2.03453
1.33189
1.93025
1.91358
1.88097
1.8416
1.80691
1.78928
1.79985
1.85293
1.96037
2.1012
2.18379
1.44571
1.84601
1.83427
1.80786
1.77284
1.74328
1.73237
1.74946
1.81586
1.95587
2.15398
2.29598
1.57369
1.75432
1.74371
1.7206
1.68833
1.66278
1.65738
1.67822
1.75307
1.91772
2.17548
2.42311
1.70196
1.67177
1.65462
1.62855
1.59822
1.57735
1.57667
1.60163
1.68012
1.85439
2.17247
2.57646
1.85426
1.61146
1.57867
1.54539
1.51593
1.5033
1.50868
1.54038
1.61777
1.77544
2.10964
2.68821
2.06941
0.0877261
0.102639
0.111735
0.107949
0.124453
0.305464
0.598641
0.734575
0.797785
0.845128
0.867764
0.879424
0.152058
0.23388
0.2856
0.354732
0.447843
0.549496
0.762439
0.942359
1.12916
1.30198
1.44672
1.56091
0.232215
0.47462
0.538806
0.533166
0.642293
0.846869
1.10073
1.32924
1.52909
1.6917
1.80961
1.872
0.281094
0.571248
0.635641
0.664064
0.843199
1.08007
1.32456
1.53494
1.7115
1.84696
1.93812
1.97861
0.310047
0.654424
0.732286
0.795069
0.986536
1.22405
1.4495
1.64192
1.79845
1.91616
1.99199
2.02418
0.303831
0.673657
0.794582
0.887004
1.07533
1.29632
1.50216
1.6788
1.82006
1.92563
1.99341
2.02312
0.282307
0.654797
0.814889
0.941013
1.12104
1.3194
1.50671
1.66976
1.80154
1.89952
1.96233
1.99113
0.260493
0.615143
0.819979
0.978142
1.15296
1.32992
1.49534
1.63553
1.75085
1.83822
1.89604
1.92499
0.261771
0.613891
0.871519
1.07372
1.23647
1.37464
1.50139
1.60367
1.69084
1.76234
1.81251
1.83959
0.288711
0.703759
1.10037
1.3457
1.46492
1.52971
1.57865
1.62694
1.67018
1.70564
1.73515
1.75207
0.357156
0.987119
1.61458
1.89241
1.92334
1.88242
1.80325
1.74241
1.71307
1.70117
1.69088
1.68284
1.15654
1.63342
2.20844
2.41509
2.397
2.28596
2.12118
1.96559
1.83799
1.74857
1.69361
1.64831
0.874153
0.868431
0.854968
0.832522
0.798452
0.757063
0.703924
0.641141
0.561457
0.466399
0.381399
0.314421
1.62622
1.64287
1.62776
1.56911
1.50414
1.43572
1.36395
1.28544
1.18466
0.994902
0.751375
0.656294
1.88639
1.8675
1.81967
1.75722
1.69237
1.6315
1.57518
1.5196
1.45018
1.31939
1.01866
0.847678
1.98504
1.96106
1.9154
1.85833
1.80008
1.74973
1.71109
1.68004
1.64926
1.5816
1.34625
1.00642
2.02634
1.99938
1.95318
1.89801
1.84481
1.80453
1.78399
1.77895
1.78175
1.76415
1.60383
1.12164
2.02428
1.99902
1.95629
1.90582
1.85802
1.82567
1.81615
1.83606
1.88156
1.91321
1.84676
1.23544
1.99188
1.96949
1.93116
1.88646
1.84577
1.82124
1.82223
1.85916
1.93951
2.02392
2.03641
1.3329
1.92836
1.91204
1.87983
1.84086
1.80662
1.78949
1.80058
1.85429
1.96223
2.10343
2.18587
1.4469
1.84489
1.83341
1.80733
1.77265
1.74349
1.73304
1.75057
1.8176
1.95819
2.15661
2.29833
1.57509
1.75398
1.74353
1.72066
1.6887
1.66361
1.65856
1.67983
1.75524
1.92051
2.17845
2.42571
1.70362
1.67204
1.65497
1.62911
1.5991
1.57891
1.57859
1.60386
1.68283
1.85776
2.17609
2.57948
1.8564
1.6122
1.57944
1.54631
1.51721
1.50514
1.51087
1.54314
1.62116
1.77927
2.11388
2.69185
2.07218
0.0875873
0.102487
0.111466
0.107729
0.124546
0.30753
0.601097
0.737075
0.800339
0.847704
0.870287
0.88189
0.152007
0.233769
0.28517
0.354775
0.448869
0.551632
0.765482
0.946066
1.13317
1.30629
1.45116
1.56551
0.232476
0.475487
0.540057
0.534625
0.644736
0.850026
1.10476
1.33383
1.53393
1.69676
1.81477
1.87703
0.281572
0.572643
0.637408
0.666201
0.846066
1.08368
1.32887
1.53974
1.71662
1.85231
1.94348
1.98386
0.310636
0.656091
0.734327
0.797387
0.989533
1.2278
1.4539
1.6468
1.80371
1.92165
1.99749
2.02956
0.304348
0.675398
0.79677
0.889467
1.07835
1.30007
1.50652
1.6837
1.82533
1.93114
1.99888
2.02842
0.28279
0.656474
0.817157
0.943529
1.12403
1.323
1.51094
1.67455
1.80673
1.90492
1.96778
1.99645
0.260884
0.616674
0.822168
0.980633
1.15585
1.33335
1.49934
1.64005
1.75577
1.84337
1.90129
1.93024
0.26217
0.615301
0.87359
1.07612
1.23915
1.37774
1.50504
1.60764
1.6952
1.76697
1.81729
1.84441
0.289223
0.705266
1.10248
1.34797
1.46723
1.53221
1.58156
1.63028
1.67371
1.70949
1.73922
1.75629
0.35786
0.989058
1.61687
1.89456
1.92528
1.8841
1.80505
1.74461
1.71576
1.70403
1.69405
1.68628
1.15844
1.63598
2.21108
2.41717
2.39882
2.28727
2.12231
1.96676
1.83944
1.7505
1.69578
1.65083
0.876508
0.870677
0.857101
0.834407
0.800181
0.758536
0.705221
0.642198
0.562314
0.466984
0.381868
0.314793
1.6307
1.64702
1.63165
1.57269
1.50743
1.43867
1.36656
1.28767
1.18653
0.996363
0.752275
0.65696
1.89128
1.87205
1.82392
1.76117
1.696
1.63479
1.57811
1.52214
1.4523
1.32105
1.0198
0.848464
1.99016
1.96588
1.91994
1.86254
1.80394
1.75319
1.71415
1.6827
1.65147
1.58337
1.34754
1.00728
2.03159
2.00437
1.95787
1.90236
1.8488
1.80805
1.78707
1.78165
1.78401
1.76594
1.60517
1.12252
2.02945
2.00404
1.96103
1.91022
1.86204
1.82923
1.81932
1.83876
1.88378
1.91499
1.84821
1.23634
1.99708
1.9745
1.93587
1.89083
1.84975
1.82483
1.8254
1.86187
1.94175
2.02581
2.03791
1.33385
1.93346
1.91691
1.88438
1.84509
1.81049
1.79298
1.80369
1.85694
1.96449
2.10531
2.18749
1.44789
1.84963
1.83797
1.81161
1.77662
1.74712
1.73632
1.75354
1.82012
1.96029
2.15844
2.29998
1.57613
1.75822
1.74766
1.72456
1.6923
1.66681
1.66148
1.68247
1.7575
1.92236
2.18013
2.42734
1.70461
1.67574
1.65865
1.63254
1.60222
1.58143
1.58084
1.60595
1.68463
1.85913
2.1773
2.58091
1.85716
1.61499
1.58232
1.5491
1.51977
1.5073
1.51277
1.54459
1.62214
1.77999
2.11444
2.6927
2.07266
0.0878634
0.102809
0.111953
0.108175
0.124703
0.306056
0.599133
0.734897
0.798012
0.845257
0.867803
0.879384
0.152269
0.234387
0.286396
0.355686
0.448379
0.549795
0.762995
0.94279
1.12951
1.30218
1.44667
1.5608
0.232341
0.475315
0.539931
0.534192
0.642398
0.847138
1.10098
1.3293
1.52894
1.69134
1.80901
1.87119
0.281134
0.571876
0.636533
0.664229
0.842979
1.08003
1.32439
1.53454
1.71089
1.84616
1.93708
1.9774
0.309963
0.654805
0.732762
0.794765
0.986096
1.22368
1.44897
1.64116
1.79749
1.91504
1.99067
2.02269
0.303636
0.673818
0.794747
0.886431
1.07465
1.29564
1.50131
1.6777
1.81878
1.9242
1.99184
2.02144
0.282051
0.654874
0.814917
0.940307
1.1201
1.31837
1.5055
1.66845
1.80008
1.8979
1.96057
1.98921
0.260196
0.615065
0.819831
0.977328
1.15181
1.32861
1.49382
1.63386
1.74907
1.83632
1.89404
1.92291
0.261563
0.613765
0.871189
1.07281
1.23507
1.37294
1.49955
1.60156
1.68865
1.76009
1.81023
1.83728
0.288687
0.703929
1.10037
1.34508
1.46355
1.52775
1.57639
1.62451
1.66757
1.70301
1.73255
1.74952
0.357464
0.988215
1.61593
1.89315
1.92324
1.88094
1.80102
1.73982
1.71035
1.69836
1.68809
1.68013
1.1579
1.63551
2.21085
2.41682
2.39821
2.28594
2.12013
1.96374
1.8356
1.74592
1.69095
1.64566
0.874063
0.868291
0.854796
0.832265
0.798182
0.756755
0.703633
0.640863
0.561214
0.466156
0.381258
0.314304
1.62594
1.64232
1.62705
1.56829
1.50324
1.43476
1.36297
1.28448
1.1838
0.994258
0.750936
0.655963
1.88546
1.8664
1.81847
1.75596
1.69106
1.63013
1.57377
1.51819
1.44883
1.31819
1.01781
0.847132
1.98374
1.95963
1.91389
1.85674
1.79842
1.748
1.70932
1.67824
1.6475
1.57999
1.34499
1.00568
2.02474
1.99767
1.95139
1.89614
1.84286
1.8025
1.78191
1.77684
1.77964
1.76216
1.60219
1.12072
2.02248
1.99711
1.9543
1.90377
1.8559
1.82345
1.81384
1.83367
1.87917
1.9109
1.8448
1.23435
1.98985
1.96739
1.929
1.88425
1.84349
1.81889
1.81979
1.85661
1.93687
2.02138
2.03418
1.33167
1.9262
1.9098
1.87752
1.83851
1.80421
1.78701
1.798
1.85159
1.95946
2.10068
2.18346
1.44552
1.84253
1.831
1.80488
1.77017
1.74097
1.73045
1.74789
1.81477
1.95525
2.15366
2.29573
1.57357
1.75144
1.74098
1.7181
1.68611
1.66098
1.65587
1.67705
1.75231
1.91743
2.17538
2.42299
1.70193
1.66941
1.65238
1.6265
1.59644
1.5762
1.57582
1.60099
1.67981
1.85457
2.17286
2.57655
1.85452
1.60961
1.57688
1.54374
1.51455
1.50238
1.50805
1.54023
1.61813
1.7761
2.11055
2.6888
2.07
2.49116
2.51897
2.56048
2.55956
2.52485
2.4377
2.29327
2.13239
1.97214
1.83388
1.72397
1.642
2.15902
2.1586
2.18259
2.22657
2.25701
2.24967
2.20646
2.11482
1.99
1.86442
1.74587
1.64282
1.81783
1.82762
1.85017
1.88738
1.92739
1.95785
1.96456
1.9472
1.90548
1.82369
1.72371
1.62357
1.563
1.58941
1.61825
1.65287
1.68908
1.72343
1.74328
1.74401
1.72921
1.69803
1.64165
1.55708
1.57766
1.52597
1.48332
1.45705
1.45685
1.47305
1.51292
1.57975
1.69248
1.9492
2.5259
2.54482
1.55796
1.4919
1.44611
1.43337
1.44345
1.46912
1.50347
1.54437
1.60145
1.73671
2.08753
2.18437
1.53417
1.47085
1.43965
1.4407
1.45253
1.46307
1.46615
1.4702
1.48624
1.53717
1.70451
1.80559
1.49637
1.47133
1.45447
1.4339
1.40842
1.37974
1.35877
1.35068
1.35903
1.38302
1.4621
1.52956
2.48696
2.51464
2.55642
2.55617
2.52204
2.43619
2.29262
2.13251
1.97276
1.83474
1.72493
1.64294
2.15483
2.15437
2.17835
2.22245
2.25363
2.24707
2.20455
2.11413
1.9898
1.86474
1.74649
1.6436
1.81426
1.82391
1.8464
1.88357
1.92387
1.95482
1.9622
1.94531
1.90444
1.82364
1.72407
1.62414
1.56034
1.58648
1.6152
1.64977
1.68613
1.72071
1.74247
1.74171
1.72776
1.69718
1.64171
1.55756
1.57857
1.52691
1.48445
1.45877
1.45893
1.47573
1.51629
1.58354
1.69662
1.95377
2.53042
2.54894
1.55879
1.49282
1.44742
1.43539
1.44591
1.47234
1.50719
1.54834
1.60564
1.74123
2.09238
2.18888
1.53487
1.47186
1.44142
1.44291
1.4554
1.46666
1.46998
1.47409
1.49022
1.54135
1.70908
1.81007
1.49734
1.47304
1.45667
1.43656
1.41148
1.38324
1.36231
1.35427
1.36267
1.38677
1.46609
1.53355
2.49049
2.51805
2.55952
2.55894
2.52448
2.43791
2.29388
2.13343
1.97361
1.83577
1.72629
1.64462
2.15894
2.15825
2.18196
2.22582
2.25648
2.24943
2.20648
2.11533
1.99073
1.86546
1.74726
1.64467
1.8184
1.82775
1.84995
1.88691
1.92688
1.9575
1.96442
1.94716
1.90576
1.82438
1.7247
1.62479
1.56409
1.58995
1.6184
1.65274
1.68884
1.72319
1.74453
1.74338
1.72914
1.69824
1.64227
1.55792
1.58054
1.52905
1.48659
1.46061
1.46052
1.47689
1.51685
1.5837
1.69654
1.95351
2.53027
2.54855
1.5601
1.49431
1.44889
1.43652
1.44679
1.47268
1.50699
1.54776
1.60483
1.74028
2.09141
2.18787
1.53568
1.47275
1.44207
1.44333
1.45549
1.4661
1.46908
1.47298
1.48894
1.54001
1.70772
1.80873
1.49768
1.47321
1.45656
1.43617
1.4108
1.38221
1.36111
1.35288
1.36118
1.38523
1.46456
1.53211
2.49004
2.51756
2.55911
2.5586
2.52413
2.43742
2.29298
2.13197
1.97142
1.83286
1.7227
1.6406
2.15791
2.15721
2.181
2.22503
2.25587
2.24886
2.20584
2.1144
1.98953
1.86382
1.74508
1.6418
1.81712
1.82653
1.84881
1.88591
1.92605
1.95681
1.96384
1.94658
1.90502
1.82327
1.72314
1.62285
1.56277
1.58874
1.61731
1.65178
1.68801
1.7225
1.74396
1.74285
1.72863
1.69763
1.64126
1.55666
1.57622
1.52455
1.48202
1.45616
1.45625
1.47293
1.5134
1.58062
1.6936
1.95059
2.52726
2.54638
1.55686
1.49079
1.44519
1.43292
1.44331
1.46957
1.50439
1.54556
1.60283
1.7383
2.08933
2.18643
1.53338
1.47013
1.43934
1.44067
1.4529
1.46401
1.46729
1.4714
1.48756
1.53863
1.70621
1.80738
1.49603
1.47129
1.45469
1.43435
1.40905
1.38057
1.35961
1.3516
1.36007
1.38417
1.46333
1.53071
1.41461
1.44774
1.48192
1.51584
1.54414
1.56412
1.57054
1.55829
1.53052
1.49186
1.45332
1.43368
1.30067
1.33402
1.3658
1.39195
1.41033
1.41985
1.41759
1.39863
1.37052
1.34044
1.31831
1.30702
1.21598
1.24571
1.27024
1.28772
1.29922
1.30276
1.29456
1.27449
1.24913
1.21905
1.1772
1.1152
1.15213
1.17661
1.19466
1.20645
1.21317
1.21344
1.20134
1.17956
1.1486
1.09426
0.99344
0.835535
1.44127
1.39175
1.30718
1.24691
1.21583
1.21519
1.23338
1.25543
1.27888
1.30593
1.34906
1.38346
1.29159
1.17746
1.08108
1.05278
1.0683
1.11127
1.15792
1.19121
1.21201
1.22799
1.24932
1.2712
1.05867
0.965424
0.915511
0.926995
0.97878
1.04454
1.10218
1.13776
1.15469
1.16349
1.17432
1.18981
0.727695
0.777323
0.791599
0.842316
0.914977
0.989763
1.04914
1.08383
1.09956
1.10665
1.11506
1.12884
1.41214
1.44529
1.47948
1.51362
1.5422
1.56242
1.56947
1.55726
1.53006
1.49202
1.45422
1.43545
1.29867
1.33213
1.36411
1.39049
1.40906
1.4188
1.41702
1.39841
1.37085
1.34142
1.31992
1.30913
1.21441
1.24438
1.26913
1.28684
1.29854
1.30228
1.29456
1.27492
1.25007
1.22048
1.17894
1.11699
1.15106
1.17587
1.19413
1.2061
1.21326
1.21355
1.20186
1.18047
1.14988
1.09574
0.994889
0.836725
1.44343
1.39446
1.30994
1.24964
1.21858
1.21812
1.23647
1.25873
1.28232
1.30942
1.35261
1.38677
1.29392
1.17974
1.08308
1.05468
1.0703
1.11356
1.16061
1.19429
1.21527
1.23127
1.25243
1.27407
1.06039
0.966877
0.916748
0.928262
0.980304
1.04649
1.10465
1.14067
1.15783
1.1665
1.17714
1.19229
0.728526
0.778043
0.792296
0.843208
0.916249
0.991524
1.05147
1.08658
1.10251
1.10944
1.11755
1.13105
1.41521
1.44808
1.48204
1.51584
1.54412
1.56413
1.57085
1.5583
1.53084
1.4925
1.45432
1.43521
1.30121
1.3344
1.36605
1.39214
1.4105
1.42004
1.41793
1.39905
1.37125
1.34149
1.31965
1.30862
1.2166
1.24624
1.27069
1.28813
1.29963
1.30321
1.29516
1.27527
1.25017
1.22027
1.17852
1.11658
1.15295
1.17738
1.19538
1.20714
1.21386
1.2142
1.20224
1.1806
1.14973
1.09537
0.994542
0.836706
1.44303
1.39385
1.30927
1.24893
1.21776
1.21707
1.23516
1.25715
1.28061
1.30774
1.35102
1.38539
1.29331
1.17929
1.08278
1.05437
1.0698
1.11271
1.15932
1.19259
1.2134
1.22941
1.25078
1.27262
1.0601
0.966804
0.916798
0.928233
0.979982
1.04573
1.10333
1.13888
1.1558
1.16456
1.17537
1.1908
0.728788
0.778307
0.79258
0.84331
0.915982
0.99077
1.0501
1.08474
1.10042
1.10742
1.11576
1.12948
1.41397
1.447
1.4811
1.51508
1.54348
1.56357
1.57033
1.55773
1.53016
1.49161
1.45322
1.43381
1.3
1.33337
1.36522
1.39143
1.40987
1.41945
1.41732
1.39833
1.37038
1.34044
1.31842
1.30717
1.21532
1.24517
1.26978
1.28735
1.2989
1.30249
1.29439
1.27441
1.2492
1.21919
1.17724
1.11497
1.15162
1.17626
1.19438
1.20621
1.21298
1.21333
1.20132
1.17966
1.14877
1.09431
0.993189
0.834912
1.44152
1.39219
1.30752
1.2471
1.21594
1.21541
1.23381
1.25615
1.27982
1.30688
1.34974
1.38441
1.29163
1.17733
1.08067
1.05224
1.06779
1.11097
1.15801
1.19176
1.21283
1.22882
1.24986
1.27171
1.05815
0.964662
0.914587
0.926049
0.977952
1.04399
1.1021
1.13819
1.15544
1.16413
1.17469
1.19
0.726751
0.776184
0.790425
0.841201
0.914034
0.989106
1.04899
1.08416
1.10018
1.10713
1.11517
1.12876
1.10511
1.12649
1.14104
1.14982
1.15384
1.14952
1.13178
1.09977
1.04441
0.940032
0.724566
0.395439
1.07084
1.09279
1.10699
1.11468
1.11628
1.10402
1.07305
1.01772
0.923393
0.757811
0.423902
0.10341
1.04353
1.06877
1.0845
1.09203
1.08947
1.06498
1.0143
0.928977
0.792441
0.577558
0.225297
0.0635493
1.01561
1.04507
1.0631
1.07117
1.06266
1.02497
0.953427
0.838863
0.66866
0.434084
0.168945
0.0608626
0.980111
1.01338
1.03388
1.04304
1.02932
0.980541
0.891643
0.755374
0.568343
0.347528
0.159157
0.0619011
0.932071
0.968101
0.990943
1.00164
0.984969
0.929456
0.830114
0.683207
0.495884
0.30182
0.160203
0.063014
0.869235
0.906593
0.93141
0.943915
0.927067
0.870114
0.768568
0.622213
0.446234
0.279007
0.162033
0.0641847
0.791256
0.828371
0.854614
0.868951
0.854432
0.801049
0.705047
0.568431
0.410059
0.265635
0.162551
0.0625429
0.698346
0.733657
0.760596
0.776462
0.765985
0.719975
0.635775
0.515546
0.377407
0.252067
0.156841
0.0585924
0.588676
0.620475
0.64689
0.663512
0.657704
0.620952
0.553662
0.454735
0.337907
0.229478
0.139956
0.0513286
0.448702
0.475039
0.498388
0.51386
0.511982
0.485434
0.438161
0.368694
0.274844
0.184747
0.104212
0.0405985
0.203006
0.213499
0.222066
0.227019
0.228627
0.221916
0.206482
0.183455
0.148612
0.105419
0.0638986
0.0321288
0.381309
0.630856
0.703114
0.777938
0.859372
0.935329
0.993079
1.02737
1.04501
1.05596
1.06732
1.08293
0.264857
0.537882
0.636689
0.721694
0.80462
0.878077
0.933482
0.968884
0.99158
1.00907
1.02668
1.04707
0.227237
0.476691
0.580868
0.667436
0.748326
0.818177
0.87151
0.90936
0.937883
0.962913
0.988257
1.01535
0.200866
0.426928
0.528408
0.612626
0.690073
0.756251
0.808035
0.84816
0.8821
0.914297
0.947321
0.981569
0.177801
0.380412
0.476205
0.556509
0.630022
0.692614
0.742896
0.784641
0.822789
0.860708
0.899972
0.940362
0.155921
0.334042
0.423301
0.499002
0.568319
0.627315
0.675813
0.718179
0.758866
0.800398
0.843724
0.888202
0.134111
0.286914
0.369564
0.4401
0.504876
0.560118
0.606384
0.648247
0.689678
0.73257
0.777446
0.823519
0.112311
0.239046
0.315032
0.379537
0.439186
0.490359
0.533903
0.574182
0.614697
0.656858
0.700969
0.74624
0.0899103
0.190926
0.259437
0.316443
0.369993
0.41664
0.456965
0.494734
0.532932
0.572658
0.614072
0.656594
0.0692734
0.142427
0.201615
0.248578
0.294478
0.335641
0.372104
0.406463
0.441212
0.477188
0.514534
0.552072
0.048865
0.0935385
0.136262
0.168162
0.204162
0.238129
0.269352
0.298875
0.328594
0.358901
0.389207
0.419232
0.0308333
0.0372658
0.0547521
0.0667035
0.0835104
0.101599
0.117876
0.132986
0.147815
0.16243
0.176388
0.190295
1.10447
1.1262
1.14094
1.14986
1.15411
1.15009
1.13268
1.10092
1.0457
0.941267
0.725497
0.395895
1.07064
1.09291
1.10727
1.11505
1.11684
1.10488
1.07409
1.01884
0.924464
0.758649
0.424345
0.103446
1.0436
1.06912
1.08498
1.09259
1.0902
1.06588
1.01526
0.929882
0.793173
0.577995
0.225445
0.0634949
1.01585
1.04551
1.06363
1.07175
1.06335
1.02573
0.95415
0.839448
0.669029
0.434189
0.168886
0.0607843
0.980302
1.01373
1.03429
1.04349
1.02981
0.981024
0.892036
0.755609
0.568387
0.347405
0.158999
0.0618154
0.932113
0.968264
0.991137
1.00185
0.985177
0.929606
0.83016
0.683119
0.495679
0.30156
0.159996
0.0629223
0.869021
0.906482
0.931325
0.943838
0.926959
0.869935
0.768298
0.621867
0.445857
0.278673
0.161808
0.0640873
0.790798
0.827994
0.854268
0.8686
0.854041
0.800594
0.704532
0.567904
0.409579
0.265268
0.162319
0.0624387
0.697686
0.733067
0.760043
0.775905
0.765384
0.719333
0.635104
0.514923
0.376878
0.251689
0.156611
0.0584995
0.587891
0.619787
0.646241
0.662855
0.657013
0.620231
0.552953
0.454099
0.337381
0.229114
0.139739
0.0512473
0.447947
0.474396
0.497782
0.513247
0.511341
0.484776
0.437535
0.368143
0.274367
0.18443
0.104034
0.0405383
0.202529
0.2131
0.221689
0.226675
0.22835
0.221627
0.206202
0.183201
0.1484
0.105275
0.063819
0.0320864
0.381403
0.631105
0.703513
0.778644
0.860526
0.937005
0.995319
1.02998
1.04772
1.05845
1.06957
1.08487
0.264769
0.537953
0.636967
0.722326
0.805723
0.879702
0.935619
0.97131
0.994005
1.01134
1.02866
1.04881
0.227162
0.476737
0.581119
0.668048
0.749403
0.819751
0.87352
0.911597
0.94011
0.964962
0.990074
1.0169
0.200814
0.426999
0.52867
0.613236
0.691131
0.75777
0.809935
0.850249
0.884173
0.91621
0.948982
0.983009
0.177779
0.380513
0.476484
0.55712
0.631055
0.694074
0.744696
0.786613
0.824749
0.862517
0.901576
0.941725
0.155908
0.33416
0.423587
0.499602
0.569317
0.62871
0.677521
0.720052
0.76074
0.802156
0.845278
0.889551
0.134109
0.287033
0.369844
0.440673
0.505825
0.561438
0.607996
0.650024
0.691477
0.73428
0.779003
0.824868
0.11231
0.239149
0.315288
0.380063
0.440067
0.491588
0.535406
0.575852
0.616409
0.658518
0.702493
0.747598
0.089917
0.191002
0.259653
0.316899
0.370779
0.417753
0.458333
0.49627
0.534522
0.574225
0.615538
0.657917
0.0692637
0.142475
0.201772
0.248934
0.295135
0.336595
0.373297
0.407815
0.442628
0.478604
0.515865
0.55327
0.048849
0.0935528
0.136337
0.16837
0.204632
0.238855
0.270291
0.299952
0.329732
0.360028
0.390249
0.420194
0.0308246
0.0372606
0.0547622
0.066766
0.0837164
0.101939
0.118322
0.133492
0.148356
0.162969
0.176901
0.190774
1.10616
1.12753
1.14205
1.1508
1.15482
1.15055
1.13288
1.10087
1.04541
0.940885
0.725332
0.39609
1.07213
1.09407
1.10823
1.11589
1.11746
1.10519
1.07417
1.01872
0.924214
0.758457
0.424467
0.103592
1.04495
1.07018
1.08585
1.09334
1.09067
1.06611
1.01531
0.929838
0.793127
0.578122
0.225833
0.0636008
1.01707
1.04648
1.06441
1.07241
1.06373
1.02593
0.95426
0.839565
0.669247
0.434621
0.169235
0.0608829
0.981473
1.01466
1.03503
1.04409
1.03016
0.981264
0.892245
0.755899
0.568809
0.347934
0.159327
0.0619072
0.93325
0.969179
0.991869
1.00244
0.985544
0.929903
0.830469
0.683532
0.496204
0.302079
0.16028
0.0630107
0.870166
0.907419
0.9321
0.944458
0.927375
0.870288
0.768691
0.622336
0.4464
0.279128
0.162057
0.0641656
0.791942
0.828941
0.855086
0.869257
0.854515
0.800997
0.704981
0.568374
0.410089
0.265647
0.162518
0.062502
0.698807
0.734013
0.76088
0.776575
0.765924
0.71974
0.635614
0.515329
0.377345
0.252004
0.156743
0.0585676
0.588921
0.620671
0.647027
0.66351
0.657543
0.620667
0.55342
0.454467
0.337771
0.22937
0.139871
0.0512883
0.448784
0.475126
0.498429
0.513799
0.511795
0.485171
0.437921
0.368439
0.274689
0.184644
0.104136
0.0405624
0.202957
0.213484
0.222036
0.226966
0.228533
0.221809
0.20635
0.183322
0.148496
0.105337
0.0638434
0.0320895
0.381847
0.631554
0.703894
0.778773
0.86024
0.936205
0.993901
1.02811
1.04565
1.05646
1.06773
1.08328
0.265141
0.538431
0.637349
0.72242
0.805381
0.878839
0.934171
0.969458
0.992001
1.00936
1.02687
1.04718
0.227459
0.477169
0.581451
0.668081
0.748997
0.818827
0.87207
0.909782
0.938145
0.963033
0.988274
1.01529
0.20107
0.427363
0.528934
0.613202
0.690666
0.756807
0.808489
0.848466
0.882245
0.914301
0.947228
0.981415
0.177994
0.380811
0.476682
0.557026
0.630547
0.693092
0.743266
0.784862
0.822854
0.860642
0.899819
0.940162
0.156095
0.334402
0.42373
0.499464
0.568783
0.627728
0.67612
0.718342
0.758884
0.800299
0.843554
0.888002
0.134273
0.287232
0.369946
0.440509
0.505285
0.560476
0.606642
0.648371
0.689673
0.732466
0.777289
0.82335
0.112432
0.239318
0.315364
0.379894
0.439542
0.490668
0.534121
0.574281
0.614685
0.656766
0.700842
0.746118
0.0900059
0.191147
0.259721
0.316746
0.370294
0.4169
0.457146
0.494814
0.532921
0.572587
0.613983
0.656523
0.0692627
0.142585
0.201847
0.248821
0.294716
0.335844
0.372245
0.406524
0.441204
0.477137
0.514481
0.552052
0.0476727
0.0935775
0.136438
0.168329
0.204321
0.238263
0.269442
0.298912
0.328586
0.358875
0.389196
0.419246
0.0271333
0.0370635
0.0548063
0.066771
0.0835717
0.101656
0.117918
0.133009
0.147827
0.162438
0.176404
0.190325
1.10473
1.12628
1.14089
1.14972
1.15379
1.14955
1.13188
1.09991
1.04446
0.939837
0.724027
0.394879
1.07068
1.09276
1.107
1.1147
1.11633
1.10411
1.07312
1.0177
0.923183
0.757317
0.423307
0.103226
1.04348
1.06883
1.08458
1.09212
1.08953
1.065
1.01421
0.928714
0.791934
0.576847
0.224859
0.0634302
1.01564
1.04518
1.0632
1.07124
1.06264
1.02483
0.953114
0.838331
0.667914
0.433299
0.168594
0.0607485
0.980065
1.01341
1.03389
1.04302
1.02916
0.980205
0.891099
0.754619
0.567464
0.346786
0.158823
0.0617854
0.9319
0.968006
0.990825
1.00147
0.984647
0.928936
0.829383
0.682312
0.494977
0.301153
0.159874
0.0628966
0.868861
0.906314
0.931129
0.943596
0.926592
0.869447
0.767714
0.621261
0.445362
0.278411
0.161717
0.0640656
0.790707
0.82792
0.854189
0.868492
0.853839
0.800289
0.704138
0.567485
0.40925
0.265104
0.16225
0.0624258
0.697664
0.733077
0.760061
0.775909
0.765324
0.719181
0.634873
0.514656
0.376669
0.251585
0.156558
0.0584819
0.587922
0.619855
0.646323
0.662935
0.657046
0.620189
0.552838
0.453941
0.337245
0.229043
0.139693
0.0512299
0.448003
0.474484
0.497886
0.513351
0.51141
0.484788
0.437498
0.368055
0.27427
0.184375
0.103997
0.0405215
0.202575
0.213156
0.221748
0.226732
0.228396
0.221654
0.206207
0.183189
0.148362
0.105245
0.063797
0.0320742
0.380486
0.62964
0.701888
0.7768
0.858425
0.934674
0.992916
1.02764
1.04547
1.0562
1.06722
1.08253
0.264203
0.536775
0.635531
0.720616
0.803732
0.877477
0.933317
0.969053
0.991811
1.00914
1.02632
1.04636
0.226707
0.475733
0.579826
0.666457
0.747527
0.817656
0.871335
0.909435
0.937996
0.962832
0.987756
1.01439
0.200422
0.426113
0.527494
0.61176
0.689375
0.755807
0.807878
0.848196
0.882152
0.914168
0.946738
0.980515
0.17743
0.379721
0.475414
0.555757
0.629424
0.692248
0.742773
0.784677
0.822832
0.860589
0.899471
0.939375
0.155599
0.333454
0.422621
0.498356
0.567816
0.627025
0.675738
0.71824
0.758939
0.800366
0.843366
0.887445
0.133837
0.286411
0.368981
0.439547
0.504459
0.559898
0.606354
0.648341
0.689798
0.732642
0.777319
0.823085
0.112073
0.238614
0.314532
0.379065
0.438842
0.490197
0.533911
0.574305
0.614864
0.657042
0.701052
0.746169
0.0897195
0.190558
0.259011
0.316037
0.369703
0.416518
0.45699
0.494873
0.533125
0.572924
0.614334
0.656851
0.0691108
0.142125
0.201255
0.248225
0.294228
0.335529
0.372124
0.406586
0.441411
0.477477
0.514878
0.552556
0.0487413
0.0933098
0.135969
0.167854
0.20394
0.238002
0.269328
0.298945
0.328757
0.359163
0.389581
0.419747
0.0307514
0.0371657
0.0546133
0.0665524
0.0834174
0.101565
0.11791
0.133095
0.147987
0.162671
0.176692
0.1907
)
;

boundaryField
{
    rotor
    {
        type            kqRWallFunction;
        value           nonuniform List<scalar> 
192
(
0.101649
0.105631
0.113813
0.109261
0.125867
0.310267
0.602691
0.737943
0.800854
0.848052
0.870506
0.881951
0.87649
0.870555
0.856882
0.834034
0.799742
0.758016
0.704694
0.641678
0.561834
0.466516
0.381536
0.314507
0.0877261
0.102639
0.111735
0.107949
0.124453
0.305464
0.598641
0.734575
0.797785
0.845128
0.867764
0.879424
0.874153
0.868431
0.854968
0.832522
0.798452
0.757063
0.703924
0.641141
0.561457
0.466399
0.381399
0.314421
0.0875873
0.102487
0.111466
0.107729
0.124546
0.30753
0.601097
0.737075
0.800339
0.847704
0.870287
0.88189
0.876508
0.870677
0.857101
0.834407
0.800181
0.758536
0.705221
0.642198
0.562314
0.466984
0.381868
0.314793
0.0878634
0.102809
0.111953
0.108175
0.124703
0.306056
0.599133
0.734897
0.798012
0.845257
0.867803
0.879384
0.874063
0.868291
0.854796
0.832265
0.798182
0.756755
0.703633
0.640863
0.561214
0.466156
0.381258
0.314304
0.101649
0.154452
0.233801
0.283099
0.311792
0.305024
0.28322
0.260867
0.261762
0.288571
0.357184
1.15936
0.314304
0.655963
0.847132
1.00568
1.12072
1.23435
1.33167
1.44552
1.57357
1.70193
1.85452
2.07
0.0877261
0.152058
0.232215
0.281094
0.310047
0.303831
0.282307
0.260493
0.261771
0.288711
0.357156
1.15654
0.314507
0.6563
0.847489
1.00601
1.121
1.23458
1.33189
1.44571
1.57369
1.70196
1.85426
2.06941
0.0875873
0.152007
0.232476
0.281572
0.310636
0.304348
0.28279
0.260884
0.26217
0.289223
0.35786
1.15844
0.314421
0.656294
0.847678
1.00642
1.12164
1.23544
1.3329
1.4469
1.57509
1.70362
1.8564
2.07218
0.0878634
0.152269
0.232341
0.281134
0.309963
0.303636
0.282051
0.260196
0.261563
0.288687
0.357464
1.1579
0.314793
0.65696
0.848464
1.00728
1.12252
1.23634
1.33385
1.44789
1.57613
1.70461
1.85716
2.07266
)
;
    }
    stator
    {
        type            kqRWallFunction;
        value           nonuniform List<scalar> 
192
(
0.203006
0.213499
0.222066
0.227019
0.228627
0.221916
0.206482
0.183455
0.148612
0.105419
0.0638986
0.0321288
0.0308333
0.0372658
0.0547521
0.0667035
0.0835104
0.101599
0.117876
0.132986
0.147815
0.16243
0.176388
0.190295
0.202529
0.2131
0.221689
0.226675
0.22835
0.221627
0.206202
0.183201
0.1484
0.105275
0.063819
0.0320864
0.0308246
0.0372606
0.0547622
0.066766
0.0837164
0.101939
0.118322
0.133492
0.148356
0.162969
0.176901
0.190774
0.202957
0.213484
0.222036
0.226966
0.228533
0.221809
0.20635
0.183322
0.148496
0.105337
0.0638434
0.0320895
0.0271333
0.0370635
0.0548063
0.066771
0.0835717
0.101656
0.117918
0.133009
0.147827
0.162438
0.176404
0.190325
0.202575
0.213156
0.221748
0.226732
0.228396
0.221654
0.206207
0.183189
0.148362
0.105245
0.063797
0.0320742
0.0307514
0.0371657
0.0546133
0.0665524
0.0834174
0.101565
0.11791
0.133095
0.147987
0.162671
0.176692
0.1907
0.381309
0.264857
0.227237
0.200866
0.177801
0.155921
0.134111
0.112311
0.0899103
0.0692734
0.048865
0.0308333
0.395439
0.10341
0.0635493
0.0608626
0.0619011
0.063014
0.0641847
0.0625429
0.0585924
0.0513286
0.0405985
0.0321288
0.381403
0.264769
0.227162
0.200814
0.177779
0.155908
0.134109
0.11231
0.089917
0.0692637
0.048849
0.0308246
0.395895
0.103446
0.0634949
0.0607843
0.0618154
0.0629223
0.0640873
0.0624387
0.0584995
0.0512473
0.0405383
0.0320864
0.381847
0.265141
0.227459
0.20107
0.177994
0.156095
0.134273
0.112432
0.0900059
0.0692627
0.0476727
0.0271333
0.39609
0.103592
0.0636008
0.0608829
0.0619072
0.0630107
0.0641656
0.062502
0.0585676
0.0512883
0.0405624
0.0320895
0.380486
0.264203
0.226707
0.200422
0.17743
0.155599
0.133837
0.112073
0.0897195
0.0691108
0.0487413
0.0307514
0.394879
0.103226
0.0634302
0.0607485
0.0617854
0.0628966
0.0640656