/*--------------------------------*- C++ -*----------------------------------*\
  =========                 |
  \\      /  F ield         | OpenFOAM: The Open Source CFD Toolbox
   \\    /   O peration     | Website:  https://openfoam.org
    \\  /    A nd           | Version:  6
     \\/     M anipulation  |
\*---------------------------------------------------------------------------*/
FoamFile
{
    version     2.0;
    format      ascii;
    class       volScalarField;
    location    "150";
    object      nut;
}
// * * * * * * * * * * * * * * * * * * * * * * * * * * * * * * * * * * * * * //

dimensions      [0 2 -1 0 0 0 0];

internalField   nonuniform List<scalar> 
3072
(
0.000255913
9.61058e-05
9.66621e-05
9.42708e-05
0.000100471
0.000156066
0.000219478
0.000243524
0.00025383
0.000261265
0.000264697
0.000266421
6.82798e-05
0.000182202
0.000215949
0.000166092
0.000187181
0.000251058
0.00036497
0.000504068
0.00070044
0.000916472
0.00112606
0.00132636
9.20342e-05
0.000344156
0.00032358
0.000301295
0.000389011
0.000586979
0.000861757
0.00120988
0.00157073
0.00190932
0.00220838
0.0024358
0.000110857
0.000421666
0.000447335
0.000474411
0.000683658
0.000992076
0.00140736
0.00184093
0.00226329
0.00264128
0.00296816
0.00320969
0.000126319
0.000533951
0.00060044
0.000690913
0.000977071
0.00136874
0.00183101
0.00229927
0.00273772
0.0031303
0.00346314
0.00371776
0.00013487
0.000595939
0.000735865
0.000890716
0.00121601
0.00163537
0.00210574
0.00257528
0.00300713
0.00339509
0.00372628
0.00399002
0.000139667
0.000651587
0.000842326
0.00104938
0.00138317
0.00179417
0.00224905
0.00270536
0.00312878
0.00350653
0.00382929
0.00409216
0.000143854
0.000712521
0.00096147
0.00116609
0.00147944
0.00187263
0.00230573
0.00272554
0.0031146
0.00346348
0.00376845
0.00402847
0.000153985
0.000807607
0.00107317
0.00132987
0.00161349
0.00193423
0.00229595
0.0026386
0.00298535
0.00331524
0.00360502
0.00385479
0.000171853
0.000905236
0.00130346
0.00159822
0.00182383
0.00204039
0.00229787
0.00257686
0.00284709
0.00310186
0.00336227
0.00359965
0.000202341
0.00093169
0.00151545
0.00187888
0.0020306
0.00219225
0.0023257
0.00249297
0.00269863
0.002917
0.00311104
0.00330187
0.000383175
0.000908783
0.00162049
0.00198878
0.00216123
0.00228392
0.00235122
0.00242973
0.00253736
0.00268468
0.00286672
0.0030258
0.000265552
0.000264603
0.000262431
0.000258836
0.000253374
0.000246609
0.000237711
0.000226808
0.000212195
0.000193365
0.000174705
8.65542e-05
0.00148452
0.00156847
0.00160434
0.00154608
0.00145506
0.00132061
0.00114547
0.000950948
0.000742411
0.000479431
0.000240748
0.000139875
0.00259522
0.00269173
0.00270949
0.00265032
0.00251736
0.00233167
0.002065
0.0017268
0.00132569
0.000874308
0.000394511
0.000175754
0.00339849
0.00351648
0.00356073
0.00352614
0.00339851
0.0032138
0.00292511
0.0025099
0.00198764
0.00136807
0.000663462
0.000209702
0.00392551
0.00406321
0.00413422
0.00413432
0.00404524
0.00389263
0.00363781
0.00321566
0.00261826
0.00186085
0.000953764
0.000240593
0.00420667
0.00436106
0.00445587
0.00448902
0.00444697
0.00434115
0.00413526
0.00377557
0.0032134
0.00237236
0.00130057
0.000272623
0.00430381
0.00446256
0.00456881
0.00462653
0.00463305
0.0045858
0.00445364
0.00418088
0.00370638
0.00287697
0.00168288
0.000304104
0.00423819
0.00440484
0.00451963
0.00459113
0.00462995
0.00463402
0.00458582
0.00443639
0.00407482
0.00332755
0.00203853
0.000338651
0.00406068
0.00422931
0.00435073
0.00442532
0.00448272
0.00452546
0.00453856
0.00451348
0.00433312
0.00371757
0.00234145
0.000376048
0.00379968
0.00396647
0.00408947
0.00416376
0.00423322
0.00430102
0.00435045
0.00442477
0.00443164
0.00402879
0.00271104
0.000414768
0.00348591
0.00364309
0.00375774
0.00383764
0.00392151
0.00399315
0.00406541
0.00421228
0.00437688
0.00427175
0.00317526
0.000457714
0.00317052
0.00329782
0.00340314
0.00349168
0.0036018
0.00367769
0.00377979
0.00396251
0.00421119
0.00438609
0.00370933
0.000510021
3.7707e-05
8.81678e-05
9.41938e-05
9.31424e-05
9.97897e-05
0.000154866
0.0002188
0.000242952
0.000253375
0.000260839
0.000264309
0.000266071
6.67986e-05
0.000179733
0.000213455
0.000165086
0.000186756
0.000250152
0.000362925
0.000501037
0.00069624
0.000910929
0.00112467
0.00132139
9.21878e-05
0.000343305
0.000323353
0.000300313
0.00038664
0.000583016
0.000856071
0.00120381
0.00156454
0.00190304
0.00220263
0.00242958
0.000110487
0.000420315
0.00044584
0.00047188
0.000679257
0.000986528
0.00140064
0.00183389
0.00225641
0.00263414
0.00296165
0.00320341
0.000125999
0.000532433
0.00059842
0.000687775
0.000972746
0.00136275
0.00182444
0.00229257
0.0027313
0.00312381
0.00345745
0.00371274
0.000134596
0.000595254
0.000733921
0.00088759
0.00121185
0.00163027
0.00210047
0.00257033
0.00300238
0.0033904
0.00372238
0.00398688
0.000139424
0.000651095
0.000840874
0.00104722
0.00138026
0.00179079
0.00224609
0.0027017
0.00312516
0.00350318
0.00382666
0.00409064
0.000143809
0.000712969
0.000960405
0.00116437
0.00147704
0.00186994
0.00230403
0.00272425
0.00311326
0.00346242
0.00376787
0.00402851
0.000153935
0.000808344
0.00107395
0.00133052
0.00161374
0.00193416
0.00229594
0.00263922
0.00298572
0.00331598
0.0036062
0.00385651
0.000171884
0.000907083
0.00130537
0.00160101
0.0018266
0.00204255
0.00229977
0.00257863
0.00284972
0.00310411
0.00336474
0.00360244
0.000202318
0.000932189
0.00151609
0.00187972
0.00203176
0.00219453
0.00232824
0.00249542
0.00270099
0.00292034
0.00311478
0.00330592
0.000382707
0.000907435
0.00161906
0.00198875
0.00216068
0.00228451
0.00235252
0.00243166
0.00253964
0.00268722
0.00286991
0.00302966
0.000265228
0.000264313
0.000262174
0.000258634
0.000253201
0.000246481
0.000237604
0.000226734
0.000212142
0.000193356
0.000174688
8.65515e-05
0.00148033
0.00156499
0.00160146
0.00154352
0.00145298
0.00131909
0.00114454
0.000950492
0.000742181
0.00047921
0.000240692
0.000139887
0.00258904
0.00268644
0.00270486
0.00264634
0.00251384
0.00232908
0.00206303
0.00172552
0.00132512
0.000874212
0.00039451
0.000175788
0.0033922
0.00351108
0.00355623
0.00352265
0.00339553
0.00321194
0.00292309
0.0025086
0.00198713
0.00136812
0.000663667
0.000209759
0.00392064
0.00405897
0.00413074
0.00413167
0.00404301
0.00389188
0.00363715
0.00321503
0.0026181
0.00186115
0.000954063
0.000240672
0.00420392
0.00435866
0.00445419
0.00448812
0.00444656
0.00434203
0.00413623
0.00377678
0.00321451
0.00237325
0.00130108
0.000272721
0.00430301
0.00446233
0.00456936
0.00462794
0.00463519
0.00458869
0.0044567
0.00418393
0.00370915
0.00287868
0.00168353
0.000304216
0.00423903
0.0044065
0.00452231
0.00459474
0.00463443
0.00463918
0.00459138
0.00444189
0.00407926
0.00333039
0.00203977
0.000338785
0.00406331
0.00423273
0.00435519
0.00443076
0.00448921
0.00453255
0.00454618
0.00452128
0.00433984
0.00372211
0.002343
0.000376211
0.00380349
0.00397113
0.00409512
0.00417056
0.00424155
0.00430955
0.00435974
0.00443431
0.00444043
0.00403449
0.00271297
0.000414967
0.00349022
0.00364816
0.00376392
0.00384518
0.00393167
0.00400322
0.00407576
0.00422267
0.00438721
0.00427933
0.00317786
0.000457981
0.00317512
0.00330315
0.00340939
0.00349952
0.00361147
0.00368702
0.00379075
0.00397421
0.00422232
0.00439558
0.00371299
0.000510384
3.76677e-05
8.80943e-05
9.40742e-05
9.3029e-05
9.97999e-05
0.0001554
0.000219245
0.000243348
0.000253758
0.00026121
0.000264667
0.000266423
6.67756e-05
0.000179615
0.000212716
0.000164669
0.000186845
0.000250568
0.000364121
0.000503012
0.000698343
0.000913322
0.00112683
0.00132484
9.22326e-05
0.000343585
0.000323748
0.000300732
0.000387892
0.000584507
0.000858829
0.00120734
0.00156837
0.00190734
0.00220742
0.0024351
0.000110584
0.000420816
0.000446452
0.000472816
0.000680781
0.000988753
0.00140412
0.00183828
0.00226146
0.00264008
0.00296804
0.00321021
0.000126119
0.000533007
0.000599186
0.000688752
0.000974305
0.00136545
0.00182832
0.00229749
0.00273711
0.00313056
0.00346459
0.00372007
0.000134707
0.000595863
0.000734719
0.000888627
0.00121357
0.00163313
0.00210447
0.00257544
0.00300843
0.00339728
0.00372943
0.00399372
0.000139543
0.000651592
0.00084166
0.00104823
0.00138194
0.0017935
0.0022499
0.00270672
0.00313111
0.00350985
0.00383365
0.00409754
0.000143916
0.000713443
0.00096119
0.00116533
0.00147862
0.00187252
0.00230768
0.00272891
0.00311882
0.00346863
0.00377454
0.00403551
0.000154058
0.00080895
0.00107453
0.00133117
0.00161481
0.00193609
0.00229905
0.00264314
0.00299062
0.00332145
0.00361216
0.00386288
0.000172043
0.000907792
0.00130618
0.00160171
0.00182742
0.00204387
0.0023021
0.0025819
0.00285319
0.00310866
0.00336996
0.00360836
0.000202507
0.000933377
0.00151746
0.0018811
0.0020331
0.00219573
0.00232989
0.00249785
0.00270427
0.00292354
0.0031186
0.00331062
0.000382965
0.000908654
0.00162081
0.00199007
0.00216242
0.00228597
0.00235407
0.00243345
0.00254201
0.00269042
0.00287321
0.00303351
0.000265563
0.000264633
0.000262479
0.000258908
0.000253458
0.000246707
0.000237812
0.000226912
0.000212296
0.00019347
0.000174787
8.65972e-05
0.00148351
0.00156819
0.00160453
0.00154648
0.00145569
0.00132145
0.00114639
0.000951817
0.000743076
0.000479764
0.000240886
0.00013995
0.0025947
0.00269186
0.00270997
0.00265102
0.00251824
0.00233294
0.00206643
0.00172816
0.00132687
0.000875145
0.000394853
0.00017586
0.00339921
0.00351773
0.00356234
0.00352805
0.00340061
0.00321632
0.00292742
0.00251218
0.00198963
0.00136948
0.000664121
0.000209839
0.00392813
0.00406625
0.00413762
0.00413805
0.00404911
0.00389691
0.00364175
0.00321913
0.00262121
0.00186296
0.000954722
0.00024076
0.00421094
0.00436587
0.00446109
0.00449453
0.00445258
0.00434709
0.00414099
0.00378082
0.00321762
0.00237536
0.00130195
0.00027282
0.00431
0.00446929
0.00457593
0.00463398
0.00464069
0.00459354
0.00446103
0.00418764
0.0037122
0.00288093
0.00168479
0.00030433
0.00424593
0.00441313
0.0045284
0.00460029
0.0046394
0.00464358
0.00459521
0.00444509
0.004082
0.00333262
0.00204087
0.000338909
0.00406964
0.00423887
0.0043608
0.00443582
0.0044936
0.00453652
0.00454962
0.00452404
0.00434217
0.00372403
0.00234427
0.000376342
0.00380943
0.0039769
0.00410037
0.00417513
0.00424505
0.00431305
0.00436273
0.00443681
0.00444248
0.00403653
0.00271434
0.000415094
0.003496
0.00365395
0.00376892
0.00384937
0.00393385
0.0040057
0.00407845
0.00422546
0.00438925
0.00428113
0.00317917
0.000458079
0.00317939
0.00330756
0.00341362
0.00350305
0.00361393
0.00368994
0.00379246
0.00397566
0.00422399
0.00439695
0.00371426
0.000510453
3.7739e-05
8.82439e-05
9.42791e-05
9.32325e-05
9.9885e-05
0.000155026
0.000218886
0.000243
0.000253404
0.00026085
0.000264305
0.000266055
6.68496e-05
0.000180077
0.000213998
0.00016549
0.000186913
0.000250084
0.000363165
0.000501306
0.000697287
0.000912859
0.00112227
0.00132192
9.22179e-05
0.000343613
0.00032385
0.000300715
0.000386299
0.000583064
0.000856301
0.00120397
0.00156482
0.00190317
0.00220187
0.00242922
0.000110506
0.000420257
0.000446008
0.000471233
0.000678431
0.000986253
0.0014005
0.00183364
0.00225605
0.00263378
0.00296091
0.00320249
0.000125995
0.000531785
0.000597929
0.000686495
0.000971748
0.0013621
0.00182386
0.00229189
0.00273046
0.00312299
0.00345634
0.00371125
0.000134564
0.000594193
0.000732889
0.00088582
0.00121043
0.00162905
0.00209926
0.00256891
0.00300079
0.00338875
0.00372052
0.00398475
0.000139371
0.000649887
0.000839547
0.00104504
0.00137825
0.0017888
0.00224397
0.00269969
0.00312303
0.00350089
0.00382408
0.0040875
0.000143752
0.000711737
0.000958708
0.00116178
0.00147444
0.00186741
0.00230128
0.00272129
0.00311017
0.0034591
0.00376432
0.00402466
0.000153876
0.000807272
0.00107183
0.00132746
0.0016104
0.00193071
0.00229254
0.00263528
0.00298168
0.00331172
0.00360175
0.00385188
0.000171884
0.000906426
0.0013037
0.0015983
0.00182327
0.00203858
0.00229574
0.00257432
0.00284484
0.00309911
0.00335961
0.00359739
0.000202405
0.000932547
0.00151605
0.00187922
0.0020305
0.00219162
0.00232461
0.00249127
0.0026964
0.00291522
0.00310934
0.00330045
0.000382885
0.000908272
0.00162019
0.00198899
0.0021608
0.00228345
0.00235044
0.00242863
0.00253575
0.0026827
0.0028651
0.00302444
0.000265206
0.000264283
0.000262139
0.000258586
0.000253151
0.000246424
0.000237549
0.00022668
0.000212092
0.000193302
0.000174652
8.65327e-05
0.00148028
0.00156462
0.00160088
0.00154283
0.0014522
0.00131824
0.00114372
0.000949776
0.000741666
0.000478969
0.00024061
0.000139849
0.00258849
0.00268557
0.00270381
0.00264516
0.00251261
0.00232774
0.00206171
0.00172437
0.00132419
0.000873573
0.000394255
0.000175728
0.00339112
0.00350964
0.00355453
0.00352073
0.00339348
0.00320973
0.00292103
0.00250668
0.00198554
0.00136702
0.000663169
0.000209678
0.00391881
0.0040567
0.00412809
0.00412869
0.00403984
0.00388851
0.003634
0.00321224
0.00261579
0.00185955
0.00095332
0.000240571
0.0042013
0.00435549
0.00445053
0.00448407
0.00444228
0.00433753
0.00413186
0.0037728
0.00321133
0.00237103
0.00130005
0.000272601
0.00429932
0.00445814
0.00456466
0.00462278
0.00462968
0.00458301
0.00445119
0.00417889
0.0037049
0.00287583
0.0016822
0.000304077
0.00423468
0.00440152
0.0045167
0.00458862
0.00462789
0.00463239
0.00458461
0.00443557
0.00407403
0.00332678
0.00203818
0.000338627
0.00405819
0.00422702
0.00434887
0.00442391
0.00448187
0.00452488
0.0045384
0.00451377
0.00433337
0.00371755
0.0023411
0.000376031
0.00379793
0.00396498
0.0040884
0.00416326
0.00423371
0.00430134
0.00435126
0.00442587
0.00443278
0.00402906
0.00271077
0.00041476
0.00348453
0.00364201
0.00375714
0.00383771
0.00392358
0.00399478
0.00406696
0.00421367
0.00437863
0.00427281
0.0031752
0.000457745
0.00316953
0.00329711
0.00340276
0.00349213
0.00360339
0.00367862
0.00378198
0.00396513
0.0042134
0.00438796
0.00370966
0.000510115
0.0024826
0.0024049
0.00243009
0.00246067
0.002482
0.00249562
0.00250699
0.00250541
0.00251643
0.00256767
0.00265273
0.00276829
0.00360549
0.00332589
0.00310957
0.00297901
0.0028242
0.00272154
0.00267578
0.0025969
0.00257471
0.00257244
0.00258608
0.00262739
0.00421661
0.00395254
0.0036913
0.00347491
0.00324594
0.00305105
0.00290051
0.00278023
0.0027176
0.00262023
0.00258829
0.00258534
0.00431274
0.00414727
0.00395168
0.00375066
0.00352311
0.00329869
0.00309712
0.00290377
0.0028029
0.0027294
0.00264365
0.00255722
0.00288582
0.00299474
0.00309047
0.00319366
0.00333228
0.0034238
0.00356975
0.0037748
0.0040354
0.00444439
0.004996
0.00259189
0.00269193
0.00277105
0.00286246
0.00299526
0.00313016
0.00328702
0.00346517
0.00366672
0.00389405
0.00427476
0.005058
0.00398523
0.00260865
0.00267125
0.00277277
0.00292208
0.0030813
0.00326384
0.00346225
0.00367855
0.0038933
0.00414228
0.004711
0.00449073
0.0026014
0.00272273
0.00285884
0.00300967
0.00320165
0.00342976
0.00366085
0.00386874
0.00403812
0.00416318
0.00442144
0.00442923
0.00247542
0.00239986
0.00242587
0.00245733
0.00247915
0.00249401
0.00250633
0.00250587
0.00251771
0.0025697
0.00265547
0.00277162
0.00359685
0.00331884
0.00310379
0.00297388
0.00282108
0.00271861
0.00267371
0.0025966
0.00257426
0.00257329
0.00258785
0.00263003
0.00420673
0.00394389
0.00368415
0.00346863
0.00324134
0.00304709
0.00289772
0.00277749
0.00271639
0.00262085
0.00258932
0.00258731
0.00430247
0.00413803
0.00394379
0.00374398
0.00351811
0.00329432
0.00309898
0.00289941
0.00280018
0.00272791
0.00264457
0.00255886
0.00288985
0.00299955
0.00309637
0.00320183
0.00334077
0.00343273
0.00358075
0.00378648
0.00404694
0.00445516
0.00500427
0.00259376
0.00269529
0.0027752
0.00286799
0.0030028
0.00313775
0.00329623
0.00347543
0.00367754
0.00390509
0.00428596
0.00506798
0.00399217
0.00261134
0.00267496
0.00277844
0.00292795
0.00308826
0.00327265
0.0034716
0.00368829
0.00390325
0.00415288
0.00472218
0.00450016
0.00260408
0.00272705
0.00286336
0.00301469
0.00320757
0.00343765
0.00366934
0.00387811
0.00404789
0.00417359
0.00443262
0.00443938
0.00247964
0.00240284
0.00242855
0.00245972
0.00248135
0.00249586
0.00250802
0.00250738
0.00251948
0.00257184
0.00265821
0.00277485
0.00360275
0.00332371
0.00310773
0.00297726
0.00282319
0.00272089
0.00267564
0.0025979
0.00257621
0.00257495
0.00258969
0.00263252
0.00421451
0.0039502
0.00368912
0.00347273
0.00324414
0.00304969
0.00289967
0.00277971
0.00271803
0.0026219
0.00259099
0.00258883
0.00431108
0.00414503
0.00394929
0.00374832
0.00352107
0.00329692
0.00310077
0.00290095
0.00280212
0.00272964
0.00264532
0.00255972
0.00289345
0.00300329
0.00309995
0.00320434
0.00334316
0.00343516
0.00358158
0.00378665
0.00404738
0.0044558
0.00500504
0.00259257
0.00269805
0.00277815
0.00287077
0.00300469
0.00313995
0.00329758
0.00347576
0.00367712
0.00390461
0.00428557
0.00506806
0.00399063
0.0026132
0.00267699
0.00277994
0.00292951
0.00308982
0.00327297
0.00347151
0.00368776
0.00390215
0.00415158
0.0047209
0.00449819
0.00260511
0.00272799
0.00286442
0.00301583
0.00320849
0.0034376
0.00366869
0.00387632
0.00404537
0.00417061
0.0044294
0.00443627
0.00247848
0.00240174
0.00242729
0.00245838
0.00247993
0.00249413
0.00250569
0.00250429
0.00251483
0.0025661
0.00265116
0.00276685
0.00360085
0.00332183
0.00310582
0.00297544
0.00282139
0.00271904
0.00267363
0.00259539
0.00257349
0.00257122
0.00258487
0.00262599
0.00421221
0.0039479
0.00368688
0.00347063
0.00324212
0.00304774
0.00289783
0.00277773
0.0027157
0.00261885
0.00258714
0.00258428
0.00430811
0.00414234
0.00394683
0.00374612
0.00351904
0.003295
0.00309895
0.002899
0.00280025
0.00272746
0.00264206
0.00255616
0.00288468
0.0029939
0.00309009
0.00319464
0.00333324
0.00342474
0.00357231
0.00377791
0.00403827
0.00444692
0.00499848
0.002592
0.00269074
0.00277012
0.00286213
0.00299612
0.00313071
0.00328853
0.00346745
0.00366958
0.00389714
0.00427816
0.00506158
0.00398979
0.0026076
0.00267047
0.00277295
0.00292219
0.00308168
0.00326541
0.00346414
0.00368087
0.00389663
0.00414642
0.00471627
0.00449726
0.00260071
0.00272255
0.00285847
0.00300924
0.00320148
0.00343075
0.00366273
0.0038722
0.00404336
0.0041698
0.00442923
0.00443826
0.00401544
0.00385473
0.00367675
0.00348579
0.00327296
0.00306737
0.00292365
0.00279732
0.00270816
0.00266255
0.00264794
0.00269591
0.00375281
0.00360189
0.00343495
0.00324632
0.00304872
0.00290512
0.00280466
0.00270448
0.00264302
0.00262309
0.0026368
0.00271093
0.00354067
0.00339951
0.0032341
0.00305016
0.0029018
0.00280594
0.00271756
0.00262957
0.00257488
0.00252565
0.00246101
0.0023979
0.00338185
0.00324544
0.00308651
0.00292228
0.00281389
0.00273961
0.00264752
0.00254859
0.00244844
0.00228299
0.00199111
0.00157129
0.00286689
0.00309243
0.0032865
0.00351475
0.0037418
0.00393205
0.00407776
0.00416335
0.00419625
0.0041942
0.00421775
0.00414278
0.00289226
0.00321049
0.0034749
0.00376129
0.00398002
0.00414421
0.0042264
0.00421585
0.00415666
0.00407999
0.00400222
0.00388609
0.00248932
0.00311657
0.00353464
0.0038405
0.00405459
0.00417118
0.00420713
0.00415364
0.00404949
0.00393127
0.00380839
0.00367322
0.00141005
0.00277541
0.00342536
0.00380478
0.00399732
0.00409416
0.00411024
0.00403966
0.0039207
0.00378475
0.00364636
0.00350799
0.00400623
0.00384684
0.00367006
0.00348076
0.00326948
0.00306427
0.00292219
0.00279552
0.00270725
0.00266297
0.00264982
0.00269957
0.00374466
0.00359513
0.00342984
0.00324278
0.00304589
0.00290254
0.00280361
0.00270419
0.00264344
0.00262475
0.00263948
0.00271429
0.00353348
0.00339402
0.00323026
0.00304765
0.00289977
0.00280416
0.00271733
0.00263027
0.0025761
0.00252771
0.00246349
0.00240047
0.00337552
0.00324118
0.00308372
0.00292052
0.00281376
0.00273887
0.002648
0.00254981
0.00244992
0.00228486
0.00199291
0.00157281
0.00287011
0.00309666
0.00329071
0.00351945
0.00374809
0.00394002
0.00408707
0.00417381
0.00420708
0.00420506
0.00422834
0.0041517
0.00289554
0.00321362
0.0034779
0.00376545
0.0039859
0.00415212
0.00423625
0.00422722
0.0041684
0.00409123
0.00401236
0.00389454
0.00249187
0.00311873
0.00353709
0.00384425
0.00406041
0.0041792
0.00421746
0.00416566
0.00406209
0.00394272
0.00381834
0.00368139
0.00141151
0.00277684
0.00342737
0.00380833
0.00400307
0.00410218
0.00412083
0.00405184
0.00393348
0.00379619
0.00365613
0.003516
0.00401367
0.00385277
0.00367475
0.00348404
0.00327159
0.00306646
0.00292413
0.0027968
0.00270876
0.00266406
0.00265035
0.00269994
0.00375147
0.0036005
0.00343367
0.00324536
0.00304808
0.00290492
0.00280519
0.00270527
0.00264462
0.00262544
0.00263982
0.00271463
0.00353997
0.00339887
0.00323367
0.00305006
0.00290203
0.00280646
0.00271869
0.00263121
0.00257702
0.00252818
0.00246374
0.00240073
0.00338192
0.00324564
0.003087
0.00292306
0.00281487
0.00274086
0.00264927
0.0025507
0.00245069
0.0022852
0.00199311
0.00157306
0.00287095
0.00309744
0.00329166
0.00352029
0.00374797
0.00393872
0.00408444
0.00416984
0.00420234
0.00420012
0.00422364
0.00414765
0.00289597
0.00321467
0.00347929
0.00376649
0.00398569
0.0041503
0.00423241
0.00422163
0.00416202
0.00408483
0.00400655
0.00388959
0.00249204
0.00311987
0.00353858
0.00384519
0.00405997
0.00417694
0.00421276
0.00415896
0.00405434
0.00393526
0.00381163
0.00367568
0.0014118
0.00277783
0.00342885
0.00380921
0.00400246
0.00409966
0.00411553
0.00404449
0.003925
0.00378801
0.00364875
0.00350965
0.00401011
0.0038497
0.00367205
0.00348174
0.00326951
0.00306437
0.00292206
0.0027946
0.00270636
0.00266116
0.00264688
0.00269536
0.00374728
0.00359697
0.00343071
0.00324279
0.00304561
0.00290256
0.00280279
0.00270265
0.00264174
0.00262209
0.002636
0.00271034
0.00353516
0.00339485
0.00323026
0.00304692
0.00289917
0.00280377
0.00271591
0.00262826
0.00257394
0.00252484
0.00246025
0.0023972
0.00337652
0.00324113
0.00308302
0.00291941
0.00281159
0.0027378
0.00264615
0.00254759
0.00244766
0.00228229
0.00199037
0.00157063
0.00286605
0.00309166
0.00328542
0.00351401
0.00374218
0.0039344
0.00408262
0.00417095
0.00420575
0.0042043
0.00422687
0.00415364
0.00289132
0.00320867
0.00347274
0.00376018
0.00398059
0.00414753
0.00423319
0.00422601
0.0041687
0.00409234
0.00401377
0.00389691
0.00248845
0.00311433
0.00353245
0.00383942
0.00405565
0.0041751
0.00421489
0.00416506
0.00406315
0.00394464
0.00382081
0.00368398
0.00140938
0.00277319
0.00342315
0.00380372
0.00399843
0.00409808
0.00411831
0.00405132
0.00393462
0.00379827
0.0036588
0.00351844
0.00326937
0.00314176
0.00299819
0.00285939
0.00277176
0.00269338
0.00258258
0.0024388
0.00224397
0.00188874
0.00116906
0.000332843
0.00319485
0.00308286
0.00295615
0.00284078
0.00276308
0.00266197
0.00251177
0.00231621
0.00202917
0.00155724
0.000739721
0.000174976
0.0031472
0.00305351
0.00294014
0.00284699
0.00277051
0.00263435
0.00245001
0.00220442
0.00185436
0.00134852
0.000579597
0.000141829
0.00310977
0.00303316
0.00293484
0.00286674
0.00277604
0.00261387
0.00240268
0.002119
0.00173797
0.00126905
0.000625037
0.000143925
0.00306179
0.0029988
0.00292358
0.00287554
0.00276889
0.00259643
0.00236777
0.00206302
0.00167875
0.00127948
0.000725947
0.000149992
0.00298366
0.00293705
0.00288677
0.00285254
0.00274017
0.00256916
0.00233536
0.0020263
0.00165432
0.0012818
0.000784368
0.000156261
0.00285439
0.00282763
0.00280192
0.00278091
0.00267444
0.00251391
0.00228688
0.00198605
0.0016284
0.00124664
0.000780376
0.000162678
0.00264843
0.00264427
0.00264247
0.00263654
0.00254663
0.0024038
0.00219351
0.00190863
0.00156119
0.00116607
0.000724722
0.000165729
0.00232782
0.00234689
0.00236785
0.00237927
0.00231415
0.00219477
0.00201051
0.00174845
0.0014134
0.00102642
0.000618369
0.000165062
0.00183057
0.00186883
0.00190577
0.00193438
0.00189802
0.0018065
0.00166219
0.00143836
0.0011369
0.000795827
0.000453603
0.000159975
0.00105738
0.00109626
0.00113402
0.0011631
0.00115255
0.0010981
0.00101683
0.000888749
0.000673325
0.000446712
0.000233503
0.000140821
0.00012511
0.000128642
0.000131506
0.00013344
0.000134452
0.000132819
0.000128352
0.000121188
0.000109344
9.23266e-05
7.1306e-05
4.37516e-05
0.000325696
0.00233981
0.00328428
0.003685
0.00387201
0.00396315
0.00397267
0.00389946
0.00378147
0.00365122
0.00351684
0.00338625
0.000278459
0.00217013
0.0031349
0.00352262
0.00370877
0.00379897
0.00380933
0.00374574
0.00364584
0.00353217
0.00341363
0.00329886
0.000265304
0.00204509
0.00296495
0.00333249
0.00351856
0.00361204
0.00362951
0.00358659
0.00351087
0.00342069
0.00332577
0.00323291
0.000257065
0.0019298
0.00277279
0.00311759
0.00330363
0.00340444
0.00343574
0.00341604
0.00336797
0.00330626
0.00323936
0.00317231
0.000249277
0.00180423
0.00255803
0.00287656
0.00306201
0.00317247
0.00322089
0.00322605
0.00320725
0.00317608
0.00313891
0.00309926
0.000240517
0.00165926
0.00231779
0.00260644
0.00278949
0.00290977
0.00297605
0.00300601
0.00301624
0.00301548
0.0030079
0.00299562
0.000229626
0.00148941
0.00204919
0.00230338
0.00247999
0.00260766
0.00268994
0.00274253
0.00277956
0.00280734
0.00282786
0.00284194
0.000216233
0.00128974
0.00174903
0.00196222
0.00212534
0.00225459
0.00234795
0.00241827
0.00247743
0.00252991
0.00257562
0.00261428
0.000198853
0.00105656
0.00141147
0.00157464
0.0017137
0.00183475
0.00193048
0.00201
0.00208292
0.00215296
0.0022183
0.00227792
0.000179993
0.000777301
0.00102288
0.00112585
0.00122691
0.00131989
0.00140187
0.00147671
0.00155177
0.00162886
0.00170634
0.00177349
0.00016127
0.000439589
0.000534175
0.000571758
0.000630532
0.000689335
0.000745842
0.000797742
0.000850745
0.000907204
0.000963795
0.001013
0.000243139
5.40583e-05
6.48457e-05
7.13636e-05
7.91801e-05
8.73324e-05
9.41456e-05
0.000100091
0.000105637
0.000110954
0.000115934
0.000120756
0.00326387
0.00313829
0.00299621
0.00285774
0.00277097
0.00269333
0.00258354
0.00244
0.00224542
0.00189033
0.00117013
0.000333147
0.00319003
0.00307996
0.00295452
0.00283933
0.0027623
0.00266235
0.00251273
0.00231728
0.00203044
0.00155849
0.000740606
0.000175073
0.00314289
0.00305081
0.00293849
0.00284562
0.00276996
0.00263467
0.00245068
0.0022052
0.00185526
0.00134933
0.000580119
0.000141781
0.00310576
0.00303042
0.00293298
0.00286531
0.00277532
0.00261379
0.00240288
0.0021193
0.00173834
0.00126929
0.000625051
0.000143842
0.00305783
0.00299582
0.0029214
0.00287381
0.00276771
0.00259575
0.00236733
0.00206269
0.00167846
0.0012791
0.000725541
0.000149904
0.00297962
0.0029338
0.00288425
0.00285035
0.0027384
0.00256778
0.0023342
0.00202528
0.00165339
0.00128085
0.000783563
0.000156163
0.00285027
0.00282418
0.00279908
0.0027783
0.00267215
0.00251192
0.00228508
0.00198443
0.00162695
0.00124532
0.000779342
0.00016258
0.00264445
0.00264087
0.00263957
0.00263372
0.00254404
0.00240141
0.00219131
0.00190664
0.00155942
0.00116458
0.000723661
0.000165614
0.00232441
0.0023439
0.00236522
0.00237664
0.00231162
0.00219236
0.00200826
0.00174642
0.00141161
0.00102499
0.000617427
0.00016495
0.00182798
0.00186669
0.00190387
0.00193241
0.00189602
0.00180454
0.00166038
0.00143668
0.00113537
0.000794652
0.000452877
0.000159863
0.00105625
0.00109534
0.00113319
0.00116222
0.00115146
0.00109696
0.0010158
0.000887778
0.000672286
0.000446002
0.000233118
0.000140732
0.00012498
0.000128539
0.000131411
0.000133357
0.00013439
0.000132751
0.000128284
0.000121122
0.000109283
9.22786e-05
7.12727e-05
4.37279e-05
0.000325777
0.00234065
0.00328598
0.00368828
0.00387756
0.00397111
0.0039833
0.0039117
0.00379385
0.00366231
0.00352642
0.00339414
0.000278429
0.00217078
0.00313631
0.00352558
0.00371405
0.00380676
0.00381968
0.0037574
0.00365739
0.0035429
0.00342297
0.00330669
0.000265279
0.00204573
0.00296602
0.00333511
0.00352349
0.00361946
0.00363918
0.00359747
0.00352185
0.00343099
0.00333489
0.00324068
0.000257043
0.00193041
0.00277361
0.00311987
0.00330813
0.00341135
0.00344471
0.00342618
0.00337834
0.00331612
0.00324823
0.00318004
0.000249275
0.00180479
0.00255862
0.00287848
0.00306603
0.00317875
0.00322908
0.00323539
0.00321694
0.00318544
0.00314751
0.00310689
0.000240517
0.00165976
0.00231815
0.00260798
0.00279297
0.00291534
0.00298339
0.00301449
0.00302516
0.00302425
0.0030161
0.00300305
0.000229629
0.0014898
0.00204933
0.00230454
0.00248289
0.00261243
0.00269634
0.00275002
0.00278755
0.00281532
0.00283549
0.00284896
0.000216224
0.00128999
0.00174898
0.00196301
0.00212763
0.0022585
0.00235329
0.00242461
0.00248429
0.00253687
0.00258237
0.00262059
0.000198855
0.00105671
0.00141129
0.00157512
0.00171535
0.00183772
0.00193462
0.00201499
0.00208839
0.00215859
0.00222381
0.00228315
0.000179964
0.00077747
0.00102266
0.00112609
0.00122795
0.00132181
0.00140463
0.0014802
0.00155563
0.00163287
0.00171022
0.00177704
0.00016121
0.000439615
0.000533998
0.000571805
0.000631036
0.000690316
0.000747272
0.000799471
0.000852664
0.000909095
0.000965486
0.00101462
0.00024305
5.40615e-05
6.4853e-05
7.13997e-05
7.92812e-05
8.74837e-05
9.43267e-05
0.00010028
0.000105827
0.000111133
0.000116087
0.000120893
0.00327023
0.00314279
0.00299954
0.00286091
0.00277341
0.00269526
0.00258476
0.0024411
0.00224614
0.00189049
0.00117017
0.000333155
0.00319647
0.0030846
0.00295812
0.00284292
0.00276526
0.00266424
0.00251416
0.00231858
0.00203129
0.00155888
0.000740795
0.000175158
0.00314944
0.00305574
0.00294251
0.00284961
0.00277286
0.00263671
0.00245248
0.00220677
0.00185642
0.00135002
0.000581117
0.000141865
0.00311242
0.00303561
0.00293741
0.00286951
0.0027783
0.00261621
0.00240504
0.00212122
0.00173992
0.00127054
0.000626057
0.000143943
0.00306454
0.00300129
0.00292616
0.00287819
0.00277091
0.00259855
0.00236983
0.00206496
0.00168043
0.00128058
0.000726835
0.000149978
0.00298622
0.00293943
0.00288926
0.00285485
0.00274188
0.0025709
0.00233701
0.00202783
0.00165563
0.00128271
0.000784976
0.000156254
0.00285653
0.00282972
0.00280417
0.00278282
0.00267582
0.00251521
0.00228807
0.00198711
0.00162932
0.00124744
0.000781034
0.000162657
0.00265006
0.00264594
0.00264443
0.002638
0.00254766
0.00240464
0.00219426
0.00190924
0.00156178
0.00116659
0.000725176
0.000165709
0.00232897
0.0023481
0.00236935
0.00238028
0.00231479
0.00219519
0.00201087
0.00174867
0.00141374
0.00102673
0.00061856
0.000165155
0.0018311
0.00186957
0.00190673
0.00193493
0.00189825
0.00180656
0.00166219
0.00143831
0.00113702
0.000795975
0.000453691
0.000160005
0.00105766
0.0010966
0.00113438
0.00116326
0.00115244
0.00109794
0.00101662
0.00088857
0.000673307
0.000446761
0.000233517
0.000140844
0.000125094
0.000128636
0.000131496
0.000133426
0.000134425
0.000132789
0.000128313
0.000121147
0.000109305
9.22941e-05
7.12925e-05
4.37414e-05
0.000325929
0.00234147