/*--------------------------------*- C++ -*----------------------------------*\
  =========                 |
  \\      /  F ield         | OpenFOAM: The Open Source CFD Toolbox
   \\    /   O peration     | Website:  https://openfoam.org
    \\  /    A nd           | Version:  6
     \\/     M anipulation  |
\*---------------------------------------------------------------------------*/
FoamFile
{
    version     2.0;
    format      ascii;
    class       volScalarField;
    location    "150";
    object      p;
}
// * * * * * * * * * * * * * * * * * * * * * * * * * * * * * * * * * * * * * //

dimensions      [0 2 -2 0 0 0 0];

internalField   nonuniform List<scalar> 
3072
(
0.00602054
-0.256902
-0.509088
-0.600762
-0.639551
-0.495902
-0.253867
-0.561336
-1.64895
-2.83706
-3.98381
-4.75067
0.593925
0.202474
0.0750723
0.119687
0.3405
0.80485
1.88903
2.37665
2.37648
2.1976
1.93228
1.65841
1.4868
1.11314
1.09358
1.40032
1.864
2.29957
2.77698
2.92208
2.87716
2.73114
2.53161
2.3526
2.77194
2.57299
2.78421
3.243
3.72156
4.07618
4.2542
4.33988
4.39327
4.39064
4.33857
4.28148
4.04789
4.03298
4.39604
4.89809
5.31884
5.56569
5.7417
5.83051
5.85645
5.8321
5.774
5.70584
5.22584
5.37403
5.81954
6.33154
6.74306
6.99105
7.13194
7.18114
7.17096
7.12148
7.04982
6.97141
6.31576
6.63324
7.15289
7.72733
8.1327
8.34859
8.43234
8.42766
8.37231
8.28915
8.19338
8.09719
7.41314
7.87831
8.47331
9.07838
9.45164
9.61095
9.62673
9.55955
9.45292
9.33323
9.21422
9.10357
8.53626
9.1705
9.79156
10.3507
10.6619
10.7423
10.6801
10.5505
10.3998
10.2528
10.12
10.0049
9.67429
10.4556
11.0849
11.5493
11.7419
11.7092
11.5643
11.3804
11.2004
11.0449
10.917
10.8132
10.791
11.8911
12.3909
12.6152
12.6441
12.4872
12.2662
12.0439
11.8538
11.7108
11.61
11.5394
11.4304
13.3217
13.5611
13.4197
13.2656
13.0155
12.7547
12.5347
12.3695
12.2679
12.2169
12.2004
-5.19989
-5.2169
-4.8854
-4.16905
-3.15437
-1.8564
-0.375513
1.18149
2.65753
4.02123
4.77522
4.48708
1.46569
1.37993
1.43403
1.61831
1.94345
2.3923
2.95273
3.54697
4.13629
4.92168
5.22136
4.20682
2.23638
2.22342
2.33494
2.55497
2.85601
3.22073
3.61897
3.97603
4.22751
4.49813
4.58762
3.01964
4.24036
4.23071
4.25893
4.32657
4.42715
4.54508
4.66061
4.72268
4.65623
4.48561
4.33687
2.26978
5.64245
5.5944
5.56652
5.55537
5.56037
5.57385
5.57032
5.51154
5.32938
4.9748
4.60788
2.36883
6.89577
6.82773
6.76894
6.7191
6.68037
6.64442
6.5895
6.48593
6.27941
5.92842
5.50519
3.26895
8.00637
7.92334
7.84952
7.78567
7.73369
7.68772
7.6366
7.55814
7.41339
7.14307
6.77542
4.96665
9.00402
8.91504
8.83849
8.77506
8.72815
8.69954
8.68799
8.68342
8.66656
8.59346
8.51552
7.22996
9.90649
9.81935
9.74566
9.68737
9.65236
9.65064
9.69291
9.7828
9.9304
10.1241
10.4345
10.0772
10.7283
10.6496
10.5818
10.5279
10.5019
10.5221
10.6139
10.7971
11.113
11.6041
12.4979
13.3279
11.4846
11.4206
11.3597
11.3062
11.2798
11.3064
11.4264
11.6716
12.1152
12.8634
14.4388
16.9652
12.1903
12.1522
12.0968
12.0382
11.9993
12.0129
12.1277
12.3697
12.8431
13.681
15.5046
19.7198
0.00601542
-0.255794
-0.507025
-0.596872
-0.634511
-0.491695
-0.249007
-0.545015
-1.62638
-2.81152
-3.958
-4.72576
0.592984
0.207233
0.0784196
0.121133
0.342688
0.800393
1.87854
2.37577
2.37891
2.2048
1.94092
1.66845
1.48297
1.10975
1.08886
1.39236
1.85611
2.29136
2.77067
2.92315
2.88083
2.73804
2.53957
2.36152
2.76098
2.56139
2.77068
3.23024
3.71181
4.06998
4.25208
4.34024
4.39483
4.39398
4.34308
4.28686
4.03692
4.01996
4.3821
4.8853
5.30926
5.56031
5.73923
5.83017
5.85772
5.83475
5.77786
5.71035
5.21556
5.36116
5.80666
6.32016
6.7347
6.9858
7.12915
7.18064
7.17179
7.12389
7.05306
6.97553
6.3074
6.62181
7.14139
7.71639
8.12483
8.34321
8.4295
8.4267
8.37302
8.29111
8.1965
8.10097
7.40548
7.86784
8.46172
9.06747
9.44334
9.60532
9.62351
9.5583
9.4533
9.33497
9.21708
9.10718
8.52878
9.1606
9.78008
10.34
10.6535
10.7365
10.6766
10.5489
10.3999
10.2543
10.1226
10.0083
9.66656
10.4458
11.0738
11.5391
11.7337
11.7034
11.5609
11.3788
11.2003
11.0462
10.9193
10.8164
10.783
11.881
12.38
12.6056
12.6367
12.482
12.263
12.0424
11.8537
11.712
11.6121
11.5423
11.4232
13.3113
13.5514
13.4115
13.2594
13.0112
12.7521
12.5335
12.3696
12.269
12.2188
12.2028
-5.17734
-5.1971
-4.86913
-4.15639
-3.14546
-1.85083
-0.372998
1.18152
2.65576
4.01828
4.77138
4.48333
1.47525
1.38884
1.44142
1.62406
1.94737
2.39444
2.95321
3.546
4.13433
4.91908
5.21822
4.20394
2.24514
2.23134
2.34155
2.56039
2.86
3.22329
3.6201
3.97595
4.22664
4.4966
4.58573
3.01811
4.24601
4.23624
4.2639
4.33082
4.43044
4.54737
4.66187
4.72306
4.65596
4.48491
4.3359
2.26925
5.64743
5.59938
5.57117
5.55942
5.56358
5.57633
5.57187
5.51246
5.32985
4.97516
4.60706
2.36932
6.90009
6.83223
6.77329
6.72286
6.68369
6.64683
6.59134
6.48716
6.28042
5.92897
5.5046
3.26966
8.01056
7.92764
7.85366
7.78945
7.73682
7.69026
7.63842
7.55946
7.41402
7.14393
6.77516
4.9664
9.00805
8.91924
8.8425
8.77869
8.73118
8.70192
8.68964
8.68446
8.66749
8.59342
8.51568
7.22969
9.91034
9.82342
9.74956
9.69087
9.65525
9.65282
9.69432
9.78365
9.93048
10.1244
10.4346
10.0769
10.7319
10.6535
10.5856
10.5312
10.5046
10.5241
10.615
10.7975
11.113
11.6039
12.4978
13.3281
11.488
11.4245
11.3633
11.3094
11.2824
11.3082
11.4273
11.6718
12.1147
12.8624
14.4391
16.966
12.1936
12.1559
12.1002
12.0414
12.0017
12.0146
12.1286
12.3699
12.8423
13.6801
15.504
19.7226
0.00884168
-0.252668
-0.503303
-0.592872
-0.630622
-0.487025
-0.244763
-0.546488
-1.6322
-2.82066
-3.96934
-4.73858
0.596215
0.211158
0.0832307
0.126315
0.348044
0.808168
1.88726
2.38085
2.38159
2.20442
1.93867
1.66455
1.48559
1.11308
1.09299
1.39783
1.86183
2.29757
2.77619
2.92563
2.88128
2.73624
2.53651
2.35723
2.76326
2.56403
2.77453
3.23508
3.71651
4.07384
4.25434
4.34119
4.39493
4.39284
4.34089
4.2838
4.03948
4.02277
4.3859
4.88986
5.31341
5.56324
5.74094
5.83093
5.85747
5.8336
5.77565
5.70746
5.21861
5.36437
5.81062
6.32447
6.73859
6.9886
7.1311
7.18137
7.17171
7.12258
7.05104
6.97256
6.31069
6.62518
7.14536
7.72107
8.12892
8.34652
8.43167
8.42787
8.37296
8.29009
8.19441
8.09816
7.4091
7.87136
8.46619
9.07261
9.44812
9.60914
9.62623
9.55978
9.45361
9.33415
9.21522
9.10448
8.53261
9.16431
9.78487
10.3455
10.6587
10.7408
10.6798
10.5508
10.4005
10.2537
10.121
10.0058
9.67054
10.4496
11.0789
11.5447
11.7391
11.708
11.5643
11.381
11.2013
11.0461
10.9181
10.8142
10.7869
11.8854
12.3855
12.6113
12.6419
12.4864
12.2664
12.0447
11.8549
11.7122
11.6112
11.5405
11.4264
13.316
13.5566
13.4171
13.2644
13.0155
12.7555
12.5359
12.371
12.2694
12.2182
12.2014
-5.19052
-5.20986
-4.88057
-4.16586
-3.15249
-1.85521
-0.374653
1.18242
2.65876
4.02285
4.77709
4.48894
1.47068
1.38404
1.43703
1.62046
1.94486
2.39326
2.95348
3.54771
4.1372
4.92279
5.22266
4.20796
2.24024
2.22637
2.33696
2.55637
2.85682
3.22113
3.61913
3.97613
4.2277
4.49842
4.58797
3.01958
4.2424
4.23236
4.26008
4.32732
4.42745
4.54508
4.66039
4.72234
4.65585
4.48518
4.33646
2.26884
5.64385
5.59552
5.56722
5.55559
5.56024
5.57345
5.5697
5.5108
5.32859
4.97396
4.60694
2.36744
6.89672
6.82838
6.76921
6.71891
6.67991
6.64368
6.58857
6.48492
6.27839
5.9274
5.50436
3.26744
8.00713
7.92379
7.84954
7.78528
7.73294
7.6867
7.63542
7.55694
7.41231
7.14225
6.77481
4.96618
9.0047
8.91536
8.83837
8.77448
8.72719
8.69829
8.68661
8.68212
8.66554
8.59297
8.51572
7.23063
9.90714
9.81963
9.74546
9.68669
9.65126
9.64924
9.69139
9.78141
9.92946
10.1239
10.4357
10.0795
10.729
10.6499
10.5816
10.5272
10.5007
10.5206
10.6123
10.7957
11.1121
11.6043
12.5
13.3321
11.4854
11.421
11.3595
11.3055
11.2786
11.3049
11.4248
11.6701
12.1142
12.8635
14.4416
16.9713
12.1912
12.1527
12.0966
12.0376
11.9983
12.0116
12.1263
12.3683
12.8419
13.6806
15.5068
19.7268
0.00566038
-0.256316
-0.50766
-0.597398
-0.635
-0.491735
-0.248995
-0.546925
-1.63039
-2.81708
-3.96453
-4.73262
0.59243
0.206307
0.0775917
0.12049
0.342468
0.801438
1.88009
2.37631
2.37825
2.20288
1.93805
1.66493
1.48209
1.10831
1.08751
1.39125
1.85528
2.29065
2.76981
2.92126
2.87802
2.7344
2.53535
2.35709
2.75994
2.55981
2.76897
3.22876
3.71059
4.06856
4.24998
4.33762
4.3918
4.39057
4.33942
4.28313
4.03621
4.01864
4.38079
4.88431
5.30828
5.55852
5.73681
5.82729
5.85445
5.83116
5.7741
5.70657
5.21545
5.36013
5.8059
6.31976
6.73387
6.98421
7.12696
7.17791
7.16862
7.12041
7.04939
6.97185
6.3079
6.62107
7.1411
7.71658
8.12467
8.34237
8.42789
8.4244
8.37016
8.28786
8.19301
8.0974
7.40635
7.8673
8.46194
9.06863
9.44436
9.60546
9.6227
9.55661
9.45091
9.33207
9.21384
9.10381
8.52994
9.16036
9.78102
10.342
10.6555
10.7376
10.6766
10.5479
10.398
10.2518
10.1197
10.0052
9.66803
10.446
11.0755
11.5419
11.7364
11.7051
11.5614
11.3782
11.199
11.0442
10.9169
10.8136
10.7843
11.882
12.3823
12.6088
12.6394
12.4837
12.2637
12.0422
11.8527
11.7104
11.61
11.5399
11.4238
13.3127
13.5538
13.4144
13.2616
13.0126
12.7527
12.5334
12.3688
12.2677
12.2171
12.2009
-5.18404
-5.20329
-4.87462
-4.16107
-3.14935
-1.85401
-0.3756
1.17939
2.65393
4.0167
4.77
4.48191
1.47147
1.38505
1.43786
1.62084
1.94452
2.39197
2.95108
3.54417
4.13267
4.91763
5.21688
4.20254
2.24079
2.22735
2.33802
2.55726
2.85732
3.22101
3.61817
3.97424
4.22505
4.49517
4.58442
3.01679
4.24238
4.23285
4.26082
4.32806
4.42804
4.54528
4.66005
4.72144
4.65445
4.48351
4.33462
2.2679
5.6438
5.59596
5.56811
5.55677
5.56127
5.5743
5.57011
5.51085
5.32832
4.97359
4.60579
2.3677
6.89653
6.82893
6.77031
6.72031
6.68143
6.6449
6.58964
6.48561
6.27887
5.92737
5.50311
3.26778
8.00711
7.92442
7.85079
7.78694
7.73468
7.68842
7.63683
7.55799
7.41255
7.14227
6.77336
4.9642
9.00474
8.91613
8.83972
8.77629
8.72916
8.70022
8.68818
8.68312
8.66608
8.59174
8.5135
7.22701
9.90725
9.82046
9.7469
9.68857
9.65334
9.65126
9.69302
9.78247
9.92922
10.1227
10.4322
10.0736
10.7291
10.6508
10.5831
10.529
10.5028
10.5226
10.6138
10.7965
11.1119
11.6025
12.4952
13.3243
11.4855
11.4219
11.3609
11.3073
11.2806
11.3068
11.4262
11.671
12.1139
12.8614
14.4366
16.9618
12.1913
12.1534
12.0979
12.0393
11.9999
12.0131
12.1274
12.3691
12.8418
13.6797
15.5023
19.7187
14.0611
14.205
13.9326
13.6793
13.4468
13.1958
12.9786
12.8237
12.7349
12.7189
12.7507
12.8127
13.7282
13.3852
13.3382
13.2321
13.1223
13.0126
12.9346
12.9111
12.9521
13.0662
13.22
13.3991
13.2569
13.0056
12.9066
12.8027
12.7446
12.7359
12.7785
12.8898
13.072
13.3361
13.6376
13.9865
12.6849
12.4416
12.2981
12.22
12.2302
12.3347
12.5187
12.7829
13.1308
13.5891
14.09
14.6344
12.8652
12.8615
12.8101
12.7388
12.6732
12.6535
12.7295
12.9184
13.2906
13.9258
14.6316
16.5723
13.5367
13.5598
13.5147
13.4195
13.3103
13.2342
13.2283
13.3374
13.5622
14.01
14.2643
14.7963
14.2221
14.2537
14.2149
14.0901
13.9244
13.7691
13.6398
13.6236
13.6521
13.845
13.8637
13.8876
15.1745
15.2105
15.105
14.8976
14.631
14.3493
14.0763
13.8523
13.5736
13.4281
13.2054
13.0873
14.0537
14.1957
13.9241
13.6724
13.4416
13.1924
12.9766
12.8228
12.735
12.7198
12.7524
12.8148
13.7229
13.3785
13.3315
13.2264
13.1178
13.0095
12.9327
12.9101
12.9521
13.0669
13.2213
13.401
13.2529
13.0009
12.9015
12.798
12.7405
12.7326
12.7762
12.8884
13.0714
13.3363
13.6386
13.988
12.6817
12.4382
12.2941
12.2159
12.2263
12.3312
12.5158
12.7809
13.1296
13.5887
14.0904
14.6355
12.8678
12.865
12.8137
12.742
12.6757
12.6554
12.7306
12.9189
13.2903
13.924
14.6308
16.5738
13.5387
13.5628
13.5184
13.4226
13.3129
13.2362
13.2299
13.3381
13.5624
14.0096
14.2634
14.7975
14.2242
14.2565
14.2184
14.0932
13.9272
13.7714
13.6417
13.6247
13.6532
13.8454
13.8638
13.8885
15.1766
15.2129
15.108
14.9006
14.6337
14.3516
14.0782
13.8538
13.5752
13.4296
13.207
13.0884
14.0567
14.2002
13.9293
13.6777
13.4465
13.1966
12.9801
12.8255
12.7367
12.7206
12.7521
12.8137
13.7255
13.3824
13.336
13.2313
13.1227
13.014
12.9366
12.9133
12.9544
13.0681
13.2215
13.4002
13.2547
13.0037
12.9051
12.8023
12.7452
12.7374
12.7806
12.8923
13.0744
13.3382
13.6393
13.9876
12.6832
12.4404
12.2973
12.2199
12.2311
12.3365
12.5211
12.7857
13.1335
13.5914
14.0916
14.6353
12.8658
12.8622
12.8103
12.7385
12.6725
12.6525
12.7284
12.9171
13.2894
13.9247
14.6313
16.5753
13.5371
13.5604
13.5153
13.4194
13.3099
13.2336
13.2276
13.3363
13.5612
14.009
14.2633
14.797
14.2228
14.2544
14.2156
14.0904
13.9245
13.7689
13.6395
13.623
13.6513
13.8441
13.8626
13.8871
15.1752
15.2111
15.1058
14.8983
14.6315
14.3495
14.0763
13.8521
13.5731
13.4275
13.2045
13.0863
14.0547
14.1974
13.9264
13.675
13.4436
13.1936
12.9772
12.8228
12.7345
12.7189
12.7511
12.8132
13.7235
13.3796
13.3331
13.2284
13.1197
13.0109
12.9337
12.9107
12.9522
13.0665
13.2205
13.3998
13.2526
13.0012
12.9023
12.7994
12.7422
12.7345
12.7779
12.8898
13.0724
13.3366
13.6382
13.9871
12.6808
12.4377
12.2943
12.217
12.2282
12.3336
12.5185
12.7835
13.1317
13.59
14.0906
14.635
12.866
12.8627
12.8113
12.7398
12.6738
12.6537
12.7292
12.918
13.2898
13.9241
14.631
16.5735
13.5373
13.5607
13.5159
13.4203
13.3107
13.2343
13.2282
13.3369
13.5616
14.0097
14.2645
14.7988
14.2228
14.2545
14.2158
14.0907
13.9248
13.7691
13.6395
13.623
13.6521
13.8451
13.8646
13.8905
15.1751
15.2111
15.1055
14.898
14.6311
14.349
14.0757
13.8516
13.5734
13.4289
13.2077
13.0907
12.6243
12.4
12.2426
12.1711
12.1973
12.3229
12.5366
12.8296
13.2016
13.6403
14.1278
14.6064
12.9247
12.7303
12.5901
12.5202
12.5296
12.621
12.7842
13.0048
13.2881
13.5896
13.9085
14.2424
13.1683
13.0033
12.8863
12.8289
12.8355
12.9071
13.0279
13.1925
13.3819
13.5755
13.7828
14.0076
13.3949
13.2547
13.1565
13.1101
13.115
13.1669
13.2481
13.3412
13.4492
13.5697
13.6909
13.7369
15.249
15.4189
15.4176
15.2538
15
14.6923
14.3652
14.0412
13.6814
13.3984
13.0866
12.9021
14.9423
15.1296
15.1859
15.0921
14.9164
14.6978
14.4477
14.1888
13.9046
13.6504
13.3716
13.1667
14.837
15.0324
15.1139
15.0557
14.9239
14.7482
14.5411
14.3146
14.0652
13.8279
13.579
13.378
14.9244
15.0712
15.1102
15.0634
14.9527
14.8043
14.6245
14.4236
14.2021
13.9845
13.7618
13.5746
12.6222
12.3978
12.24
12.1679
12.1939
12.3197
12.5338
12.8274
13.2
13.6395
14.1279
14.6072
12.9223
12.7282
12.5877
12.5178
12.527
12.6185
12.7821
13.0032
13.287
13.5892
13.9086
14.243
13.1669
13.0021
12.885
12.8273
12.8337
12.9054
13.0265
13.1914
13.3811
13.5754
13.783
14.0082
13.3937
13.254
13.1555
13.1092
13.1139
13.1659
13.2473
13.3404
13.4488
13.5696
13.6912
13.7374
15.2509
15.4213
15.4203
15.2567
15.0029
14.6949
14.3673
14.043
13.683
13.4004
13.0879
12.9035
14.9439
15.1318
15.1885
15.0948
14.9192
14.7003
14.4497
14.1906
13.9063
13.6519
13.3736
13.1681
14.8387
15.0346
15.1165
15.0584
14.9265
14.7504
14.543
14.3163
14.0667
13.8297
13.5803
13.3797
14.9264
15.0736
15.1128
15.066
14.9551
14.8064
14.6263
14.4252
14.2035
13.9857
13.7635
13.5759
12.6234
12.3995
12.2424
12.1716
12.1985
12.3249
12.5392
12.8324
13.2042
13.6426
14.1297
14.6075
12.924
12.7304
12.5906
12.5213
12.5313
12.6233
12.787
13.0077
13.2908
13.5922
13.9107
14.2439
13.1685
13.0041
12.8876
12.8307
12.8377
12.9097
13.0309
13.1955
13.3846
13.5783
13.7852
14.0094
13.3955
13.2561
13.1582
13.1124
13.1176
13.1699
13.2512
13.3441
13.4521
13.5725
13.6935
13.7393
15.2497
15.4196
15.4183
15.2545
15.0007
14.6927
14.3653
14.0411
13.6811
13.398
13.0858
12.9012
14.9431
15.1302
15.1865
15.0927
14.917
14.6982
14.4478
14.1888
13.9044
13.6501
13.3712
13.1662
14.838
15.0331
15.1146
15.0563
14.9243
14.7485
14.5412
14.3146
14.065
13.8277
13.5787
13.3777
14.9257
15.072
15.1109
15.064
14.9532
14.8045
14.6247
14.4236
14.202
13.9844
13.7616
13.5744
12.6213
12.3972
12.2401
12.1688
12.1956
12.3221
12.5366
12.8303
13.2025
13.6412
14.1287
14.607
12.9218
12.7281
12.588
12.5186
12.5285
12.6205
12.7844
13.0055
13.289
13.5908
13.9097
14.2433
13.1667
13.0021
12.8854
12.8282
12.8351
12.9071
13.0283
13.1933
13.3827
13.577
13.7842
14.0089
13.3936
13.2541
13.1559
13.11
13.1151
13.1673
13.2487
13.3419
13.4503
13.5711
13.6925
13.7387
15.2494
15.4193
15.4179
15.2541
15.0003
14.6922
14.3647
14.0406
13.6809
13.399
13.0877
12.9051
14.9427
15.13
15.1862
15.0924
14.9167
14.6977
14.4472
14.1881
13.9039
13.6499
13.3723
13.169
14.8374
15.0328
15.1143
15.056
14.9239
14.7478
14.5404
14.3137
14.0641
13.8272
13.5781
13.3794
14.9246
15.0716
15.1105
15.0636
14.9526
14.8038
14.6236
14.4223
14.2006
13.9827
13.7605
13.575
13.6107
13.4942
13.4149
13.3787
13.3796
13.3965
13.4207
13.4494
13.4857
13.5252
13.5971
13.427
13.8084
13.7136
13.65
13.6147
13.5977
13.5805
13.5534
13.5155
13.4825
13.4515
13.5216
13.4622
13.9797
13.9006
13.8439
13.8069
13.7729
13.7197
13.6406
13.5422
13.4525
13.39
13.4406
13.4437
14.1225
14.0537
14.0011
13.9579
13.9027
13.8146
13.6907
13.5431
13.415
13.3474
13.381
13.4246
14.2366
14.1743
14.1224
14.0698
13.9934
13.8752
13.7154
13.5326
13.3829
13.3154
13.3469
13.4207
14.3257
14.2664
14.2129
14.1498
14.0549
13.9125
13.7266
13.5221
13.3639
13.3016
13.3458
13.4333
14.3937
14.3358
14.2794
14.2065
14.0966
13.9365
13.7335
13.5179
13.36
13.3072
13.3668
13.4629
14.4458
14.3886
14.3292
14.2482
14.1274
13.9554
13.7424
13.5227
13.3698
13.3272
13.4007
13.5038
14.4864
14.4306
14.3693
14.283
14.1552
13.976
13.7578
13.537
13.3902
13.3554
13.4387
13.5487
14.5219
14.4703
14.4109
14.3239
14.1927
14.0095
13.7862
13.5625
13.4178
13.3839
13.4721
13.5922
14.5589
14.5168
14.4662
14.3862
14.2562
14.0698
13.8385
13.6031
13.451
13.4078
13.4992
13.6305
14.5889
14.5554
14.5128
14.4385
14.3153
14.1334
13.9004
13.6608
13.4832
13.4332
13.5205
13.639
15.3309
15.2121
15.1382
15.0829
14.9836
14.8544
14.6966
14.5183
14.3223
14.1266
13.9311
13.7635
15.3594
15.2632
15.158
15.1022
15.0131
14.8989
14.759
14.6004
14.427
14.2535
14.0828
13.9362
15.3598
15.2611
15.1728
15.1199
15.0404
14.9381
14.8128
14.6707
14.5168
14.3629
14.2147
14.0875
15.3426
15.2496
15.1826
15.1353
15.0647
14.9721
14.8586
14.7303
14.5925
14.4556
14.3256
14.2145
15.3163
15.2353
15.1888
15.1481
15.0856
15.0008
14.8968
14.7795
14.6548
14.5316
14.4165
14.3181
15.2875
15.2199
15.192
15.1582
15.1028
15.0242
14.9276
14.8193
14.7051
14.5929
14.4891
14.4
15.2607
15.2054
15.1931
15.1655
15.1159
15.0422
14.9513
14.8501
14.7444
14.6408
14.546
14.4637
15.2397
15.1941
15.1922
15.1698
15.1248
15.0546
14.968
14.8727
14.774
14.6776
14.5899
14.5126
15.2272
15.1872
15.1892
15.1705
15.1286
15.0605
14.9773
14.8869
14.7945
14.7044
14.6233
14.5503
15.2236
15.1862
15.1823
15.1645
15.1236
15.0575
14.9772
14.8919
14.8058
14.7225
14.6488
14.5808
15.2255
15.1899
15.1712
15.1492
15.107
15.0441
14.9675
14.8875
14.808
14.7326
14.6681
14.6083
15.2354
15.1938
15.1628
15.1334
15.0912
15.0313
14.9582
14.882
14.8078
14.738
14.6777
14.6303
13.6106
13.4944
13.415
13.3786
13.3793
13.396
13.4201
13.4489
13.4854
13.5252
13.5972
13.4273
13.8084
13.7143
13.6503
13.615
13.5978
13.5803
13.553
13.5151
13.4821
13.4514
13.5216
13.4623
13.9806
13.9019
13.8448
13.8075
13.7732
13.7196
13.6402
13.5417
13.4521
13.3898
13.4405
13.4437
14.1235
14.0551
14.002
13.9587
13.903
13.8145
13.6903
13.5425
13.4146
13.3471
13.3809
13.4246
14.2381
14.1759
14.1235
14.0706
13.9937
13.875
13.7149
13.5321
13.3825
13.3152
13.3469
13.4208
14.3271
14.268
14.2139
14.1505
14.055
13.9122
13.726
13.5215
13.3635
13.3015
13.3458
13.4334
14.3953
14.3373
14.2804
14.207
14.0966
13.9361
13.7328
13.5172
13.3596
13.307
13.3669
13.463
14.4472
14.3899
14.3299
14.2486
14.1272
13.9549
13.7417
13.522
13.3694
13.3271
13.4008
13.504
14.4878
14.4317
14.3699
14.2832
14.1548
13.9753
13.757
13.5363
13.3898
13.3553
13.4388
13.5489
14.5232
14.4712
14.4112
14.3238
14.1922
14.0086
13.7853
13.5617
13.4175
13.3838
13.4723
13.5924
14.5599
14.5175
14.4663
14.3858
14.2555
14.0687
13.8374
13.6022
13.4506
13.4077
13.4993
13.6307
14.5897
14.5559
14.5128
14.438
14.3145
14.1323
13.8993
13.6599
13.4828
13.4332
13.5207
13.6392
15.3332
15.2147
15.1408
15.0854
14.9859
14.8564
14.6983
14.5197
14.3235
14.1279
13.9321
13.7649
15.3617
15.2658
15.1606
15.1047
15.0153
14.9008
14.7606
14.6016
14.4281
14.2544
14.0841
13.9373
15.3623
15.2637
15.1753
15.1223
15.0425
14.9399
14.8143
14.6718
14.5177
14.3638
14.2154
14.0885
15.3452
15.2522
15.1852
15.1377
15.0669
14.9739
14.8601
14.7314
14.5934
14.4563
14.3265
14.2153
15.3189
15.2379
15.1913
15.1505
15.0877
15.0026
14.8982
14.7806
14.6557
14.5323
14.4171
14.3188
15.2901
15.2224
15.1946
15.1606
15.1049
15.0261
14.9291
14.8204
14.706
14.5935
14.4899
14.4007
15.2634
15.208
15.1956
15.1679
15.1181
15.044
14.9528
14.8513
14.7453
14.6416
14.5467
14.4645
15.2423
15.1967
15.1948
15.1722
15.127
15.0565
14.9696
14.8739
14.775
14.6784
14.5907
14.5133
15.2298
15.1897
15.1918
15.173
15.1309
15.0625
14.9789
14.8882
14.7956
14.7053
14.6242
14.5511
15.2262
15.1887
15.1849
15.167
15.1259
15.0595
14.9788
14.8933
14.8069
14.7234
14.6497
14.5817
15.2281
15.1925
15.1737
15.1517
15.1093
15.046
14.9692
14.8888
14.8092
14.7336
14.6692
14.6093
15.238
15.1963
15.1653
15.1358
15.0935
15.0333
14.9599
14.8834
14.809
14.739
14.6788
14.6314
13.612
13.4962
13.4171
13.3814
13.3824
13.3994
13.4236
13.4524
13.4887
13.5281
13.5998
13.4297
13.8098
13.716
13.6524
13.6174
13.6005
13.5834
13.5562
13.5184
13.4854
13.4543
13.5242
13.4648
13.9816
13.9032
13.8463
13.8096
13.7756
13.7224
13.6433
13.545
13.4554
13.3928
13.4431
13.4463
14.1245
14.0563
14.0035
13.9605
13.9051
13.8172
13.6933
13.5459
13.4179
13.3501
13.3836
13.4272
14.2389
14.1768
14.1247
14.0722
13.9957
13.8775
13.7179
13.5354
13.3858
13.3182
13.3496
13.4234
14.328
14.2689
14.2151
14.152
14.0569
13.9147
13.729
13.5249
13.3669
13.3045
13.3486
13.436
14.396
14.3382
14.2815
14.2085
14.0984
13.9386
13.7357
13.5207
13.363
13.3101
13.3696
13.4655
14.4481
14.3909
14.3311
14.2501
14.1291
13.9574
13.7446
13.5254
13.3727
13.3302
13.4035
13.5064
14.4887
14.4328
14.3711
14.2848
14.1566
13.978
13.7597
13.5399
13.393
13.3583
13.4415
13.5512
14.5242
14.4724
14.4126
14.3254
14.1941
14.0112
13.7882
13.5652
13.4206
13.3868
13.4748
13.5946
14.561
14.5187
14.4678
14.3875
14.2575
14.0713
13.8404
13.6056
13.4537
13.4106
13.5018
13.6328
14.5909
14.5572
14.5142
14.4398
14.3165
14.1348
13.9022
13.6633
13.4859
13.436
13.5231
13.6413
15.3321
15.213
15.1388
15.0834
14.984
14.8547
14.6968
14.5183
14.3223
14.1265
13.9309
13.7634
15.3603
15.264
15.1587
15.1027
15.0135
14.8992
14.7592
14.6004
14.427
14.2534
14.0827
13.9362
15.3607
15.2619
15.1734
15.1204
15.0407
14.9384
14.8129
14.6708
14.5168
14.3628
14.2146
14.0874
15.3434
15.2503
15.1832
15.1358
15.0651
14.9724
14.8588
14.7304
14.5925
14.4556
14.3256
14.2146
15.3171
15.236
15.1893
15.1486
15.086
15.0011
14.897
14.7796
14.6549
14.5316
14.4166
14.3182
15.2882
15.2205
15.1925
15.1586
15.1032
15.0246
14.9278
14.8194
14.7052
14.593
14.4892
14.4002
15.2615
15.206
15.1935
15.1659
15.1163
15.0425
14.9515
14.8503
14.7445
14.6409
14.5462
14.4639
15.2404
15.1947
15.1926
15.1702
15.1252
15.0549
14.9683
14.8729
14.7741
14.6777
14.5901
14.5128
15.228
15.1877
15.1896
15.1709
15.129
15.0609
14.9776
14.8872
14.7947
14.7046
14.6236
14.5506
15.2245
15.1866
15.1826
15.1648
15.124
15.0579
14.9775
14.8922
14.806
14.7227
14.6491
14.5811
15.2261
15.1902
15.1714
15.1495
15.1074
15.0444
14.9678
14.8877
14.8082
14.7329
14.6685
14.6087
15.2363
15.1943
15.1631
15.1337
15.0915
15.0316
14.9585
14.8822
14.808
14.7383
14.6781
14.6308
13.6105
13.4945
13.4154
13.3793
13.3802
13.3971
13.4213
13.4502
13.4868
13.5267
13.5987
13.4294
13.8085
13.7145
13.6507
13.6156
13.5986
13.5812
13.5539
13.5162
13.4835
13.453
13.5233
13.4642
13.9806
13.9021
13.8452
13.8081
13.7739
13.7203
13.641
13.5427
13.4534
13.3915
13.4423
13.4456
14.1236
14.0554
14.0024
13.9592
13.9035
13.8151
13.691
13.5434
13.4159
13.3488
13.3827
13.4265
14.2383
14.1762
14.124
14.0711
13.9942
13.8755
13.7156
13.533
13.3838
13.3169
13.3487
13.4226
14.3274
14.2683
14.2144
14.151
14.0555
13.9127
13.7266
13.5224
13.3648
13.3031
13.3476
13.4351
14.3956
14.3377
14.2808
14.2075
14.0971
13.9366
13.7334
13.5181
13.3609
13.3086
13.3686
13.4646
14.4476
14.3903
14.3304
14.2491
14.1277
13.9554
13.7423
13.5229
13.3707
13.3287
13.4024
13.5056
14.4882
14.4323
14.3705
14.2838
14.1554
13.9759
13.7576
13.5372
13.3911
13.3568
13.4404
13.5504
14.5236
14.4717
14.4118
14.3244
14.1928
14.0092
13.7859
13.5626
13.4187
13.3853
13.4738
13.5939
14.5604
14.5181
14.467
14.3866
14.2561
14.0694
13.8381
13.6031
13.4518
13.4092
13.5008
13.6321
14.5903
14.5566
14.5135
14.4388
14.3152
14.1329
13.8999
13.6608
13.4839
13.4346
13.5222
13.6406
15.3304
15.2122
15.1383
15.0829
14.9834
14.8538
14.6955
14.5167
14.3204
14.1245
13.9285
13.7632
15.3589
15.2631
15.1581
15.1021
15.0128
14.8982
14.7578
14.5986
14.4248
14.2508
14.0801
13.9351
15.3594
15.261
15.1728
15.1198
15.04
14.9373
14.8115
14.6688
14.5144
14.3601
14.2113
14.0858
15.3423
15.2495
15.1826
15.1352
15.0643
14.9713
14.8573
14.7284
14.5901
14.4526
14.3224
14.2125
15.3161
15.2352
15.1887
15.1479
15.0852
15
14.8955
14.7777
14.6525
14.5287
14.4131
14.3159
15.2873
15.2198
15.1919
15.158
15.1024
15.0235
14.9264
14.8175
14.7029
14.5901
14.4861
14.3977
15.2607
15.2054
15.193
15.1653
15.1156
15.0415
14.9502
14.8485
14.7423
14.6383
14.5431
14.4614
15.2396
15.194
15.1921
15.1696
15.1245
15.054
14.967
14.8712
14.7721
14.6752
14.5873
14.5104
15.2271
15.1871
15.1891
15.1704
15.1284
15.06
14.9764
14.8855
14.7928
14.7023
14.621
14.5482
15.2235
15.1861
15.1822
15.1644
15.1234
15.057
14.9763
14.8906
14.8042
14.7205
14.6467
14.5789
15.2254
15.1898
15.1711
15.1491
15.1068
15.0436
14.9667
14.8862
14.8064
14.7307
14.6663
14.6066
15.2353
15.1937
15.1627
15.1333
15.091
15.0309
14.9574
14.8807
14.8063
14.7362
14.676
14.6289
)
;

boundaryField
{
    rotor
    {
        type            zeroGradient;
    }
    stator
    {
        type            zeroGradient;
    }
    front
    {
        type            empty;
    }
    back
    {
        type            empty;
    }
}


// ************************************************************************* //
