/*--------------------------------*- C++ -*----------------------------------*\
| =========                 |                                                 |
| \\      /  F ield         | foam-extend: Open Source CFD                    |
|  \\    /   O peration     | Version:     4.0                                |
|   \\  /    A nd           | Web:         http://www.foam-extend.org         |
|    \\/     M anipulation  |                                                 |
\*---------------------------------------------------------------------------*/
FoamFile
{
    version     2.0;
    format      ascii;
    class       volScalarField;
    location    "1350";
    object      alphat;
}
// * * * * * * * * * * * * * * * * * * * * * * * * * * * * * * * * * * * * * //

dimensions      [1 -1 -1 0 0 0 0];

internalField   nonuniform List<scalar> 
34480
(
0.00188827
0.00188702
0.00188685
0.00188768
0.0018898
0.00189371
0.00190125
0.00191952
0.00195879
0.00203006
0.0159169
0.0151059
0.0148045
0.0145352
0.0129164
0.00823933
0.003406
0.00134842
0.000985283
0.00145567
0.0442587
0.0425961
0.0409054
0.0374584
0.0286481
0.0146672
0.00511455
0.00182807
0.00124113
0.00181219
0.0484072
0.0462458
0.0443013
0.0402581
0.0296807
0.0141424
0.00478806
0.00177484
0.00128771
0.0019781
0.0477262
0.0453029
0.0435349
0.0396892
0.0288166
0.0131672
0.00440215
0.00168369
0.00129946
0.00209747
0.0459769
0.0434892
0.0418254
0.0380333
0.0268004
0.011593
0.00385152
0.00155253
0.0013062
0.00222559
0.0438477
0.041521
0.0400575
0.0364373
0.025233
0.010529
0.00348759
0.00146037
0.00131391
0.00233556
0.0364003
0.034705
0.0336724
0.0309197
0.0213973
0.00862173
0.00280767
0.00123946
0.00123732
0.00234278
0.01243
0.012109
0.0120049
0.0117276
0.00992853
0.00512295
0.00167643
0.000736987
0.000835273
0.0017881
0.00180164
0.0018015
0.00180313
0.00180637
0.00181113
0.00181723
0.00182524
0.00183646
0.00185298
0.00181415
0.00188838
0.00188652
0.00188591
0.00188644
0.0018883
0.00189174
0.00189725
0.00190671
0.00192442
0.00196529
0.0149532
0.014315
0.0141208
0.014304
0.0147167
0.0147694
0.0129449
0.00764391
0.00249568
0.00204707
0.0407381
0.0395054
0.0388362
0.0382986
0.0366871
0.0319786
0.0230001
0.0112932
0.00328172
0.00280346
0.0448144
0.0431413
0.0423353
0.0417622
0.0399203
0.0344231
0.0241996
0.0114362
0.00330099
0.00317051
0.0446453
0.0426845
0.0419363
0.0415777
0.040095
0.0348255
0.0244437
0.0112795
0.00323856
0.00345232
0.0434307
0.0413595
0.0406293
0.0404042
0.0391893
0.0341948
0.0239453
0.0108436
0.00316658
0.00378462
0.0418265
0.0398379
0.0391977
0.039056
0.0380781
0.0334473
0.0235229
0.0105465
0.00313039
0.0041021
0.0351398
0.0336635
0.0331921
0.0331728
0.0326628
0.0293474
0.0210841
0.00937974
0.00285637
0.00417559
0.0123692
0.0120608
0.0119986
0.0120561
0.0121871
0.012034
0.010614
0.00545502
0.00170832
0.00280503
0.00179706
0.00179456
0.00179403
0.00179519
0.00179797
0.00180206
0.00180821
0.00181801
0.00184224
0.00188948
0.00188394
0.00188234
0.0018818
0.00188227
0.00188386
0.00188663
0.00189061
0.0018966
0.00190554
0.00191908
0.0140591
0.0136398
0.0135036
0.013654
0.0140941
0.014737
0.0151405
0.0142138
0.010111
0.00584075
0.0372081
0.0362366
0.0358955
0.0360417
0.0363607
0.035944
0.0330126
0.0253619
0.0133432
0.00710116
0.0410787
0.0397711
0.0393384
0.0395644
0.0400632
0.0397138
0.0361957
0.0266166
0.0125399
0.0072042
0.041305
0.0397857
0.0393674
0.0397072
0.0405132
0.040647
0.0373583
0.0266899
0.0114197
0.00717654
0.0405636
0.038952
0.0385137
0.038917
0.0399467
0.0405686
0.0376927
0.0261714
0.0103053
0.00724993
0.0394577
0.037887
0.0374915
0.0378985
0.03903
0.0400111
0.0376439
0.0255222
0.0093811
0.00733571
0.0336208
0.0324539
0.0321422
0.0324582
0.0333992
0.034563
0.0334127
0.0226348
0.00797076
0.00704944
0.0122628
0.0120062
0.011961
0.0120212
0.0122181
0.0124548
0.0126103
0.0106493
0.00449024
0.0044627
0.00178973
0.00178679
0.00178589
0.00178676
0.00178943
0.00179377
0.00180077
0.00181257
0.00183928
0.00189274
0.00187582
0.00187469
0.00187431
0.00187467
0.00187583
0.00187769
0.00188001
0.00188309
0.00188704
0.00189172
0.0134699
0.0132196
0.013127
0.0132228
0.013515
0.0139728
0.0144475
0.014864
0.0145946
0.0128647
0.0340371
0.0333505
0.0331525
0.0333546
0.0339222
0.0346039
0.0346328
0.0324126
0.0256873
0.0173848
0.037643
0.0366986
0.036428
0.0367191
0.0375291
0.0385385
0.0386007
0.0352971
0.0257953
0.0167221
0.0381878
0.0370922
0.0368216
0.0371781
0.0381924
0.0395761
0.0399752
0.0361479
0.0246375
0.0158799
0.0378666
0.0366873
0.0363834
0.0367789
0.0379392
0.0396854
0.0405391
0.0363533
0.023146
0.015335
0.0372065
0.0360279
0.0357446
0.0361323
0.0373353
0.039277
0.0405149
0.0360599
0.021526
0.0148489
0.0322072
0.0313224
0.0310903
0.0313766
0.0322844
0.0339178
0.0354105
0.0320024
0.0185316
0.013731
0.0121972
0.0119858
0.0119524
0.0119984
0.0121485
0.0123429
0.0125502
0.0126791
0.00959142
0.00832738
0.0017808
0.00177773
0.0017767
0.00177748
0.00178018
0.00178483
0.0017924
0.00180508
0.0018312
0.00187853
0.0018648
0.00186412
0.00186388
0.00186412
0.00186488
0.00186598
0.00186717
0.00186859
0.00187017
0.00187163
0.0131883
0.0130492
0.0129877
0.0130473
0.0132278
0.0134894
0.0137208
0.0140109
0.0142935
0.0144175
0.0315055
0.031102
0.0309933
0.031118
0.0315025
0.032119
0.0328093
0.0330944
0.0316435
0.0274648
0.0347728
0.0341679
0.0339966
0.034192
0.0347884
0.0357756
0.0368806
0.0371162
0.0341029
0.0274718
0.035514
0.0347878
0.0346095
0.03485
0.0355944
0.0368628
0.0383281
0.0385903
0.0342423
0.0263059
0.0355124
0.0346991
0.0344822
0.034758
0.0356188
0.037161
0.0390495
0.0394649
0.0338386
0.0253974
0.0352029
0.0343564
0.0341467
0.0344226
0.0353259
0.0369989
0.0391546
0.0396459
0.0328309
0.0244476
0.0309647
0.0303145
0.0301375
0.0303448
0.0310151
0.0323226
0.0341997
0.0350395
0.0289398
0.022303
0.0121793
0.0120049
0.0119804
0.0120117
0.0121144
0.0122357
0.0123069
0.0127036
0.0125817
0.012221
0.00177044
0.00176735
0.00176626
0.00176699
0.00176965
0.00177438
0.00178201
0.00179436
0.00181706
0.00185368
0.00185142
0.00185108
0.00185096
0.00185111
0.00185155
0.00185211
0.00185263
0.00185321
0.00185379
0.00185417
0.0131466
0.013079
0.0130402
0.0130792
0.0131918
0.0133303
0.013423
0.0135392
0.0136602
0.0137531
0.0297484
0.0295528
0.0295032
0.0295628
0.0297571
0.0300873
0.0305454
0.0311002
0.0314252
0.0310638
0.0326073
0.0322643
0.0321637
0.0322705
0.0326168
0.0332414
0.0341552
0.035201
0.0354901
0.0339517
0.0333887
0.0329488
0.0328395
0.0329782
0.0334333
0.0342674
0.0355132
0.0369148
0.0369337
0.0340708
0.033575
0.0330495
0.0329019
0.0330734
0.0336287
0.0346835
0.0363103
0.0381609
0.0378737
0.0338553
0.0334997
0.032922
0.0327738
0.0329521
0.0335581
0.0347301
0.0365789
0.0386993
0.0379654
0.0331094
0.0299134
0.0294559
0.0293271
0.0294671
0.0299213
0.0308187
0.0322814
0.0342297
0.0337852
0.0299679
0.0122126
0.0120694
0.0120535
0.0120733
0.0121381
0.0121937
0.0121464
0.0123425
0.012756
0.0136494
0.00175849
0.00175551
0.00175441
0.00175509
0.00175764
0.00176222
0.00176946
0.00178072
0.00179918
0.00182565
0.00183606
0.00183595
0.00183592
0.001836
0.00183623
0.00183644
0.00183663
0.00183683
0.001837
0.00183704
0.0132687
0.0132493
0.0132277
0.0132544
0.0133241
0.0133873
0.0134276
0.013471
0.0135027
0.0134933
0.028688
0.0286092
0.0285925
0.0286174
0.0287002
0.0288358
0.0290302
0.029298
0.0295814
0.0297991
0.0311309
0.0309519
0.0308961
0.0309485
0.0311271
0.0314531
0.0319564
0.0326577
0.0333607
0.0337539
0.0318283
0.0315806
0.0315184
0.031591
0.0318419
0.0323064
0.0330448
0.0341088
0.035109
0.0353992
0.0320837
0.0317621
0.0316665
0.0317657
0.0320966
0.0327295
0.0337674
0.0353138
0.036679
0.036734
0.0321346
0.0317577
0.0316579
0.0317656
0.0321462
0.0328829
0.0341093
0.0359821
0.0374995
0.0371182
0.0290805
0.0287718
0.0286824
0.0287718
0.029061
0.0296231
0.0305501
0.0321283
0.0335791
0.0335655
0.0123055
0.0121874
0.0121789
0.01219
0.0122256
0.0122266
0.0121056
0.0121098
0.0122985
0.0129956
0.00174481
0.00174203
0.00174099
0.00174161
0.00174397
0.00174821
0.00175474
0.00176446
0.00177886
0.00179743
0.00181896
0.00181899
0.00181901
0.00181905
0.00181914
0.00181919
0.00181922
0.00181925
0.00181926
0.00181918
0.0134968
0.0135127
0.0135051
0.0135235
0.013564
0.0135891
0.0136088
0.0136261
0.0136276
0.0135858
0.0281308
0.0281075
0.0281065
0.0281165
0.0281477
0.0281937
0.0282602
0.0283511
0.0284499
0.0285338
0.0302066
0.0301164
0.0300862
0.0301109
0.0301991
0.0303576
0.0305975
0.0309312
0.0313085
0.0316397
0.0307611
0.0306285
0.0305954
0.030631
0.0307617
0.0309996
0.0313728
0.0319244
0.032571
0.03314
0.0310056
0.030817
0.0307576
0.0308124
0.0310005
0.0313543
0.0319286
0.0328226
0.0338993
0.0348347
0.0311026
0.0308656
0.0308013
0.030863
0.0310919
0.0315269
0.0322417
0.0333986
0.0347931
0.0359279
0.0284705
0.0282703
0.0282115
0.0282655
0.0284393
0.0287658
0.0292827
0.0302197
0.0314853
0.0327206
0.0124643
0.0123654
0.0123632
0.012368
0.0123819
0.0123406
0.0121838
0.0120774
0.0120586
0.0123223
0.00172928
0.00172679
0.00172584
0.00172639
0.0017285
0.00173225
0.00173788
0.0017459
0.00175678
0.00176957
0.00180021
0.00180033
0.00180037
0.00180039
0.00180041
0.00180039
0.00180036
0.00180033
0.00180029
0.00180017
0.0137979
0.0138409
0.0138451
0.0138577
0.013876
0.0138872
0.0138984
0.0139055
0.0138961
0.0138435
0.0278911
0.0278922
0.0278979
0.0279022
0.0279118
0.0279247
0.0279442
0.0279695
0.0279937
0.0280079
0.0296693
0.0296231
0.0296064
0.0296182
0.0296625
0.0297403
0.0298536
0.0300022
0.0301642
0.030298
0.0300766
0.0300072
0.0299903
0.0300072
0.030074
0.0301927
0.0303721
0.0306247
0.0309212
0.0311867
0.0302721
0.0301646
0.0301288
0.0301584
0.0302627
0.0304545
0.0307554
0.0312055
0.0317698
0.0323213
0.0303674
0.0302222
0.0301821
0.0302163
0.0303504
0.030599
0.0309931
0.0316109
0.0324081
0.0332048
0.0280695
0.0279444
0.0279078
0.0279387
0.0280367
0.028211
0.0284714
0.0289457
0.0296546
0.0305131
0.0126939
0.012609
0.0126121
0.0126126
0.0126106
0.0125395
0.0123731
0.0122196
0.0120941
0.0121535
0.00171181
0.00170966
0.00170883
0.00170931
0.00171113
0.0017143
0.00171896
0.00172531
0.00173329
0.00174196
0.00177988
0.00178001
0.00178008
0.00178008
0.00178007
0.00178004
0.00177999
0.00177995
0.00177989
0.00177976
0.0141695
0.0142223
0.0142372
0.0142454
0.014252
0.0142594
0.0142665
0.0142688
0.0142545
0.0141964
0.0278393
0.0278481
0.0278565
0.0278588
0.0278607
0.0278636
0.0278681
0.0278733
0.0278754
0.0278706
0.0293785
0.0293534
0.0293437
0.0293498
0.0293732
0.0294138
0.0294706
0.0295406
0.0296119
0.0296635
0.0296631
0.0296263
0.0296177
0.0296259
0.0296606
0.0297209
0.0298086
0.0299241
0.0300524
0.030156
0.0298021
0.0297415
0.0297202
0.0297361
0.0297938
0.0298972
0.0300537
0.0302736
0.0305408
0.0307876
0.0298752
0.029787
0.0297626
0.0297812
0.0298592
0.0299999
0.0302145
0.0305313
0.0309295
0.0313055
0.0278503
0.0277746
0.0277532
0.0277699
0.0278207
0.0279025
0.0280195
0.0282339
0.0285665
0.0289844
0.0129986
0.0129235
0.0129311
0.0129285
0.0129147
0.0128264
0.0126674
0.0125057
0.0123408
0.0123397
0.00169234
0.00169056
0.00168986
0.00169026
0.00169177
0.00169434
0.00169805
0.0017029
0.0017086
0.00171437
0.00175793
0.00175806
0.00175812
0.00175812
0.00175811
0.00175808
0.00175804
0.00175799
0.00175794
0.00175781
0.0146081
0.0146649
0.0146826
0.0146894
0.0146946
0.0147
0.0147045
0.014704
0.0146866
0.0146243
0.0278922
0.0279026
0.0279105
0.0279126
0.0279132
0.0279134
0.0279139
0.0279136
0.0279101
0.027901
0.0292334
0.0292187
0.0292128
0.0292161
0.0292295
0.0292522
0.0292831
0.0293194
0.0293542
0.0293765
0.0294276
0.0294071
0.0294022
0.0294065
0.0294256
0.0294581
0.0295036
0.0295599
0.0296185
0.0296614
0.0295182
0.029484
0.0294713
0.0294801
0.0295124
0.0295689
0.0296516
0.0297608
0.0298876
0.0299987
0.0295666
0.0295126
0.0294977
0.0295081
0.0295541
0.0296345
0.0297531
0.0299174
0.0301132
0.030283
0.0277784
0.0277337
0.0277225
0.0277308
0.0277535
0.027783
0.0278266
0.0279109
0.0280485
0.0282431
0.0133831
0.0133146
0.0133262
0.0133215
0.0132985
0.0132054
0.0130634
0.0129149
0.0127477
0.0127469
0.00167083
0.00166942
0.00166885
0.00166917
0.00167037
0.00167238
0.00167523
0.00167881
0.00168277
0.00168654
0.0017343
0.00173442
0.00173448
0.00173448
0.00173447
0.00173444
0.00173441
0.00173437
0.00173433
0.00173421
0.0151184
0.0151789
0.0151979
0.0152046
0.015209
0.015213
0.0152157
0.0152132
0.0151936
0.0151274
0.0280016
0.0280122
0.0280193
0.0280215
0.0280219
0.0280217
0.0280212
0.0280198
0.0280152
0.0280053
0.0291688
0.0291597
0.029156
0.029158
0.029166
0.0291794
0.0291972
0.0292175
0.0292365
0.0292473
0.0293013
0.0292889
0.0292858
0.0292883
0.0292996
0.0293186
0.0293444
0.0293747
0.0294044
0.0294249
0.0293569
0.0293372
0.0293296
0.0293346
0.0293531
0.0293849
0.0294297
0.0294859
0.0295483
0.0296024
0.0293869
0.0293529
0.0293436
0.0293499
0.0293778
0.0294252
0.029493
0.0295817
0.0296813
0.0297634
0.0278181
0.0277923
0.0277875
0.027791
0.0277979
0.0278019
0.0278108
0.0278354
0.0278824
0.0279808
0.013854
0.01379
0.0138056
0.0137992
0.013768
0.0136825
0.0135628
0.0134372
0.0132859
0.0133079
0.00164726
0.00164618
0.00164575
0.001646
0.0016469
0.00164842
0.00165053
0.00165308
0.00165577
0.0016582
0.00170892
0.00170903
0.00170908
0.00170908
0.00170907
0.00170905
0.00170903
0.001709
0.00170896
0.00170885
0.0157118
0.0157761
0.0157962
0.0158028
0.0158068
0.0158096
0.0158111
0.0158072
0.0157858
0.0157157
0.0281416
0.0281519
0.0281582
0.0281603
0.0281608
0.0281607
0.0281603
0.0281587
0.0281543
0.0281444
0.0291457
0.0291401
0.0291378
0.029139
0.0291438
0.0291517
0.0291622
0.029174
0.029185
0.0291908
0.0292378
0.0292296
0.0292273
0.0292289
0.0292362
0.0292483
0.0292643
0.0292824
0.0292993
0.0293107
0.0292708
0.0292592
0.0292545
0.0292575
0.0292684
0.0292867
0.0293118
0.0293419
0.0293741
0.0294029
0.0292909
0.0292687
0.0292627
0.0292669
0.0292845
0.0293139
0.0293544
0.0294051
0.0294589
0.0295035
0.0279374
0.0279223
0.0279213
0.0279223
0.0279207
0.0279154
0.0279104
0.0279106
0.0279192
0.0279777
0.0144219
0.0143609
0.014381
0.014373
0.0143361
0.0142686
0.0141729
0.0140732
0.0139446
0.0139954
0.00162162
0.00162083
0.00162052
0.0016207
0.00162136
0.00162246
0.00162397
0.00162573
0.00162751
0.00162906
0.0016817
0.0016818
0.00168184
0.00168184
0.00168184
0.00168182
0.00168181
0.00168178
0.00168176
0.00168165
0.0164063
0.0164747
0.0164957
0.0165022
0.0165058
0.0165079
0.0165084
0.0165036
0.0164809
0.0164065
0.028298
0.0283078
0.0283133
0.0283153
0.0283159
0.028316
0.0283158
0.0283145
0.0283105
0.0283008
0.0291425
0.0291392
0.0291379
0.0291385
0.0291412
0.0291458
0.0291517
0.0291585
0.029165
0.0291682
0.0292082
0.0292025
0.0292006
0.0292017
0.0292066
0.0292148
0.0292254
0.029237
0.0292476
0.0292548
0.0292276
0.0292205
0.0292175
0.0292193
0.0292259
0.0292368
0.0292512
0.029268
0.0292854
0.0293019
0.029245
0.0292299
0.029226
0.029229
0.0292406
0.0292597
0.0292851
0.0293159
0.0293471
0.0293748
0.0281112
0.0280996
0.0281008
0.0281004
0.0280963
0.0280896
0.028081
0.0280733
0.0280678
0.0281096
0.0151169
0.0150471
0.0150697
0.0150599
0.015031
0.0149808
0.0149084
0.0148336
0.0147287
0.0148069
0.00159392
0.00159335
0.00159313
0.00159326
0.00159372
0.0015945
0.00159554
0.00159671
0.00159786
0.00159883
0.00165257
0.00165266
0.0016527
0.0016527
0.0016527
0.00165269
0.00165267
0.00165266
0.00165263
0.00165253
0.0172277
0.0173007
0.0173223
0.0173287
0.0173322
0.0173336
0.0173335
0.0173282
0.0173045
0.0172254
0.0284627
0.0284718
0.0284765
0.0284783
0.0284789
0.0284792
0.0284792
0.0284783
0.028475
0.0284658
0.0291475
0.0291458
0.0291451
0.0291455
0.0291469
0.0291492
0.0291523
0.029156
0.0291598
0.0291617
0.0291954
0.0291914
0.0291898
0.0291905
0.0291939
0.0291996
0.0292068
0.0292146
0.0292216
0.0292264
0.0292068
0.0292023
0.0292004
0.0292015
0.0292055
0.0292121
0.0292206
0.0292302
0.02924
0.0292501
0.0292261
0.0292155
0.0292128
0.0292151
0.0292231
0.0292359
0.0292525
0.029272
0.0292913
0.0293108
0.0283169
0.028306
0.028307
0.0283067
0.0283036
0.0282983
0.0282906
0.0282823
0.0282733
0.0283075
0.0159652
0.015888
0.0159048
0.0158986
0.0158791
0.0158448
0.0157942
0.0157412
0.0156582
0.0157593
0.00156414
0.00156375
0.0015636
0.00156369
0.001564
0.00156453
0.00156521
0.00156597
0.00156668
0.00156728
0.0016215
0.00162158
0.0016216
0.0016216
0.0016216
0.0016216
0.00162159
0.00162157
0.00162155
0.00162145
0.0182131
0.0182913
0.0183131
0.0183191
0.0183227
0.0183237
0.0183232
0.0183177
0.0182935
0.0182093
0.0286297
0.028638
0.0286418
0.0286433
0.0286439
0.0286444
0.0286447
0.0286442
0.0286417
0.0286333
0.0291551
0.0291543
0.0291541
0.0291542
0.0291548
0.0291557
0.0291571
0.0291589
0.029161
0.0291623
0.0291899
0.0291871
0.0291857
0.0291862
0.0291884
0.0291923
0.0291972
0.0292025
0.0292072
0.0292106
0.0291964
0.0291934
0.0291921
0.0291927
0.0291952
0.0291992
0.0292044
0.02921
0.0292157
0.029222
0.029219
0.0292114
0.0292096
0.0292114
0.0292169
0.0292256
0.0292366
0.0292492
0.0292616
0.0292762
0.0285355
0.0285251
0.0285258
0.0285258
0.028524
0.0285208
0.0285156
0.0285095
0.0285011
0.0285306
0.0170053
0.0169224
0.0169333
0.0169304
0.0169195
0.0168995
0.0168687
0.016834
0.0167706
0.0168881
0.0015323
0.00153205
0.00153195
0.00153201
0.00153221
0.00153255
0.00153299
0.00153345
0.00153389
0.00153425
0.00158853
0.0015886
0.00158862
0.00158863
0.00158863
0.00158862
0.00158861
0.0015886
0.00158858
0.00158849
0.0194166
0.0195006
0.0195228
0.0195285
0.0195312
0.0195317
0.019531
0.0195257
0.0195018
0.0194119
0.028793
0.0288002
0.028803
0.028804
0.0288046
0.0288051
0.0288056
0.0288056
0.0288041
0.0287972
0.0291621
0.0291618
0.0291619
0.0291619
0.029162
0.0291622
0.0291626
0.0291632
0.0291642
0.0291654
0.0291864
0.0291843
0.0291833
0.0291835
0.0291849
0.0291874
0.0291907
0.0291942
0.0291974
0.0291997
0.0291896
0.0291876
0.0291867
0.029187
0.0291885
0.0291909
0.0291939
0.0291972
0.0292005
0.0292045
0.0292139
0.0292087
0.0292074
0.0292087
0.0292124
0.0292182
0.0292253
0.0292333
0.0292412
0.0292522
0.0287494
0.0287398
0.0287402
0.0287404
0.0287398
0.0287385
0.0287358
0.0287323
0.0287259
0.0287513
0.018294
0.0182082
0.0182128
0.0182127
0.0182095
0.0182026
0.01819
0.0181704
0.0181253
0.0182509
0.00149851
0.00149835
0.00149828
0.00149832
0.00149845
0.00149866
0.00149893
0.0014992
0.00149947
0.00149967
0.00155391
0.00155397
0.00155398
0.00155399
0.00155399
0.00155398
0.00155397
0.00155396
0.00155394
0.00155386
0.0209208
0.0210104
0.0210328
0.0210379
0.021039
0.0210391
0.0210383
0.0210336
0.0210109
0.0209156
0.0289441
0.0289494
0.028951
0.0289516
0.028952
0.0289526
0.0289533
0.0289538
0.0289534
0.0289489
0.0291668
0.0291667
0.0291669
0.0291669
0.0291669
0.0291668
0.0291666
0.0291667
0.0291671
0.0291681
0.0291823
0.0291808
0.02918
0.0291801
0.0291809
0.0291825
0.0291844
0.0291866
0.0291888
0.0291905
0.0291833
0.0291819
0.0291813
0.0291814
0.0291823
0.0291836
0.0291853
0.0291872
0.029189
0.0291915
0.0292046
0.0292012
0.0292003
0.0292012
0.0292035
0.029207
0.0292113
0.0292161
0.0292208
0.0292287
0.0289391
0.028931
0.0289311
0.0289314
0.0289315
0.0289313
0.0289305
0.0289289
0.0289247
0.0289457
0.0199148
0.0198295
0.0198269
0.0198289
0.019833
0.0198384
0.0198439
0.0198376
0.0198123
0.0199346
0.00146294
0.00146284
0.0014628
0.00146282
0.0014629
0.00146303
0.00146319
0.00146335
0.00146352
0.00146362
0.00151782
0.00151786
0.00151787
0.00151787
0.00151787
0.00151786
0.00151786
0.00151786
0.00151784
0.00151779
0.0228589
0.0229509
0.0229707
0.0229748
0.0229756
0.0229754
0.0229745
0.0229705
0.0229505
0.0228522
0.0290706
0.0290733
0.0290737
0.0290737
0.0290739
0.0290745
0.0290753
0.0290764
0.0290771
0.0290758
0.0291685
0.0291684
0.0291686
0.0291686
0.0291686
0.0291684
0.0291683
0.0291681
0.0291682
0.0291689
0.0291774
0.0291764
0.0291759
0.0291758
0.0291763
0.0291772
0.0291783
0.0291796
0.029181
0.0291822
0.0291771
0.0291763
0.0291759
0.0291759
0.0291764
0.0291771
0.029178
0.0291789
0.0291799
0.0291812
0.0291895
0.0291875
0.029187
0.0291875
0.0291888
0.0291907
0.029193
0.0291955
0.0291981
0.029203
0.0290834
0.0290773
0.0290772
0.0290774
0.0290777
0.0290778
0.0290776
0.0290772
0.0290752
0.0290908
0.0220146
0.0219362
0.0219342
0.0219359
0.0219391
0.0219432
0.0219475
0.0219504
0.0219513
0.0220543
0.00142573
0.00142567
0.00142564
0.00142565
0.0014257
0.00142578
0.00142588
0.00142598
0.0014261
0.00142616
0.00147942
0.00147941
0.0014794
0.00147939
0.00147939
0.00147939
0.0014794
0.00147942
0.00147944
0.00147946
0.0254682
0.0255487
0.0255625
0.0255654
0.025566
0.0255657
0.0255646
0.0255612
0.0255463
0.0254577
0.0291592
0.029159
0.0291583
0.0291578
0.0291578
0.0291583
0.0291592
0.0291605
0.0291621
0.029164
0.0291681
0.0291681
0.0291681
0.0291682
0.0291682
0.0291682
0.0291682
0.0291681
0.0291681
0.0291683
0.0291736
0.0291729
0.0291726
0.0291726
0.0291729
0.0291734
0.0291741
0.0291748
0.0291757
0.0291765
0.0291731
0.0291726
0.0291724
0.0291724
0.0291727
0.0291731
0.0291737
0.0291742
0.0291748
0.0291754
0.0291752
0.0291742
0.0291739
0.0291742
0.0291749
0.029176
0.0291772
0.0291785
0.0291798
0.029182
0.0291705
0.0291667
0.0291663
0.0291662
0.0291662
0.0291662
0.0291662
0.0291662
0.0291664
0.0291763
0.0249096
0.0248508
0.0248497
0.0248509
0.0248529
0.0248557
0.0248585
0.0248603
0.0248606
0.0249375
0.00138611
0.00138606
0.00138604
0.00138605
0.00138609
0.00138615
0.00138623
0.00138631
0.00138639
0.00138644
0.00234386
0.00236472
0.00235451
0.00232062
0.00141058
0.00143351
0.00143086
0.00142613
0.00188706
0.00192904
0.00191987
0.00189525
0.00227406
0.00233213
0.00231256
0.00226633
0.00262167
0.00269272
0.00266067
0.00259611
0.00296323
0.00304543
0.00300523
0.00293167
0.00324531
0.00333568
0.00329343
0.00322001
0.00341293
0.00350964
0.00346971
0.00340092
0.00304468
0.00313416
0.00309549
0.00303965
0.00237497
0.00239164
0.00235687
0.00227571
0.00202743
0.00203312
0.00203423
0.00203123
0.00235431
0.00243428
0.00233416
0.00214246
0.00330881
0.00342304
0.00329246
0.00305462
0.00407273
0.00424094
0.00408213
0.00378405
0.00485536
0.0050911
0.00489626
0.0045202
0.00583142
0.00615718
0.00591532
0.00543008
0.00679821
0.00721155
0.00690964
0.00631099
0.00749603
0.00799357
0.00763522
0.00693945
0.00591991
0.00635604
0.00600322
0.00540571
0.00218205
0.00221441
0.00220758
0.00217182
0.00193312
0.00193517
0.00193531
0.00193406
0.00406822
0.00404308
0.004053
0.00414389
0.00499217
0.00497309
0.00499274
0.0050967
0.00549664
0.00551611
0.00553552
0.00558497
0.0060122
0.00606621
0.00606902
0.00602706
0.00675664
0.00685334
0.00681296
0.0066345
0.00751593
0.00763929
0.00752489
0.00718641
0.00805529
0.00821558
0.00802747
0.00752807
0.00612922
0.00626864
0.00609197
0.00561047
0.00204846
0.00206558
0.00206367
0.00204593
0.00189444
0.00189467
0.00189479
0.00189482
0.0102437
0.00996428
0.0100995
0.0106137
0.0119502
0.0116154
0.0119176
0.0128104
0.0114417
0.0112603
0.011632
0.0125265
0.0110912
0.0110301
0.0114268
0.012257
0.0112104
0.0112531
0.0116429
0.0123698
0.011408
0.0115099
0.011848
0.0124267
0.0113601
0.0115373
0.0118068
0.0121782
0.00802424
0.00820856
0.00833098
0.00837246
0.00195726
0.00196772
0.0019687
0.00196072
0.00187257
0.00187261
0.00187264
0.00187265
0.014492
0.0144316
0.0144592
0.0145681
0.0238459
0.0235218
0.0237088
0.0243351
0.022249
0.0219567
0.0223089
0.0232349
0.0203836
0.0202043
0.020684
0.0217913
0.0193339
0.0193039
0.0198749
0.0210736
0.0185222
0.0185975
0.0191906
0.0203832
0.0173377
0.0175498
0.0181051
0.019119
0.0108872
0.0111223
0.0113635
0.0116778
0.00189404
0.00190054
0.00190201
0.00189861
0.00185459
0.00185456
0.00185455
0.00185454
0.0140877
0.0140138
0.014004
0.0140586
0.0304092
0.030302
0.0303273
0.0304737
0.0318031
0.0315641
0.0316541
0.0320303
0.0304371
0.0301498
0.03037
0.0310284
0.0290302
0.0288122
0.0292016
0.0301316
0.0274549
0.0273271
0.0278425
0.0289722
0.0247839
0.0248488
0.0254067
0.0264861
0.0131816
0.0134136
0.0135892
0.0137506
0.00184612
0.00185005
0.00185133
0.00184999
0.00183734
0.00183729
0.00183727
0.00183726
0.0137858
0.013695
0.0136771
0.0137314
0.0299223
0.029925
0.0299389
0.029964
0.0336833
0.0336864
0.0337184
0.0337767
0.0348326
0.0347861
0.0348468
0.0350027
0.0353545
0.0352692
0.0354056
0.0357333
0.034717
0.034603
0.0348357
0.0353713
0.0311112
0.0311422
0.0314548
0.0320218
0.013324
0.013601
0.0136621
0.0135548
0.00180778
0.00181017
0.00181112
0.00181062
0.00181945
0.00181939
0.00181936
0.00181935
0.0138652
0.013768
0.0137478
0.0138032
0.0286305
0.0286236
0.0286262
0.0286388
0.0317671
0.031793
0.03181
0.0318184
0.0333253
0.0333704
0.0334029
0.0334243
0.0350623
0.0351349
0.0351961
0.0352476
0.0359298
0.0359936
0.0360796
0.0361887
0.0326352
0.0327925
0.0329192
0.033019
0.0123994
0.0126557
0.012696
0.0125575
0.00177494
0.00177646
0.0017771
0.00177687
0.00180043
0.00180037
0.00180033
0.00180033
0.0141244
0.0140239
0.0140028
0.0140595
0.0280723
0.0280594
0.0280578
0.0280679
0.0303481
0.0303558
0.0303607
0.0303627
0.031288
0.0313089
0.0313215
0.0313261
0.0325667
0.032623
0.0326542
0.0326618
0.0335034
0.0335812
0.0336247
0.0336387
0.0307861
0.0309529
0.0310214
0.0309992
0.0119633
0.0121878
0.0122295
0.0121079
0.00174485
0.00174588
0.00174628
0.00174611
0.00178002
0.00177995
0.00177992
0.00177992
0.0144826
0.0143792
0.0143574
0.0144155
0.0279249
0.0279112
0.0279089
0.0279182
0.0296801
0.0296809
0.0296817
0.0296825
0.0301857
0.0301906
0.0301937
0.0301952
0.0308892
0.0309115
0.0309236
0.0309257
0.0314229
0.0314552
0.0314731
0.0314779
0.0290522
0.0291615
0.0292013
0.0291732
0.0120375
0.0122568
0.0122985
0.0121762
0.00171597
0.00171671
0.00171697
0.00171679
0.00175808
0.001758
0.00175797
0.00175797
0.0149179
0.0148113
0.0147887
0.0148483
0.0279509
0.0279378
0.0279355
0.0279441
0.0293832
0.0293826
0.0293825
0.029383
0.0296693
0.0296698
0.0296703
0.0296707
0.0300393
0.0300478
0.0300523
0.0300529
0.030308
0.0303179
0.030324
0.0303266
0.028194
0.0282681
0.0282925
0.0282667
0.0124022
0.0126328
0.0126756
0.0125439
0.00168744
0.00168802
0.00168818
0.00168799
0.00173448
0.0017344
0.00173436
0.00173437
0.0154298
0.0153196
0.015296
0.0153574
0.0280516
0.0280392
0.028037
0.028045
0.0292509
0.02925
0.0292498
0.0292504
0.0294272
0.029427
0.0294269
0.029427
0.029622
0.0296259
0.0296279
0.0296279
0.0297615
0.0297647
0.0297668
0.0297679
0.0278965
0.0279549
0.0279723
0.0279481
0.0129431
0.0131928
0.0132383
0.0130944
0.0016587
0.00165917
0.00165927
0.00165908
0.00170913
0.00170904
0.001709
0.00170902
0.0160287
0.015914
0.0158893
0.0159528
0.0281868
0.0281752
0.028173
0.0281804
0.029193
0.0291922
0.029192
0.0291925
0.0293117
0.0293114
0.0293113
0.0293113
0.0294143
0.0294166
0.0294177
0.0294176
0.0294969
0.0294984
0.0294993
0.0294997
0.0278891
0.0279395
0.0279537
0.0279312
0.0136162
0.0138889
0.0139382
0.0137807
0.00162931
0.00162972
0.00162978
0.00162958
0.00168194
0.00168184
0.0016818
0.00168182
0.016732
0.016612
0.0165859
0.0166519
0.028339
0.0283282
0.028326
0.0283327
0.0291697
0.029169
0.0291689
0.0291693
0.0292553
0.0292551
0.029255
0.029255
0.0293096
0.0293111
0.0293118
0.0293116
0.0293697
0.029371
0.0293716
0.0293716
0.0280273
0.0280724
0.0280847
0.028064
0.0144135
0.0147121
0.0147657
0.0145932
0.00159894
0.00159929
0.00159934
0.00159914
0.00165283
0.00165273
0.00165269
0.00165272
0.0175659
0.0174392
0.0174113
0.0174804
0.0284993
0.0284894
0.0284873
0.0284932
0.0291627
0.0291621
0.029162
0.0291624
0.0292267
0.0292265
0.0292265
0.0292264
0.0292555
0.0292565
0.029257
0.0292568
0.0293083
0.0293098
0.0293103
0.02931
0.0282358
0.0282763
0.0282871
0.0282682
0.0153496
0.0156769
0.0157353
0.015546
0.00156731
0.00156763
0.00156766
0.00156747
0.00162178
0.00162167
0.00162163
0.00162166
0.0185675
0.0184325
0.0184022
0.018475
0.0286616
0.0286526
0.0286507
0.0286559
0.0291629
0.0291625
0.0291624
0.0291628
0.0292107
0.0292106
0.0292105
0.0292105
0.0292259
0.0292266
0.0292269
0.0292267
0.0292763
0.0292779
0.0292784
0.0292779
0.0284723
0.0285086
0.0285179
0.0285005
0.016458
0.0168172
0.0168803
0.0166724
0.00153423
0.00153451
0.00153453
0.00153436
0.00158883
0.00158871
0.00158868
0.00158871
0.0197915
0.0196453
0.0196119
0.0196894
0.0288197
0.0288119
0.0288101
0.0288145
0.0291658
0.0291655
0.0291655
0.0291657
0.0291999
0.0291998
0.0291998
0.0291998
0.0292073
0.0292078
0.0292079
0.0292078
0.0292542
0.0292557
0.0292562
0.0292556
0.0287088
0.0287408
0.0287485
0.0287324
0.0177931
0.0181864
0.0182538
0.0180257
0.00149963
0.00149987
0.00149989
0.00149974
0.00155423
0.00155411
0.00155407
0.00155411
0.0213181
0.0211563
0.0211185
0.0212026
0.028967
0.0289609
0.0289594
0.0289628
0.0291683
0.0291681
0.0291682
0.0291683
0.0291908
0.0291908
0.0291908
0.0291909
0.0291933
0.0291936
0.0291937
0.0291935
0.0292316
0.0292329
0.0292333
0.0292327
0.0289205
0.028948
0.028954
0.0289392
0.0194345
0.0198574
0.0199275
0.0196815
0.0014636
0.00146379
0.00146381
0.00146369
0.0015182
0.00151808
0.00151805
0.0015181
0.0232729
0.0230885
0.023045
0.0231389
0.0290906
0.0290867
0.0290857
0.0290878
0.0291688
0.0291687
0.0291687
0.0291688
0.0291826
0.0291827
0.0291827
0.0291828
0.0291822
0.0291823
0.0291823
0.0291823
0.0292056
0.0292065
0.0292068
0.0292063
0.0290826
0.0291042
0.0291083
0.0290956
0.0215237
0.021976
0.022043
0.0217755
0.00142625
0.00142641
0.00142642
0.00142632
0.00147991
0.00147982
0.0014798
0.00147986
0.0258499
0.025641
0.0255953
0.0257027
0.0291739
0.0291722
0.0291716
0.0291725
0.0291677
0.0291675
0.0291675
0.0291675
0.0291768
0.0291769
0.0291769
0.029177
0.0291757
0.0291757
0.0291757
0.0291758
0.0291831
0.0291835
0.0291836
0.0291835
0.0291785
0.0291909
0.0291928
0.029185
0.0244741
0.0248991
0.0249487
0.0246891
0.00138681
0.00138694
0.00138694
0.00138684
0.00215532
0.00203874
0.00197431
0.00194177
0.00192265
0.00191026
0.00190208
0.00189688
0.00189354
0.00189126
0.00174794
0.00158398
0.00476637
0.00942457
0.0139347
0.0171214
0.0186303
0.0187795
0.0181461
0.0172044
0.00236401
0.00257608
0.00732589
0.0155521
0.0249542
0.0330735
0.0390575
0.0428598
0.0447353
0.0451215
0.0027689
0.00360277
0.0082915
0.0178409
0.029164
0.0385152
0.0449901
0.0487195
0.0501548
0.0499445
0.00307766
0.00394395
0.00872087
0.0193486
0.0320834
0.0419637
0.048148
0.050999
0.0513107
0.0500954
0.00338991
0.0040736
0.00894415
0.0204229
0.0342688
0.0443129
0.0498907
0.0516784
0.0508991
0.0488557
0.00363239
0.0040877
0.00897653
0.0211775
0.0359025
0.0457613
0.0504396
0.0510664
0.0493371