/*--------------------------------*- C++ -*----------------------------------*\
| =========                 |                                                 |
| \\      /  F ield         | foam-extend: Open Source CFD                    |
|  \\    /   O peration     | Version:     4.0                                |
|   \\  /    A nd           | Web:         http://www.foam-extend.org         |
|    \\/     M anipulation  |                                                 |
\*---------------------------------------------------------------------------*/
FoamFile
{
    version     2.0;
    format      ascii;
    class       volScalarField;
    location    "1350";
    object      divFlux;
}
// * * * * * * * * * * * * * * * * * * * * * * * * * * * * * * * * * * * * * //

dimensions      [1 -3 -1 0 0 0 0];

internalField   nonuniform List<scalar> 
34480
(
5.96738e-05
2.28046e-05
2.40152e-05
2.29902e-05
2.19693e-05
2.1102e-05
2.03887e-05
0.000929654
0.0196326
1.83755e-05
2.10838e-05
1.15494e-05
1.14696e-05
1.08639e-05
1.04327e-05
1.0281e-05
1.03418e-05
1.03896e-05
0.0203616
9.95911e-06
6.71143e-06
4.37538e-06
4.26958e-06
4.0995e-06
4.07237e-06
4.23086e-06
4.46738e-06
4.61822e-06
0.0170802
4.51178e-06
2.66263e-06
1.85446e-06
1.79531e-06
1.7346e-06
1.74174e-06
1.83296e-06
1.94511e-06
2.00948e-06
0.00697988
1.97008e-06
1.12838e-06
8.20558e-07
7.91692e-07
7.65052e-07
7.70223e-07
8.10674e-07
8.56101e-07
8.81367e-07
8.88175e-07
8.64283e-07
4.9739e-07
3.74344e-07
3.59853e-07
3.48169e-07
3.50919e-07
3.69762e-07
3.86429e-07
3.95993e-07
3.99029e-07
3.866e-07
2.26004e-07
1.74521e-07
1.67851e-07
1.62251e-07
1.63626e-07
1.71721e-07
1.78288e-07
1.8231e-07
1.82972e-07
1.77066e-07
1.10092e-07
8.61861e-08
8.31162e-08
8.0138e-08
8.07794e-08
8.40326e-08
8.6736e-08
8.76982e-08
8.79731e-08
8.47657e-08
6.5204e-08
5.13176e-08
4.91516e-08
4.68607e-08
4.5611e-08
4.59443e-08
4.5736e-08
4.64858e-08
4.61109e-08
4.38616e-08
4.40152e-08
3.52045e-08
3.3219e-08
3.18444e-08
3.06226e-08
2.93244e-08
2.97444e-08
2.94007e-08
2.80643e-08
2.7568e-08
8.59781e-05
3.11588e-05
3.23179e-05
3.1189e-05
2.99808e-05
2.89913e-05
2.82964e-05
2.78877e-05
2.77517e-05
0.00309414
3.31022e-05
1.75206e-05
1.73495e-05
1.6557e-05
1.60042e-05
1.58019e-05
1.58735e-05
1.61648e-05
1.66238e-05
0.00610637
1.14556e-05
7.43198e-06
7.25359e-06
7.01825e-06
7.02915e-06
7.2975e-06
7.66638e-06
8.07631e-06
8.4871e-06
0.00627995
4.9939e-06
3.55344e-06
3.44024e-06
3.34642e-06
3.38725e-06
3.55784e-06
3.75821e-06
3.97375e-06
4.18552e-06
0.0037887
2.31396e-06
1.74653e-06
1.68245e-06
1.637e-06
1.66085e-06
1.74744e-06
1.8417e-06
1.94612e-06
2.05035e-06
2.09157e-06
1.10785e-06
8.7283e-07
8.39393e-07
8.16444e-07
8.30767e-07
8.71872e-07
9.14839e-07
9.63132e-07
1.01297e-06
1.02181e-06
5.4142e-07
4.41381e-07
4.23728e-07
4.12653e-07
4.20557e-07
4.4034e-07
4.59839e-07
4.82131e-07
5.05227e-07
5.0418e-07
2.8696e-07
2.3913e-07
2.29077e-07
2.24008e-07
2.27075e-07
2.34955e-07
2.4258e-07
2.52121e-07
2.61833e-07
2.56807e-07
1.94552e-07
1.62946e-07
1.55628e-07
1.49897e-07
1.4645e-07
1.46721e-07
1.47147e-07
1.47418e-07
1.49161e-07
1.43856e-07
1.47689e-07
1.25408e-07
1.2058e-07
1.16037e-07
1.13197e-07
1.11103e-07
1.08405e-07
1.07447e-07
1.06595e-07
1.01528e-07
8.54908e-05
2.54886e-05
2.68543e-05
2.59086e-05
2.48913e-05
2.4118e-05
2.36917e-05
2.36506e-05
0.00169502
0.00561395
3.03433e-05
1.32178e-05
1.33132e-05
1.26541e-05
1.20905e-05
1.17088e-05
1.15953e-05
1.18387e-05
0.00153149
0.00456379
9.72274e-06
5.30554e-06
5.2216e-06
4.96429e-06
4.78879e-06
4.71613e-06
4.79762e-06
5.08795e-06
0.00107012
0.00269647
3.88113e-06
2.33064e-06
2.26237e-06
2.15509e-06
2.08101e-06
2.05247e-06
2.09579e-06
2.24448e-06
2.50454e-06
3.10538e-06
1.64422e-06
1.05003e-06
1.01201e-06
9.62515e-07
9.28461e-07
9.12792e-07
9.30498e-07
1.00081e-06
1.12744e-06
1.4232e-06
7.22046e-07
4.83591e-07
4.63347e-07
4.40776e-07
4.24244e-07
4.16472e-07
4.23254e-07
4.55774e-07
5.16656e-07
6.60975e-07
3.26795e-07
2.26985e-07
2.17173e-07
2.06042e-07
1.98694e-07
1.94734e-07
1.9645e-07
2.1207e-07
2.42736e-07
3.11659e-07
1.59834e-07
1.14795e-07
1.09251e-07
1.03747e-07
9.97079e-08
9.7728e-08
9.8322e-08
1.04935e-07
1.1923e-07
1.52908e-07
9.7283e-08
6.91166e-08
6.64167e-08
6.37169e-08
6.1089e-08
5.87491e-08
5.87851e-08
6.1161e-08
6.64887e-08
8.46678e-08
6.3708e-08
4.45148e-08
4.20069e-08
4.0192e-08
3.92351e-08
3.82781e-08
3.81791e-08
3.82451e-08
4.1314e-08
5.46989e-08
8.86572e-05
2.44601e-05
2.56843e-05
2.47141e-05
2.3744e-05
2.30342e-05
2.26567e-05
2.26525e-05
0.000385729
0.00451566
3.1335e-05
1.27769e-05
1.29188e-05
1.227e-05
1.17029e-05
1.12904e-05
1.1086e-05
1.11554e-05
0.00189349
0.0069958
1.01528e-05
5.27214e-06
5.20467e-06
4.92626e-06
4.7066e-06
4.55976e-06
4.53223e-06
4.67737e-06
0.00172436
0.00714593
4.05367e-06
2.34571e-06
2.2827e-06
2.16251e-06
2.06492e-06
2.00004e-06
1.9921e-06
2.07391e-06
0.00190473
0.00785721
1.71668e-06
1.06496e-06
1.02841e-06
9.73723e-07
9.29497e-07
8.98627e-07
8.93631e-07
9.34966e-07
0.000903794
0.00701428
7.53585e-07
4.93323e-07
4.73997e-07
4.48505e-07
4.28167e-07
4.12798e-07
4.09485e-07
4.29915e-07
0.000272729
0.00599822
3.40826e-07
2.33182e-07
2.23079e-07
2.11708e-07
2.01851e-07
1.93998e-07
1.92812e-07
2.0271e-07
2.28151e-07
0.00338889
1.6629e-07
1.1684e-07
1.12386e-07
1.0657e-07
1.02005e-07
9.83242e-08
9.6999e-08
1.01564e-07
1.14632e-07
0.00172352
1.00897e-07
7.14148e-08
6.79344e-08
6.44875e-08
6.23792e-08
6.10406e-08
5.93673e-08
6.10071e-08
6.64954e-08
8.28808e-08
6.5175e-08
4.51864e-08
4.35299e-08
4.19347e-08
4.04316e-08
3.92965e-08
3.87137e-08
3.99101e-08
4.24255e-08
5.42628e-08
8.99641e-05
2.32156e-05
2.42715e-05
2.32388e-05
2.22903e-05
2.16194e-05
2.12557e-05
2.12202e-05
0.000477252
0.00303581
3.17832e-05
1.21241e-05
1.23072e-05
1.16881e-05
1.11521e-05
1.07593e-05
1.05321e-05
1.04932e-05
0.00206936
0.00575122
1.04391e-05
5.11988e-06
5.07898e-06
4.80388e-06
4.58e-06
4.41379e-06
4.32755e-06
4.35055e-06
0.00184438
0.00565763
4.16959e-06
2.30679e-06
2.251e-06
2.13208e-06
2.03253e-06
1.95527e-06
1.9164e-06
1.93454e-06
0.00198577
0.00632294
1.76468e-06
1.05441e-06
1.02112e-06
9.67295e-07
9.21781e-07
8.85652e-07
8.67857e-07
8.78808e-07
0.00139388
0.00593912
7.74178e-07
4.91164e-07
4.72513e-07
4.4843e-07
4.26657e-07
4.0976e-07
4.00862e-07
4.07792e-07
0.00125485
0.00577015
3.49656e-07
2.33162e-07
2.23238e-07
2.11869e-07
2.02059e-07
1.94606e-07
1.89625e-07
1.93504e-07
0.000203976
0.00469777
1.70492e-07
1.18098e-07
1.12828e-07
1.07353e-07
1.03007e-07
9.92424e-08
9.69495e-08
9.85921e-08
0.000334563
0.004535
1.02092e-07
7.13363e-08
6.81008e-08
6.52075e-08
6.25942e-08
6.06654e-08
6.02298e-08
6.08521e-08
6.44298e-08
0.00315176
6.67342e-08
4.51439e-08
4.33187e-08
4.17788e-08
4.02388e-08
3.9041e-08
3.92977e-08
3.94973e-08
4.20354e-08
0.00450675
8.89762e-05
2.16754e-05
2.26456e-05
2.15411e-05
2.05694e-05
1.9912e-05
1.95478e-05
1.9474e-05
1.96868e-05
0.00104295
3.16321e-05
1.12924e-05
1.15189e-05
1.09322e-05
1.04271e-05
1.00611e-05
9.84044e-06
9.7652e-06
0.00111156
0.0031455
1.05258e-05
4.86546e-06
4.8528e-06
4.59079e-06
4.37671e-06
4.21338e-06
4.1083e-06
4.06997e-06
0.00142341
0.00353669
4.21253e-06
2.22146e-06
2.17612e-06
2.06244e-06
1.96605e-06
1.88938e-06
1.83906e-06
1.82098e-06
0.00165538
0.00404741
1.78404e-06
1.02403e-06
9.94809e-07
9.43589e-07
8.99277e-07
8.64191e-07
8.40331e-07
8.33741e-07
0.00130578
0.00376574
7.82973e-07
4.80066e-07
4.64159e-07
4.39782e-07
4.19859e-07
4.02481e-07
3.91585e-07
3.89079e-07
0.00127513
0.00367579
3.54385e-07
2.29269e-07
2.20786e-07
2.09156e-07
2.00461e-07
1.918e-07
1.86781e-07
1.85932e-07
0.000660844
0.00309162
1.72623e-07
1.16119e-07
1.11634e-07
1.06639e-07
1.01135e-07
9.82401e-08
9.55996e-08
9.55996e-08
0.000828621
0.00323771
1.03098e-07
7.03368e-08
6.75025e-08
6.42344e-08
6.18628e-08
6.02722e-08
5.90864e-08
5.92021e-08
0.000255022
0.00294919
6.69791e-08
4.4698e-08
4.34785e-08
4.10394e-08
3.96078e-08
3.91306e-08
3.82823e-08
3.91837e-08
0.000657208
0.0037554
8.58983e-05
1.95887e-05
2.0731e-05
1.96808e-05
1.86797e-05
1.79989e-05
1.76181e-05
1.75145e-05
1.76588e-05
0.000205146
3.08936e-05
1.02982e-05
1.0583e-05
1.00377e-05
9.56199e-06
9.21855e-06
9.00525e-06
8.9177e-06
0.000401278
0.00136813
1.03813e-05
4.51832e-06
4.53849e-06
4.29361e-06
4.09276e-06
3.93962e-06
3.83401e-06
3.77666e-06
0.000771595
0.00178421
4.16568e-06
2.09292e-06
2.05977e-06
1.95281e-06
1.86241e-06
1.79007e-06
1.73824e-06
1.70726e-06
0.00101346
0.00208764
1.77054e-06
9.74875e-07
9.50835e-07
9.02206e-07
8.61012e-07
8.26958e-07
8.02242e-07
7.88426e-07
0.000816948
0.00178828
7.79176e-07
4.60334e-07
4.46212e-07
4.23624e-07
4.04549e-07
3.88726e-07
3.77118e-07
3.70574e-07
0.000773023
0.00154449
3.52901e-07
2.21484e-07
2.13794e-07
2.03279e-07
1.9388e-07
1.86782e-07
1.81032e-07
1.7883e-07
0.000403687
0.00106562
1.72062e-07
1.12976e-07
1.08865e-07
1.03542e-07
9.96085e-08
9.54976e-08
9.34865e-08
9.23922e-08
0.00042642
0.00100222
1.01444e-07
6.76998e-08
6.54413e-08
6.27258e-08
6.0091e-08
5.80745e-08
5.76981e-08
5.76712e-08
0.000213465
0.000902799
6.65458e-08
4.35245e-08
4.15282e-08
4.0148e-08
3.88172e-08
3.7363e-08
3.72398e-08
3.79792e-08
0.000339113
0.00121392
8.34062e-05
1.67551e-05
1.8397e-05
1.769e-05
1.67563e-05
1.60441e-05
1.56229e-05
1.5468e-05
1.55467e-05
1.64588e-05
2.96713e-05
9.15466e-06
9.53105e-06
9.04729e-06
8.6044e-06
8.2811e-06
8.07267e-06
7.97816e-06
3.12018e-05
0.000436349
1.00163e-05
4.0944e-06
4.15007e-06
3.92767e-06
3.74203e-06
3.59978e-06
3.49841e-06
3.43801e-06
0.000285114
0.000664153
4.02805e-06
1.92923e-06
1.90691e-06
1.80883e-06
1.72538e-06
1.65841e-06
1.60823e-06
1.57417e-06
0.000423501
0.000753573
1.72029e-06
9.08085e-07
8.89115e-07
8.44417e-07
8.06083e-07
7.74897e-07
7.51095e-07
7.34638e-07
0.00029603
0.000436659
7.59387e-07
4.32858e-07
4.20829e-07
4.00621e-07
3.8275e-07
3.67422e-07
3.56184e-07
3.48726e-07
0.00017101
2.8419e-05
3.45487e-07
2.0984e-07
2.03027e-07
1.93649e-07
1.85004e-07
1.78008e-07
1.7312e-07
1.68904e-07
4.21194e-05
0.000417771
1.68176e-07
1.07529e-07
1.039e-07
9.88132e-08
9.49366e-08
9.19122e-08
8.93278e-08
8.77607e-08
0.000227299
0.000808063
1.0019e-07
6.50357e-08
6.25362e-08
5.97618e-08
5.77123e-08
5.60376e-08
5.49379e-08
5.52878e-08
0.000197439
0.000863345
6.55115e-08
4.13326e-08
3.966e-08
3.79187e-08
3.7071e-08
3.62691e-08
3.56276e-08
3.56047e-08
0.000275463
0.000910294
8.38726e-05
1.27981e-05
1.50952e-05
1.51355e-05
1.45747e-05
1.39978e-05
1.35955e-05
1.34123e-05
1.34567e-05
1.42121e-05
2.81136e-05
7.85183e-06
8.36573e-06
7.97675e-06
7.58205e-06
7.2854e-06
7.08904e-06
6.98926e-06
6.95696e-06
7.31407e-05
9.47008e-06
3.60895e-06
3.70774e-06
3.51132e-06
3.34245e-06
3.21281e-06
3.11786e-06
3.05754e-06
6.61562e-05
0.000152898
3.8055e-06
1.73559e-06
1.725e-06
1.63695e-06
1.56199e-06
1.50042e-06
1.45264e-06
1.41952e-06
8.88891e-05
7.51884e-05
1.63432e-06
8.27648e-07
8.13152e-07
7.72951e-07
7.38263e-07
7.09308e-07
6.86524e-07
6.70494e-07
2.0974e-05
0.000245092
7.2615e-07
3.98151e-07
3.88598e-07
3.6946e-07
3.53294e-07
3.39907e-07
3.29236e-07
1.7125e-05
0.000257213
0.000777274
3.31662e-07
1.94592e-07
1.89196e-07
1.79739e-07
1.72469e-07
1.65965e-07
1.61137e-07
1.57644e-07
0.000346249
0.00115735
1.6216e-07
1.0009e-07
9.75855e-08
9.30615e-08
8.88698e-08
8.61094e-08
8.34257e-08
8.78065e-05
0.000759776
0.00183838
9.6137e-08
6.08312e-08
5.89956e-08
5.63235e-08
5.41393e-08
5.25128e-08
5.13278e-08
5.09793e-08
0.000546577
0.00177385
6.31825e-08
3.87437e-08
3.8126e-08
3.63582e-08
3.51228e-08
3.39939e-08
3.3504e-08
7.29492e-05
0.000805847
0.00211182
9.68109e-05
9.55802e-06
1.17615e-05
1.22398e-05
1.20943e-05
1.17519e-05
1.1434e-05
1.12179e-05
1.10878e-05
1.12972e-05
2.65104e-05
6.44359e-06
7.1249e-06
6.85703e-06
6.52212e-06
6.25831e-06
6.07764e-06
5.97954e-06
5.94125e-06
5.61533e-06
8.79672e-06
3.083e-06
3.22908e-06
3.06577e-06
2.91491e-06
2.79725e-06
2.71135e-06
2.65292e-06
4.2167e-06
1.69239e-05
3.51131e-06
1.52355e-06
1.52283e-06
1.44579e-06
1.379e-06
1.32403e-06
1.28057e-06
1.24871e-06
3.6789e-05
0.000166729
1.51629e-06
7.35602e-07
7.25928e-07
6.90525e-07
6.59703e-07
6.33499e-07
6.12114e-07
5.96058e-07
0.000139756
0.00045649
6.77386e-07
3.57423e-07
3.5071e-07
3.34078e-07
3.19019e-07
3.06545e-07
2.96239e-07
0.00010284
0.000475413
0.00104583
3.10933e-07
1.76464e-07
1.71976e-07
1.6424e-07
1.57455e-07
1.51119e-07
1.46314e-07
1.42935e-07
0.000429579
0.00128522
1.52793e-07
9.21684e-08
8.92933e-08
8.53253e-08
8.18324e-08
7.83633e-08
7.66288e-08
0.000302229
0.00107099
0.00218322
9.04771e-08
5.59028e-08
5.411e-08
5.18851e-08
5.01138e-08
4.83858e-08
4.75433e-08
4.66361e-08
0.000693764
0.00196364
6.03498e-08
3.55027e-08
3.43344e-08
3.31266e-08
3.19188e-08
3.11861e-08
3.05525e-08
0.000255202
0.00111558
0.00250932
0.000105158
9.18289e-06
1.04723e-05
1.0714e-05
1.08207e-05
1.08536e-05
1.08946e-05
1.10939e-05
1.16262e-05
1.29945e-05
2.47517e-05
4.92857e-06
5.85691e-06
5.75621e-06
5.52466e-06
5.33539e-06
5.20123e-06
5.1132e-06
5.03603e-06
4.60041e-06
8.02724e-06
2.52037e-06
2.72644e-06
2.60404e-06
2.47811e-06
2.38134e-06
2.30697e-06
2.25605e-06
2.21168e-06
4.15716e-05
3.15844e-06
1.29758e-06
1.30798e-06
1.24363e-06
1.18616e-06
1.1378e-06
1.10008e-06
1.06995e-06
3.99026e-05
0.000186763
1.37156e-06
6.37266e-07
6.31144e-07
6.01261e-07
5.74092e-07
5.51119e-07
5.32091e-07
5.16755e-07
0.00014126
0.000431832
6.16582e-07
3.12917e-07
3.0792e-07
2.92872e-07
2.80502e-07
2.69706e-07
2.60594e-07
0.000185434
0.000549716
0.00102934
2.85595e-07
1.55752e-07
1.52316e-07
1.45713e-07
1.39258e-07
1.34522e-07
1.29687e-07
1.26251e-07
0.000342977
0.00107177
1.40691e-07
8.1707e-08
7.97632e-08
7.62068e-08
7.32027e-08
7.12147e-08
2.13703e-05
0.000504943
0.00120567
0.00213009
8.38285e-08
4.98608e-08
4.8676e-08
4.68286e-08
4.47201e-08
4.34349e-08
4.26317e-08
4.17481e-08
0.000633433
0.00170219
5.60746e-08
3.23051e-08
3.14583e-08
2.99857e-08
2.89733e-08
2.8237e-08
2.78137e-08
0.000401136
0.00120705
0.00239527
6.37114e-05
3.13737e-06
2.18039e-06
5.28596e-07
4.15159e-07
1.00722e-06
1.6252e-06
2.40866e-06
3.45819e-06
4.82185e-06
2.54021e-05
3.64354e-06
4.59671e-06
4.4218e-06
4.08291e-06
3.83018e-06
3.67917e-06
3.65265e-06
3.76549e-06
3.80809e-06
7.39632e-06
1.99198e-06
2.2485e-06
2.14944e-06
2.02574e-06
1.928e-06
1.85436e-06
1.80132e-06
7.25818e-07
3.04745e-05
2.77372e-06
1.07282e-06
1.09352e-06
1.04044e-06
9.89634e-07
9.47657e-07
9.13091e-07
8.85608e-07
8.59239e-07
0.00011392
1.20567e-06
5.35779e-07
5.33138e-07
5.08291e-07
4.85322e-07
4.64963e-07
4.48682e-07
4.34572e-07
9.59043e-05
0.000322401
5.46156e-07
2.66129e-07
2.62561e-07
2.50728e-07
2.39922e-07
2.30245e-07
1.86663e-05
0.00024476
0.000547544
0.000899621
2.54094e-07
1.34068e-07
1.31445e-07
1.25786e-07
1.20675e-07
1.15519e-07
1.11937e-07
1.08218e-07
0.000153252
0.000717896
1.26268e-07
7.09267e-08
6.94482e-08
6.64912e-08
6.36369e-08
6.11522e-08
0.000238971
0.000665269
0.00123755
0.00191381
7.5627e-08
4.39815e-08
4.26374e-08
4.09946e-08
3.94265e-08
3.80825e-08
3.68317e-08
3.6589e-08
0.000415663
0.00121778
5.09292e-08
2.81667e-08
2.714e-08
2.6233e-08
2.52576e-08
2.46929e-08
2.3786e-08
0.000478754
0.00114386
0.002037
0.000194065
5.01527e-05
5.19285e-05
4.95279e-05
4.80683e-05
4.76399e-05
4.71967e-05
4.609e-05
4.43029e-05
4.22262e-05
1.70485e-05
1.12842e-06
3.64915e-06
4.45979e-06
4.6815e-06
4.72612e-06
4.60514e-06
4.29104e-06
3.78669e-06
2.81605e-06
6.35267e-06
1.30057e-06
1.70114e-06
1.72193e-06
1.68099e-06
1.64582e-06
1.61766e-06
1.58941e-06
3.64201e-05
3.55218e-05
2.35547e-06
8.40315e-07
8.72544e-07
8.36465e-07
8.01356e-07
7.71592e-07
7.47698e-07
7.26778e-07
7.04109e-07
1.3249e-05
1.02654e-06
4.34483e-07
4.34619e-07
4.14847e-07
3.96549e-07
3.81004e-07
3.67287e-07
3.55069e-07
5.23261e-05
0.000211343
4.68684e-07
2.19031e-07
2.16836e-07
2.0741e-07
1.98223e-07
1.90301e-07
0.000107244
0.000286668
0.000518026
0.000750808
2.1974e-07
1.11505e-07
1.09851e-07
1.05206e-07
1.00115e-07
9.64668e-08
9.27337e-08
9.02309e-08
8.71553e-08
0.000336998
4.96963e-05
5.97127e-08
5.84528e-08
5.59902e-08
5.39285e-08
0.000176878
0.000461464
0.000794491
0.00123365
0.00167596
6.61068e-08
3.69126e-08
3.6097e-08
3.45698e-08
3.34244e-08
3.23831e-08
3.16369e-08
3.05957e-08
0.000101357
0.000662662
4.53629e-08
2.36395e-08
2.31781e-08
2.26532e-08
2.18259e-08
2.05056e-08
6.21765e-05
0.000497565
0.001
0.00161622
0.000930587
0.000149731
0.000156226
0.000156925
0.000155167
0.000146655
0.000131704
0.000112492
9.09582e-05
6.77409e-05
5.65007e-05
3.0547e-06
3.01012e-06
1.7615e-06
6.86989e-07
3.56039e-07
6.00941e-07
1.0954e-06
1.43858e-06
1.18279e-06
3.14582e-05
1.56384e-06
9.36343e-06
1.85824e-05
2.95296e-05
4.45214e-05
6.47469e-05
7.6491e-05
0.000116976
7.73919e-05
1.94496e-06
6.51518e-07
6.91685e-07
6.56295e-07
6.13423e-07
5.78477e-07
5.51502e-07
5.32868e-07
5.15003e-07
4.37442e-07
8.40098e-07
3.40276e-07
3.42254e-07
3.26409e-07
3.11071e-07
2.97381e-07
2.85592e-07
2.76262e-07
3.93356e-05
0.000139233
2.43083e-05
1.73339e-07
1.72629e-07
1.64976e-07
1.57789e-07
7.65161e-05
0.000193098
0.000322014
0.000490584
0.000627956
1.82905e-07
8.91269e-08
8.81607e-08
8.41776e-08
8.12198e-08
7.75522e-08
7.46931e-08
7.211e-08
6.95269e-08
6.47448e-08
0.000441004
0.000234449
0.000180418
0.000214678
0.000307094
0.000458251
0.000683761
0.000919535
0.00124666
0.00149497
5.56964e-08
3.01691e-08
2.97819e-08
2.88784e-08
2.72489e-08
2.61519e-08
2.58776e-08
2.48935e-08
2.4474e-08
0.000120937
3.86833e-08
1.95359e-08
1.8974e-08
1.84712e-08
1.73916e-08
1.74064e-08
0.000160254
0.000473729
0.000828256
0.00122591
0.00360405
0.000516676
0.000577209
0.000557111
0.000486992
0.000399965
0.000312561
0.000231406
0.000156686
8.46543e-05
5.05907e-05
1.77952e-05
6.0599e-06
1.07774e-06
4.3286e-08
2.95516e-08
3.25769e-07
1.74087e-06
4.9834e-06
1.04376e-05
3.74657e-05
3.53833e-05
0.000103424
0.000141002
0.000163556
0.000181391
0.000199041
0.000203151
0.000244871
0.000162154
1.57801e-06
4.34098e-07
4.97353e-07
4.99456e-07
4.8234e-07
4.57497e-07
4.31829e-07
4.05612e-07
3.76905e-07
3.22802e-07
6.61753e-07
2.53029e-07
2.56682e-07
2.4643e-07
2.34622e-07
2.2411e-07
2.14377e-07
1.84289e-05
6.76245e-05
0.000119514
0.000131508
8.20637e-05
7.32461e-05
8.69006e-05
0.000124669
0.000185216
0.00026916
0.000355583
0.000475418
0.000544232
1.45896e-07
6.85024e-08
6.77692e-08
6.49646e-08
6.18667e-08
5.96303e-08
5.70823e-08
5.50476e-08
5.28295e-08
4.86179e-08
0.000946334
0.000618294
0.000530588
0.000560985
0.00063876
0.000755666
0.000923703
0.00107692
0.00132126
0.00141749
4.51677e-08
2.33668e-08
2.30369e-08
2.2467e-08
2.12371e-08
2.07722e-08
1.98423e-08
1.90474e-08
1.95274e-08
1.88641e-08
3.20008e-08
1.50405e-08
1.48755e-08
1.42843e-08
1.40231e-08
1.28992e-05
0.000199869
0.000402877
0.000639987
0.000880505
0.0124282
0.00175344
0.00160011
0.00121685
0.000880444
0.000616759
0.000413776
0.000253498
0.000117598
1.0893e-05
0.000287199
3.2471e-05
3.25684e-05
3.1763e-05
2.72308e-05
2.00283e-05
1.07838e-05
8.33044e-07
1.62817e-05
3.64579e-05
7.42955e-06
0.000122824
0.000251303
0.000316539
0.000349347
0.000368946
0.000383337
0.000381315
0.000424392
0.000295215
1.06826e-06
2.49557e-07
3.21027e-07
3.45873e-07
3.53094e-07
3.57465e-07
3.6112e-07
3.62066e-07
3.48659e-07
2.18605e-07
1.19782e-05
4.52559e-06
5.8456e-06
1.06834e-05
2.32162e-05
4.32e-05
6.91612e-05
9.3912e-05
0.000125471
0.000141905
0.000227495
0.000185361
0.000180138
0.000193777
0.000222565
0.000264747
0.000320758
0.000375974
0.000459831
0.000485954
1.09797e-07
4.91974e-08
4.87373e-08
4.70332e-08
4.46475e-08
4.33694e-08
4.13926e-08
3.99441e-08
3.73198e-08
3.44903e-08
0.00158202
0.00108415
0.000940261
0.000952708
0.00101086
0.00109618
0.00121611
0.00131005
0.00149932
0.0014797
3.45633e-08
1.7498e-08
1.7261e-08
1.63826e-08
1.59922e-08
1.53787e-08
1.46677e-08
1.45143e-08
1.36777e-08
1.40952e-08
2.4974e-08
1.12982e-08
1.10681e-08
1.03396e-08
1.01479e-08
1.64724e-05
0.000142016
0.000254872
0.000408767
0.000539572
0.0423172
0.00156014
0.00137487
0.000996021
0.000676835
0.000435145
0.000252632
0.000107031
2.27392e-05
0.000153814
0.000250571
0.000191201
0.0001389
9.63955e-05
6.20398e-05
3.31542e-05
6.83721e-06
2.0134e-05
5.1548e-05
8.76408e-05
5.47399e-05
0.000237432
0.000438988
0.000531207
0.000574253
0.000596376
0.00060986
0.000609002
0.000656855
0.000490902
9.63173e-07
1.03107e-07
1.40391e-07
1.61374e-07
1.76226e-07
1.91921e-07
2.15696e-07
2.50948e-07
3.05484e-07
4.50188e-07
6.08003e-05
7.38763e-05
8.71271e-05
9.7198e-05
0.000108159
0.000121811
0.000137936
0.000152022
0.000173359
0.000170176
0.000265315
0.000235012
0.000230543
0.000239731
0.000257954
0.000283643
0.000317114
0.000350258
0.00040629
0.000413419
7.7216e-08
3.26819e-08
3.27453e-08
3.12086e-08
3.04482e-08
2.87056e-08
2.77551e-08
2.65352e-08
2.51887e-08
2.2123e-08
0.00233531
0.0016182
0.00140128
0.00138596
0.00142255
0.00148061
0.00156187
0.00161969
0.00177336
0.00167484
2.44241e-08
1.16913e-08
1.17821e-08
1.12895e-08
1.06285e-08
1.02915e-08
1.00711e-08
9.74711e-09
9.60453e-09
9.01971e-09
1.8122e-08
7.77047e-09
7.11699e-09
7.39026e-09
6.86748e-09
7.28333e-09
2.75962e-06
5.01345e-05
0.000156688
0.000206061
0.0377109
0.000792923
0.000589954
0.000375797
0.000215919
0.000100166
1.06471e-05
6.84013e-05
0.000150823
0.000246108
0.000253662
0.0001706
0.000118742
7.45132e-05
3.91759e-05
1.01792e-05
1.58518e-05
4.22902e-05
7.23126e-05
0.000102514
0.000136214
0.000298252
0.000568319
0.000673993
0.000719948
0.00073991
0.000749664
0.000751058
0.000793606
0.00062964
3.30583e-07
1.57519e-07
1.17369e-07
6.31356e-08
2.97122e-09
6.65486e-08
1.42895e-07
2.24288e-07
3.15225e-07
4.99154e-07
8.6822e-05
9.93622e-05
0.000110363
0.000117629
0.000124026
0.000131292
0.000139714
0.000147306
0.000161345
0.000155311
0.000212091
0.000195401
0.00019221
0.000196412
0.000205035
0.000217023
0.000232607
0.000248823
0.000280249
0.000285082
4.80402e-08
1.98081e-08
1.99554e-08
1.86594e-08
1.80556e-08
1.77316e-08
1.62294e-08
1.58465e-08
1.47125e-08
1.24628e-08
0.0028318
0.00198854
0.00172663
0.00168632
0.00170115
0.00173298
0.00177846
0.00181131
0.00192887
0.0018054
1.56438e-08
7.30202e-09
6.86824e-09
6.91644e-09
6.73569e-09
6.37421e-09
5.95247e-09
5.79583e-09
5.42229e-09
5.39135e-09
1.25902e-05
1.19338e-05
4.80476e-09
4.26353e-09
8.90691e-06
3.01825e-05
7.18933e-05
8.32509e-05
0.000178718
0.000163176
0.00954293
0.000328013
4.25464e-05
0.000113302
0.000217292
0.00029843
0.000368538
0.000446958
0.000484674
0.000499002
3.39346e-05
3.76154e-05
1.69733e-05
5.49216e-07
1.12739e-05
2.07549e-05
2.97885e-05
3.96569e-05
5.09079e-05
5.81811e-05
0.000258853
0.000215954
0.000456768
0.00053417
0.000565936
0.000577325
0.000581191
0.000583464
0.000608351
0.000523563
1.23261e-07
1.09829e-07
1.6231e-07
2.05426e-07
2.46252e-07
2.83936e-07
3.18068e-07
3.44714e-07
3.68054e-07
3.95189e-07
6.0989e-05
6.39609e-05
6.81077e-05
7.05378e-05
7.23959e-05
7.43846e-05
7.67379e-05
7.9039e-05
8.49437e-05
8.36796e-05
9.79929e-05
9.22276e-05
9.12946e-05
9.24662e-05
9.4704e-05
9.76201e-05
0.00010136
0.000105396
0.000115949
0.000120686
2.44628e-08
9.93963e-09
9.20031e-09
8.73482e-09
8.69375e-09
8.21457e-09
7.87229e-09
7.44787e-09
7.47526e-09
5.69262e-09
0.0021313
0.00160606
0.00142631
0.00139202
0.00139221
0.00139976
0.00141065
0.00141576
0.00147091
0.00138475
7.91812e-09
3.57334e-09
3.79737e-09
3.70776e-09
2.89003e-09
3.3157e-09
3.15887e-09
2.81162e-09
2.74441e-09
2.58773e-09
0.000960947
0.000929198
0.000954289
0.000991723
0.00101437
0.00103036
0.00104931
0.00104709
0.00113061
0.00105791
0.0126432
5.74191e-05
0.000220075
0.000333464
0.000417605
0.000478606
0.000520311
0.000546139
0.000553002
0.000576665
3.59083e-05
6.81207e-05
4.86731e-05
3.39881e-05
2.44103e-05
1.85254e-05
1.49818e-05
1.26425e-05
1.03336e-05
5.32519e-06
0.000210901
4.1254e-05
0.000111265
0.000127322
0.000132575
0.000131606
0.000126736
0.000118507
0.000107519
8.42411e-05
4.4213e-09
5.48018e-08
3.90896e-08
2.47233e-08
1.20276e-08
1.91868e-09
1.58649e-08
2.96203e-08
3.42977e-08
3.85359e-08
1.53952e-05
1.39973e-05
1.44565e-05
1.45943e-05
1.46046e-05
1.45507e-05
1.44683e-05
1.43049e-05
1.46116e-05
1.4502e-05
1.62188e-05
1.50673e-05
1.50663e-05
1.51948e-05
1.52571e-05
1.52308e-05
1.51758e-05
1.50911e-05
1.60666e-05
1.70866e-05
7.74344e-09
3.01644e-09
3.25826e-09
3.14371e-09
2.96553e-09
2.69825e-09
2.90189e-09
2.17642e-09
2.10005e-09
1.66731e-09
0.000487949
0.00047131
0.000446617
0.000442113
0.000441166
0.000439703
0.000436881
0.000430805
0.000432746
0.000403991
2.73844e-09
1.1559e-09
1.1559e-09
1.10383e-09
1.20796e-09
9.268e-10
1.12466e-09
1.45789e-09
5.31087e-10
1.33293e-09
0.00228579
0.00241529
0.0024843
0.00252848
0.00254921
0.00255441
0.00254911
0.00252883
0.00252769
0.00237145
0.778665
0.610693
0.749781
1.21779
0.419376
0.407198
0.507395
0.772532
0.148763
0.208868
0.305339
0.530453
0.33072
0.209237
0.173557
0.186981
0.687561
0.53915
0.552979
0.790207
0.954796
0.787252
0.868305
1.35957
1.09666
0.895986
1.06598
1.79366
1.14821
0.927723
1.19896
2.13928
1.1487
0.941383
1.30199
2.39465
1.09722
0.92472
1.39575
2.58681
0.030765
0.00102387
5.27666e-05
0.00326108
0.0384593
0.00188113
4.32723e-05
0.00121614
0.0508012
0.00296901
2.58405e-05
0.00281056
0.125624
0.0127949
1.43954e-05
0.0252946
0.203557
0.0251868
7.81195e-06
0.0493158
0.285513
0.0398561
4.09619e-06
0.0788197
0.350069
0.051272
2.11583e-06
0.110415
0.399122
0.0622974
1.11706e-06
0.141631
0.430931
0.0764586
0.0103814
0.168122
0.447445
0.11066
0.0483323
0.183946
0.0474251
0.0291118
0.0241672
0.0272434
0.0543694
0.0277479
0.0199124
0.0226973
0.057936
0.0252785
0.0157418
0.0133045
0.0939465
0.0433047
0.0338235
0.0421315
0.128794
0.0582966
0.049721
0.0700005
0.168577
0.0750915
0.068758
0.10658
0.201653
0.0869014
0.0837535
0.139966
0.230651
0.096593
0.0974532
0.173441
0.247147
0.0970818
0.10368
0.196028
0.257864
0.0983774
0.112499
0.210791
0.0104159
0.00596703
0.00467306
0.0056913
0.0161089
0.00824094
0.00561524
0.00694657
0.0194387
0.00906632
0.00550624
0.00521686
0.0309188
0.0152383
0.010935
0.0120811
0.0422851
0.0207859
0.0163509
0.0189123
0.057179
0.0282683
0.0242865
0.0298856
0.0712204
0.034654
0.0316801
0.0410683
0.086459
0.0417472
0.0403966
0.0549021
0.0947155
0.0431728
0.0451235
0.064493
0.101885
0.046614
0.0538454
0.0753332
0.00529039
0.00381192
0.00324718
0.00370151
0.00910186
0.00617968
0.00502888
0.00546495
0.00951658
0.00598219
0.00407498
0.00328017
0.0133297
0.00860764
0.00635173
0.00585939
0.0163732
0.0102957
0.00781871
0.00743295
0.021078
0.0131481
0.0106817
0.0108962
0.025601
0.015586
0.0133464
0.0142694
0.0318108
0.0191045
0.0173867
0.0195071
0.0358275
0.0204422
0.0202526
0.0235272
0.041543
0.02429
0.0267314
0.0301752
0.00157474
0.00100872
0.000799652
0.00102193
0.0039639
0.00267758
0.00225649
0.00249418
0.00408016
0.00263456
0.00180872
0.00131165
0.00537632
0.00369832
0.00270325
0.00219202
0.00576968
0.00390868
0.00279058
0.00215932
0.00673678
0.00461528
0.00349807
0.00296668
0.00750717
0.00511814
0.00406293
0.00363377
0.00934126
0.006415
0.00551104
0.00535834
0.0108093
0.0071798
0.00677756
0.00687411
0.0134554
0.00918544
0.00967068
0.00965938
0.000452739
0.000181796
9.59697e-05
0.000218427
0.00168629
0.0010902
0.000927115
0.00107085
0.00166414
0.00100857
0.000624367
0.00033385
0.00204836
0.00134216
0.000865561
0.000502445
0.00168418
0.00100403
0.000461602
3.78351e-05
0.00142059
0.000786924
0.000265028
0.000246289
0.000979963
0.000442132
2.26436e-05
0.000526245
0.00102689
0.000526436
0.000127759
0.00030711
0.00122654
0.000724268
0.000424801
9.82267e-05
0.0021986
0.00157714
0.00141463
0.00110686
5.92729e-05
2.0836e-05
1.99915e-05
2.05422e-05
0.000569427
0.000312281
0.000257834
0.000329519
0.000486855
0.00023221
6.97882e-05
9.32675e-05
0.00048784
0.000218099
4.87086e-06
0.000239249
2.88376e-05
0.000259736
0.000524351
0.000867602
0.000661132
0.000824834
0.00107859
0.00146935
0.00136525
0.00143982
0.00165356
0.00204357
0.00197393
0.00194137
0.00211439
0.00250553
0.00216524
0.00203814
0.00222003
0.00249737
0.00194921
0.00186543
0.0021354
0.00233278
5.11089e-05
1.7846e-05
1.71669e-05
1.77067e-05
0.000142322
4.16235e-05
2.72025e-05
5.82398e-05
3.82792e-05
2.76179e-05
8.75911e-05
0.000184406
0.000139942
0.000203377
0.000301216
0.000452324
0.000630755
0.000663975
0.000786703
0.00101458
0.00135328
0.00132886
0.0014473
0.00173467
0.00201244
0.00195143
0.00204553
0.00232068
0.00285028
0.002707
0.00277831
0.00309154
0.00295681
0.00280279
0.00289399
0.00308643
0.00315327
0.00308594
0.00330918
0.00341856
3.51702e-05
1.05672e-05
1.0288e-05
1.08168e-05
1.76693e-05
4.99333e-06
4.85464e-06
5.36658e-06
7.13146e-05
5.24301e-05
6.60495e-05
0.000128104
0.000313402
0.000285754
0.000322532
0.000419486
0.000713763
0.000665363
0.000716016
0.000864035
0.00141025
0.00130998
0.00135709
0.00156591
0.00189981
0.0018096
0.00184184
0.00202045
0.00279966
0.00264333
0.00266324
0.00290944
0.00275228
0.00265497
0.00268793
0.00281861
0.00317096
0.00319495
0.00334582
0.003406
5.60175e-05
1.92542e-05
1.77097e-05
1.76079e-05
1.09639e-05
3.78082e-06
3.67588e-06
4.09735e-06
4.5889e-05
1.70114e-06
1.64046e-06
3.4836e-05
0.000292066
0.000232161
0.000240727
0.000301103
0.000593479
0.000518865
0.000535601
0.000631687
0.00122753
0.00109976
0.00111123
0.00126625
0.00151059
0.00142885
0.00143153
0.00153542
0.00241327
0.00225869
0.00225381
0.00245168
0.00221404
0.0021534
0.00215421
0.00223864
0.00273605
0.00280101
0.0028971
0.00292636
4.29477e-05
1.14298e-05
8.18093e-06
5.60664e-06
7.68851e-06
2.52819e-06
2.4541e-06
2.67781e-06
3.23079e-06
1.16543e-06
1.13429e-06
1.28958e-06
0.000204492
0.00014311
0.000139858
0.000172791
0.000418458
0.000344337
0.000346915
0.000409151
0.000984695
0.000851885
0.000846719
0.00096578
0.00106541
0.00100781
0.000998942
0.00104609
0.00196581
0.00181067
0.00179547
0.00196249
0.00159385
0.00155137
0.00153704
0.00158391
0.00217023
0.00223503
0.00229928
0.00230519
0.000166737
3.43053e-05
2.55328e-05
1.88544e-05
9.71043e-06
4.05813e-06
4.28982e-06
5.22534e-06
2.803e-06
9.97417e-07
9.24471e-07
1.00423e-06
0.00011034
6.35037e-05
5.66098e-05
6.70454e-05
0.000259274
0.00019723
0.000195622
0.00023638
0.000759679
0.000632961
0.000620976
0.00071586
0.000649451
0.000625218
0.000614566
0.000617455
0.00156382
0.00140484
0.00138666
0.00153677
0.00099777
0.000970894
0.000951154
0.000965201