/*--------------------------------*- C++ -*----------------------------------*\
| =========                 |                                                 |
| \\      /  F ield         | foam-extend: Open Source CFD                    |
|  \\    /   O peration     | Version:     4.0                                |
|   \\  /    A nd           | Web:         http://www.foam-extend.org         |
|    \\/     M anipulation  |                                                 |
\*---------------------------------------------------------------------------*/
FoamFile
{
    version     2.0;
    format      ascii;
    class       volScalarField;
    location    "1350";
    object      epsilon;
}
// * * * * * * * * * * * * * * * * * * * * * * * * * * * * * * * * * * * * * //

dimensions      [0 2 -3 0 0 0 0];

internalField   nonuniform List<scalar> 
34480
(
4929.46
4927.39
4927.26
4928.78
4932.05
4937.29
4949.94
5003.56
5193.35
5724.53
655.854
602.513
601.571
653.562
839.178
1576.77
5101.24
22854.9
103726
382426
618.062
522.605
509.017
568.745
809.714
1829.4
7043.94
35128.3
172561
699254
523.93
438.702
426.713
484.479
733.295
1883.31
8221.37
44422.9
232248
1.01094e+06
455.776
384.029
376.615
432.402
684.11
1927.12
9179.7
52603.1
289220
1.33353e+06
391.714
332.123
325.898
377.756
627.615
1955.71
10122.8
61056.2
350658
1.69847e+06
352.529
302.095
297.689
345.671
590.651
1961.96
10725.9
67202
400320
2.02215e+06
320.784
281.555
277.143
316.893
533.496
1819.7
10349.2
66973.6
412532
2.16649e+06
459.595
435.522
432.906
458.271
596.481
1409.22
6838.5
43678.2
275836
1.49736e+06
5708.75
5708.91
5714.31
5726.23
5743.03
5763.12
5787.25
5823.11
5889.39
5957.76
4855.03
4852.47
4851.96
4853.46
4857.51
4864.6
4875.75
4901.87
4964.52
5185.11
512.437
479.504
473.838
487.949
532.341
648.805
1003.31
2355.54
11806.6
103694
446.683
383.684
369.981
389.41
458.24
645.606
1229.76
3567.87
21363.5
197670
399.111
338.246
324.786
344.512
415.984
619.734
1294.08
4289.71
30241.5
294778
365.284
310.608
300.061
319.271
390.177
598.212
1320.94
4811.75
38728.7
396552
325.809
278.462
268.643
285.909
351.607
553.314
1292.88
5179.46
47366.2
508642
302.019
260.342
252.144
267.369
328.245
520.494
1254.57
5359.16
54234.5
607873
282.692
249.548
241.854
253.432
300.981
455.813
1073.21
4825.92
55006.2
652013
432.472
410.581
405.473
412.905
442.93
530.936
847.131
2979.18
36403.4
467476
5591.27
5586.89
5587.36
5593.97
5605.63
5620.24
5639.52
5672.44
5740
5912.8
4770.02
4767.59
4766.81
4767.64
4770.31
4774.51
4779.34
4790.15
4814.23
4869.32
400.157
386.659
383.975
388.719
403.826
439.174
527.297
758.988
1518.11
5765.55
308.002
276.766
269.903
279.081
309.499
379.154
550.382
1030.41
2860.89
14995.9
289.989
256.172
248.475
259.053
294.205
378.126
596.972
1279.85
4410.92
28927.6
280.506
247.55
241.08
252.031
289.11
379.847
628.523
1481.13
6143.32
47827
260.988
230.733
224.222
234.605
270.249
361.114
624.54
1625.2
8155.94
73192.6
250.182
222.155
216.541
226.003
260.018
348.532
616.288
1723.76
10172.3
101661
242.771
219.792
214.361
221.956
249.221
321.609
549.119
1593.69
11051.4
122975
402.401
386.054
382.3
387.923
408.28
461.006
606.388
1234.84
7686.09
92158.4
5481.61
5474.47
5472.14
5475.69
5484.47
5496.48
5512.92
5543.61
5616
5801.37
4674.12
4672.59
4672.13
4672.79
4674.62
4676.95
4677.96
4680.77
4688.19
4704.31
328.635
324.476
323.643
324.723
328.779
339.115
365.17
421.799
541.624
941.81
219.277
205.99
203.108
207.145
220.539
248.85
309.051
445.354
772.504
2087.19
214.299
197.555
193.594
199.113
217.066
256.562
345.398
565.569
1169.98
4142.71
217.356
199.299
195.688
201.883
222.472
269
379.246
675.895
1611.92
7157.5
210.484
192.521
188.464
194.845
216.044
266.076
391.709
761.483
2118.93
11606.5
208.254
190.456
186.791
192.926
214.279
265.733
400.551
827.01
2635.22
17137.1
209.764
194.472
190.735
196.008
214.035
258.509
379.297
794.79
2863.01
21871.7
375.414
363.424
360.591
364.766
379.669
416.503
508.195
782.158
2182.31
16564.5
5359.64
5352.52
5349.93
5352.96
5361.22
5373.62
5390.69
5421.48
5488.21
5631.42
4568.82
4568.12
4567.95
4568.37
4569.36
4570.1
4568.79
4567.67
4567.61
4569.36
285.614
284.846
284.74
284.497
284.472
286.202
293.474
307.508
329.933
376.383
167.903
162.85
161.783
163.196
168.231
178.467
198.295
237.52
308.3
484.587
166.401
158.646
156.661
159.156
167.412
184.657
219.498
294.265
443.359
890.014
173.786
164.452
162.498
165.587
176.032
198.371
245.884
356.472
601.753
1498.39
173.47
163.256
160.748
164.289
176.012
202.226
261.254
410.871
784.391
2436.2
175.917
164.998
162.611
166.227
178.84
207.612
275.067
457.412
967.127
3643.4
183.198
173.304
170.723
174.092
185.395
211.927
276.394
463.4
1059.38
4751.36
351.125
342.52
340.341
343.219
353.715
378.861
437.759
581.148
1009.66
3818.9
5229.99
5223.02
5220.28
5222.84
5230.44
5242.54
5259.15
5287.48
5343.1
5445.45
4455.1
4455.03
4455.09
4455.33
4455.72
4455.4
4453.38
4451.3
4449.52
4448.43
259.858
259.919
259.999
259.469
258.462
258.076
259.993
263.393
268.179
275.512
139.448
137.773
137.484
137.865
139.483
142.739
148.676
159.25
175.298
203.192
137.502
134.095
133.152
134.196
137.751
144.83
157.803
182.418
222.653
303.121
144.967
140.411
139.444
140.871
145.842
155.904
175.246
215.208
286.545
458.19
147.269
141.729
140.263
142.125
148.281
161.311
187.761
247.298
364.345
702.167
151.662
145.245
143.786
145.808
152.927
168.283
200.651
278.261
444.492
1014.79
162.162
156.048
154.363
156.437
163.254
178.501
211.975
297.393
500.792
1321.86
329.282
323.384
321.783
323.729
331.032
348.232
386.732
467.322
639.953
1291.73
5092.05
5085.49
5082.77
5084.95
5091.86
5103.16
5118.6
5143.47
5186.5
5253.76
4333.68
4334.03
4334.24
4334.35
4334.35
4333.4
4331.53
4329.53
4327.71
4326.35
243.835
243.769
243.792
243.31
242.373
241.943
242.322
243.087
244.228
246.052
123.986
123.552
123.544
123.58
123.969
124.828
126.396
129.02
132.572
137.265
120.647
119.191
118.753
119.166
120.642
123.474
128.252
136.304
147.652
163.812
126.616
124.495
124.059
124.672
126.928
131.277
138.92
152.971
174.511
210.641
129.449
126.554
125.733
126.666
129.774
136.038
147.606
170.729
209.467
285.973
134.192
130.55
129.703
130.773
134.645
142.583
157.752
190.036
248.04
381.825
146.095
142.483
141.434
142.658
146.616
155.122
172.263
210.915
287.172
490.366
309.98
306.13
304.98
306.27
311.319
323.25
348.891
396.111
479.927
667.887
4945.61
4939.65
4937.09
4938.94
4945.06
4955.11
4968.83
4989.79
5022.22
5066.06
4205.05
4205.67
4205.97
4206.01
4205.78
4204.7
4203.21
4201.62
4200.18
4199.09
232.942
232.492
232.386
232.03
231.435
231.263
231.293
231.468
231.883
232.883
115.598
115.561
115.63
115.578
115.587
115.709
115.998
116.53
117.24
118.021
111.04
110.421
110.218
110.376
110.985
112.126
113.934
116.686
120.139
123.838
115.258
114.317
114.145
114.389
115.378
117.213
120.224
125.207
132.012
140.418
117.717
116.257
115.815
116.266
117.792
120.75
125.823
134.874
148.356
167.654
122.03
120.026
119.56
120.099
122.15
126.184
133.306
146.779
168.063
202.562
134.179
132.152
131.531
132.229
134.452
139.096
147.896
165.501
196.006
252.405
293.025
290.665
289.844
290.699
294.224
302.756
320.159
348.83
394.051
462.747
4790.49
4785.3
4783
4784.55
4789.8
4798.32
4809.99
4826.95
4850.81
4879.73
4069.57
4070.33
4070.69
4070.68
4070.32
4069.44
4068.34
4067.18
4066.15
4065.34
224.527
223.711
223.473
223.236
222.993
222.942
222.931
223.013
223.319
224.217
111
111.053
111.121
111.064
110.991
110.923
110.884
110.904
110.981
111.079
105.695
105.423
105.324
105.385
105.642
106.119
106.841
107.854
109.019
110.005
108.422
108.024
107.97
108.059
108.482
109.243
110.438
112.255
114.536
116.743
110.238
109.527
109.298
109.51
110.243
111.623
113.874
117.526
122.536
128.16
113.841
112.765
112.522
112.783
113.851
115.886
119.281
125.07
133.378
143.471
125.568
124.502
124.154
124.542
125.754
128.249
132.797
140.983
153.905
171.98
278.073
276.754
276.156
276.738
279.27
285.606
297.603
315.568
341.454
371.352
4626.68
4622.34
4620.38
4621.65
4625.99
4632.9
4642.4
4655.6
4672.68
4691.66
3927.63
3928.29
3928.69
3928.65
3928.31
3927.69
3926.92
3926.12
3925.42
3924.83
216.946
216.046
215.694
215.549
215.493
215.472
215.478
215.568
215.881
216.778
108.385
108.44
108.488
108.446
108.376
108.285
108.194
108.122
108.088
108.087
102.804
102.673
102.62
102.645
102.762
102.975
103.288
103.701
104.145
104.452
104.431
104.27
104.261
104.29
104.469
104.786
105.269
105.956
106.763
107.414
105.633
105.3
105.185
105.282
105.628
106.265
107.272
108.79
110.762
112.68
108.51
107.941
107.821
107.943
108.498
109.528
111.179
113.764
117.211
120.627
119.471
118.96
118.779
118.992
119.635
120.962
123.312
127.189
132.883
139.606
264.681
264.059
263.601
264.022
265.927
270.78
279.138
290.674
306.073
320.294
4454.32
4450.86
4449.27
4450.28
4453.72
4459.06
4466.5
4476.38
4488.27
4500.52
3779.35
3779.88
3780.21
3780.18
3779.95
3779.54
3779.03
3778.5
3778.03
3777.59
209.499
208.615
208.275
208.167
208.129
208.124
208.149
208.253
208.578
209.472
106.784
106.823
106.853
106.825
106.772
106.702
106.628
106.566
106.536
106.54
101.291
101.219
101.188
101.2
101.258
101.363
101.513
101.703
101.9
102.012
102.183
102.117
102.12
102.128
102.207
102.347
102.554
102.832
103.137
103.354
102.906
102.756
102.7
102.745
102.906
103.198
103.649
104.293
105.098
105.847
105.16
104.857
104.8
104.859
105.152
105.685
106.509
107.715
109.221
110.535
115.201
114.993
114.908
115.025
115.361
116.065
117.262
119.108
121.641
124.448
252.367
252.196
251.814
252.147
253.669
257.416
263.259
270.78
280.209
287.06
4273.68
4271.06
4269.84
4270.61
4273.2
4277.18
4282.78
4289.9
4297.94
4305.69
3624.87
3625.3
3625.55
3625.54
3625.41
3625.14
3624.8
3624.46
3624.16
3623.81
201.839
200.983
200.674
200.579
200.55
200.553
200.585
200.693
201.019
201.897
105.689
105.709
105.726
105.708
105.673
105.628
105.58
105.542
105.533
105.553
100.527
100.483
100.465
100.471
100.503
100.558
100.636
100.733
100.834
100.884
100.968
100.935
100.937
100.94
100.98
101.051
101.154
101.283
101.415
101.504
101.362
101.297
101.27
101.291
101.366
101.499
101.701
101.979
102.316
102.643
103.127
102.96
102.934
102.965
103.127
103.417
103.847
104.442
105.138
105.706
112.196
112.14
112.109
112.175
112.35
112.719
113.311
114.178
115.272
116.543
240.667
240.773
240.424
240.711
242.009
244.82
248.884
253.81
259.706
262.775
4085.2
4083.32
4082.45
4083.01
4084.85
4087.73
4091.76
4096.71
4101.97
4106.78
3464.4
3464.75
3464.95
3464.95
3464.87
3464.7
3464.49
3464.26
3464.07
3463.78
193.785
192.965
192.685
192.602
192.576
192.58
192.613
192.716
193.033
193.884
104.838
104.846
104.853
104.842
104.821
104.794
104.768
104.749
104.757
104.787
100.158
100.131
100.121
100.124
100.14
100.169
100.211
100.262
100.32
100.345
100.342
100.319
100.317
100.319
100.344
100.389
100.452
100.526
100.597
100.646
100.531
100.504
100.491
100.501
100.536
100.598
100.689
100.81
100.954
101.115
101.934
101.834
101.821
101.842
101.939
102.108
102.347
102.664
103.012
103.296
110.015
110.031
110.027
110.067
110.161
110.344
110.62
111.009
111.436
112.055
229.162
229.429
229.082
229.349
230.479
232.45
235.236
238.445
242.177
243.221
3889.43
3888.17
3887.59
3887.97
3889.2
3891.25
3894.04
3897.33
3900.66
3903.59
3298.23
3298.52
3298.67
3298.68
3298.64
3298.53
3298.4
3298.26
3298.13
3297.87
185.229
184.448
184.197
184.125
184.1
184.103
184.131
184.224
184.526
185.343
104.105
104.104
104.105
104.098
104.087
104.074
104.062
104.056
104.074
104.11
99.9896
99.9739
99.9694
99.9709
99.9785
99.9918
100.011
100.037
100.07
100.086
100.039
100.02
100.014
100.015
100.034
100.068
100.113
100.165
100.212
100.247
100.112
100.1
100.093
100.098
100.115
100.145
100.187
100.241
100.304
100.393
101.247
101.182
101.174
101.19
101.255
101.361
101.506
101.691
101.882
102.052
108.329
108.383
108.392
108.418
108.467
108.55
108.663
108.819
108.936
109.266
217.295
217.81
217.486
217.745
218.558
219.905
221.768
223.828
226.192
226.148
3687.13
3686.28
3685.93
3686.17
3687
3688.38
3690.24
3692.33
3694.35
3696.09
3126.76
3127.01
3127.12
3127.13
3127.11
3127.05
3126.96
3126.87
3126.78
3126.55
176.087
175.35
175.128
175.067
175.041
175.042
175.064
175.144
175.427
176.206
103.43
103.425
103.422
103.418
103.412
103.408
103.405
103.408
103.431
103.471
99.9224
99.9151
99.9143
99.9147
99.9166
99.92
99.926
99.9363
99.9548
99.9658
99.9074
99.8893
99.8813
99.8829
99.8979
99.9245
99.9595
99.9985
100.034
100.062
99.9191
99.9123
99.9082
99.9107
99.9197
99.9349
99.9554
99.9811
100.01
100.064
100.85
100.803
100.797
100.811
100.857
100.929
101.023
101.14
101.256
101.377
106.924
106.991
107.01
107.027
107.048
107.079
107.112
107.158
107.137
107.334
204.83
205.484
205.287
205.469
206.013
206.898
208.096
209.386
210.861
210.264
3479.06
3478.52
3478.3
3478.46
3479
3479.89
3481.05
3482.32
3483.47
3484.49
2950.52
2950.73
2950.81
2950.82
2950.81
2950.78
2950.72
2950.66
2950.6
2950.39
166.279
165.59
165.397
165.348
165.322
165.32
165.335
165.401
165.661
166.4
102.79
102.782
102.776
102.774
102.772
102.773
102.776
102.784
102.809
102.852
99.9061
99.9041
99.9055
99.9053
99.9038
99.9015
99.9
99.9013
99.9105
99.92
99.8622
99.8461
99.8378
99.8388
99.8503
99.8708
99.8975
99.927
99.954
99.9778
99.8456
99.8403
99.8371
99.8382
99.8434
99.8521
99.8631
99.8763
99.89
99.9254
100.605
100.57
100.565
100.576
100.609
100.659
100.723
100.801
100.876
100.971
105.661
105.725
105.748
105.759
105.767
105.774
105.771
105.771
105.694
105.83
191.595
192.3
192.204
192.327
192.67
193.218
193.939
194.717
195.598
194.772
3266.11
3265.78
3265.65
3265.76
3266.08
3266.62
3267.31
3268.02
3268.63
3269.21
2770.24
2770.41
2770.47
2770.49
2770.49
2770.46
2770.43
2770.38
2770.34
2770.15
155.71
155.071
154.904
154.868
154.849
154.846
154.855
154.904
155.136
155.833
102.179
102.169
102.162
102.16
102.161
102.164
102.171
102.181
102.206
102.25
99.9153
99.9157
99.9177
99.917
99.9142
99.9096
99.9047
99.9019
99.9055
99.9152
99.8594
99.8461
99.8387
99.8391
99.8472
99.8617
99.8808
99.9019
99.922
99.9412
99.8335
99.8287
99.826
99.8263
99.8293
99.8345
99.8407
99.8478
99.8546
99.8775
100.429
100.403
100.398
100.406
100.429
100.463
100.506
100.557
100.607
100.682
104.462
104.514
104.536
104.544
104.546
104.543
104.528
104.511
104.422
104.525
177.446
178.13
178.114
178.193
178.389
178.691
179.071
179.507
179.979
179.132
3049.34
3049.16
3049.09
3049.15
3049.33
3049.63
3050.01
3050.37
3050.65
3050.97
2586.92
2587.06
2587.11
2587.12
2587.12
2587.1
2587.08
2587.04
2587
2586.84
144.245
143.668
143.527
143.503
143.498
143.495
143.497
143.53
143.722
144.372
101.605
101.592
101.584
101.582
101.584
101.589
101.597
101.607
101.63
101.674
99.9341
99.934
99.9355
99.9346
99.9317
99.9274
99.9225
99.9189
99.9197
99.93
99.8774
99.8672
99.8617
99.8616
99.8666
99.8758
99.888
99.9018
99.9158
99.9303
99.8533
99.8495
99.8473
99.8471
99.8486
99.8512
99.8543
99.8576
99.8607
99.8741
100.273
100.253
100.249
100.254
100.268
100.289
100.315
100.346
100.377
100.435
103.295
103.331
103.349
103.354
103.354
103.347
103.329
103.308
103.229
103.311
162.225
162.833
162.881
162.927
163.015
163.136
163.266
163.466
163.639
162.911
2830.07
2829.97
2829.93
2829.97
2830.06
2830.2
2830.39
2830.54
2830.66
2830.81
2401.69
2401.8
2401.83
2401.84
2401.84
2401.83
2401.81
2401.79
2401.76
2401.63
131.657
131.165
131.073
131.063
131.062
131.058
131.053
131.066
131.198
131.78
101.084
101.069
101.062
101.059
101.061
101.066
101.073
101.083
101.1
101.141
99.9506
99.9487
99.9489
99.9479
99.9459
99.9431
99.9401
99.9379
99.9381
99.9479
99.9078
99.901
99.8974
99.8972
99.8998
99.9049
99.9117
99.9196
99.9283
99.9382
99.891
99.8886
99.8873
99.8869
99.8872
99.888
99.8887
99.8895
99.8903
99.8963
100.119
100.107
100.103
100.106
100.113
100.123
100.136
100.151
100.168
100.207
102.172
102.192
102.202
102.204
102.2
102.19
102.174
102.155
102.101
102.162
145.466
145.943
145.977
146.013
146.073
146.153
146.235
146.294
146.225
145.704
2609.7
2609.65
2609.64
2609.66
2609.68
2609.73
2609.78
2609.82
2609.86
2609.93
2215.01
2215.07
2215.08
2215.08
2215.08
2215.08
2215.08
2215.07
2215.07
2215.01
117.395
117.058
117.028
117.033
117.035
117.03
117.019
117.011
117.054
117.479
100.623
100.607
100.599
100.596
100.597
100.6
100.606
100.615
100.629
100.662
99.9665
99.9642
99.9636
99.9629
99.9619
99.9608
99.9597
99.9591
99.9597
99.966
99.9503
99.9467
99.9449
99.9447
99.9459
99.9483
99.9515
99.9553
99.9597
99.965
99.9411
99.9401
99.9395
99.9392
99.9391
99.9389
99.9386
99.9381
99.9378
99.9392
100.009
100.004
100.002
100.003
100.006
100.01
100.014
100.019
100.026
100.044
101.127
101.129
101.131
101.13
101.124
101.115
101.102
101.09
101.071
101.114
125.771
126.054
126.071
126.092
126.124
126.167
126.209
126.233
126.183
125.841
2388.98
2388.96
2388.96
2388.97
2388.97
2388.97
2388.97
2388.96
2388.94
2388.98
7181.69
7291.9
7248.24
7042.02
658768
683616
689165
697169
1.49713e+06
1.58364e+06
1.59107e+06
1.57127e+06
2.52473e+06
2.70268e+06
2.69999e+06
2.61841e+06
3.75998e+06
4.05456e+06
4.02801e+06
3.86605e+06
5.306e+06
5.74844e+06
5.69679e+06
5.48367e+06
6.86443e+06
7.46207e+06
7.39817e+06
7.2008e+06
7.87605e+06
8.60218e+06
8.54745e+06
8.41829e+06
5.61338e+06
6.17144e+06
6.10775e+06
6.07302e+06
7900.59
8148.09
7986.09
7567.96
5748.04
5800.71
5803.23
5764.19
308465
324451
345102
377155
689071
780367
824362
861288
1.17751e+06
1.402e+06
1.46507e+06
1.49094e+06
1.76287e+06
2.17622e+06
2.2499e+06
2.26311e+06
2.45765e+06
3.11001e+06
3.20932e+06
3.24511e+06
3.12983e+06
4.03654e+06
4.19747e+06
4.31584e+06
3.57045e+06
4.69877e+06
4.94028e+06
5.17426e+06
2.80406e+06
3.81349e+06
4.00276e+06
4.31491e+06
7124.69
7356.02
7285.35
7064.99
4937.04
4947.95
4947.08
4937.37
21652.2
25936.6
24571.4
19950
61538
73347.8
68612.3
55678.5
128688
152730
140768
113924
228281
270381
246095
199256
372283
441721
401191
326176
545176
648198
591309
485031
702529
838835
769095
636268
584195
696304
628943
524164
6343.34
6430.57
6408.27
6312.98
4715.28
4717.4
4717.94
4717.12
1594.77
1710.76
1678.89
1544.26
4696.89
5168.99
5008.17
4430.57
11226.5
12497.1
11916.6
10203.9
22549.1
25242.2
23684.4
19729
41689.3
46911.9
43511.3
35514.3
68296.5
76971.2
70773.6
57093.5
97161.6
109888
100408
80374.8
83365.9
93740.6
84170.5
67222.7
5903.24
5944.9
5942.02
5904.13
4567.37
4568.28
4568.49
4567.94
423.584
436.397
438.565
431.628
710.213
756.95
761.304
731.043
1594.76
1736.2
1728.4
1609.21
3203.13
3528.32
3457.03
3116.72
6140.38
6822.98
6581.81
5755.86
10499.8
11694.2
11108
9469.23
15695.8
17556.9
16462.5
13719.8
13866.1
15399
14113.5
11583.3
5578.08
5600.09
5601.58
5586.01
4444.39
4445.15
4445.22
4444.58
275.766
278.609
279.294
278.019
226.476
231.547
233.34
232.267
385.645
403.096
407.278
400.446
674.072
717.835
722.006
695.912
1215.32
1316.59
1312.63
1233.33
2024.07
2211.8
2175.88
1991.23
3048.02
3361.33
3262.41
2904.51
2930.63
3184.41
3024.12
2664.46
5317.63
5328.4
5330.55
5325.01
4322.11
4322.84
4322.89
4322.24
241.889
243.784
244.172
243.106
140.192
140.937
141.279
141.252
175.906
178.594
179.706
179.431
243.226
250.242
252.46
250.735
369.022
386.634
390.345
383.179
549.321
582.767
585.387
565.845
795.798
855.229
852.345
807.309
985.142
1030.09
1010.55
962.764
5095.32
5100.19
5102.05
5100.82
4195.05
4195.75
4195.8
4195.19
228.174
229.887
230.221
229.206
118.216
118.349
118.399
118.371
125.87
126.313
126.531
126.551
146.039
147.261
147.799
147.772
183.423
186.923
188.186
187.625
233.813
240.352
242.106
240.33
314.706
327.259
329.199
323.665
543.166
548.804
546.277
542.595
4893.28
4895.28
4896.57
4896.78
4061.55
4062.2
4062.25
4061.69
219.551
221.203
221.528
220.551
110.9
110.955
110.961
110.92
110.354
110.422
110.456
110.461
117.769
117.973
118.08
118.111
131.722
132.523
132.874
132.845
149.891
151.236
151.776
151.746
187.408
190.335
191.183
190.54
400.211
397.222
396.472
399.138
4698.13
4698.81
4699.58
4700.08
3921.29
3921.9
3921.94
3921.43
212.245
213.842
214.161
213.221
107.873
107.92
107.924
107.883
104.487
104.491
104.491
104.489
107.575
107.592
107.604
107.616
113.665
113.879
113.977
113.972
121.972
122.214
122.352
122.437
144.615
145.307
145.571
145.52
335.306
330.215
329.432
332.852
4503.53
4503.62
4504.05
4504.52
3774.31
3774.85
3774.89
3774.43
205.097
206.636
206.946
206.044
106.339
106.387
106.392
106.353
101.989
101.984
101.981
101.979
103.357
103.346
103.341
103.344
106.207
106.28
106.31
106.3
110.774
110.78
110.805
110.862
126.756
126.879
126.931
126.932
297.541
292.022
291.114
294.433
4306.87
4306.73
4306.95
4307.31
3620.79
3621.27
3621.31
3620.89
197.695
199.172
199.472
198.608
105.37
105.417
105.422
105.386
100.853
100.849
100.846
100.845
101.488
101.477
101.471
101.471
102.824
102.859
102.87
102.859
105.721
105.686
105.683
105.716
118.019
117.991
117.972
117.965
271.366
265.904
264.947
268.066
4106.92
4106.73
4106.84
4107.08
3461.04
3461.45
3461.48
3461.11
189.868
191.28
191.568
190.745
104.623
104.667
104.673
104.639
100.318
100.316
100.314
100.313
100.635
100.628
100.624
100.623
101.229
101.252
101.257
101.247
103.291
103.26
103.252
103.269
113.209
113.147
113.105
113.086
250.755
245.499
244.551
247.478
3903.11
3902.97
3903.02
3903.13
3295.42
3295.77
3295.78
3295.47
181.526
182.871
183.147
182.367
103.965
104.006
104.012
103.981
100.065
100.064
100.063
100.062
100.242
100.239
100.236
100.234
100.474
100.49
100.493
100.485
102.071
102.052
102.045
102.053
110.255
110.193
110.146
110.117
232.925
227.928
227.016
229.766
3695.22
3695.18
3695.2
3695.21
3124.41
3124.69
3124.69
3124.42
172.601
173.878
174.143
173.407
103.347
103.385
103.391
103.363
99.952
99.952
99.9515
99.9507
100.062
100.06
100.058
100.057
100.123
100.135
100.137
100.129
101.422
101.415
101.41
101.41
108.214
108.164
108.119
108.079
216.41
211.701
210.843
213.42
3483.36
3483.44
3483.45
3483.37
2948.58
2948.8
2948.78
2948.56
163.025
164.233
164.488
163.798
102.755
102.791
102.796
102.77
99.9139
99.9152
99.9151
99.9138
99.9796
99.9789
99.9776
99.9764
99.9678
99.9761
99.9769
99.9707
101.036
101.037
101.035
101.03
106.618
106.586
106.546
106.496
200.356
195.967
195.177
197.573
3267.93
3268.11
3268.12
3267.96
2768.71
2768.85
2768.82
2768.65
152.711
153.855
154.102
153.459
102.188
102.223
102.227
102.202
99.9168
99.9194
99.9196
99.9176
99.9445
99.9445
99.9438
99.943
99.9062
99.9117
99.9118
99.907
100.756
100.764
100.764
100.755
105.22
105.212
105.179
105.118
184.201
180.188
179.484
181.675
3049.6
3049.87
3049.88
3049.68
2585.82
2585.89
2585.84
2585.72
141.557
142.646
142.888
142.291
101.647
101.679
101.683
101.659
99.938
99.9417
99.9422
99.9396
99.9346
99.9352
99.935
99.9346
99.891
99.8941
99.8939
99.8907
100.506
100.518
100.519
100.509
103.887
103.903
103.878
103.811
167.516
163.997
163.403
165.327
2829.43
2829.75
2829.77
2829.54
2401.09
2401.06
2401
2400.94
129.379
130.429
130.668
130.107
101.14
101.168
101.17
101.148
99.9584
99.9625
99.9631
99.9604
99.9424
99.9432
99.9434
99.9434
99.9038
99.905
99.9047
99.9033
100.264
100.275
100.276
100.268
102.563
102.59
102.575
102.515
149.613
146.664
146.222
147.862
2608.72
2609.08
2609.1
2608.86
2214.98
2214.82
2214.77
2214.82
115.747
116.727
116.934
116.403
100.666
100.682
100.682
100.667
99.9724
99.9749
99.9754
99.9738
99.968
99.9687
99.969
99.9693
99.9407
99.9408
99.9407
99.9405
100.075
100.081
100.082
100.078
101.292
101.301
101.294
101.269
128.332
126.308
126.072
127.231
2388.2
2388.58
2388.59
2388.33
6104.69
5441.75
5172.02
5075.91
5021.09
4982.57
4956.96
4942.56
4934.58
4929.82
798483
193185
33394.8
11728.7
5298.53
2834.95
1748.45
1212.03
928.186
765.33
1.42374e+06
246758
44219.5
15115.7
6768.3
3631.84
2196.49
1457.51
1046.16
801.63
1.99436e+06
239060
46714.4
14998.6
6472.72
3384.54
1996.13
1294.47
910.81
687.134
2.45598e+06
252254
48869
14537.9
6086.79
3095.42
1787.79
1141.66
793.622
595.397
2.92665e+06
275962
51066.6
13950.1
5627.13
2762.24
1557.8
978.863
675.865
507.21
3.30703e+06
294418
51913.4
13136.9
5147.59
2462.06
1372.51
859.55
594.347
449.478
3.38939e+06
286766
47611
10980.1
4155.02
1942.25
1090.61
698.866
502.015
394.115
2.33592e+06
181719
27314.6
5699.46
2270.61
1235.71
856.726
670.732
567.543
506.079
6016.72
5993.07
5847.33
5822.83
5779.39
5755.05
5735.72
5725.42
5718.44
5712.39
5442.21
5174.11
5044.21
4971.67
4926.13
4896.13
4876.69
4865.13
4858.92
4854.97
180200
44878.6
13606.7
5319.65
2633.99
1566.41
1064.7
802.302
656.286
572.546
375433
86337.4
23445.1
8281.89
3884.22
2184.58
1381.58
954.537
709.613
564.99
594476
126104
30666.7
9639.61
4221.87
2257.66
1369.96
914.022
660.314
514.612
829488
164791
36380.6
10404
4310.97
2215.93
1307.77
855.894
609.211
471.159
1.10848e+06
206933
41701.3
10850.4
4240.82
2087.75
1196.46
767.419
541.1
417.77
1.38693e+06
244069
45292.9
10836.5
4049.7
1935.89
1093.69
698.312
492.384
382.319
1.56165e+06
258214
43930.3
9540.14
3390.71
1582.71
899.237
586.859
429.32
345.348
1.18008e+06
178370
26805.5
5241.93
1964.06
1090
770.772
614.549
526.085
475.883
6252.3
5952.71
5792.7
5733.86
5682.96
5652.17
5629.85
5616.21
5606.6
5598.22
4903.08
4868.24
4840.78
4817.99
4800.18
4787.27
4778.66
4773.5
4770.65
4768.59
9196.57
4173.28
2297.18
1431.85
984.913
735.608
591.112
504.973
452.353
420.657
23976.8
9554.18
4644.72
2543.77
1540.11
1008.88
711.682
537.611
430.598
364.439
45387.8
15943.3
6930.17
3407
1895.73
1157.26
770.279
554.792
427.889
352.29
73504.6
22876.5
9002.82
4051.78
2117
1230.5
790.515
555.749
420.89
342.796
111926
31011.8
11032.4
4544.57
2232.82
1235.35
766.041
525.491
392.952
318.556
155860
38830.5
12568.6
4791.41
2249.47
1204.47
733.738
499.87
372.959
303.128
191247
42824.1
12512.2
4382.38
1973.06
1035.55
635.492
442.521
341.379
285.865
141472
27721.7
7297.73
2545.14
1306.66
842.187
642.143
536.094
472.59
435.954
6017.77
5835.54
5711.01
5637.17
5584.09
5550.96
5527.93
5512.24
5500.63
5490.61
4712.18
4703.8
4694.64
4686.41
4680.16
4675.91
4673.26
4671.9
4671.58
4671.19
1207.85
906.1
708.546
570.288
479.168
420.741
383.208
358.543
341.902
331.683
3025.92
1917.3
1268.93
859.839
611.76
460.485
366.822
307.344
267.984
242.202
6213.9
3477.19
2055.34
1250.86
811.969
564.018
419.733
332.75
278.05
243.779
10734.8
5346.32
2876.2
1609.3
977.891
643.532
459.69
354.169
289.587
250.194
17330
7662.46
3760.29
1938.27
1104.44
688.491
472.123
353.375
284.132
243.366
25198.5
9943.74
4496.3
2165.33
1178.19
709.067
475.9
352.475
281.631
240.68
32073
11238.6
4659.18
2094.82
1100.17
652.294
441.218
332.692
272.55
237.885
23524
7364.65
2961.08
1442.82
905.633
663.148
542.229
472.302
427.572
401.159
5788.54
5660.18
5561.5
5497.63
5453.57
5424.69
5403.97
5389.1
5377.88
5368.36
4566.87
4565.63
4564.4
4563.44
4562.86
4562.62
4562.64
4563.01
4563.93
4564.78
412.79
382.957
356.666
334.903
318.485
306.448
297.612
291.002
285.951
282.716
637.353
512.127
411.423
334.312
279.606
241.831
215.97
198.093
185.185
176.161
1286.1
925.238
665.78
485.973
369.581
294.736
246.444
214.786
193.35
179.181
2274.18
1480.86
973.052
652.628
462.581
348.563
279.397
236.507
208.188
189.84
3811.98
2240.73
1347.08
830.63
548.662
390.009
299.203
245.5
211.957
191.093
5700.88
3044.87
1696.99
978.484
614.64
420.576
314.714
254.567
217.5
194.773
7457.61
3601.18
1862.24
1012.64
616.696
416.89
313.199
255.749
221.632
200.874
5661.43
2637.91
1436.41
904.017
665.646
539.103
466.57
420.916
389.686
370.852
5535.21
5459.26
5394.04
5347.67
5313.77
5289.53
5271.27
5257.56
5246.98
5238.13
4444.16
4444.28
4444.58
4445.06
4445.66
4446.3
4446.95
4447.75
4448.96
4450.41
277.971
274.947
271.475
268.049
265.026
262.462
260.31
258.471
256.86
255.558
225.888
210.814
194.921
180.629
169.123
160.351
153.828
148.946
145.028
142.079
372.94
321.676
273.161
233.288
203.572
182.209
167.032
156.186
148.235
142.718
612.881
487.94
382.091
302.901
248.752
212.522
188.387
172.16
160.458
152.382
1012.88
737.972
529.566
386.721
296.629
240.138
204.583
181.757
166.342
156.223
1522.02
1023.36
681.855
466.161
339.926
265.109
220.244
192.657
174.178
162.132
2045.78
1268.17
790.984
514.604
364.983
280.863
232.547
203.429
184.788
172.862
1815.03
1183.1
825.149
628.708
519.666
452.494
408.901
379.28
357.697
344.442
5302.91
5261.33
5221.53
5189.66
5164.26
5144.53
5128.96
5116.81
5107.2
5099.3
4321.96
4322.23
4322.69
4323.3
4323.99
4324.68
4325.33
4326.09
4327.23
4328.69
244.246
244.076
243.73
243.257
242.735
242.194
241.645
241.063
240.427
239.675
140.674
138.601
136.048
133.476
131.208
129.349
127.882
126.7
125.588
124.66
176.517
168.251
158.715
149.72
142.167
136.139
131.42
127.732
124.809
122.713
241.526
220.142
197.655
178.287
163.315
152.199
144.062
138.12
133.397
129.932
355.635
303.846
254.768
215.903
188.023
168.548
155.011
145.53
138.592
133.835
503.972
404.729
318.437
255.505
213.484
185.742
167.353
155.056
146.051
139.832
681.483
514.038
382.982
295.05
240.206
205.635
183.549
169.039
159.055
152.409
827.06
675.574
559.264
481.175
428.623
391.795
365.265
345.997
331.129
321.841
5091.4
5069.56
5045.79
5024.22
5005.54
4990.02
4977.22
4966.87
4958.49
4951.71
4194.93
4195.15
4195.49
4195.95
4196.47
4196.97
4197.44
4198
4198.93
4200.2
230.499
230.724
230.829
230.837
230.772
230.643
230.447
230.162
229.76
229.125
118.344
118.077
117.719
117.318
116.945
116.638
116.407
116.21
115.93
115.641
126.146
124.616
122.578
120.404
118.368
116.575
115.041
113.742
112.645
111.851
146.593
142.582
137.585
132.704
128.482
125.024
122.266
120.101
118.197
116.716
183.592
172.89
160.863
149.988
141.18
134.335
129.099
125.124
122.002
119.806
231.66
210.707
188.505
169.977
155.93
145.585
138.022
132.554
128.187
125.015
303.068
264.306
227.493
198.992
178.586
164.165
153.981
146.751
141.461
137.85
515.662
472.76
430.261
396.099
369.233
348.323
331.919
319.305
309.065
302.585
4892.2
4880.47
4866.11
4851.67
4838.26
4826.47
4816.34
4807.89
4800.86
4795.27
4061.45
4061.6
4061.82
4062.13
4062.46
4062.78
4063.05
4063.4
4064.1
4065.17
221.838
222.102
222.25
222.316
222.318
222.256
222.124
221.895
221.53
220.897
110.953
110.945
110.937
110.922
110.915
110.931
110.971
111.006
110.953
110.855
110.382
110.052
109.558
108.964
108.353
107.77
107.235
106.751
106.324
106.018
117.934
117.103
115.904
114.587
113.329
112.213
111.264
110.478
109.705
109.062
132.049
129.496
126.262
122.956
119.974
117.433
115.33
113.625
112.21
111.208
150.478
145.645
139.535
133.745
128.809
124.798
121.612
119.158
117.033
115.415
186.226
176.054