/*--------------------------------*- C++ -*----------------------------------*\
| =========                 |                                                 |
| \\      /  F ield         | foam-extend: Open Source CFD                    |
|  \\    /   O peration     | Version:     4.0                                |
|   \\  /    A nd           | Web:         http://www.foam-extend.org         |
|    \\/     M anipulation  |                                                 |
\*---------------------------------------------------------------------------*/
FoamFile
{
    version     2.0;
    format      ascii;
    class       volScalarField;
    location    "1350";
    object      k;
}
// * * * * * * * * * * * * * * * * * * * * * * * * * * * * * * * * * * * * * //

dimensions      [0 2 -2 0 0 0 0];

internalField   nonuniform List<scalar> 
34480
(
8.76575
8.7633
8.76314
8.76495
8.76881
8.77502
8.78999
8.8534
9.07596
9.68482
9.27988
8.66707
8.57362
8.85325
9.45278
10.3405
11.9402
15.8544
28.7468
67.0465
15.0284
13.5604
13.1147
13.2639
13.8353
14.8696
17.2055
22.9052
41.643
101.419
14.4762
12.9501
12.5004
12.6956
13.4067
14.8221
17.9966
25.4033
49.258
127.792
13.4114
11.9967
11.6459
11.9134
12.7649
14.4752
18.2467
26.9502
55.2819
151.595
12.2033
10.9305
10.6181
10.8999
11.7908
13.6836
17.9264
27.895
61.0775
176.688
11.3107
10.1909
9.93594
10.2104
11.1042
13.0686
17.5709
28.4095
65.5349
198.044
9.8276
8.99135
8.78614
9.00121
9.71258
11.3816
15.4761
26.1161
64.5594
205.61
6.87786
6.60914
6.56024
6.66994
6.99901
7.72364
9.72428
16.2706
43.4188
149.665
9.2381
9.23827
9.24408
9.25692
9.27502
9.29664
9.32257
9.36106
9.43199
9.50489
8.67728
8.67424
8.67363
8.67542
8.68024
8.68866
8.70194
8.733
8.80727
9.06636
7.93114
7.51
7.41583
7.5734
8.02068
8.86398
10.3065
12.1099
15.4336
41.2027
12.2287
11.1663
10.8736
11.0773
11.7569
13.0197
15.2195
18.1224
23.792
66.4314
12.1293
10.9614
10.6423
10.886
11.6919
13.2436
16.0261
20.0111
28.3941
86.1942
11.5867
10.453
10.1858
10.4622
11.3551
13.0969
16.2865
21.0684
31.8473
104.321
10.7934
9.74304
9.48719
9.76088
10.6586
12.4847
15.9543
21.446
34.8464
123.75
10.2029
9.25054
9.03273
9.28574
10.158
11.9847
15.5907
21.5383
37.1187
141.017
9.04513
8.32282
8.13813
8.32899
9.0055
10.5015
13.6476
19.2732
35.7161
147.436
6.64116
6.39353
6.33907
6.41295
6.67728
7.26225
8.60869
11.5574
22.4996
102.474
9.11094
9.10618
9.10668
9.11385
9.1265
9.14235
9.16326
9.19889
9.2718
9.45699
8.57569
8.57278
8.57185
8.57285
8.57603
8.58105
8.58683
8.59977
8.62858
8.69431
6.78392
6.57117
6.51644
6.5922
6.82371
7.27119
8.06645
9.36136
11.1395
16.4523
9.6881
9.06738
8.91327
9.08092
9.60108
10.5572
12.174
14.5705
17.5503
29.1892
9.88281
9.14442
8.95837
9.17241
9.83217
11.0889
13.2831
16.6406
21.1164
40.7651
9.75138
8.99577
8.83231
9.06909
9.80758
11.2516
13.8561
17.9366
23.7814
52.2593
9.32258
8.59469
8.42659
8.66428
9.4181
10.9634
13.8786
18.6122
26.0291
64.9223
9.00718
8.32222
8.17533
8.39742
9.13788
10.7047
13.7892
18.9462
27.7531
76.9628
8.18849
7.65957
7.52975
7.69955
8.27357
9.55479
12.2599
17.1535
26.6601
82.9344
6.37048
6.17794
6.13787
6.19858
6.40926
6.87205
7.92081
10.3652
16.7042
57.1582
8.99143
8.98361
8.98105
8.98494
8.99453
9.00766
9.02561
9.05908
9.13778
9.33778
8.46035
8.45851
8.45797
8.45875
8.46096
8.46376
8.46496
8.46836
8.4773
8.49673
6.00961
5.91789
5.89025
5.92096
6.02123
6.2141
6.55131
7.13361
7.99866
9.88925
7.8073
7.49372
7.42
7.51532
7.81705
8.38062
9.3331
10.822
12.6601
17.0795
8.12114
7.70291
7.59839
7.73584
8.16215
8.98507
10.4202
12.7266
15.6007
23.555
8.24195
7.78261
7.68508
7.84287
8.34108
9.32896
11.1171
14.083
17.8879
30.1256
8.07799
7.6089
7.49871
7.6655
8.19472
9.29361
11.3804
14.992
19.8687
37.6424
7.96935
7.50441
7.40436
7.5655
8.10177
9.24664
11.5132
15.5709
21.372
44.9756
7.44023
7.06934
6.97682
7.10487
7.52812
8.4734
10.4718
14.3766
20.6583
48.7981
6.12897
5.98172
5.95162
5.99744
6.1547
6.49279
7.22152
8.98317
12.9839
33.0679
8.85756
8.84971
8.84685
8.85019
8.85928
8.87293
8.89171
8.92554
8.99864
9.15451
8.33281
8.33197
8.33177
8.33227
8.33347
8.33435
8.33275
8.33138
8.33131
8.33344
5.5382
5.50305
5.48955
5.49933
5.53555
5.60449
5.72017
5.91244
6.18053
6.6251
6.5655
6.42687
6.39533
6.43546
6.57199
6.83084
7.27104
7.98341
8.88165
10.3605
6.87
6.65247
6.59514
6.66582
6.89317
7.33628
8.1123
9.409
11.0482
14.0209
7.09848
6.83796
6.781
6.86828
7.15381
7.72228
8.75579
10.5598
12.8896
17.7765
7.09326
6.80598
6.73376
6.83417
7.15781
7.83027
9.11091
11.4634
14.6187
22.2374
7.11611
6.8127
6.74413
6.84586
7.1904
7.92205
9.36707
12.1284
15.9874
26.6557
6.80974
6.55757
6.49111
6.57695
6.8587
7.4797
8.77329
11.4722
15.6974
29.0295
5.91619
5.80507
5.78216
5.81388
5.92483
6.15728
6.62779
7.73987
10.1077
19.2555
8.71414
8.7064
8.70334
8.70618
8.71463
8.72806
8.74648
8.77786
8.83932
8.95184
8.19396
8.19389
8.19396
8.19425
8.19472
8.19431
8.19183
8.18927
8.18709
8.18576
5.27054
5.25864
5.25199
5.25417
5.26551
5.28751
5.32333
5.37861
5.44881
5.53943
5.80917
5.75692
5.74661
5.75991
5.81106
5.90836
6.07188
6.33605
6.67663
7.14162
6.04183
5.93735
5.90798
5.94039
6.04873
6.25763
6.61542
7.21287
7.99084
9.10838
6.27997
6.1426
6.11224
6.15587
6.30421
6.59432
7.10994
8.02176
9.24176
11.2044
6.34837
6.18217
6.13756
6.19372
6.37673
6.7494
7.44162
8.74073
10.5446
13.8068
6.43878
6.25028
6.20611
6.26615
6.47335
6.90263
7.72512
9.33961
11.6583
16.3992
6.29059
6.12722
6.08212
6.13696
6.31461
6.69555
7.45698
9.0764
11.6629
17.7785
5.73105
5.6497
5.63334
5.65463
5.73087
5.88628
6.18206
6.83513
8.10213
11.8533
8.56025
8.55289
8.54984
8.55228
8.56002
8.57267
8.58996
8.61776
8.66575
8.7405
8.04439
8.04484
8.04511
8.04525
8.04524
8.04404
8.04173
8.03925
8.03699
8.03531
5.12655
5.12278
5.11909
5.11897
5.1219
5.12843
5.13883
5.15375
5.17046
5.18682
5.3757
5.36013
5.3588
5.36158
5.37673
5.40628
5.45603
5.53491
5.63468
5.75219
5.52582
5.47827
5.46387
5.47759
5.52581
5.61692
5.76648
6.0049
6.31132
6.6819
5.72563
5.65761
5.64292
5.6629
5.73472
5.87117
6.10322
6.49985
7.03465
7.7518
5.81325
5.72168
5.69547
5.72504
5.82284
6.01621
6.35901
6.98459
7.8715
9.18975
5.92662
5.8144
5.78751
5.82078
5.93928
6.177
6.60978
7.43959
8.65869
10.6658
5.88178
5.78092
5.75186
5.7852
5.89183
6.11386
6.53459
7.40201
8.80798
11.4772
5.57655
5.51841
5.50734
5.52106
5.57212
5.67349
5.85719
6.23
6.89133
8.32955
8.39533
8.38859
8.38568
8.38778
8.3947
8.40606
8.42157
8.44524
8.48179
8.53108
7.88442
7.88521
7.8856
7.88564
7.88534
7.88399
7.88212
7.88013
7.87834
7.87697
5.05178
5.0503
5.04788
5.04733
5.04798
5.05013
5.05332
5.05756
5.06155
5.06408
5.13757
5.13546
5.13717
5.13671
5.13907
5.1448
5.15579
5.17418
5.19726
5.22095
5.21912
5.19801
5.19105
5.19662
5.2175
5.25619
5.31685
5.40699
5.51668
5.62794
5.367
5.33524
5.32895
5.3374
5.37046
5.43142
5.53027
5.68871
5.89513
6.12837
5.44589
5.39763
5.38294
5.39782
5.448
5.54433
5.70663
5.98445
6.37109
6.85846
5.55608
5.49179
5.47633
5.49377
5.55907
5.68594
5.9045
6.29812
6.86818
7.65131
5.57308
5.51406
5.49639
5.51577
5.5769
5.70088
5.92471
6.3578
7.04938
8.14013
5.45248
5.41176
5.40471
5.41329
5.44691
5.51203
5.62563
5.83708
6.18594
6.76091
8.21885
8.21291
8.21028
8.21206
8.21806
8.2278
8.24113
8.26049
8.28768
8.32059
7.71416
7.71513
7.71559
7.71558
7.71511
7.714
7.71261
7.71115
7.70984
7.70882
5.01336
5.01229
5.01049
5.01003
5.01035
5.01142
5.01284
5.01453
5.01582
5.01604
5.01109
5.01293
5.01519
5.01414
5.01289
5.01176
5.01165
5.01333
5.01625
5.01901
5.04441
5.03485
5.03139
5.03365
5.04282
5.05956
5.08477
5.11965
5.15925
5.19254
5.14462
5.13054
5.12827
5.13157
5.14628
5.17273
5.21396
5.2756
5.35164
5.42359
5.20452
5.18013
5.17223
5.17945
5.20444
5.25119
5.32676
5.44693
5.60734
5.78017
5.29947
5.26378
5.25536
5.26408
5.29914
5.36537
5.47424
5.65578
5.90749
6.19582
5.34979
5.31736
5.3073
5.31813
5.35153
5.41794
5.53376
5.74262
6.06499
6.49529
5.35676
5.32858
5.32438
5.32968
5.35171
5.39337
5.46364
5.58401
5.76963
6.02221
8.03041
8.02539
8.02312
8.02459
8.02961
8.03759
8.04858
8.06383
8.08354
8.10541
7.53375
7.53459
7.53511
7.53506
7.53461
7.53382
7.53284
7.53182
7.53092
7.53016
4.99292
4.99197
4.99058
4.99029
4.99064
4.99146
4.99249
4.99365
4.99449
4.99447
4.94577
4.94818
4.95013
4.94929
4.94756
4.94527
4.94298
4.94117
4.93999
4.93914
4.94902
4.94435
4.9425
4.94347
4.94775
4.95546
4.9667
4.9813
4.99685
5.00769
5.01236
5.00633
5.00572
5.00691
5.01339
5.02486
5.04218
5.06649
5.09474
5.11758
5.05284
5.04097
5.03686
5.0403
5.05248
5.07481
5.1098
5.16189
5.22851
5.29251
5.12942
5.10998
5.10562
5.10985
5.12845
5.16277
5.21711
5.30133
5.41201
5.52004
5.19523
5.17879
5.17355
5.17939
5.1967
5.23064
5.28866
5.38711
5.5335
5.70832
5.28573
5.26628
5.26399
5.26733
5.28192
5.30885
5.35255
5.42178
5.52058
5.64114
7.82971
7.82565
7.82379
7.82497
7.829
7.83526
7.84397
7.85553
7.86944
7.88375
7.34293
7.34361
7.34404
7.344
7.34371
7.34317
7.34251
7.34182
7.34122
7.34064
4.98106
4.98026
4.97925
4.97908
4.97943
4.98014
4.98104
4.98201
4.9828
4.98278
4.91274
4.91479
4.91626
4.91573
4.91438
4.91249
4.91045
4.90861
4.90728
4.90634
4.89926
4.89668
4.89561
4.89609
4.89827
4.90216
4.90767
4.91452
4.92149
4.92554
4.93703
4.93436
4.93426
4.93469
4.93768
4.94292
4.95061
4.96079
4.97186
4.97979
4.96184
4.95624
4.95416
4.9558
4.96167
4.97225
4.98845
5.01129
5.03945
5.06529
5.0217
5.01108
5.0089
5.01098
5.02096
5.03896
5.06654
5.10665
5.15641
5.19974
5.09291
5.08554
5.08318
5.08625
5.09465
5.11099
5.13865
5.18359
5.24788
5.32352
5.23495
5.22139
5.2203
5.22254
5.2325
5.25032
5.27787
5.31835
5.37082
5.43207
7.61657
7.61346
7.61201
7.61292
7.616
7.62072
7.62737
7.63582
7.64535
7.65454
7.14146
7.14202
7.14235
7.14234
7.14216
7.14181
7.14137
7.14091
7.14052
7.14006
4.97321
4.97261
4.97192
4.97182
4.97214
4.97273
4.97348
4.97431
4.97504
4.97498
4.89626
4.8978
4.89886
4.89859
4.8977
4.89645
4.89508
4.89385
4.89304
4.89251
4.87459
4.87304
4.8724
4.87265
4.87385
4.87596
4.87889
4.88245
4.88604
4.88781
4.89602
4.89464
4.89459
4.89477
4.89634
4.89908
4.90296
4.90782
4.91273
4.91604
4.90987
4.90728
4.90623
4.90703
4.90987
4.91491
4.92245
4.93263
4.94479
4.95633
4.95651
4.95051
4.94941
4.95054
4.95612
4.96594
4.98047
5.00049
5.02386
5.04299
5.02805
5.02548
5.02474
5.02633
5.03004
5.03723
5.04935
5.06866
5.0949
5.13013
5.19972
5.19009
5.18972
5.19139
5.19851
5.21069
5.22845
5.25269
5.28051
5.31355
7.39095
7.38868
7.38763
7.3883
7.39052
7.39399
7.39886
7.40481
7.41116
7.41695
6.92911
6.92958
6.92985
6.92985
6.92974
6.92951
6.92923
6.92893
6.92867
6.92828
4.96724
4.96686
4.96643
4.96639
4.96665
4.9671
4.96769
4.96835
4.96902
4.96886
4.88803
4.88917
4.88991
4.88981
4.8893
4.88857
4.88778
4.88709
4.88676
4.88657
4.86316
4.86221
4.86185
4.86199
4.86265
4.86379
4.86537
4.8673
4.86934
4.87023
4.87478
4.87385
4.87371
4.87383
4.87482
4.87654
4.8789
4.88169
4.88434
4.88615
4.88173
4.88052
4.87999
4.88039
4.8818
4.88424
4.8878
4.89244
4.89784
4.90359
4.91876
4.91512
4.91454
4.91527
4.91862
4.92436
4.93251
4.94323
4.95501
4.96471
4.98841
4.98814
4.98826
4.98909
4.99048
4.99315
4.9976
5.00489
5.01376
5.03181
5.17571
5.16871
5.16874
5.17014
5.17549
5.18411
5.19592
5.21091
5.22559
5.24479
7.15289
7.15135
7.15064
7.15111
7.15261
7.15511
7.15854
7.16258
7.16665
7.17023
6.70574
6.70614
6.70634
6.70635
6.70629
6.70615
6.70597
6.70577
6.7056
6.70525
4.96218
4.96204
4.96182
4.96183
4.96201
4.96233
4.96275
4.96325
4.96386
4.96358
4.88386
4.88473
4.88523
4.88523
4.88497
4.88461
4.88423
4.88392
4.88394
4.88396
4.85843
4.85789
4.85772
4.85779
4.85811
4.85867
4.85946
4.86046
4.86165
4.86215
4.86441
4.86366
4.86343
4.86352
4.86424
4.86549
4.86716
4.86905
4.87078
4.87204
4.86738
4.86679
4.8665
4.86671
4.86743
4.86867
4.8704
4.87258
4.87507
4.87827
4.89768
4.89527
4.89491
4.89547
4.89767
4.9013
4.90625
4.91251
4.91904
4.92491
4.96453
4.96521
4.96573
4.96619
4.96652
4.96712
4.96802
4.96991
4.97111
4.98166
5.15914
5.15402
5.15427
5.15555
5.15968
5.16605
5.17421
5.18383
5.19143
5.20368
6.90266
6.9016
6.90117
6.90146
6.9025
6.90422
6.90653
6.90915
6.91167
6.91384
6.47126
6.47161
6.47176
6.47178
6.47175
6.47166
6.47154
6.47141
6.47129
6.47098
4.95763
4.95771
4.95766
4.95771
4.95783
4.95803
4.9583
4.95864
4.95923
4.95885
4.88165
4.88233
4.88266
4.8827
4.88261
4.88249
4.88239
4.88234
4.88258
4.88276
4.85697
4.85672
4.85669
4.85671
4.85682
4.85701
4.8573
4.85774
4.85841
4.85874
4.85976
4.8591
4.85882
4.8589
4.85944
4.86041
4.86167
4.86306
4.86432
4.86531
4.86061
4.86026
4.86008
4.86019
4.86059
4.86125
4.86214
4.86323
4.86442
4.86638
4.88602
4.8843
4.88404
4.88451
4.88605
4.88851
4.89174
4.8957
4.89969
4.90387
4.94953
4.95045
4.95114
4.95141
4.95134
4.95111
4.95059
4.95029
4.94836
4.95553
5.14712
5.14334
5.14376
5.14495
5.14825
5.15314
5.15901
5.16544
5.16912
5.17778
6.64047
6.63978
6.63949
6.6397
6.64039
6.64151
6.643
6.64461
6.64608
6.64737
6.22575
6.22605
6.22616
6.22618
6.22617
6.22611
6.22604
6.22595
6.22587
6.22557
4.95339
4.9537
4.95377
4.95386
4.95394
4.95403
4.95417
4.95438
4.95499
4.95456
4.88034
4.88086
4.88105
4.8811
4.88111
4.88115
4.88123
4.88135
4.88174
4.88207
4.85706
4.857
4.85703
4.85703
4.85701
4.85698
4.85699
4.8571
4.85744
4.85772
4.85796
4.85741
4.85712
4.85717
4.85758
4.8583
4.85924
4.86028
4.86122
4.86201
4.85778
4.85752
4.85739
4.85744
4.85768
4.85806
4.85856
4.85913
4.85974
4.861
4.8792
4.8779
4.87769
4.87807
4.87918
4.8809
4.88309
4.88571
4.88832
4.8916
4.93865
4.93946
4.94015
4.94035
4.9402
4.93977
4.93886
4.9379
4.93496
4.94048
5.13744
5.13468
5.13516
5.1363
5.139
5.14287
5.14726
5.15172
5.15314
5.15979
6.36665
6.36622
6.36605
6.36618
6.36661
6.3673
6.3682
6.36913
6.36992
6.37068
5.96949
5.96975
5.96984
5.96985
5.96985
5.96982
5.96976
5.9697
5.96964
5.96936
4.94935
4.94987
4.95002
4.95016
4.9502
4.95022
4.95024
4.95034
4.95099
4.95061
4.87933
4.87968
4.87975
4.87978
4.87985
4.87997
4.88016
4.88039
4.88087
4.88138
4.8578
4.85781
4.85787
4.85785
4.85777
4.85765
4.85752
4.85747
4.85762
4.85791
4.85751
4.85706
4.85682
4.85683
4.85711
4.85762
4.85828
4.85901
4.8597
4.86033
4.85691
4.85671
4.8566
4.85662
4.85676
4.85698
4.85726
4.85758
4.85789
4.8587
4.87434
4.87336
4.87318
4.87345
4.87422
4.8754
4.87686
4.87858
4.88031
4.88292
4.92864
4.92919
4.92981
4.92998
4.92986
4.92948
4.92864
4.92766
4.92473
4.92925
5.12812
5.12617
5.12666
5.12773
5.12996
5.13307
5.13643
5.13958
5.13965
5.14497
6.08173
6.08149
6.08139
6.08148
6.08172
6.08211
6.08261
6.0831
6.08348
6.0839
5.70314
5.70336
5.70342
5.70344
5.70344
5.70342
5.70338
5.70333
5.70327
5.70302
4.94522
4.94588
4.9461
4.94628
4.94632
4.94628
4.9462
4.94619
4.94682
4.94668
4.87821
4.87836
4.87833
4.87833
4.8784
4.87857
4.8788
4.87909
4.87957
4.88029
4.85863
4.85863
4.85867
4.85864
4.85856
4.85842
4.85828
4.85818
4.85823
4.85855
4.85766
4.85732
4.85714
4.85713
4.85731
4.85762
4.85804
4.85851
4.85898
4.85945
4.85702
4.85687
4.85679
4.85679
4.85685
4.85697
4.8571
4.85725
4.8574
4.85787
4.86971
4.86901
4.86885
4.86902
4.8695
4.87022
4.8711
4.87213
4.87322
4.87522
4.91737
4.91765
4.91812
4.91826
4.91818
4.91787
4.91721
4.9164
4.91397
4.91761
5.11639
5.11512
5.11558
5.11655
5.11835
5.12079
5.12333
5.12547
5.12474
5.12887
5.78656
5.78643
5.78638
5.78642
5.78655
5.78674
5.787
5.78721
5.78736
5.78757
5.42754
5.42771
5.42776
5.42777
5.42777
5.42776
5.42773
5.4277
5.42765
5.42745
4.93957
4.94023
4.94061
4.94085
4.9409
4.94081
4.94062
4.94044
4.9408
4.9411
4.87665
4.87655
4.87644
4.8764
4.87646
4.87661
4.87683
4.87713
4.87756
4.87843
4.85913
4.85908
4.85908
4.85905
4.85899
4.8589
4.8588
4.85874
4.85876
4.85907
4.85813
4.85791
4.85779
4.85778
4.85787
4.85804
4.85827
4.85853
4.85882
4.85914
4.85764
4.85755
4.8575
4.85749
4.85751
4.85754
4.85758
4.85762
4.85767
4.85788
4.86474
4.8643
4.86419
4.86427
4.86451
4.86486
4.8653
4.86579
4.86638
4.86771
4.90364
4.90368
4.90396
4.90402
4.90389
4.90358
4.90305
4.90242
4.9008
4.90347
5.09516
5.09446
5.09485
5.09565
5.09699
5.09876
5.10054
5.10179
5.10062
5.10337
5.48212
5.48206
5.48205
5.48207
5.48211
5.48217
5.48224
5.4823
5.48235
5.48245
5.14251
5.14261
5.14262
5.14262
5.14262
5.14262
5.14261
5.14261
5.1426
5.14251
4.92474
4.92533
4.92596
4.9263
4.92638
4.92625
4.92595
4.92552
4.92507
4.92558
4.8736
4.87325
4.87305
4.87295
4.87297
4.87308
4.87328
4.87357
4.87398
4.87485
4.85939
4.85932
4.8593
4.85927
4.85924
4.85921
4.85917
4.85915
4.85917
4.85938
4.85895
4.85883
4.85877
4.85876
4.8588
4.85888
4.85898
4.85911
4.85926
4.85943
4.85865
4.85862
4.8586
4.85859
4.85858
4.85858
4.85857
4.85856
4.85855
4.85859
4.86084
4.86065
4.8606
4.86062
4.86071
4.86084
4.86099
4.86116
4.86139
4.862
4.88692
4.88676
4.88682
4.88676
4.88658
4.88627
4.88586
4.88544
4.88487
4.88658
5.04101
5.04072
5.04097
5.04147
5.04227
5.0433
5.04432
5.04487
5.04385
5.04488
5.16848
5.16845
5.16846
5.16846
5.16847
5.16847
5.16846
5.16846
5.16843
5.16849
11.2668
11.3818
11.3363
11.1203
82.7974
84.866
85.3244
85.9843
143.116
148.576
149.041
147.802
202.765
212.184
212.042
207.749
264.432
278.068
276.852
269.38
332.692
350.938
348.832
340.075
395.009
417.615
415.228
407.808
432.929
459.145
457.196
452.577
345.441
367.973
365.439
364.051
11.4741
11.7125
11.5568
11.1497
9.71239
9.77161
9.77444
9.73056
76.0787
79.3004
80.057
80.1915
133.871
144.764
145.859
143.701
192.883
214.478
215.001
209.1
256.12
290.915
289.949
279.977
329.485
380.171
378.396
365.501
399.536
466.448
465.489
452.418
445.952
527.298
528.36
517.107
350.389
422.611
420.756
415.859
10.71
10.9407
10.8705
10.6501
8.77579
8.78871
8.78768
8.77616
26.5388
28.9459
28.2054
25.6997
49.3466
53.7406
52.0715
47.3994
74.5645
81.3106
78.1841
70.6664
103.441
112.965
107.776
96.6847
139.437
152.781
145.146
129.236
177.309
194.646
184.48
163.432
207.523
228.659
216.396
190.832
164.734
181.585
170.109
149.251
9.91186
10.0025
9.97939
9.88019
8.51096
8.51351
8.51416
8.51317
11.4761
11.7218
11.6903
11.4935
21.2112
21.9334
21.8669
21.3242
31.9905
33.472
33.2164
31.8988
44.5028
46.9311
46.2622
43.7358
60.6316
64.3941
63.068
58.7449
78.0588
83.1631
80.8881
74.434
92.586
99.1237
95.8272
87.1229
71.9557
77.0808
73.562
65.9519
9.4479
9.49231
9.48924
9.44886
8.33203
8.33314
8.33339
8.33271
7.0443
7.13474
7.15911
7.12897
11.679
11.9736
12.0551
11.9682
16.8695
17.4822
17.5809
17.3128
22.8338
23.8521
23.8861
23.28
30.7121
32.3357
32.2207
31.0289
39.225
41.4576
41.0368
39.0537
46.2691
49.2013
48.3804
45.3957
34.4145
36.6277
35.434
32.5507
9.09769
9.12161
9.12324
9.10632
8.18179
8.18272
8.18281
8.18201
5.60839
5.62231
5.6272
5.62525
7.45791
7.52731
7.55938
7.5601
9.93814
10.1213
10.1877
10.1617
12.8334
13.1787
13.2642
13.1626
16.7964
17.4125
17.5016
17.2328
21.0471
21.9433
21.9658
21.4355
24.4832
25.734
25.6314
24.6941
17.4884
18.3806
18.0249
17.0204
8.81225
8.82415
8.82652
8.82041
8.03103
8.03192
8.03199
8.03119
5.19788
5.20093
5.20166
5.20056
5.82444
5.84004
5.8484
5.85028
6.91518
6.96781
6.99261
6.99323
8.25932
8.37133
8.41531
8.40514
10.2342
10.4615
10.5312
10.4821
12.3595
12.7069
12.777
12.6579
14.0562
14.5753
14.6218
14.3578
10.2257
10.5613
10.4824
10.1913
8.56491
8.57037
8.57245
8.57108
7.87286
7.87373
7.87379
7.87303
5.06375
5.06485
5.06478
5.06379
5.23375
5.23602
5.23732
5.23782
5.68457
5.69676
5.7031
5.70427
6.26588
6.29601
6.31039
6.31176
7.19451
7.26981
7.30036
7.2947
8.21613
8.33673
8.37658
8.35822
9.07062
9.27067
9.3153
9.25044
7.34085
7.45329
7.44714
7.38123
8.33698
8.33925
8.34071
8.34095
7.70494
7.70577
7.70583
7.70512
5.01359
5.01447
5.01437
5.01341
5.02055
5.02059
5.02058
5.02055
5.20465
5.20685
5.20801
5.20828
5.4555
5.46193
5.4654
5.46648
5.8809
5.9036
5.91408
5.91406
6.35939
6.39485
6.41016
6.41076
6.80774
6.87863
6.90118
6.88699
6.1994
6.23315
6.23746
6.22709
8.11382
8.1146
8.1155
8.11607
7.52653
7.5273
7.52736
7.5267
4.9915
4.99233
4.99225
4.99134
4.93894
4.9388
4.93866
4.93853
5.00968
5.00979
5.00983
5.00984
5.12353
5.12427
5.12477
5.12516
5.32367
5.33044
5.33369
5.33373
5.5601
5.56825
5.57284
5.57514
5.81512
5.83965
5.84873
5.84483
5.69892
5.70634
5.70899
5.70987
7.8882
7.8883
7.88881
7.88935
7.33726
7.33797
7.33802
7.33742
4.97968
4.98044
4.98036
4.9795
4.90604
4.90598
4.90588
4.90575
4.9254
4.9252
4.92508
4.92507
4.98029
4.98002
4.9799
4.97999
5.07692
5.07929
5.08035
5.08013
5.20692
5.20778
5.20881
5.21034
5.36716
5.37661
5.37992
5.37745
5.45401
5.45296
5.45352
5.4559
7.65686
7.65669
7.65695
7.65738
7.13694
7.13757
7.13762
7.13707
4.97189
4.97256
4.97247
4.97165
4.89228
4.89228
4.89222
4.89208
4.88729
4.88709
4.88699
4.887
4.9157
4.91539
4.91522
4.91521
4.96205
4.96318
4.96359
4.9633
5.04283
5.04219
5.04224
5.0431
5.15423
5.15889
5.16001
5.15759
5.32454
5.32112
5.3206
5.32262
7.41801
7.41778
7.41791
7.41819
6.92545
6.926
6.92603
6.92555
4.96584
4.96641
4.96628
4.96551
4.88638
4.88641
4.88635
4.88622
4.86971
4.86957
4.8695
4.86952
4.88587
4.88568
4.88555
4.88551
4.90714
4.90783
4.90804
4.90778
4.96382
4.96316
4.96301
4.96345
5.04933
5.05242
5.05274
5.05026
5.25236
5.24871
5.24778
5.24916
7.1705
7.17033
7.17039
7.17054
6.70272
6.7032
6.70322
6.70279
4.96069
4.96114
4.96098
4.96025
4.88381
4.88385
4.8838
4.88366
4.86174
4.86164
4.8616
4.86162
4.87192
4.87181
4.87172
4.87168
4.88074
4.88123
4.88136
4.88113
4.92481
4.92444
4.92431
4.92448
4.99663
4.99917
4.99919
4.99668
5.21019
5.20704
5.20604
5.20678
6.91357
6.91352
6.91355
6.91356
6.46879
6.46918
6.46918
6.46881
4.95613
4.95646
4.95627
4.95558
4.88269
4.88274
4.8827
4.88254
4.85848
4.85842
4.8584
4.85841
4.86529
4.86524
4.86518
4.86514
4.86817
4.86853
4.8686
4.86841
4.90473
4.90465
4.90458
4.90455
4.96934
4.97172
4.97162
4.96904
5.18402
5.18164
5.18072
5.18082
6.64673
6.64683
6.64684
6.64674
6.22377
6.22407
6.22405
6.22374
4.95207
4.95228
4.95206
4.95142
4.88217
4.88226
4.88222
4.88204
4.85764
4.85763
4.85762
4.85761
4.86206
4.86203
4.86199
4.86196
4.86229
4.86254
4.86257
4.86241
4.89319
4.89336
4.89335
4.89317
4.95366
4.95606
4.95592
4.95324
5.16607
5.1646
5.16382
5.16331
6.36977
6.37001
6.37001
6.36981
5.96801
5.96822
5.96817
5.96793
4.94847
4.94859
4.94835
4.94777
4.88179
4.88194
4.88191
4.88169
4.85801
4.85806
4.85806
4.85803
4.86041
4.8604
4.86038
4.86036
4.85957
4.85973
4.85974
4.85961
4.88493
4.88526
4.88529
4.88502
4.94184
4.94438
4.94425
4.94144
5.15138
5.15093
5.15036
5.14921
6.0828
6.08316
6.08318
6.0829
5.70221
5.70231
5.70224
5.70206
4.94516
4.94528
4.94506
4.94452
4.88111
4.88136
4.88134
4.88105
4.85882
4.8589
4.85892
4.85886
4.85957
4.85958
4.85957
4.85956
4.85838
4.85848
4.85847
4.85838
4.87726
4.87767
4.87772
4.87742
4.92901
4.93169
4.93161
4.92875
5.13522
5.13598
5.1357
5.13385
5.78638
5.78682
5.78684
5.78654
5.42729
5.42725
5.42716
5.42707
4.94086
4.94119
4.94106
4.94046
4.87954
4.87986
4.87983
4.87947
4.85939
4.8595
4.85952
4.85945
4.85926
4.85928
4.85929
4.85929
4.8581
4.85813
4.85813
4.85809
4.86941
4.86978
4.86983
4.86958
4.91214
4.91458
4.91455
4.91205
5.10893
5.11122
5.11129
5.10857
5.4814
5.48192
5.48194
5.48161
5.14309
5.14284
5.14275
5.14283
4.92702
4.92788
4.92787
4.92697
4.8756
4.87581
4.87575
4.87546
4.85956
4.85963
4.85964
4.8596
4.85951
4.85953
4.85954
4.85955
4.85863
4.85863
4.85863
4.85862
4.86293
4.86313
4.86317
4.86305
4.89079
4.89198
4.89195
4.89072
5.04752
5.05098
5.05129
5.04792
5.16797
5.16852
5.16854
5.16816
10.1115
9.36543
9.05328
8.94076
8.87626
8.83079
8.80049
8.78342
8.77397
8.76832
103.697
49.1197
35.7472
29.9503
24.5517
19.9436
16.3576
13.6847
11.7783
10.418
160.942
70.8459
51.0765
43.7209
37.1655
31.3978
26.5653
22.6864
19.6461
17.2765
206.375
82.5778
55.9573
46.6956
39.3251
32.7303
27.1952
22.8054
19.4181
16.8352
241.935
88.9054
58.7973
47.9262
40.0344
32.6958
26.6414
21.9242
18.3424
15.7014
277.873
94.6369
60.9424
48.2588
39.7993
31.7456
25.3179
20.4365
16.859
14.3117
306.853
98.0959
61.6576
47.7346
38.9978
30.4782
23.9101
19.0476
15.5735
13.1927
314.89
93.6851
56.598
42.1856
33.8746
25.7521
19.8977
15.7768
13.0305
11.2161
224.205
56.0896
30.5254
21.0949
16.2646
12.2114
9.94674
8.60704
7.79954
7.27565
9.56985
9.54471
9.38934
9.36308
9.31645
9.29027
9.26946
9.25836
9.25083
9.24431
9.36591
9.05569
8.90346
8.81788
8.76395
8.72832
8.70519
8.69143
8.68403
8.67933
53.1069
28.6664
22.5505
19.4433
16.6634
14.1935
12.1597
10.5982
9.45978
8.6692
89.9705
46.2521
35.7813
31.0013
27.1616
23.4895
20.2719
17.6146
15.4892
13.8739
122.205
58.5802
42.8423
35.6101
30.5249
25.7418
21.6734
18.4029
15.8558
13.9726
152.469
68.7325
47.836
38.4965
32.3572
26.6516
21.9536
18.2776
15.4682
13.4609
186.33
78.8426
52.1298
40.4537
33.2311
26.6435
21.4314
17.4768
14.5756
12.5779
217.055
86.4396
54.7017
41.2288
33.3265
26.152
20.6764
16.643
13.7562
11.8408
233.004
86.7129
51.91
37.4665
29.5552
22.5566
17.5574
14.07
11.7529
10.2739
167.264
54.7292
29.0552
19.3691
14.6842
11.2188
9.269
8.12524
7.43024
6.99951
9.81804
9.50182
9.33077
9.26746
9.21255
9.17924
9.15505
9.14026
9.12983
9.12074
8.73659
8.69514
8.66241
8.63519
8.61389
8.59844
8.58812
8.58194
8.57853
8.57607
19.9456
16.5702
14.4962
12.6793
11.111
9.80896
8.79559
8.04761
7.50986
7.13832
35.9008
28.6924
24.9076
21.6742
18.9003
16.4932
14.4993
12.8963
11.6228
10.6634
51.0032
37.9108
31.5205
26.3323
22.2423
18.8241
16.0825
13.9351
12.2776
11.0659
66.0844
45.6692
36.6139
29.5778
24.3623
20.109
16.7986
14.2774
12.3678
11.0162
83.1798
53.3291
41.1361
32.0728
25.7206
20.6463
16.8281
14.0079
11.9637
10.5715
99.0731
59.183
44.1482
33.4491
26.3227
20.6909
16.5844
13.6427
11.5606
10.1904
108.366
59.7572
42.6024
30.9946
23.7539
18.2068
14.4146
11.8484
10.1633
9.09102
75.9166
36.6493
23.867
16.2679
12.2205
9.6782
8.28624
7.46845
6.96005
6.64061
9.57093
9.37672
9.24284
9.163
9.10538
9.06934
9.04424
9.02711
9.01443
9.00348
8.50829
8.4982
8.48716
8.47723
8.4697
8.46456
8.46136
8.45973
8.45934
8.45889
10.9402
10.1303
9.28108
8.43739
7.7309
7.18871
6.79041
6.50291
6.29498
6.15055
19.8572
18.0166
16.1661
14.295
12.6806
11.3532
10.2925
9.45761
8.79951
8.30636
28.4589
24.6168
21.1776
17.9779
15.3909
13.3195
11.6968
10.445
9.48766
8.79367
37.2198
30.653
25.4224
20.8552
17.3583
14.6306
12.5545
11.0015
9.83485
9.01137
47.4475
36.9657
29.5234
23.3562
18.858
15.4316
12.9071
11.0788
9.76773
8.87744
57.0471
42.0796
32.5581
25.0125
19.7541
15.8236
13.0188
11.0538
9.6742
8.76297
62.7814
43.2761
32.0987
23.7143
18.2322
14.3011
11.6741
9.9357
8.798
8.06506
42.7419
26.2113
17.9751
12.7907
10.0216
8.38909
7.47083
6.91612
6.55746
6.32672
9.3263
9.18792
9.08082
9.01116
8.96294
8.93128
8.90853
8.89218
8.87983
8.86935
8.33246
8.33096
8.32945
8.32828
8.32758
8.32728
8.32731
8.32777
8.32888
8.32993
6.99874
6.75775
6.50478
6.26661
6.06841
5.9121
5.7919
5.7005
5.63149
5.58385
11.6068
10.9199
10.1468
9.37016
8.68387
8.11183
7.65291
7.29172
7.00381
6.78657
16.4313
14.9494
13.3698
11.8549
10.5676
9.51724
8.6894
8.05172
7.56404
7.21182
21.526
18.9289
16.3553
14.0089
12.109
10.6099
9.46777
8.61927
7.97959
7.52543
27.7594
23.4449
19.5118
16.0877
13.4414
11.4179
9.92874
8.85902
8.09166
7.56785
33.7301
27.3907
22.0739
17.6451
14.3779
11.9512
10.2258
9.02919
8.18371
7.61702
37.3942
28.8059
22.2747
17.1596
13.6366
11.1565
9.50568
8.41829
7.69705
7.22188
24.5337
17.3433
12.8134
9.95807
8.3631
7.40367
6.82842
6.46526
6.21872
6.05683
9.05217
8.96919
8.8976
8.84654
8.80912
8.78231
8.76209
8.74689
8.73515
8.72534
8.18253
8.18267
8.18305
8.18363
8.18437
8.18515
8.18595
8.18694
8.18843
8.19021
5.60846
5.56487
5.51349
5.4613
5.41402
5.37349
5.34001
5.31315
5.29275
5.27993
7.50361
7.31191
7.06387
6.80484
6.56963
6.37138
6.21132
6.08362
5.97723
5.89455
9.97453
9.46907
8.84901
8.22611
7.67704
7.22242
6.86046
6.5783
6.35865
6.19913
12.7323
11.7729
10.6618
9.59945
8.70558
7.99338
7.44803
7.04066
6.72588
6.498
16.3252
14.6129
12.7578
11.0632
9.69816
8.64643
7.86831
7.30596
6.89524
6.61087
19.8653
17.2547
14.5915
12.2719
10.4877
9.15892
8.20934
7.54732
7.06712
6.73702
22.1238
18.4339
15.0089
12.2299
10.2399
8.84162
7.90013
7.27014
6.8397
6.54843
14.4001
11.5453
9.43155
8.05321
7.21585
6.67923
6.33163
6.10142
5.93699
5.82756
8.79711
8.75106
8.70687
8.67142
8.6431
8.62108
8.60367
8.59008
8.57932
8.57048
8.03185
8.03219
8.03276
8.03351
8.03436
8.03521
8.03603
8.03697
8.03838
8.04019
5.19707
5.18878
5.1791
5.16838
5.15763
5.14751
5.13857
5.1312
5.12621
5.12437
5.83867
5.79253
5.73037
5.66333
5.60084
5.54716
5.50309
5.46669
5.43293
5.40482
6.94908
6.79142
6.58427
6.36814
6.17087
6.00247
5.86372
5.75134
5.66038
5.59357
8.29677
7.96372
7.54575
7.13282
6.775
6.4839
6.2556
6.08022
5.93744
5.8305
10.2209
9.5572
8.77352
8.03409
7.41992
6.93804
6.57307
6.30168
6.09592
5.95065
12.1925
11.1328
9.93149
8.85286
7.99644
7.34902
6.87575
6.53705
6.27947
6.09635
13.5252
11.961
10.3484
9.004
8.00658
7.29227
6.79536
6.4508
6.20563
6.03545
9.43063
8.39092
7.50986
6.88574
6.46193
6.16778
5.96218
5.81966
5.71255
5.64092
8.5616
8.53711
8.5104
8.48614
8.46509
8.44759
8.43313
8.42144
8.41196
8.4043
7.87371
7.87397
7.8744
7.87498
7.87563
7.87626
7.87684
7.87754
7.87871
7.8803
5.06318
5.06137
5.05938
5.05697
5.05425
5.0514
5.04878
5.04673
5.046
5.04691
5.23562
5.22718
5.21561
5.20248
5.18996
5.17932
5.17094
5.1638
5.15486
5.14609
5.69409
5.65151
5.59187
5.52576
5.4618
5.40407
5.35378
5.31076
5.27432
5.24741
6.28709
6.18827
6.05506
5.91672
5.79097
5.68397
5.5962
5.52574
5.46396
5.41557
7.22189
6.99132
6.70288
6.41873
6.17207
5.97014
5.80992
5.68508
5.58586
5.51473
8.23107
7.84151
7.36583
6.92236
6.55515
6.2666
6.04597
5.88115
5.74786
5.64953
8.98946
8.37614
7.70213
7.11755
6.66203
6.32099
6.07138
5.89009
5.75547
5.6603
7.18874
6.82631
6.47075
6.18885
5.9753
5.81512
5.69521
5.60861
5.54016
5.49453
8.33681
8.32349
8.30715
8.29071
8.27543
8.26198
8.25042
8.24076
8.23273
8.22634
7.70579
7.70598
7.70626
7.70664
7.70707
7.70747
7.70782
7.70826
7.70915
7.7105
5.0134
5.01262
5.01186
5.01097
5.00989
5.00872
5.00764
5.00694
5.00718
5.00841
5.01994
5.01894
5.01793
5.01674
5.01585
5.01568
5.01632
5.01697
5.01545
5.01285
5.20565
5.19467
5.17807
5.15803
5.13719
5.11715
5.09865
5.08192
5.06718
5.05635
5.46127
5.4353
5.39694
5.35392
5.31212
5.27446
5.24203
5.21479
5.18857
5.16681
5.89327
5.82003
5.72322
5.62108
5.5265
5.44429
5.37529
5.31873
5.27172
5.23786
6.38196
6.25587
6.08699
5.91926
5.77113
5.64766
5.5478
5.46956
5.40189
5.34995
6.80723
6.5859
6.32842
6.09014
5.89172
5.73406
5.61208
5.51932
5.44775
5.39676
6.17954
6.04836
5.90176
5.77191
5.6638
5.57676
5.50747
5.4556