/*--------------------------------*- C++ -*----------------------------------*\
| =========                 |                                                 |
| \\      /  F ield         | foam-extend: Open Source CFD                    |
|  \\    /   O peration     | Version:     4.0                                |
|   \\  /    A nd           | Web:         http://www.foam-extend.org         |
|    \\/     M anipulation  |                                                 |
\*---------------------------------------------------------------------------*/
FoamFile
{
    version     2.0;
    format      ascii;
    class       volScalarField;
    location    "1350";
    object      p;
}
// * * * * * * * * * * * * * * * * * * * * * * * * * * * * * * * * * * * * * //

dimensions      [1 -1 -2 0 0 0 0];

internalField   nonuniform List<scalar> 
34480
(
107969
107870
107830
107845
107930
108112
108455
109137
110102
110448
107830
107731
107692
107703
107783
107959
108297
108967
110000
109973
107696
107593
107553
107555
107620
107767
108064
108666
109695
109118
107631
107526
107480
107469
107511
107614
107853
108355
109317
108163
107559
107443
107388
107360
107376
107433
107614
108011
108869
107173
107585
107468
107406
107369
107366
107385
107510
107799
108518
106296
107499
107368
107299
107250
107230
107220
107296
107486
108043
105363
107591
107466
107401
107366
107362
107363
107424
107541
107916
104768
107494
107363
107292
107254
107251
107262
107314
107373
107542
104022
107587
107470
107454
107518
107656
107846
108089
108323
108490
104484
108733
108608
108563
108588
108694
108897
109232
109760
110574
111640
108528
108396
108350
108376
108489
108715
109102
109754
110894
112496
108334
108197
108151
108171
108279
108496
108891
109596
110976
112961
108215
108073
108019
108028
108119
108312
108683
109379
110898
113136
108098
107944
107881
107873
107942
108100
108432
109084
110672
113054
108085
107929
107858
107838
107889
108013
108301
108884
110475
112889
107968
107800
107721
107686
107719
107812
108056
108564
110111
112497
108037
107873
107794
107769
107808
107902
108126
108567
110017
112283
107926
107757
107672
107639
107668
107755
107962
108353
109657
111842
108007
107850
107807
107851
107983
108194
108524
109019
110270
112249
109304
109190
109151
109180
109283
109468
109753
110154
110684
111295
109093
108960
108916
108952
109076
109307
109671
110214
111028
112034
108880
108736
108691
108726
108858
109106
109514
110163
111258
112686
108728
108575
108523
108551
108677
108924
109352
110061
111379
113188
108582
108415
108355
108369
108482
108713
109136
109864
111350
113485
108537
108367
108299
108303
108403
108613
109020
109734
111332
113718
108393
108212
108137
108128
108213
108399
108782
109468
111129
113711
108440
108262
108186
108183
108271
108455
108825
109478
111140
113831
108317
108134
108053
108040
108115
108285
108635
109264
110863
113669
108385
108210
108157
108200
108344
108596
109022
109716
111279
114084
109705
109617
109587
109610
109690
109829
110027
110280
110573
110853
109528
109412
109373
109406
109515
109709
109998
110389
110894
111413
109337
109199
109155
109191
109318
109547
109903
110416
111170
112008
109181
109026
108974
109007
109139
109388
109794
110408
111405
112589
109026
108853
108793
108816
108944
109195
109627
110308
111517
113044
108963
108784
108715
108731
108852
109097
109539
110257
111643
113480
108805
108613
108538
108542
108653
108885
109324
110057
111581
113702
108835
108644
108567
108576
108689
108921
109361
110098
111701
114047
108700
108505
108424
108425
108529
108750
109179
109917
111530
114105
108753
108566
108504
108544
108696
108973
109452
110237
111842
114558
109983
109921
109900
109916
109973
110066
110194
110346
110506
110644
109851
109759
109728
109754
109841
109989
110198
110462
110765
111041
109700
109579
109541
109573
109683
109875
110159
110537
111018
111490
109557
109414
109365
109398
109523
109749
110098
110587
111272
111994
109410
109244
109187
109214
109343
109587
109983
110561
111448
112442
109342
109166
109099
109122
109252
109503
109931
110576
111652
112918
109179
108987
108914
108928
109053
109304
109748
110441
111682
113221
109199
109006
108930
108948
109076
109333
109792
110518
111883
113665
109057
108859
108780
108792
108915
109167
109627
110380
111808
113849
109099
108907
108840
108880
109035
109325
109820
110615
112066
114304
110175
110135
110121
110132
110168
110227
110304
110391
110476
110544
110085
110018
109994
110014
110077
110181
110323
110492
110670
110819
109980
109883
109850
109877
109965
110115
110327
110591
110894
111161
109860
109737
109694
109723
109831
110022
110302
110671
111128
111562
109732
109583
109531
109558
109678
109896
110234
110697
111320
111949
109670
109505
109444
109470
109596
109834
110217
110761
111552
112393
109511
109327
109259
109279
109407
109655
110070
110679
111629
112697
109528
109341
109268
109291
109425
109685
110126
110789
111874
113159
109382
109188
109113
109133
109265
109526
109979
110684
111862
113392
109417
109228
109160
109198
109352
109640
110120
110864
112087
113804
110311
110287
110278
110285
110307
110342
110387
110436
110482
110516
110253
110206
110190
110203
110246
110316
110408
110513
110616
110698
110192
110118
110093
110112
110178
110289
110439
110618
110807
110963
110098
109997
109961
109986
110073
110224
110438
110705
111007
111272
109995
109867
109822
109847
109951
110135
110407
110761
111192
111592
109946
109799
109744
109770
109885
110096
110420
110856
111424
111978
109795
109628
109566
109589
109711
109940
110304
110813
111518
112246
109816
109642
109575
109601
109732
109978
110377
110947
111777
112681
109670
109488
109418
109442
109574
109827
110245
110865
111792
112901
109703
109523
109457
109493
109640
109913
110354
111012
111992
113251
110412
110398
110393
110397
110410
110430
110455
110482
110507
110525
110374
110343
110332
110341
110369
110414
110471
110534
110594
110639
110351
110296
110278
110292
110339
110417
110519
110636
110752
110844
110279
110201
110172
110191
110259
110373
110529
110715
110913
111076
110204
110099
110062
110083
110168
110315
110525
110786
111079
111335
110170
110045
109998
110022
110122
110299
110560
110896
111296
111662
110033
109886
109832
109855
109965
110165
110470
110877
111388
111883
110063
109908
109848
109874
109994
110215
110558
111026
111644
112272
109919
109754
109691
109716
109840
110072
110438
110957
111662
112444
109953
109788
109727
109760
109896
110143
110531
111084
111841
112735
110490
110482
110479
110481
110489
110500
110515
110529
110542
110552
110462
110443
110436
110442
110459
110487
110522
110560
110594
110620
110469
110431
110418
110428
110460
110512
110579
110654
110725
110779
110415
110357
110335
110349
110399
110481
110591
110718
110845
110946
110366
110283
110254
110271
110337
110451
110606
110792
110988
111152
110348
110247
110208
110228
110310
110453
110655
110904
111182
111422
110226
110103
110057
110078
110171
110339
110583
110896
111260
111594
110268
110135
110084
110108
110213
110402
110684
111053
111503
111934
110128
109983
109928
109952
110063
110266
110573
110989
111510
112050
110166
110021
109966
109996
110116
110331
110658
111105
111671
112290
110553
110548
110547
110548
110553
110559
110567
110575
110582
110587
110529
110517
110513
110516
110527
110544
110564
110587
110607
110621
110558
110533
110524
110531
110552
110586
110629
110675
110719
110750
110515
110474
110458
110468
110503
110560
110636
110720
110801
110863
110489
110427
110405
110418
110468
110551
110663
110791
110921
111025
110486
110407
110376
110393
110457
110567
110718
110898
111087
111244
110378
110278
110241
110259
110335
110469
110658
110890
111145
111368
110435
110325
110283
110304
110392
110547
110770
111051
111371
111661
110297
110175
110129
110151
110245
110415
110663
110984
111361
111726
110343
110220
110173
110199
110301
110481
110746
111095
111507
111926
110606
110603
110603
110603
110606
110609
110613
110618
110622
110624
110579
110573
110570
110572
110578
110588
110601
110614
110625
110634
110627
110611
110605
110609
110623
110644
110671
110699
110725
110743
110588
110560
110549
110555
110579
110618
110668
110723
110774
110813
110582
110537
110521
110530
110566
110626
110703
110790
110875
110940
110590
110531
110508
110520
110569
110651
110760
110886
111013
111114
110495
110417
110388
110402
110462
110565
110706
110874
111048
111195
110567
110481
110446
110464
110535
110657
110828
111034
111258
111450
110431
110331
110294
110312
110390
110525
110718
110959
111225
111468
110487
110387
110348
110369
110452
110598
110805
111068
111361
111640
110651
110649
110649
110650
110651
110653
110655
110657
110659
110661
110618
110615
110613
110614
110618
110624
110631
110639
110645
110651
110681
110671
110667
110670
110678
110692
110708
110725
110741
110751
110641
110622
110614
110619
110634
110660
110693
110728
110760
110785
110651
110620
110609
110615
110640
110681
110734
110791
110846
110887
110668
110625
110608
110617
110653
110711
110788
110875
110959
111023
110582
110523
110501
110512
110557
110633
110736
110854
110971
111068
110670
110605
110578
110592
110647
110739
110866
111014
111167
111292
110532
110454
110425
110439
110500
110605
110750
110925
111109
111269
110601
110522
110491
110508
110574
110687
110844
111035
111240
111422
110691
110689
110690
110690
110690
110691
110693
110694
110695
110695
110648
110646
110645
110645
110648
110651
110655
110660
110664
110668
110726
110719
110717
110719
110724
110732
110742
110752
110761
110766
110679
110666
110661
110664
110674
110691
110711
110734
110754
110769
110703
110682
110674
110678
110695
110723
110757
110795
110829
110854
110725
110694
110682
110689
110714
110754
110807
110865
110920
110961
110646
110603
110587
110595
110627
110682
110754
110835
110912
110975
110750
110702
110682
110693
110734
110801
110892
110995
111098
111177
110606
110546
110525
110536
110582
110660
110765
110889
111013
111118
110691
110631
110607
110620
110670
110755
110870
111005
111144
111262
110726
110725
110725
110725
110726
110726
110727
110727
110728
110728
110669
110668
110667
110668
110669
110671
110674
110677
110680
110682
110763
110759
110758
110759
110762
110767
110773
110778
110783
110785
110705
110697
110694
110695
110702
110712
110725
110739
110752
110762
110741
110727
110722
110725
110736
110754
110776
110800
110821
110836
110764
110744
110736
110740
110757
110784
110820
110857
110893
110918
110691
110660
110649
110655
110678
110716
110764
110818
110869
110909
110811
110778
110764
110771
110800
110848
110911
110981
111049
111098
110657
110613
110597
110605
110639
110695
110769
110854
110936
111004
110761
110717
110700
110709
110746
110807
110888
110981
111073
111148
110759
110758
110759
110759
110759
110759
110759
110760
110760
110759
110682
110682
110681
110681
110682
110684
110685
110687
110689
110692
110796
110794
110793
110794
110796
110799
110802
110805
110807
110807
110723
110718
110715
110716
110720
110726
110735
110743
110751
110758
110768
110759
110756
110758
110765
110776
110790
110805
110818
110827
110791
110777
110772
110775
110786
110804
110827
110851
110874
110889
110722
110701
110694
110698
110713
110739
110771
110806
110837
110863
110859
110836
110826
110832
110852
110885
110927
110973
111017
111047
110689
110657
110646
110652
110675
110714
110764
110821
110874
110918
110818
110787
110775
110782
110807
110850
110905
110967
111027
111074
110795
110794
110795
110795
110795
110795
110795
110795
110795
110794
110687
110686
110686
110686
110686
110687
110689
110690
110692
110695
110825
110824
110824
110825
110826
110828
110829
110830
110831
110830
110734
110730
110729
110729
110732
110736
110740
110746
110750
110755
110786
110780
110778
110779
110784
110791
110799
110808
110816
110821
110806
110797
110793
110795
110802
110814
110828
110843
110858
110867
110742
110729
110725
110727
110737
110754
110774
110796
110816
110832
110895
110881
110874
110877
110891
110913
110941
110970
110999
111016
110704
110682
110674
110678
110694
110720
110753
110789
110823
110852
110870
110850
110841
110845
110863
110891
110929
110968
111007
111035
110846
110846
110846
110846
110846
110846
110846
110846
110845
110845
110679
110679
110678
110678
110678
110679
110680
110682
110683
110687
110849
110849
110849
110850
110850
110851
110852
110853
110853
110851
110739
110737
110736
110737
110738
110740
110743
110746
110748
110751
110794
110791
110789
110790
110792
110797
110802
110807
110812
110815
110809
110803
110801
110802
110806
110814
110823
110832
110842
110848
110754
110747
110744
110746
110752
110763
110775
110788
110800
110809
110918
110908
110903
110905
110914
110928
110946
110965
110984
110994
110700
110686
110681
110683
110694
110710
110731
110754
110775
110795
110933
110920
110913
110916
110928
110947
110971
110996
111021
111037
110939
110939
110939
110939
110939
110939
110939
110938
110937
110936
110652
110651
110651
110651
110651
110652
110652
110654
110655
110659
110861
110861
110860
110860
110861
110861
110862
110863
110864
110862
110740
110740
110740
110740
110741
110743
110744
110745
110746
110747
110793
110791
110790
110790
110792
110794
110798
110801
110804
110806
110803
110799
110797
110798
110801
110805
110811
110817
110823
110827
110759
110754
110753
110754
110758
110765
110773
110780
110786
110791
110914
110907
110904
110905
110910
110920
110931
110944
110958
110964
110671
110662
110659
110661
110668
110678
110692
110706
110717
110731
111030
111022
111018
111020
111027
111039
111055
111071
111088
111096
111100
111100
111100
111099
111099
111099
111099
111099
111099
111099
110590
110590
110591
110592
110593
110593
110593
110593
110592
110594
110848
110846
110844
110844
110843
110844
110845
110847
110849
110851
110742
110742
110743
110743
110744
110745
110745
110746
110745
110745
110786
110785
110784
110784
110785
110787
110789
110791
110794
110795
110791
110788
110787
110787
110789
110792
110796
110800
110804
110807
110758
110755
110755
110756
110759
110763
110768
110773
110776
110778
110870
110864
110861
110861
110865
110871
110880
110889
110899
110906
110603
110599
110597
110599
110604
110611
110620
110628
110634
110640
111185
111179
111176
111177
111182
111191
111202
111213
111225
111230
111282
111280
111278
111277
111277
111277
111278
111280
111282
111286
110507
110512
110516
110518
110519
110519
110517
110514
110510
110503
110813
110809
110807
110806
110806
110806
110808
110810
110814
110819
110746
110747
110748
110749
110749
110750
110750
110750
110750
110748
110780
110779
110778
110778
110779
110780
110782
110784
110786
110788
110782
110780
110779
110780
110781
110784
110787
110790
110793
110796
110759
110757
110756
110757
110760
110763
110768
110772
110775
110775
110805
110799
110796
110797
110800
110805
110812
110820
110829
110838
110517
110516
110515
110517
110521
110527
110534
110541
110544
110541
111351
111345
111343
111344
111349
111356
111365
111374
111384
111388
122706
123920
123744
122471
125937
127342
126942
125322
128884
130471
129883
127894
131057
132760
131987
129719
132727
134509
133562
131091
134083
135924
134971
132379
135012
136887
136066
133408
135838
137719
137061
134365
135753
137606
137093
134406
135341
137180
136926
134393
113013
113203
113241
113121
115299
115670
115729
115438
117560
118113
118171
117662
119707
120427
120472
119718
121665
122522
122537
121525
123524
124490
124469
123243
125063
126113
126064
124679
126570
127679
127612
126118
127350
128491
128422
126877
127997
129172
129151
127655
111816
111905
111932
111906
113140
113308
113347
113280
114598
114864
114917
114787
116081
116453
116513
116300
117511
117986
118044
117727
118993
119569
119620
119187
120289
120957
120998
120446
121672
122417
122448
121783
122493
123285
123310
122550
123311
124140
124183
123367
110968
110991
111002
111002
111722
111776
111795
111788
112647
112750
112784
112759
113684
113852
113901
113846
114717
114958
115020
114922
115851
116170
116243
116087
116859
117256
117335
117112
118019
118487
118570
118273
118733
119252
119340
118978
119509
120071
120176
119773
110689
110699
110704
110705
111163
111187
111197
111197
111751
111800
111819
111815
112462
112546
112578
112567
113193
113319
113364
113340
114035
114212
114270
114225
114775
115006
115076
115002
115697
115981
116061
115950
116277
116601
116694
116551
116954
117315
117426
117260
110562
110566
110568
110568
110867
110876
110881
110882
111265
111286
111296
111298
111763
111802
111821
111823
112288
112352
112382
112382
112922
113018
113059
113054
113463
113594
113646
113632
114194
114362
114425
114396
114654
114852
114930
114886
115207
115432
115524
115468
110525
110526
110527
110528
110722
110726
110729
110730
111013
111023
111028
111030
111368
111388
111399
111402
111756
111789
111807
111811
112240
112292
112319
112324
112633
112707
112744
112747
113216
113315
113361
113360
113567
113686
113744
113737
114000
114138
114205
114192
110529
110530
110530
110530
110652
110654
110656
110656
110870
110875
110878
110879
111127
111137
111143
111146
111421
111438
111449
111453
111800
111829
111846
111851
112087
112129
112153
112159
112557
112615
112646
112652
112805
112877
112916
112920
113143
113226
113271
113273
110554
110554
110555
110555
110626
110628
110628
110629
110794
110796
110798
110798
110975
110981
110985
110986
111200
111210
111216
111219
111501
111517
111528
111531
111708
111733
111748
111753
112093
112127
112147
112153
112253
112296
112321
112327
112519
112570
112599
112604
110588
110588
110588
110588
110625
110626
110626
110627
110758
110760
110761
110761
110881
110884
110886
110887
111053
111059
111063
111065
111290
111300
111307
111309
111435
111450
111459
111463
111755
111775
111788
111792
111844
111871
111887
111891
112060
112090
112109
112113
110625
110625
110625
110625
110636
110637
110637
110637
110748
110749
110749
110750
110824
110826
110827
110828
110958
110961
110963
110964
111143
111150
111154
111155
111236
111245
111251
111254
111506
111519
111527
111530
111540
111557
111567
111570
111720
111739
111750
111754
110661
110661
110661
110661
110652
110653
110653
110653
110753
110754
110754
110754
110791
110793
110794
110794
110897
110899
110900
110901
111042
111046
111048
111049
111093
111098
111102
111104
111327
111335
111339
111341
111314
111325
111331
111333
111471
111483
111490
111492
110696
110696
110696
110696
110669
110669
110669
110669
110767
110768
110768
110768
110774
110774
110775
110775
110861
110862
110863
110863
110973
110975
110977
110978
110991
110994
110996
110998
111199
111204
111207
111209
111147
111153
111157
111159
111292
111299
111303
111305
110728
110728
110728
110728
110683
110683
110683
110684
110786
110786
110786
110786
110764
110765
110765
110766
110840
110841
110841
110841
110927
110928
110929
110930
110918
110920
110922
110923
111112
111116
111117
111118
111023
111027
111030
111031
111167
111171
111174
111175
110759
110759
110759
110759
110692
110693
110693
110693
110808
110808
110808
110808
110759
110759
110760
110760
110829
110829
110830
110830
110895
110896
110897
110897
110868
110869
110870
110871
111056
111058
111059
111060
110931
110934
110935
110936
111085
111087
111089
111090
110794
110794
110794
110794
110695
110695
110695
110696
110831
110831
110831
110830
110755
110755
110755
110756
110823
110823
110823
110823
110872
110872
110873
110873
110833
110834
110834
110835
111022
111023
111024
111024
110860
110862
110863
110863
111041
111042
111043
111044
110844
110844
110844
110844
110687
110687
110687
110688
110852
110852
110852
110851
110750
110750
110751
110751
110816
110816
110816
110816
110851
110852
110852
110852
110808
110808
110808
110808
111000
111001
111001
111001
110800
110801
110802
110802
111039
111039
111040
111041
110936
110936
110935
110935
110658
110658
110659
110659
110865
110865
110865
110864
110745
110745
110745
110745
110807
110808
110808
110808
110830
110830
110831
110831
110788
110787
110787
110788
110972
110973
110973
110973
110733
110733
110734
110734
111097
111096
111097
111098
111098
111098
111098
111098
110591
110591
110591
110591
110857
110858
110858
110858
110742
110741
110741
110741
110797
110797
110797
110797
110809
110810
110810
110810
110773
110772
110772
110773
110919
110922
110923
110922
110636
110635
110635
110635
111236
111236
111237
111237
111287
111288
111288
111289
110487
110484
110483
110483
110829
110830
110831
110832
110744
110743
110743
110743
110789
110789
110790
110790
110797
110798
110798
110798
110770
110769
110769
110769
110855
110859
110860
110858
110516
110510
110509
110513
111410
111413
111413
111410
116086
113572
111648
110360
109555
109035
108680
108430
108250
108114
117144
113963
111595
110194
109369
108843
108494
108252
108084
107959
117513
114009
111333
110012
109187
108667
108317
108075
107912
107805
117507
113916
111015
109860
109054
108568
108234
108005
107847
107740
117233
113707
110718
109693
108895
108445
108125
107909
107759
107663
116873
113591
110561
109669
108872
108461
108152
107948
107800
107696
116241
113343
110279
109528
108723
108352
108048
107854
107708
107610
115827
113374
110278
109670
108850
108514
108202
108003
107844
107720
115106
113046
109971
109542
108746
108456
108136
107932
107765
107632
115547
113744
110643
110239
109320
108927
108494
108201
107964
107761
112565
111820
111159
110607
110152
109782
109482
109242
109049
108899
114188
112823
111689
110835
110191
109708
109345
109068
108856
108697
115492
113541
112000
110925
110138
109573
109163
108862
108640
108490
116487
114037
112158
110953
110084
109487
109062
108755
108529
108375
117122
114313
112164
110882
109963
109357
108929
108626
108401
108254
117606
114571
112206
110894
109945
109346
108922
108624
108402
108248
117761
114611
112068
110763
109793
109212
108792
108501
108279
108130
117977
114820
112141
110877
109896
109334
108911
108616
108386
108215
117761
114626
111902
110746
109795
109264
108834
108533
108294
108114
118168
115140
112380
111245
110218
109614
109106
108740
108453
108221
111749
111434
111080
110741
110434
110166
109937
109743
109582
109452
112921
112280
111611
111032
110558
110176
109867
109618
109418
109263
114124
113075
112051
111229
110591
110102
109725
109434
109210
109051
115244
113760
112403
111389
110628
110066
109645
109327
109085
108912
116180
114265
112601
111433
110578
109969
109522
109191
108939
108766
117060
114746
112810
111528
110604
109968
109506
109169
108912
108729
117664
114995
112819
111458
110483
109835
109365
109026
108766
108586
118319
115364
112996
111599
110591
109939
109460
109113
108846
108647
118492
115320
112866
111507
110508
109866
109376
109020
108742
108535
118997
115740
113239
111875
110821
110125
109581
109179
108868
108625
110980
110884
110749
110596
110439
110288
110147
110020
109909
109815
111714
111486
111198
110904
110627
110376
110155
109965
109805
109676
112587
112153
111644
111166
110746
110389
110092
109847
109649
109502
113529
112841
112089
111429
110874
110423
110061
109772
109542
109369
114400
113422
112418
111586
110914
110389
109978
109658
109405
109223
115299
114016
112761
111779
111009
110427
109982
109640
109372
109175
115999
114403
112907
111799
110948
110325
109854
109499
109219
109020
116794
114908
113200
111998
111086
110435
109943
109572
109282
109065
117172
115039
113199
111962
111024
110358
109848
109465
109165
108939
117778
115469
113532
112247
111256
110548
109999
109584
109261
109010
110696
110656
110594
110518
110435
110350
110267
110189
110118
110057
111170
111074
110937
110780
110617
110459
110312
110179
110062
109965
111756
111564
111307
111034
110770
110527
110311
110123
109964
109842
112460
112134
111725
111317
110940
110609
110324
110085
109886
109731
113158
112665
112080
111529
111042
110630
110287
110005
109774
109602
113936
113248
112474
111783
111193
110711
110320
110004
109750
109555
114570
113663
112693
111870
111189
110648
110217
109877
109602
109400
115344
114215
113058
112122
111363
110776
110312
109948
109659
109437
115783
114450
113152
112140
111327
110705
110215
109836
109534
109304
116383
114871
113459
112378
111513
110853
110333
109928
109610
109361
110565
110548
110519
110482
110439
110393
110346
110301
110258
110221
110874
110831
110763
110679
110587
110492
110399
110312
110234
110166
111279
111192
111061
110908
110747
110589
110440
110304
110186
110092
111787
111633
111413
111169
110925
110694
110483
110298
110138
110009
112320
112074
111743
111394
111059
110754
110485
110253
110056
109905
112950
112590
112131
111671
111244
110869
110546
110275
110048
109870
113469
112972
112370
111796
111280
110841
110472
110167
109915
109724
114154
113507
112761
112079
111484
110988
110578
110245
109973
109761
114569
113773
112900
112128
111467
110927
110487
110133
109847
109625
115090
114157
113181
112340
111628
111052
110584
110209
109910
109673
110526
110518
110503
110484
110461
110437
110411
110385
110360
110339
110725
110703
110668
110622
110570
110514
110457
110403
110352
110307
111021
110976
110905
110816
110718
110617
110518
110425
110342
110275
111387
111308
111185
111039
110881
110725
110576
110439
110318
110217
111787
111659
111469
111250
111024
110806
110604
110423
110266
110141
112284
112093
111820
111520
111220
110940
110687
110466
110275
110122
112685
112412
112044
111654
111279
110937
110637
110379
110160
109990
113264
112897
112425
111946
111497
111100
110757
110467
110226
110032
113606
113137
112564
112002
111490
111048
110672
110361
110102
109898
114031
113470
112818
112196
111637
111161
110760
110429
110159
109942
110530
110525
110518
110508
110496
110482
110468
110454
110440
110428
110654
110642
110623
110598
110568
110536
110502
110469
110438
110409
110874
110850
110810
110758
110699
110635
110572
110510
110454
110408
111138
111095
111024
110935
110835
110731
110629
110532
110445
110370
111442
111371
111259
111121
110970
110819
110673
110538
110418
110320
111834
111727
111563
111368
111161
110958
110768
110596
110444
110318
112134
111980
111753
111492
111225
110969
110735
110527
110345
110201
112612
112402
112103
111774
111446
111141
110866
110627
110422
110254
112864
112588
112217
111823
111441
111094
110787
110525
110302
110123
113202
112870
112443
112000
111579
111202
110873
110593
110359
110168
110554
110552
110548
110543
110536
110529
110521
110514
110506
110499
110628
110621
110611
110597
110580
110561
110541
110521
110502
110485
110796
110782
110759
110728
110692
110653
110613
110573
110536
110507
110982
110957
110915
110861
110798
110730
110662
110596
110534
110481
111213
111172
111104
111016
110918
110815
110713
110616
110527
110455
111522
111460
111359
111232
111093
110950
110811
110682
110566
110467
111741
111651
111509
111335
111149
110964
110787
110626
110481
110365
112135
112011
111821
111598
111365
111138
110926
110736
110570
110430
112301
112137
111900
111629
111353
111091
110850
110639
110453
110303
112571
112374
112098
111791
111484
111196
110936
110709
110514
110352
110588
110587
110585
110582
110578
110575
110570
110566
110562
110558
110626
110623
110617
110609
110599
110588
110577
110565
110554
110543
110759
110751
110738
110719
110698
110674
110649
110624
110600
110582
110885
110871
110846
110812
110773
110729
110685
110640
110599
110562
111061
111036
110995
110939
110875
110807
110737
110669
110606
110554
111304
111267
111204
111122
111028
110930
110832
110738
110652
110577
111457
111402
111312
111198
111070
110939
110810
110689
110579
110488
111782
111708
111587
111438
111276
111112
110954
110809
110679
110567
111878
111780
111628
111445
111251
111058
110876
110711
110563
110441
112097
111979
111802
111594
111376
111163
110965
110787
110630
110498
110625
110624
110623
110621
110619
110617
110615
110613
110610
110608
110637
110635
110632
110627
110622
110616
110609
110602
110595
110588
110748
110744
110736
110725
110712
110697
110682
110666
110652
110642
110827
110818
110803
110783
110758
110731
110702
110673
110645
110620
110962
110947
110921
110886
110845
110800
110753
110707
110664
110628
111152
111129
111089
111037
110975
110909
110841
110775
110713
110658
111250
111217
111159
111084
110998
110907
110816
110728
110646
110579
111524
111478
111401
111303
111192
111077
110963
110855
110757
110671
111563
111503
111406
111284
111150
111012
110878
110754
110640
110545
111745
111674
111561
111422
111271
111118
110972
110837
110716
110612
110661
110661
110660
110659
110658
110657
110656
110654
110653
110652
110653
110652
110650
110648
110645
110641
110637
110633
110629
110624
110753
110750
110745
110739
110731
110722
110713
110703
110695
110690
110794
110788
110779
110767
110752
110734
110716
110698
110680
110663
110900
110891
110874
110853
110826
110797
110766
110735
110706
110682
111047
111033
111008
110974
110934
110890
110844
110799
110756
110717
111102
111081
111044
110996
110938
110876
110813
110751
110692
110643
111338
111310
111260
111196
111122
111042
110962
110885
110814
110749
111329
111292
111230
111149
111058
110962
110866
110776
110691
110619
111488
111444
111372
111281
111178
111072
110966
110867
110777
110698
110695
110695
110695
110694
110694
110693
110692
110692
110691
110691
110670
110669
110668
110667
110665
110663
110661
110658
110656
110652
110767
110765
110762
110758
110753
110748
110742
110737
110732
110730
110775
110772
110767
110759
110750
110739
110728
110716
110705
110693
110862
110857
110846
110833
110816
110797
110778
110757
110738
110723
110976
110968
110952
110930
110904
110876
110845
110815
110786
110759
110997
110983
110960
110928
110891
110850
110806
110764
110723
110689
111206
111189
111158
111116
111067
111013
110959
110905
110854
110807
111156
111133
111093
111041
110980
110914
110848
110783
110722
110670
111303
111276
111230
111171
111103
111030
110956
110886
110821
110763
110728
110728
110727
110727
110727
110727
110726
110726
110725
110725
110684
110684
110683
110683
110682
110680
110679
110678
110676
110673
110785
110784
110782
110780
110777
110774
110771
110767
110765
110765
110766
110764
110761
110756
110751
110744
110737
110730
110722
110715
110841
110837
110831
110823
110812
110800
110788
110775
110763
110753
110928
110923
110913
110900
110883
110865
110845
110825
110806
110788
110923
110914
110899