/*--------------------------------*- C++ -*----------------------------------*\
| =========                 |                                                 |
| \\      /  F ield         | foam-extend: Open Source CFD                    |
|  \\    /   O peration     | Version:     4.0                                |
|   \\  /    A nd           | Web:         http://www.foam-extend.org         |
|    \\/     M anipulation  |                                                 |
\*---------------------------------------------------------------------------*/
FoamFile
{
    version     2.0;
    format      ascii;
    class       surfaceScalarField;
    location    "1350";
    object      phi;
}
// * * * * * * * * * * * * * * * * * * * * * * * * * * * * * * * * * * * * * //

dimensions      [1 0 -1 0 0 0 0];

internalField   nonuniform List<scalar> 
97302
(
-0.000109787
9.41643e-07
-0.000869331
0.000878611
-0.000119595
1.13114e-06
-0.000870338
0.000879015
-0.000129512
1.1909e-06
-0.000870864
0.00087959
-0.000140109
1.12978e-06
-0.000870903
0.00088037
-0.000152212
9.38767e-07
-0.000870451
0.000881615
-0.000167301
6.07593e-07
-0.000869285
0.000883766
-0.000188466
1.09612e-07
-0.0008668
0.000887855
-0.000222709
-5.99681e-07
-0.000861175
0.000896018
-0.000271271
-1.64258e-06
-0.000851384
0.000901589
-4.39764e-06
-0.000823868
-0.000352917
0.000909911
-0.000150897
1.5843e-06
-0.00116564
0.00117573
-0.00016116
1.94712e-06
-0.00116661
0.00117605
-0.000171496
2.0672e-06
-0.0011672
0.00117666
-0.000182443
1.97692e-06
-0.00116723
0.00117733
-0.000194797
1.66124e-06
-0.00116644
0.00117807
-0.000210273
1.10865e-06
-0.00116444
0.00117941
-0.00023272
2.6123e-07
-0.00116085
0.00118314
-0.000271513
-9.76535e-07
-0.00115406
0.00119323
-0.000328277
-2.90755e-06
-0.00114175
0.00119978
-7.46916e-06
-0.00110384
-0.000432666
0.0012113
-0.000191201
1.87737e-06
-0.00146085
0.00147168
-0.000201757
2.37453e-06
-0.00146189
0.00147202
-0.000212264
2.5579e-06
-0.00146252
0.00147254
-0.000223231
2.48306e-06
-0.00146233
0.00147279
-0.000235586
2.13193e-06
-0.001461
0.00147288
-0.000251462
1.49372e-06
-0.00145835
0.00147384
-0.000275339
4.89032e-07
-0.00145449
0.00147814
-0.000318308
-9.81048e-07
-0.00144792
0.0014909
-0.000381631
-3.36854e-06
-0.00143477
0.00149856
-9.15084e-06
-0.00138606
-0.00050061
0.00150672
-0.00023144
2.06869e-06
-0.00175216
0.00176341
-0.000242291
2.70603e-06
-0.00175342
0.00176394
-0.000253093
2.96796e-06
-0.00175431
0.00176471
-0.000264374
2.93351e-06
-0.00175433
0.00176516
-0.000277128
2.57416e-06
-0.00175317
0.00176548
-0.000293676
1.88106e-06
-0.00175076
0.00176692
-0.000318829
7.51909e-07
-0.00174722
0.00177211
-0.000364937
-9.0549e-07
-0.00174102
0.00178705
-0.000432954
-3.69545e-06
-0.00172742
0.00179576
-1.06468e-05
-0.00166759
-0.000560711
0.00179684
-0.000271592
2.30401e-06
-0.00204464
0.00205608
-0.000282614
3.01075e-06
-0.00204628
0.00205699
-0.000293586
3.30996e-06
-0.00204767
0.0020583
-0.000305062
3.29131e-06
-0.00204816
0.00205928
-0.000318104
2.92414e-06
-0.00204753
0.00206022
-0.000335154
2.19949e-06
-0.00204575
0.00206248
-0.000361313
1.00083e-06
-0.00204286
0.00206877
-0.000409959
-7.5652e-07
-0.00203734
0.00208584
-0.000481923
-3.82729e-06
-0.00202411
0.00209621
-1.18792e-05
-0.0019525
-0.000615171
0.00208698
-0.000312322
2.39234e-06
-0.00233574
0.00234748
-0.000323448
3.12445e-06
-0.00233782
0.00234884
-0.000334489
3.41088e-06
-0.00233961
0.00235055
-0.000346023
3.36416e-06
-0.00234051
0.00235197
-0.000359164
2.96264e-06
-0.0023404
0.0023535
-0.000376439
2.20643e-06
-0.00233937
0.00235664
-0.000403223
9.77687e-07
-0.00233741
0.00236422
-0.000453764
-7.90677e-07
-0.00233301
0.00238358
-0.000529038
-3.91928e-06
-0.00232129
0.00239666
-1.28428e-05
-0.00223759
-0.000665828
0.00237535
-0.000352877
2.37332e-06
-0.00262668
0.00263854
-0.000363948
3.01322e-06
-0.00262934
0.00264053
-0.000374912
3.22847e-06
-0.00263169
0.00264283
-0.000386354
3.09573e-06
-0.00263305
0.00264476
-0.000399441
2.62029e-06
-0.00263351
0.00264694
-0.000416733
1.79536e-06
-0.0026333
0.002651
-0.000443852
5.57228e-07
-0.00263248
0.00266002
-0.000495734
-1.11064e-06
-0.00262969
0.00268189
-0.000573795
-3.86038e-06
-0.00262064
0.00269865
-1.29905e-05
-0.00252464
-0.000712604
0.00266359
-0.000394702
2.01546e-06
-0.00291817
0.00293047
-0.000405826
2.46646e-06
-0.00292142
0.00293309
-0.000416789
2.49537e-06
-0.00292387
0.00293557
-0.00042818
2.1569e-06
-0.00292517
0.0029375
-0.00044113
1.48762e-06
-0.00292553
0.00293961
-0.000458142
4.86336e-07
-0.00292548
0.0029438
-0.000484986
-8.18404e-07
-0.00292536
0.00295358
-0.000537057
-2.35655e-06
-0.00292404
0.00297736
-0.000616586
-4.14203e-06
-0.00291837
0.00299818
-1.21344e-05
-0.00281188
-0.000755802
0.00295024
-0.000435914
1.06359e-06
-0.00320596
0.00321839
-0.000446615
1.13222e-06
-0.00321008
0.00322211
-0.000457186
8.41431e-07
-0.00321314
0.00322537
-0.000468276
1.0803e-07
-0.00321505
0.00322819
-0.000481053
-9.50895e-07
-0.0032162
0.00323141
-0.000497905
-2.30958e-06
-0.00321716
0.00323681
-0.0005246
-3.7822e-06
-0.00321847
0.00324813
-0.000576396
-5.09378e-06
-0.00321947
0.003274
-0.000655854
-5.4977e-06
-0.00321622
0.00329703
-1.01877e-05
-0.00309898
-0.000792556
0.00323374
-0.000477341
-0.00347447
0.00348747
-0.000488682
-0.00347808
0.00349055
-0.000499864
-0.00347879
0.00349081
-0.000511565
-0.00347623
0.00348804
-0.000524827
-0.00347109
0.0034834
-0.000541782
-0.00346443
0.00347907
-0.000567665
-0.00345743
0.00347953
-0.000616672
-0.0034516
0.00349551
-0.000689766
-0.00344813
0.00351572
-0.00333932
-0.000818812
0.00345818
1.43929e-05
8.78935e-07
-0.00086087
5.31457e-06
1.10361e-06
-0.000862363
-3.785e-06
1.18487e-06
-0.000862949
-1.30896e-05
1.12793e-06
-0.000862726
-2.27989e-05
9.22902e-07
-0.000861665
-3.31311e-05
5.51328e-07
-0.000859504
-4.4234e-05
-2.10703e-08
-0.000855676
-5.55264e-05
-8.7331e-07
-0.000849009
-6.62223e-05
-2.2014e-06
-0.000838487
-3.97138e-06
-0.000822219
-6.38998e-05
1.54087e-05
1.49479e-06
-0.00115579
5.39917e-06
1.91134e-06
-0.0011574
-4.60094e-06
2.06647e-06
-0.00115809
-1.49091e-05
1.98889e-06
-0.00115779
-2.57909e-05
1.65671e-06
-0.00115629
-3.76092e-05
1.0474e-06
-0.00115312
-5.12009e-05
9.88382e-08
-0.00114738
-6.76094e-05
-1.30568e-06
-0.00113722
-8.82319e-05
-3.55354e-06
-0.00111978
-6.61928e-06
-0.0010908
-9.86217e-05
1.67474e-05
1.80496e-06
-0.00144982
6.02943e-06
2.36976e-06
-0.00145163
-4.59791e-06
2.59519e-06
-0.00145243
-1.54669e-05
2.53476e-06
-0.00145201
-2.69161e-05
2.15547e-06
-0.00145005
-3.968e-05
1.43337e-06
-0.00144597
-5.55042e-05
2.76068e-07
-0.00143884
-7.71172e-05
-1.43906e-06
-0.00142618
-0.000108606
-4.2975e-06
-0.00140254
-8.41112e-06
-0.001359
-0.000133875
1.79723e-05
2.01472e-06
-0.00174043
6.76937e-06
2.73749e-06
-0.00174258
-4.34426e-06
3.05039e-06
-0.00174366
-1.57647e-05
3.03586e-06
-0.00174341
-2.79486e-05
2.64683e-06
-0.00174148
-4.18888e-05
1.86149e-06
-0.00173725
-5.98955e-05
5.46697e-07
-0.00172948
-8.60919e-05
-1.41188e-06
-0.00171485
-0.000128031
-4.80852e-06
-0.00168497
-9.92216e-06
-0.0016251
-0.000169013
1.90947e-05
2.26347e-06
-0.00203251
7.6023e-06
3.06523e-06
-0.00203511
-3.7938e-06
3.42163e-06
-0.00203665
-1.55511e-05
3.42901e-06
-0.0020368
-2.82642e-05
3.03639e-06
-0.00203521
-4.31121e-05
2.22155e-06
-0.00203126
-6.28713e-05
8.12303e-07
-0.00202336
-9.29619e-05
-1.29615e-06
-0.00200737
-0.00014488
-5.0872e-06
-0.00197191
-1.10777e-05
-0.00189479
-0.000201434
1.98042e-05
2.38442e-06
-0.00232319
8.13092e-06
3.22085e-06
-0.0023263
-3.39809e-06
3.57222e-06
-0.00232823
-1.52991e-05
3.56188e-06
-0.00232874
-2.82871e-05
3.14594e-06
-0.00232752
-4.3705e-05
2.31231e-06
-0.00232404
-6.47587e-05
8.68899e-07
-0.00231641
-9.80383e-05
-1.27914e-06
-0.00229974
-0.000159357
-5.21457e-06
-0.00225985
-1.18909e-05
-0.00216527
-0.000230872
2.02194e-05
2.35727e-06
-0.00261385
8.56585e-06
3.10001e-06
-0.00261757
-2.91441e-06
3.38549e-06
-0.00262002
-1.47544e-05
3.30179e-06
-0.00262095
-2.77995e-05
2.84447e-06
-0.00262017
-4.35036e-05
1.98456e-06
-0.00261727
-6.54523e-05
5.4631e-07
-0.0026102
-0.000101277
-1.56498e-06
-0.00259358
-0.000171285
-5.24487e-06
-0.00255061
-1.22482e-05
-0.00243866
-0.000256902
1.99631e-05
2.0238e-06
-0.00290491
8.3051e-06
2.58129e-06
-0.00290925
-3.0699e-06
2.71068e-06
-0.00291182
-1.47427e-05
2.47382e-06
-0.00291267
-2.76144e-05
1.90202e-06
-0.00291171
-4.3213e-05
9.62899e-07
-0.00290886
-6.54251e-05
-4.35709e-07
-0.00290217
-0.000102717
-2.40359e-06
-0.00288591
-0.000180134
-5.2134e-06
-0.00284098
-1.18913e-05
-0.00271283
-0.000279542
1.94401e-05
1.06892e-06
-0.00319243
8.24866e-06
1.21527e-06
-0.00319752
-2.62445e-06
1.05554e-06
-0.00320061
-1.37904e-05
4.71256e-07
-0.00320188
-2.63044e-05
-4.06351e-07
-0.00320138
-4.18053e-05
-1.58616e-06
-0.00319911
-6.43853e-05
-3.00961e-06
-0.00319332
-0.000103003
-4.67116e-06
-0.00317858
-0.000186384
-6.1414e-06
-0.00313191
-1.00666e-05
-0.0029852
-0.000301997
1.82863e-05
-0.00346066
6.8419e-06
-0.00346542
-4.08153e-06
-0.00346681
-1.51726e-05
-0.00346467
-2.73736e-05
-0.00345929
-4.2292e-05
-0.00345109
-6.38539e-05
-0.00343888
-0.000101253
-0.00341887
-0.000186035
-0.00336949
-0.00321527
-0.000320152
1.20252e-05
7.67885e-07
-0.000854192
4.42612e-06
1.00795e-06
-0.000855772
-3.2887e-06
1.09646e-06
-0.000856331
-1.10292e-05
1.03264e-06
-0.000856019
-1.86724e-05
8.09964e-07
-0.000854832
-2.59735e-05
4.12547e-07
-0.000852616
-3.23809e-05
-1.81723e-07
-0.000849087
-3.65905e-05
-1.01097e-06
-0.000843789
-3.67211e-05
-2.15908e-06
-0.000836197
-3.43653e-06
-0.000826537
-2.89665e-05
1.38788e-05
1.34378e-06
-0.00114727
4.86028e-06
1.78421e-06
-0.00114916
-4.22026e-06
1.94862e-06
-0.00114986
-1.34538e-05
1.85946e-06
-0.00114938
-2.28467e-05
1.49525e-06
-0.00114759
-3.22485e-05
8.31266e-07
-0.00114413
-4.12589e-05
-1.86244e-07
-0.00113836
-4.8726e-05
-1.6303e-06
-0.00112913
-5.21852e-05
-3.71642e-06
-0.00111476
-6.13836e-06
-0.00109554
-4.47497e-05
1.59914e-05
1.68935e-06
-0.00143967
5.79976e-06
2.28521e-06
-0.00144194
-4.3882e-06
2.52067e-06
-0.00144281
-1.47681e-05
2.44225e-06
-0.00144221
-2.54358e-05
2.01215e-06
-0.0014399
-3.64551e-05
1.19489e-06
-0.00143532
-4.79405e-05
-1.04821e-07
-0.00142744
-5.94241e-05
-1.98555e-06
-0.00141434
-6.84964e-05
-4.85798e-06
-0.00139232
-8.37935e-06
-0.0013603
-6.49532e-05
1.76488e-05
1.94969e-06
-0.00172925
6.66721e-06
2.71469e-06
-0.00173203
-4.30747e-06
3.03982e-06
-0.0017332
-1.55865e-05
3.00286e-06
-0.00173269
-2.74165e-05
2.5501e-06
-0.00173019
-4.01279e-05
1.64361e-06
-0.00172499
-5.42823e-05
1.3491e-07
-0.00171557
-7.0073e-05
-2.09754e-06
-0.00169894
-8.57932e-05
-5.71751e-06
-0.00166839
-1.03491e-05
-0.00162066
-8.82598e-05
1.90609e-05
2.2436e-06
-0.00202065
7.56816e-06
3.0945e-06
-0.002024
-3.89639e-06
3.46725e-06
-0.00202561
-1.57522e-05
3.45349e-06
-0.00202539
-2.84253e-05
2.99483e-06
-0.00202298
-4.2499e-05
2.04925e-06
-0.0020176
-5.89876e-05
4.13069e-07
-0.00200715
-7.88827e-05
-2.06362e-06
-0.00198751
-0.000101939
-6.31047e-06
-0.00194826
-1.19823e-05
-0.00188292
-0.000112169
2.00043e-05
2.41342e-06
-0.00231071
8.17163e-06
3.30348e-06
-0.00231468
-3.57791e-06
3.67591e-06
-0.00231669
-1.5758e-05
3.65195e-06
-0.00231676
-2.89527e-05
3.17571e-06
-0.00231451
-4.39961e-05
2.21396e-06
-0.00230917
-6.23894e-05
5.32864e-07
-0.00229814
-8.60306e-05
-2.04098e-06
-0.00227613
-0.000116887
-6.64233e-06
-0.00222866
-1.31874e-05
-0.00214464
-0.00013631
2.05597e-05
2.40949e-06
-0.00260094
8.64367e-06
3.20582e-06
-0.00260556
-3.14959e-06
3.51831e-06
-0.00260807
-1.53797e-05
3.43436e-06
-0.0026085
-2.87975e-05
2.94126e-06
-0.00260651
-4.44477e-05
1.99322e-06
-0.0026014
-6.43171e-05
3.54317e-07
-0.00259016
-9.12415e-05
-2.19932e-06
-0.0025665
-0.000130002
-6.76418e-06
-0.00251172
-1.39493e-05
-0.00240852
-0.000159383
2.0386e-05
2.08721e-06
-0.00289151
8.43707e-06
2.69439e-06
-0.00289679
-3.27378e-06
2.86748e-06
-0.00289946
-1.53692e-05
2.67128e-06
-0.00289981
-2.86953e-05
2.12205e-06
-0.00289757
-4.44864e-05
1.17367e-06
-0.00289225
-6.51992e-05
-3.25699e-07
-0.00288078
-9.45663e-05
-2.64234e-06
-0.0028561
-0.000140718
-6.39482e-06
-0.0027952
-1.37318e-05
-0.00267305
-0.00018071
1.97797e-05
1.14606e-06
-0.00317872
8.28069e-06
1.32494e-06
-0.00318465
-2.9323e-06
1.2452e-06
-0.00318778
-1.44862e-05
7.70379e-07
-0.00318843
-2.73845e-05
2.42519e-08
-0.00318638
-4.31047e-05
-1.01377e-06
-0.00318121
-6.46101e-05
-2.33502e-06
-0.00316981
-9.64218e-05
-4.08589e-06
-0.00314533
-0.000148934
-6.36367e-06
-0.00307943
-1.15058e-05
-0.00293563
-0.000200727
1.86189e-05
-0.00344679
7.03661e-06
-0.00345251
-4.06911e-06
-0.00345446
-1.54084e-05
-0.00345256
-2.78755e-05
-0.0034468
-4.29582e-05
-0.00343702
-6.36607e-05
-0.00342051
-9.53936e-05
-0.00339122
-0.000150721
-0.00332052
-0.00316199
-0.000215513
9.33452e-06
5.99478e-07
-0.000849355
3.46682e-06
8.43039e-07
-0.000850747
-2.58255e-06
9.35607e-07
-0.000851217
-8.54022e-06
8.7008e-07
-0.000850931
-1.40996e-05
6.45087e-07
-0.000849917
-1.88382e-05
2.51668e-07
-0.000848129
-2.21138e-05
-3.17202e-07
-0.000845494
-2.2888e-05
-1.06388e-06
-0.000841951
-1.95778e-05
-1.98495e-06
-0.000837523
-2.86794e-06
-0.000832663
-1.0584e-05
1.17265e-05
1.09899e-06
-0.00114044
4.11401e-06
1.54966e-06
-0.00114226
-3.62814e-06
1.71917e-06
-0.0011429
-1.13624e-05
1.62237e-06
-0.0011424
-1.88727e-05
1.24213e-06
-0.00114067
-2.57706e-05
5.60295e-07
-0.00113754
-3.12969e-05
-4.5486e-07
-0.0011327
-3.39342e-05
-1.8259e-06
-0.00112573
-3.08436e-05
-3.61322e-06
-0.00111622
-5.42757e-06
-0.00110566
-1.81561e-05
1.44429e-05
1.46974e-06
-0.00143091
5.27442e-06
2.08207e-06
-0.0014333
-3.96234e-06
2.3203e-06
-0.00143417
-1.32682e-05
2.22121e-06
-0.00143351
-2.25371e-05
1.74867e-06
-0.00143114
-3.14749e-05
8.67843e-07
-0.00142669
-3.94043e-05
-4.99065e-07
-0.00141946
-4.47162e-05
-2.4055e-06
-0.00140845
-4.34854e-05
-5.04622e-06
-0.00139212
-7.90411e-06
-0.00137259
-2.87217e-05
1.65368e-05
1.78269e-06
-0.00171916
6.24929e-06
2.57682e-06
-0.00172224
-4.10311e-06
2.90573e-06
-0.00172343
-1.46582e-05
2.83825e-06
-0.00172276
-2.54614e-05
2.3211e-06
-0.00171996
-3.6425e-05
1.31217e-06
-0.00171447
-4.70817e-05
-3.25026e-07
-0.00170509
-5.58487e-05
-2.68364e-06
-0.0016899
-5.7876e-05
-6.18713e-06
-0.00166522
-1.01847e-05
-0.00163334
-4.29122e-05
1.82939e-05
2.12755e-06
-0.00200958
7.2191e-06
3.01695e-06
-0.00201336
-3.88917e-06
3.39743e-06
-0.00201499
-1.53077e-05
3.35041e-06
-0.00201449
-2.72743e-05
2.81588e-06
-0.00201151
-3.99514e-05
1.74252e-06
-0.00200535
-5.31772e-05
-7.08205e-08
-0.00199418
-6.55867e-05
-2.77104e-06
-0.00197501
-7.19366e-05
-7.06101e-06
-0.00194104
-1.22022e-05
-0.00189417
-5.86755e-05
1.95318e-05
2.35737e-06
-0.0022988
7.9043e-06
3.2921e-06
-0.00230333
-3.69826e-06
3.67719e-06
-0.00230537
-1.56788e-05
3.62607e-06
-0.00230506
-2.8452e-05
3.07639e-06
-0.002302
-4.24567e-05
1.98057e-06
-0.0022954
-5.79341e-05
9.38591e-08
-0.00228282
-7.39496e-05
-2.78292e-06
-0.0022601
-8.55479e-05
-7.60936e-06
-0.00221651
-1.37728e-05
-0.00215274
-7.58719e-05
2.0292e-05
2.39726e-06
-0.00258838
8.4265e-06
3.2398e-06
-0.00259364
-3.36683e-06
3.57036e-06
-0.00259617
-1.55694e-05
3.47046e-06
-0.00259614
-2.87839e-05
2.91812e-06
-0.00259314
-4.37099e-05
1.85589e-06
-0.00258634
-6.10506e-05
2.36782e-08
-0.00257275
-8.04432e-05
-2.86296e-06
-0.00254702
-9.79015e-05
-7.85252e-06
-0.00249402
-1.48972e-05
-0.00241207
-9.32258e-05
2.02749e-05
2.10307e-06
-0.00287836
8.30436e-06
2.75306e-06
-0.00288433
-3.48116e-06
2.95651e-06
-0.00288706
-1.56483e-05
2.7797e-06
-0.00288695
-2.8913e-05
2.22092e-06
-0.00288361
-4.42242e-05
1.22597e-06
-0.00287631
-6.28133e-05
-3.98599e-07
-0.00286177
-8.50339e-05
-3.01471e-06
-0.00283372
-0.000108548
-7.32349e-06
-0.00277222
-1.48264e-05
-0.00267147
-0.000110207
1.97337e-05
1.19556e-06
-0.00316515
8.15525e-06
1.40225e-06
-0.00317172
-3.19346e-06
1.38753e-06
-0.00317486
-1.48793e-05
9.97834e-07
-0.00317496
-2.7757e-05
3.45188e-07
-0.00317163
-4.30093e-05
-6.06985e-07
-0.00316412
-6.24905e-05
-1.89261e-06
-0.00314883
-8.76666e-05
-3.74698e-06
-0.00311942
-0.0001171
-6.48868e-06
-0.00305083
-1.22106e-05
-0.00292856
-0.000126783
1.86473e-05
-0.00343312
7.10741e-06
-0.00343957
-4.02291e-06
-0.00344194
-1.54141e-05
-0.00344017
-2.78376e-05
-0.00343403
-4.25161e-05
-0.00342295
-6.14053e-05
-0.00340351
-8.70647e-05
-0.00336931
-0.000119734
-0.00329434
-0.00315437
-0.000139557
6.85112e-06
4.15101e-07
-0.000846002
2.57826e-06
6.45728e-07
-0.00084712
-1.89422e-06
7.36832e-07
-0.000847482
-6.23589e-06
6.74957e-07
-0.000847264
-1.01022e-05
4.63658e-07
-0.000846515
-1.30882e-05
1.01972e-07
-0.000845245
-1.47005e-05
-4.01764e-07
-0.00084348
-1.43349e-05
-1.02639e-06
-0.00084129
-1.13205e-05
-1.72632e-06
-0.000838811
-2.3341e-06
-0.000836282
-5.36716e-06
9.38963e-06
8.06317e-07
-0.00113523
3.30359e-06
1.24628e-06
-0.00113677
-2.95943e-06
1.41412e-06
-0.00113731
-9.11953e-06
1.31614e-06
-0.00113688
-1.48344e-05
9.40971e-07
-0.00113543
-1.96347e-05
2.81835e-07
-0.00113292
-2.28052e-05
-6.66513e-07
-0.00112926
-2.32426e-05
-1.88253e-06
-0.00112444
-1.92836e-05
-3.32337e-06
-0.00111858
-4.64099e-06
-0.00111287
-9.77281e-06
1.24647e-05
1.17208e-06
-0.00142374
4.60597e-06
1.78105e-06
-0.00142598
-3.38721e-06
2.01572e-06
-0.00142678
-1.13321e-05
1.9009e-06
-0.00142615
-1.89541e-05
1.40578e-06
-0.00142398
-2.57814e-05
5.057e-07
-0.00142008
-3.0938e-05
-8.45916e-07
-0.00141413
-3.28455e-05
-2.65186e-06
-0.00140577
-2.86167e-05
-4.93267e-06
-0.00139474
-7.1486e-06
-0.00138329
-1.54024e-05
1.49054e-05
1.51949e-06
-0.00171048
5.65981e-06
2.3266e-06
-0.00171354
-3.72652e-06
2.65378e-06
-0.00171468
-1.31876e-05
2.55784e-06
-0.00171395
-2.25597e-05
1.99047e-06
-0.00171117
-3.14779e-05
9.16027e-07
-0.00170596
-3.905e-05
-7.68381e-07
-0.00169759
-4.33443e-05
-3.10552e-06
-0.00168515
-4.00402e-05
-6.27636e-06
-0.00166718
-9.54507e-06
-0.00164712
-2.38688e-05
1.69934e-05
1.90726e-06
-0.00199966
6.69205e-06
2.823e-06
-0.00200356
-3.71584e-06
3.20631e-06
-0.00200514
-1.43079e-05
3.12465e-06
-0.00200446
-2.5091e-05
2.52068e-06
-0.00200126
-3.58887e-05
1.3436e-06
-0.00199498
-4.59235e-05
-5.77735e-07
-0.00198434
-5.30646e-05
-3.34708e-06
-0.00196763
-5.16751e-05
-7.38015e-06
-0.00194133
-1.17772e-05
-0.00190993
-3.36783e-05
1.85418e-05
2.19734e-06
-0.00228783
7.45874e-06
3.16864e-06
-0.00229259
-3.67255e-06
3.56221e-06
-0.00229459
-1.50737e-05
3.48002e-06
-0.00229401
-2.69229e-05
2.85721e-06
-0.00229048
-3.92879e-05
1.63983e-06
-0.00228333
-5.16436e-05
-3.97976e-07
-0.00227065
-6.18727e-05
-3.42984e-06
-0.00224979
-6.33926e-05
-8.12237e-06
-0.00221425
-1.35922e-05
-0.00216926
-4.50647e-05
1.9539e-05
2.29412e-06
-0.00257656
8.0369e-06
3.179e-06
-0.00258215
-3.46157e-06
3.52476e-06
-0.00258463
-1.52833e-05
3.40443e-06
-0.00258424
-2.78003e-05
2.7882e-06
-0.00258055
-4.1339e-05
1.60979e-06
-0.00257278
-5.57283e-05
-3.8609e-07
-0.00255837
-6.90414e-05
-3.47473e-06
-0.00253367
-7.42504e-05
-8.48333e-06
-0.00248845
-1.4952e-05
-0.00242803
-5.6932e-05
1.97248e-05
2.03896e-06
-0.00286581
8.01274e-06
2.73245e-06
-0.00287217
-3.58705e-06
2.96193e-06
-0.0028749
-1.55139e-05
2.79608e-06
-0.00287442
-2.82659e-05
2.21637e-06
-0.00287028
-4.24243e-05
1.15998e-06
-0.0028617
-5.82925e-05
-5.85219e-07
-0.0028457
-7.43983e-05
-3.40209e-06
-0.00281769
-8.39142e-05
-7.90416e-06
-0.00276328
-1.5005e-05
-0.00268619
-6.91418e-05
1.93081e-05
1.19634e-06
-0.00315205
7.90158e-06
1.43157e-06
-0.00315901
-3.35331e-06
1.4738e-06
-0.00316212
-1.49043e-05
1.15325e-06
-0.00316177
-2.73975e-05
5.70901e-07
-0.00315749
-4.16208e-05
-3.25739e-07
-0.00314841
-5.83764e-05
-1.60348e-06
-0.00313106
-7.7298e-05
-3.53309e-06
-0.00310037
-9.1613e-05
-6.46892e-06
-0.00303795
-1.20745e-05
-0.00294151
-8.16003e-05
1.83306e-05
-0.00341994
7.03669e-06
-0.00342685
-3.93328e-06
-0.00342949
-1.51565e-05
-0.00342779
-2.72288e-05
-0.00342139
-4.10236e-05
-0.00340948
-5.74905e-05
-0.00338865
-7.71016e-05
-0.00335323
-9.42085e-05
-0.00328371
-0.00316967
-9.09852e-05
4.81913e-06
2.42879e-07
-0.000843737
1.84617e-06
4.47613e-07
-0.000844595
-1.31065e-06
5.32349e-07
-0.000844857
-4.3423e-06
4.78201e-07
-0.000844711
-6.94213e-06
2.92598e-07
-0.000844207
-8.78755e-06
-1.9508e-08
-0.00084338
-9.54936e-06
-4.39899e-07
-0.000842278
-8.91286e-06
-9.36712e-07
-0.00084099
-6.64839e-06
-1.45363e-06
-0.000839621
-1.87167e-06
-0.000838209
-2.84988e-06
7.17243e-06
5.07119e-07
-0.0011314
2.525e-06
9.15678e-07
-0.00113259
-2.3151e-06
1.07474e-06
-0.00113302
-7.01644e-06
9.82469e-07
-0.00113268
-1.12065e-05
6.33073e-07
-0.00113158
-1.44441e-05
3.09741e-08
-0.00112974
-1.61699e-05
-8.07426e-07
-0.00112717
-1.57036e-05
-1.83405e-06
-0.00112401
-1.22634e-05
-2.96065e-06
-0.00112052
-3.91559e-06
-0.00111743
-5.66107e-06
1.03432e-05
8.35279e-07
-0.00141811
3.88178e-06
1.41727e-06
-0.00142002
-2.75906e-06
1.64104e-06
-0.00142071
-9.27436e-06
1.51885e-06
-0.00142017
-1.52906e-05
1.02679e-06
-0.00141836
-2.0288e-05
1.54656e-07
-0.00141521
-2.34695e-05
-1.10988e-06
-0.00141064
-2.366e-05
-2.72766e-06
-0.00140469
-1.91544e-05
-4.61968e-06
-0.00139759
-6.31905e-06
-0.00139094
-9.10799e-06
1.29675e-05
1.18849e-06
-0.00170332
4.96685e-06
1.98628e-06
-0.00170611
-3.23993e-06
2.30502e-06
-0.00170714
-1.14132e-05
2.18809e-06
-0.00170645
-1.92262e-05
1.59535e-06
-0.00170392
-2.61643e-05
5.05079e-07
-0.00169937
-3.12687e-05
-1.14141e-06
-0.00169246
-3.28862e-05
-3.33363e-06
-0.00168293
-2.80351e-05
-6.07853e-06
-0.00167057
-8.69045e-06
-0.00165821
-1.45693e-05
1.53023e-05
1.60049e-06
-0.00199112
6.03844e-06
2.5232e-06
-0.00199483
-3.40436e-06
2.90315e-06
-0.00199629
-1.29068e-05
2.79174e-06
-0.00199556
-2.22649e-05
2.13838e-06
-0.00199244
-3.10617e-05
9.01859e-07
-0.00198658
-3.82834e-05
-1.0413e-06
-0.00197722
-4.18785e-05
-3.73485e-06
-0.00196363
-3.74144e-05
-7.34739e-06
-0.00194452
-1.09893e-05
-0.00192414
-2.09067e-05
1.71245e-05
1.94075e-06
-0.00227808
6.87403e-06
2.93371e-06
-0.00228275
-3.50346e-06
3.3304e-06
-0.00228464
-1.40288e-05
3.2188e-06
-0.00228391
-2.46406e-05
2.53639e-06
-0.00228027
-3.50939e-05
1.23231e-06
-0.00227321
-4.44584e-05
-8.7692e-07
-0.00226145
-5.04485e-05
-3.90935e-06
-0.00224362
-4.72381e-05
-8.23748e-06
-0.00221657
-1.29107e-05
-0.00218601
-2.85638e-05
1.83526e-05
2.09951e-06
-0.00256579
7.50435e-06
3.01731e-06
-0.00257138
-3.41963e-06
3.37452e-06
-0.00257375
-1.45566e-05
3.23397e-06
-0.00257312
-2.60263e-05
2.56202e-06
-0.00256911
-3.77981e-05
1.29124e-06
-0.00256106
-4.91417e-05
-8.04171e-07
-0.0025471
-5.76978e-05
-3.9462e-06
-0.00252507
-5.64785e-05
-8.68588e-06
-0.00248922
-1.43514e-05
-0.00244652
-3.65467e-05
1.87607e-05
1.88928e-06
-0.00285416
7.58144e-06
2.62302e-06
-0.0028606
-3.57079e-06
2.87389e-06
-0.00286324
-1.49671e-05
2.71371e-06
-0.0028625
-2.68575e-05
2.11077e-06
-0.00285794
-3.94383e-05
1.00053e-06
-0.00284883
-5.23204e-05
-8.22308e-07
-0.0028328
-6.33542e-05
-3.70383e-06
-0.0028069
-6.49044e-05
-8.09252e-06
-0.00276232
-1.44342e-05
-0.00270595
-4.50539e-05
1.8501e-05
1.14155e-06
-0.00313976
7.52224e-06
1.40371e-06
-0.00314682
-3.39623e-06
1.49434e-06
-0.00314982
-1.45415e-05
1.22832e-06
-0.00314914
-2.63256e-05
6.97411e-07
-0.00314429
-3.91366e-05
-1.62135e-07
-0.00313444
-5.29302e-05
-1.43459e-06
-0.00311665
-6.63202e-05
-3.37361e-06
-0.00308731
-7.13137e-05
-6.28331e-06
-0.00303477
-1.12855e-05
-0.00296226
-5.37103e-05
1.76606e-05
-0.00340755
6.82418e-06
-0.00341461
-3.78475e-06
-0.00341739
-1.461e-05
-0.00341574
-2.60421e-05
-0.00340926
-3.85857e-05
-0.0033971
-5.23842e-05
-0.00337628
-6.6584e-05
-0.00334241
-7.37526e-05
-0.00328282
-0.00319502
-5.96875e-05
3.29417e-06
9.98081e-08
-0.000842206
1.29161e-06
2.71634e-07
-0.000842864
-8.63012e-07
3.4684e-07
-0.000843049
-2.91718e-06
3.02487e-07
-0.000842959
-4.63042e-06
1.48624e-07
-0.000842643
-5.7696e-06
-1.06752e-07
-0.000842134
-6.1304e-06
-4.41102e-07
-0.000841476
-5.56136e-06
-8.21235e-07
-0.000840738
-4.01476e-06
-1.19519e-06
-0.000839973
-1.4811e-06
-0.000839093
-1.64988e-06
5.25279e-06
2.33189e-07
-0.00112864
1.83661e-06
5.94742e-07
-0.0011295
-1.76096e-06
7.3921e-07
-0.00112981
-5.22313e-06
6.58015e-07
-0.00112957
-8.20914e-06
3.49848e-07
-0.0011288
-1.03558e-05
-1.72552e-07
-0.00112752
-1.12696e-05
-8.79196e-07
-0.00112582
-1.05679e-05
-1.71066e-06
-0.00112382
-7.9514e-06
-2.57032e-06
-0.00112176
-3.25987e-06
-0.00112005
-3.54483e-06
8.29387e-06
4.96776e-07
-0.00141382
3.16726e-06
1.02921e-06
-0.00141532
-2.15548e-06
1.23467e-06
-0.00141588
-7.31939e-06
1.11389e-06
-0.00141546
-1.1924e-05
6.49606e-07
-0.00141405
-1.54831e-05
-1.54362e-07
-0.00141167
-1.73685e-05
-1.28226e-06
-0.00140835
-1.6822e-05
-2.66641e-06
-0.00140428
-1.29916e-05
-4.18375e-06
-0.00139981
-5.47433e-06
-0.00139592
-5.79279e-06
1.09138e-05
8.24752e-07
-0.00169761
4.22584e-06
1.58781e-06
-0.00169998
-2.7111e-06
1.89024e-06
-0.00170086
-9.54441e-06
1.76211e-06
-0.00170026
-1.58545e-05
1.17296e-06
-0.00169814
-2.10837e-05
1.17831e-07
-0.00169442
-2.43829e-05
-1.41854e-06
-0.00168902
-2.45486e-05
-3.38067e-06
-0.00168205
-1.98264e-05
-5.67099e-06
-0.00167381
-7.72638e-06
-0.00166622
-9.56138e-06
1.33667e-05
1.23581e-06
-0.001984
5.30042e-06
2.14017e-06
-0.00198732
-3.00303e-06
2.50872e-06
-0.00198861
-1.12682e-05
2.3762e-06
-0.00198791
-1.91394e-05
1.70162e-06
-0.0019851
-2.60687e-05
4.59688e-07
-0.00197999
-3.10428e-05
-1.41959e-06
-0.00197224
-3.24112e-05
-3.91948e-06
-0.00196172
-2.72296e-05
-7.0306e-06
-0.00194834
-9.98413e-06
-0.00193527
-1.38477e-05
1.53826e-05
1.60773e-06
-0.00226968
6.18047e-06
2.60017e-06
-0.00227401
-3.22027e-06
2.99247e-06
-0.00227573
-1.26592e-05
2.85721e-06
-0.00227495
-2.18784e-05
2.13847e-06
-0.00227149
-3.04184e-05
7.97119e-07
-0.00226501
-3.72119e-05
-1.29451e-06
-0.00225478
-4.02541e-05
-4.18707e-06
-0.00224031
-3.52736e-05
-8.01109e-06
-0.00222057
-1.18958e-05
-0.00220018
-1.91922e-05
1.67986e-05
1.82507e-06
-0.00255628
6.84892e-06
2.75906e-06
-0.00256159
-3.25514e-06
3.12164e-06
-0.00256378
-1.34618e-05
2.96425e-06
-0.00256302
-2.36645e-05
2.25389e-06
-0.00255902
-3.35517e-05
9.30855e-07
-0.00255131
-4.21049e-05
-1.18315e-06
-0.00253866
-4.70842e-05
-4.23173e-06
-0.00252005
-4.29013e-05
-8.50529e-06
-0.00249291
-1.32806e-05
-0.00246342
-2.46146e-05
1.74219e-05
1.65915e-06
-0.00284366
7.02248e-06
2.42353e-06
-0.00284986
-3.43768e-06
2.68948e-06
-0.00285235
-1.40489e-05
2.53222e-06
-0.00285146
-2.48256e-05
1.91122e-06
-0.00284682
-3.56364e-05
7.6799e-07
-0.00283786
-4.56547e-05
-1.07487e-06
-0.00282289
-5.26347e-05
-3.88354e-06
-0.00280027
-5.00289e-05
-7.91288e-06
-0.00276552
-1.32843e-05
-0.00272542
-3.05537e-05
1.73312e-05
1.03115e-06
-0.00312853
7.02118e-06
1.3149e-06
-0.0031354
-3.32421e-06
1.4447e-06
-0.00313823
-1.38122e-05
1.22074e-06
-0.00313734
-2.46255e-05
7.28273e-07
-0.0031323
-3.58034e-05
-1.01114e-07
-0.00312239
-4.67391e-05
-1.35487e-06
-0.00310544
-5.55729e-05
-3.23414e-06
-0.00307912
-5.51666e-05
-5.95029e-06
-0.00303714
-1.01056e-05
-0.00298439
-3.62174e-05
1.66487e-05
-0.00339621
6.47387e-06
-0.00340312
-3.5727e-06
-0.0034059
-1.37791e-05
-0.00340431
-2.43269e-05
-0.00339798
-3.53821e-05
-0.00338615
-4.65286e-05
-0.00336649
-5.62031e-05
-0.00333597
-5.74284e-05
-0.00328755
-0.00322278
-3.97753e-05
2.21533e-06
-7.81035e-09
-0.000841158
8.97029e-07
1.30113e-07
-0.000841676
-5.39939e-07
1.94684e-07
-0.000841807
-1.90396e-06
1.6037e-07
-0.000841756
-3.01972e-06
3.88166e-08
-0.000841566
-3.72713e-06
-1.61316e-07
-0.000841265
-3.90222e-06
-4.17394e-07
-0.000840884
-3.47414e-06
-6.99972e-07
-0.000840466
-2.45339e-06
-9.66614e-07
-0.000840027
-1.16151e-06
-0.000839411
-9.73724e-07
3.6984e-06
3.72583e-09
-0.00112665
1.26615e-06
3.10233e-07
-0.00112725
-1.32057e-06
4.36609e-07
-0.00112747
-3.79424e-06
3.69511e-07
-0.00112731
-5.8737e-06
1.10717e-07
-0.00112679
-7.28254e-06
-3.2258e-07
-0.00112595
-7.75896e-06
-8.94745e-07
-0.00112486
-7.09938e-06
-1.54585e-06
-0.00112363
-5.21754e-06
-2.18831e-06
-0.00112242
-2.68059e-06
-0.00112146
-2.29685e-06
6.45843e-06
1.86035e-07
-0.00141059
2.5125e-06
6.51653e-07
-0.00141172
-1.62071e-06
8.32768e-07
-0.00141214
-5.59419e-06
7.20553e-07
-0.00141184
-9.03341e-06
3.03043e-07
-0.0014108
-1.15262e-05
-4.05666e-07
-0.00140909
-1.26132e-05
-1.37127e-06
-0.00140679
-1.18382e-05
-2.51313e-06
-0.00140409
-8.83405e-06
-3.69869e-06
-0.0014013
-4.66342e-06
-0.00139901
-3.75991e-06
8.90586e-06
4.62212e-07
-0.00169318
3.48939e-06
1.16648e-06
-0.00169508
-2.19172e-06
1.44478e-06
-0.00169579
-7.73639e-06
1.31525e-06
-0.00169531
-1.26997e-05
7.56805e-07
-0.00169363
-1.65543e-05
-2.19877e-07
-0.00169075
-1.86199e-05
-1.596e-06
-0.00168673
-1.80925e-05
-3.28574e-06
-0.0016818
-1.40583e-05
-5.14122e-06
-0.0016764
-6.72745e-06
-0.00167175
-6.46931e-06
1.13362e-05
8.4559e-07
-0.00197824
4.5252e-06
1.70409e-06
-0.00198104
-2.55777e-06
2.05227e-06
-0.00198213
-9.53913e-06
1.90888e-06
-0.00198152
-1.59813e-05
1.24367e-06
-0.00197914
-2.13014e-05
4.94535e-08
-0.00197494
-2.46096e-05
-1.69501e-06
-0.00196883
-2.46996e-05
-3.92355e-06
-0.001961
-1.98339e-05
-6.51648e-06
-0.00195183
-8.85898e-06
-0.00194349
-9.47867e-06
1.34401e-05
1.22572e-06
-0.00226267
5.41701e-06
2.1906e-06
-0.00226647
-2.85792e-06
2.56936e-06
-0.00226797
-1.1087e-05
2.41881e-06
-0.00226724
-1.88803e-05
1.69248e-06
-0.00226414
-2.56692e-05
3.68329e-07
-0.00225853
-3.04269e-05
-1.62357e-06
-0.00225009
-3.15707e-05
-4.26978e-06
-0.00223882
-2.63312e-05
-7.52716e-06
-0.0022248
-1.06712e-05
-0.00221133
-1.33674e-05
1.49716e-05
1.49056e-06
-0.00254814
6.10033e-06
2.41787e-06
-0.00255295
-2.99191e-06
2.77765e-06
-0.00255489
-1.2092e-05
2.60929e-06
-0.00255411
-2.092e-05
1.88417e-06
-0.00255039
-2.8986e-05
5.57449e-07
-0.00254343
-3.51988e-05
-1.49396e-06
-0.00253257
-3.7667e-05
-4.32961e-06
-0.00251752
-3.24694e-05
-8.02987e-06
-0.00249761
-1.1912e-05
-0.00247753
-1.71146e-05
1.57792e-05
1.36131e-06
-0.00283444
6.35825e-06
2.14063e-06
-0.00284016
-3.20278e-06
2.41378e-06
-0.00284243
-1.28266e-05
2.2593e-06
-0.00284148
-2.23323e-05
1.63219e-06
-0.00283706
-3.13547e-05
4.86797e-07
-0.00282876
-3.88718e-05
-1.3139e-06
-0.00281555
-4.28324e-05
-3.94097e-06
-0.0027967
-3.83753e-05
-7.46712e-06
-0.00277054
-1.18002e-05
-0.00274255
-2.13585e-05
1.58485e-05
8.7065e-07