/*--------------------------------*- C++ -*----------------------------------*\
| =========                 |                                                 |
| \\      /  F ield         | foam-extend: Open Source CFD                    |
|  \\    /   O peration     | Version:     4.0                                |
|   \\  /    A nd           | Web:         http://www.foam-extend.org         |
|    \\/     M anipulation  |                                                 |
\*---------------------------------------------------------------------------*/
FoamFile
{
    version     2.0;
    format      ascii;
    class       volScalarField;
    location    "1350";
    object      T;
}
// * * * * * * * * * * * * * * * * * * * * * * * * * * * * * * * * * * * * * //

dimensions      [0 0 0 1 0 0 0];

internalField   nonuniform List<scalar> 
34480
(
278.816
278.705
278.624
278.57
278.537
278.528
278.543
278.628
278.9
278.867
278.268
278.15
278.056
277.99
277.956
277.959
277.984
278.029
278.245
277.802
278.161
278.029
277.924
277.849
277.811
277.797
277.778
277.724
277.851
277.075
278.205
278.052
277.923
277.82
277.747
277.683
277.598
277.439
277.445
276.32
278.221
278.043
277.885
277.75
277.635
277.515
277.361
277.091
276.941
275.459
278.292
278.091
277.91
277.748
277.599
277.428
277.207
276.823
276.486
274.62
278.32
278.094
277.889
277.702
277.522
277.307
277.023
276.526
275.978
273.723
278.393
278.144
277.927
277.732
277.544
277.314
276.996
276.414
275.656
272.982
278.451
278.182
277.947
277.733
277.52
277.263
276.903
276.236
275.268
272.239
279.268
278.986
278.782
278.64
278.535
278.414
278.203
277.676
276.667
273.207
279.351
279.258
279.222
279.238
279.31
279.457
279.717
280.174
280.842
281.713
278.704
278.62
278.587
278.604
278.684
278.851
279.142
279.64
280.432
281.453
278.503
278.424
278.394
278.414
278.5
278.672
278.96
279.449
280.299
281.415
278.452
278.372
278.338
278.349
278.422
278.572
278.836
279.301
280.18
281.342
278.38
278.295
278.253
278.251
278.305
278.426
278.658
279.084
279.963
281.14
278.373
278.285
278.238
278.227
278.265
278.359
278.556
278.934
279.784
280.937
278.332
278.237
278.184
278.163
278.187
278.258
278.421
278.744
279.542
280.653
278.351
278.254
278.203
278.187
278.215
278.28
278.424
278.702
279.426
280.446
278.368
278.264
278.206
278.183
278.198
278.249
278.367
278.596
279.239
280.18
279.132
279.041
279.02
279.062
279.165
279.318
279.536
279.84
280.433
281.098
279.826
279.727
279.692
279.712
279.79
279.936
280.166
280.512
281.011
281.635
279.173
279.075
279.039
279.063
279.154
279.328
279.617
280.073
280.78
281.709
278.955
278.857
278.821
278.845
278.941
279.128
279.445
279.959
280.83
282.044
278.874
278.771
278.73
278.747
278.835
279.013
279.331
279.875
280.881
282.345
278.772
278.663
278.615
278.621
278.694
278.853
279.157
279.704
280.807
282.477
278.737
278.625
278.571
278.568
278.629
278.768
279.051
279.582
280.743
282.566
278.674
278.555
278.496
278.483
278.53
278.649
278.907
279.409
280.595
282.532
278.673
278.553
278.494
278.485
278.534
278.647
278.887
279.356
280.531
282.527
278.673
278.548
278.486
278.471
278.511
278.611
278.828
279.255
280.392
282.468
279.405
279.293
279.257
279.291
279.395
279.569
279.854
280.319
281.401
283.395
280.166
280.08
280.05
280.07
280.138
280.258
280.436
280.678
280.983
281.322
279.541
279.448
279.416
279.442
279.53
279.689
279.935
280.288
280.773
281.322
279.334
279.233
279.198
279.226
279.324
279.507
279.8
280.241
280.897
281.688
279.24
279.13
279.089
279.113
279.211
279.401
279.72
280.224
281.044
282.093
279.122
279.004
278.956
278.971
279.062
279.245
279.572
280.116
281.076
282.366
279.069
278.945
278.892
278.9
278.983
279.156
279.48
280.041
281.114
282.614
278.988
278.858
278.8
278.8
278.872
279.032
279.345
279.908
281.062
282.743
278.971
278.84
278.781
278.784
278.857
279.014
279.319
279.871
281.069
282.887
278.957
278.822
278.761
278.758
278.825
278.973
279.266
279.798
281
282.967
279.656
279.533
279.49
279.522
279.633
279.831
280.168
280.728
281.901
283.899
280.397
280.329
280.307
280.322
280.372
280.458
280.578
280.727
280.896
281.063
279.819
279.741
279.714
279.736
279.809
279.937
280.123
280.369
280.669
280.965
279.641
279.548
279.515
279.542
279.631
279.79
280.032
280.37
280.818
281.286
279.552
279.444
279.405
279.43
279.527
279.706
279.991
280.408
281.013
281.687
279.431
279.312
279.266
279.286
279.382
279.568
279.879
280.358
281.11
282
279.371
279.243
279.191
279.206
279.3
279.486
279.812
280.334
281.217
282.316
279.281
279.145
279.088
279.097
279.184
279.366
279.697
280.244
281.239
282.533
279.253
279.115
279.057
279.067
279.156
279.338
279.672
280.231
281.304
282.767
279.227
279.087
279.027
279.033
279.117
279.294
279.625
280.187
281.3
282.943
279.894
279.764
279.716
279.747
279.861
280.072
280.431
281.019
282.132
283.871
280.55
280.5
280.484
280.494
280.528
280.584
280.659
280.747
280.841
280.93
280.022
279.962
279.94
279.957
280.013
280.108
280.239
280.401
280.58
280.74
279.88
279.801
279.773
279.796
279.87
279.998
280.184
280.426
280.716
280.989
279.806
279.709
279.674
279.698
279.784
279.94
280.175
280.498
280.916
281.335
279.694
279.582
279.54
279.561
279.654
279.826
280.1
280.491
281.042
281.626
279.635
279.511
279.462
279.481
279.576
279.759
280.061
280.509
281.187
281.944
279.543
279.409
279.355
279.369
279.463
279.649
279.969
280.461
281.254
282.186
279.509
279.372
279.316
279.331
279.429
279.62
279.952
280.473
281.358
282.452
279.475
279.336
279.278
279.291
279.385
279.575
279.912
280.453
281.398
282.669
280.111
279.98
279.93
279.96
280.075
280.288
280.646
281.212
282.178
283.562
280.65
280.614
280.603
280.609
280.631
280.665
280.71
280.76
280.811
280.862
280.167
280.124
280.108
280.121
280.16
280.225
280.313
280.415
280.521
280.608
280.061
279.999
279.977
279.994
280.052
280.149
280.284
280.45
280.632
280.791
280.006
279.925
279.895
279.915
279.988
280.115
280.299
280.535
280.815
281.073
279.911
279.811
279.774
279.795
279.877
280.027
280.253
280.558
280.945
281.322
279.859
279.745
279.701
279.721
279.811
279.978
280.24
280.605
281.103
281.613
279.771
279.646
279.596
279.613
279.706
279.883
280.171
280.588
281.192
281.843
279.737
279.606
279.554
279.572
279.67
279.857
280.165
280.622
281.317
282.106
279.698
279.564
279.51
279.527
279.624
279.813
280.133
280.619
281.381
282.322
280.304
280.178
280.128
280.156
280.268
280.474
280.811
281.322
282.115
283.16
280.716
280.689
280.681
280.685
280.698
280.718
280.744
280.772
280.801
280.834
280.272
280.242
280.231
280.239
280.266
280.308
280.364
280.427
280.489
280.538
280.197
280.15
280.133
280.146
280.188
280.258
280.352
280.462
280.576
280.669
280.161
280.096
280.072
280.088
280.146
280.244
280.381
280.548
280.732
280.891
280.084
280.001
279.97
279.987
280.057
280.18
280.358
280.585
280.851
281.093
280.044
279.945
279.907
279.926
280.005
280.149
280.365
280.65
281.005
281.344
279.963
279.851
279.807
279.825
279.911
280.07
280.316
280.655
281.1
281.547
279.934
279.814
279.767
279.787
279.879
280.051
280.322
280.704
281.23
281.786
279.893
279.769
279.72
279.739
279.832
280.01
280.297
280.712
281.302
281.977
280.471
280.353
280.306
280.333
280.436
280.627
280.929
281.369
281.994
282.752
280.759
280.738
280.733
280.735
280.742
280.754
280.768
280.784
280.801
280.824
280.347
280.327
280.32
280.325
280.342
280.369
280.404
280.442
280.478
280.506
280.297
280.264
280.252
280.261
280.29
280.339
280.401
280.473
280.543
280.598
280.278
280.228
280.21
280.222
280.265
280.338
280.436
280.551
280.671
280.768
280.22
280.154
280.128
280.143
280.199
280.295
280.429
280.594
280.773
280.928
280.192
280.11
280.078
280.095
280.162
280.28
280.45
280.666
280.914
281.137
280.122
280.025
279.988
280.004
280.079
280.215
280.417
280.681
281.002
281.304
280.1
279.995
279.954
279.973
280.056
280.206
280.434
280.74
281.128
281.513
280.059
279.948
279.905
279.923
280.009
280.168
280.414
280.753
281.196
281.669
280.609
280.504
280.461
280.485
280.578
280.747
281.007
281.369
281.846
282.378
280.786
280.769
280.766
280.767
280.771
280.777
280.786
280.795
280.804
280.823
280.402
280.39
280.385
280.388
280.398
280.415
280.436
280.459
280.48
280.497
280.373
280.35
280.342
280.348
280.367
280.399
280.44
280.486
280.529
280.561
280.365
280.329
280.315
280.323
280.355
280.406
280.475
280.552
280.629
280.689
280.325
280.274
280.254
280.265
280.308
280.38
280.479
280.594
280.714
280.812
280.309
280.244
280.218
280.232
280.285
280.378
280.508
280.665
280.836
280.982
280.248
280.169
280.138
280.152
280.215
280.325
280.484
280.684
280.91
281.113
280.237
280.148
280.114
280.131
280.202
280.327
280.512
280.749
281.027
281.29
280.195
280.1
280.063
280.08
280.155
280.291
280.493
280.76
281.085
281.408
280.719
280.628
280.591
280.612
280.693
280.837
281.051
281.339
281.692
282.056
280.803
280.789
280.786
280.786
280.789
280.793
280.797
280.802
280.808
280.824
280.444
280.436
280.432
280.434
280.44
280.45
280.463
280.477
280.49
280.5
280.43
280.415
280.41
280.413
280.426
280.447
280.473
280.501
280.527
280.547
280.429
280.403
280.393
280.399
280.421
280.457
280.503
280.554
280.603
280.64
280.404
280.366
280.352
280.36
280.392
280.444
280.513
280.593
280.671
280.734
280.399
280.349
280.329
280.34
280.381
280.451
280.547
280.659
280.775
280.869
280.347
280.284
280.259
280.271
280.321
280.408
280.529
280.675
280.832
280.966
280.347
280.275
280.247
280.262
280.32
280.421
280.564
280.742
280.938
281.114
280.304
280.225
280.195
280.21
280.273
280.383
280.544
280.747
280.98
281.197
280.801
280.727
280.695
280.713
280.78
280.898
281.07
281.291
281.545
281.788
280.812
280.799
280.797
280.797
280.799
280.801
280.803
280.806
280.81
280.824
280.475
280.47
280.468
280.468
280.472
280.478
280.486
280.494
280.502
280.509
280.475
280.465
280.462
280.464
280.472
280.485
280.501
280.518
280.534
280.546
280.475
280.458
280.451
280.455
280.469
280.493
280.524
280.557
280.588
280.611
280.464
280.437
280.426
280.432
280.455
280.491
280.539
280.592
280.643
280.683
280.467
280.43
280.415
280.423
280.454
280.505
280.573
280.651
280.728
280.789
280.422
280.373
280.354
280.363
280.402
280.467
280.557
280.661
280.768
280.857
280.434
280.378
280.356
280.368
280.414
280.492
280.6
280.729
280.865
280.981
280.388
280.325
280.301
280.313
280.364
280.451
280.574
280.724
280.887
281.031
280.859
280.8
280.774
280.788
280.843
280.936
281.068
281.232
281.412
281.571
280.815
280.803
280.802
280.801
280.802
280.803
280.805
280.806
280.809
280.822
280.499
280.495
280.494
280.494
280.496
280.5
280.504
280.509
280.515
280.519
280.511
280.505
280.502
280.504
280.509
280.517
280.527
280.537
280.547
280.554
280.509
280.497
280.492
280.495
280.504
280.52
280.54
280.561
280.58
280.595
280.508
280.49
280.482
280.486
280.502
280.527
280.559
280.594
280.626
280.651
280.517
280.491
280.48
280.486
280.508
280.544
280.592
280.644
280.695
280.734
280.477
280.441
280.427
280.434
280.462
280.51
280.574
280.646
280.718
280.776
280.502
280.46
280.444
280.453
280.487
280.546
280.624
280.716
280.808
280.884
280.451
280.402
280.384
280.393
280.432
280.498
280.589
280.697
280.809
280.903
280.894
280.85
280.83
280.841
280.883
280.954
281.052
281.17
281.294
281.395
280.812
280.801
280.8
280.8
280.801
280.801
280.802
280.803
280.805
280.816
280.516
280.514
280.512
280.513
280.514
280.516
280.519
280.522
280.526
280.529
280.541
280.537
280.536
280.537
280.54
280.545
280.55
280.556
280.562
280.567
280.533
280.525
280.522
280.523
280.529
280.539
280.552
280.565
280.577
280.587
280.541
280.529
280.524
280.527
280.537
280.554
280.575
280.597
280.618
280.633
280.554
280.536
280.528
280.532
280.547
280.572
280.604
280.639
280.672
280.697
280.516
280.491
280.48
280.485
280.506
280.539
280.584
280.633
280.68
280.718
280.555
280.525
280.513
280.52
280.545
280.587
280.643
280.705
280.767
280.815
280.495
280.459
280.445
280.452
280.481
280.529
280.594
280.669
280.744
280.806
280.912
280.879
280.864
280.872
280.904
280.956
281.027
281.109
281.193
281.256
280.806
280.796
280.795
280.795
280.795
280.795
280.796
280.796
280.798
280.808
280.527
280.525
280.524
280.524
280.525
280.526
280.528
280.53
280.533
280.537
280.567
280.565
280.564
280.565
280.567
280.569
280.573
280.576
280.579
280.582
280.549
280.544
280.542
280.542
280.546
280.552
280.56
280.568
280.576
280.583
280.566
280.558
280.555
280.556
280.563
280.574
280.587
280.601
280.614
280.623
280.58
280.567
280.562
280.565
280.575
280.592
280.613
280.636
280.657
280.672
280.544
280.526
280.519
280.522
280.536
280.56
280.589
280.622
280.652
280.676
280.597
280.576
280.568
280.572
280.59
280.62
280.658
280.699
280.739
280.77
280.523
280.497
280.487
280.492
280.513
280.547
280.592
280.643
280.692
280.732
280.914
280.892
280.881
280.887
280.909
280.947
280.996
281.052
281.107
281.145
280.797
280.788
280.788
280.788
280.788
280.788
280.788
280.788
280.79
280.799
280.532
280.531
280.53
280.53
280.53
280.531
280.532
280.534
280.536
280.54
280.591
280.59
280.59
280.59
280.591
280.593
280.594
280.596
280.598
280.6
280.559
280.556
280.554
280.555
280.557
280.561
280.566
280.571
280.576
280.58
280.583
280.578
280.576
280.577
280.581
280.588
280.596
280.605
280.613
280.618
280.597
280.588
280.585
280.587
280.593
280.604
280.618
280.632
280.645
280.655
280.562
280.55
280.546
280.548
280.557
280.573
280.592
280.613
280.632
280.647
280.63
280.616
280.61
280.614
280.626
280.646
280.671
280.698
280.724
280.742
280.538
280.52
280.513
280.516
280.531
280.554
280.584
280.618
280.649
280.674
280.908
280.893
280.886
280.89
280.905
280.931
280.964
281.001
281.036
281.058
280.793
280.786
280.785
280.785
280.785
280.785
280.785
280.785
280.786
280.794
280.529
280.528
280.527
280.527
280.527
280.528
280.529
280.53
280.532
280.536
280.612
280.612
280.612
280.612
280.613
280.614
280.615
280.616
280.616
280.617
280.564
280.562
280.561
280.562
280.563
280.565
280.568
280.571
280.574
280.577
280.593
280.59
280.589
280.59
280.592
280.596
280.601
280.607
280.611
280.615
280.605
280.6
280.598
280.599
280.603
280.61
280.618
280.627
280.636
280.642
280.573
280.566
280.563
280.564
280.571
280.58
280.592
280.605
280.617
280.626
280.655
280.646
280.642
280.644
280.652
280.665
280.682
280.699
280.716
280.726
280.54
280.528
280.523
280.525
280.535
280.55
280.57
280.591
280.611
280.627
280.901
280.892
280.887
280.889
280.9
280.917
280.939
280.962
280.985
280.997
280.807
280.801
280.801
280.801
280.801
280.801
280.801
280.801
280.801
280.807
280.515
280.513
280.512
280.512
280.512
280.513
280.514
280.515
280.516
280.521
280.629
280.629
280.628
280.628
280.629
280.629
280.63
280.631
280.631
280.632
280.566
280.565
280.565
280.565
280.566
280.567
280.569
280.57
280.572
280.573
280.597
280.595
280.595
280.595
280.596
280.599
280.602
280.605
280.608
280.61
280.606
280.602
280.601
280.602
280.604
280.608
280.614
280.619
280.625
280.629
280.578
280.573
280.572
280.573
280.577
280.583
280.59
280.598
280.604
280.609
280.667
280.661
280.658
280.659
280.664
280.673
280.683
280.695
280.706
280.712
280.526
280.518
280.515
280.517
280.523
280.533
280.545
280.558
280.57
280.58
280.908
280.902
280.898
280.9
280.907
280.918
280.932
280.947
280.962
280.967
280.858
280.854
280.854
280.854
280.854
280.854
280.854
280.854
280.854
280.858
280.479
280.478
280.478
280.479
280.479
280.479
280.479
280.48
280.48
280.484
280.633
280.632
280.632
280.631
280.631
280.632
280.632
280.633
280.635
280.636
280.565
280.565
280.566
280.566
280.566
280.567
280.568
280.569
280.569
280.569
280.596
280.595
280.594
280.594
280.595
280.597
280.598
280.601
280.603
280.604
280.601
280.598
280.597
280.598
280.6
280.602
280.606
280.609
280.613
280.615
280.577
280.575
280.574
280.575
280.577
280.581
280.586
280.59
280.594
280.596
280.656
280.652
280.649
280.65
280.653
280.659
280.666
280.674
280.682
280.687
280.488
280.483
280.482
280.483
280.487
280.494
280.501
280.509
280.515
280.521
280.944
280.94
280.938
280.939
280.943
280.951
280.96
280.97
280.98
280.983
280.94
280.937
280.936
280.936
280.936
280.936
280.936
280.937
280.938
280.942
280.421
280.423
280.425
280.426
280.427
280.427
280.426
280.425
280.423
280.422
280.622
280.619
280.618
280.617
280.617
280.618
280.618
280.62
280.622
280.625
280.566
280.566
280.567
280.567
280.568
280.568
280.569
280.569
280.568
280.568
280.592
280.591
280.591
280.591
280.591
280.592
280.594
280.595
280.597
280.598
280.594
280.593
280.592
280.592
280.594
280.595
280.598
280.6
280.603
280.605
280.575
280.574
280.574
280.574
280.576
280.579
280.582
280.585
280.588
280.588
280.624
280.619
280.617
280.618
280.62
280.624
280.63
280.636
280.642
280.648
280.427
280.426
280.425
280.426
280.429
280.434
280.439
280.445
280.448
280.448
281.003
280.999
280.997
280.998
281.002
281.007
281.014
281.021
281.029
281.032
289.478
291.235
291.499
289.911
290.643
292.773
293.182
291.522
292.304
294.929
295.463
293.492
293.585
296.651
297.319
295.137
294.529
298.005
298.814
296.493
295.277
299.132
300.1
297.912
295.823
300.038
301.198
299.336
296.293
300.833
302.2
300.715
296.507
301.346
302.928
301.868
297.066
302.095
303.943
303.466
286.168
286.715
286.696
286.172
287.466
288.109
288.048
287.395
289.07
289.874
289.762
288.904
290.51
291.459
291.289
290.238
291.686
292.776
292.541
291.306
292.707
293.936
293.676
292.284
293.513
294.872
294.625
293.099
294.208
295.673
295.448
293.812
294.646
296.175
295.979
294.277
295.431
296.933
296.847
295.2
282.262
282.396
282.428
282.358
282.993
283.212
283.251
283.114
284.159
284.498
284.542
284.292
285.427
285.885
285.925
285.546
286.59
287.164
287.191
286.669
287.725
288.411
288.424
287.765
288.716
289.511
289.512
288.728
289.655
290.542
290.534
289.645
290.414
291.342
291.333
290.393
291.657
292.514
292.544
291.682
281.496
281.562
281.583
281.561
281.757
281.843
281.872
281.85
282.466
282.614
282.656
282.602
283.342
283.563
283.615
283.514
284.183
284.482
284.539
284.376
285.073
285.453
285.511
285.274
285.891
286.352
286.409
286.09
286.728
287.261
287.313
286.913
287.484
288.05
288.098
287.644
288.827
289.319
289.38
288.969
281.065
281.102
281.114
281.102
281.107
281.137
281.151
281.15
281.557
281.615
281.64
281.636
282.168
282.266
282.305
282.289
282.764
282.912
282.963
282.926
283.431
283.636
283.697
283.629
284.056
284.321
284.39
284.28
284.731
285.052
285.123
284.966
285.369
285.718
285.789
285.592
286.62
286.899
286.975
286.815
280.896
280.926
280.935
280.923
280.802
280.815
280.822
280.822
281.107
281.133
281.147
281.147
281.548
281.594
281.617
281.617
281.975
282.049
282.083
282.08
282.474
282.583
282.629
282.617
282.94
283.088
283.145
283.119
283.463
283.651
283.715
283.667
283.966
284.176
284.241
284.171
285.087
285.23
285.298
285.268
280.815
280.842
280.849
280.837
280.636
280.642
280.645
280.646
280.847
280.859
280.866
280.867
281.175
281.198
281.211
281.213
281.493
281.53
281.55
281.553
281.877
281.935
281.964
281.967
282.229
282.311
282.35
282.35
282.636
282.743
282.79
282.782
283.016
283.14
283.189
283.171
284.012
284.07
284.122
284.148
280.781
280.807
280.814
280.802
280.553
280.556
280.558
280.558
280.698
280.704
280.707
280.708
280.944
280.956
280.963
280.964
281.182
281.203
281.214
281.217
281.485
281.516
281.534
281.538
281.754
281.8
281.824
281.829
282.073
282.134
282.165
282.169
282.353
282.426
282.46
282.46
283.245
283.251
283.286
283.332
280.769
280.795
280.802
280.79
280.514
280.516
280.517
280.517
280.614
280.617
280.619
280.619
280.798
280.804
280.808
280.809
280.977
280.988
280.994
280.997
281.215
281.232
281.243
281.246
281.42
281.446
281.461
281.466
281.672
281.708
281.727
281.732
281.878
281.92
281.943
281.947
282.682
282.657
282.678
282.73
280.767
280.793
280.8
280.788
280.502
280.503
280.503
280.504
280.57
280.572
280.573
280.574
280.706
280.71
280.712
280.713
280.84
280.847
280.851
280.852
281.027
281.037
281.044
281.046
281.18
281.195
281.205
281.208
281.381
281.402
281.414
281.418
281.529
281.554
281.569
281.573
282.258
282.215
282.228
282.278
280.769
280.794
280.801
280.789
280.503
280.504
280.504
280.504
280.552
280.553
280.554
280.554
280.651
280.653
280.654
280.655
280.751
280.754
280.757
280.758
280.896
280.902
280.906
280.908
281.007
281.016
281.022
281.024
281.168
281.181
281.188
281.191
281.27
281.285
281.294
281.297
281.933
281.881
281.888
281.935
280.77
280.795
280.802
280.79
280.511
280.511
280.512
280.512
280.549
280.55
280.55
280.55
280.618
280.619
280.62
280.621
280.693
280.695
280.697
280.697
280.806
280.81
280.812
280.813
280.882
280.887
280.891
280.893
281.014
281.021
281.026
281.028
281.077
281.086
281.092
281.094
281.681
281.625
281.628
281.673
280.769
280.794
280.801
280.789
280.521
280.522
280.522
280.522
280.556
280.556
280.556
280.556
280.6
280.601
280.601
280.602
280.658
280.659
280.66
280.66
280.745
280.747
280.748
280.749
280.792
280.796
280.798
280.799
280.903
280.908
280.911
280.912
280.933
280.939
280.942
280.944
281.483
281.427
281.428
281.47
280.765
280.791
280.797
280.785
280.531
280.531
280.532
280.532
280.568
280.568
280.568
280.568
280.59
280.591
280.591
280.592
280.637
280.638
280.638
280.639
280.704
280.705
280.706
280.707
280.728
280.73
280.732
280.732
280.827
280.83
280.832
280.832
280.826
280.83
280.832
280.833
281.327
281.274
281.274
281.312
280.758
280.784
280.791
280.778
280.538
280.539
280.539
280.54
280.583
280.583
280.583
280.583
280.585
280.586
280.586
280.586
280.626
280.626
280.627
280.627
280.677
280.677
280.678
280.678
280.683
280.684
280.685
280.686
280.777
280.778
280.78
280.78
280.746
280.749
280.75
280.75
281.204
281.154
281.154
281.188
280.751
280.778
280.784
280.771
280.542
280.543
280.543
280.543
280.6
280.6
280.6
280.6
280.582
280.582
280.583
280.583
280.62
280.62
280.62
280.62
280.658
280.659
280.659
280.659
280.651
280.652
280.653
280.653
280.746
280.747
280.748
280.748
280.686
280.687
280.688
280.688
281.106
281.063
281.062
281.091
280.75
280.776
280.782
280.769
280.539
280.54
280.54
280.541
280.617
280.617
280.617
280.617
280.579
280.579
280.579
280.579
280.616
280.616
280.616
280.616
280.644
280.644
280.645
280.645
280.628
280.629
280.629
280.629
280.729
280.729
280.73
280.73
280.636
280.637
280.638
280.637
281.034
280.997
280.997
281.021
280.768
280.793
280.798
280.785
280.525
280.526
280.526
280.526
280.632
280.632
280.632
280.632
280.574
280.575
280.575
280.574
280.611
280.612
280.612
280.612
280.63
280.631
280.631
280.631
280.61
280.61
280.61
280.61
280.715
280.716
280.716
280.716
280.588
280.589
280.589
280.588
280.995
280.967
280.966
280.985
280.826
280.848
280.852
280.84
280.489
280.49
280.491
280.49
280.638
280.638
280.638
280.638
280.57
280.57
280.57
280.569
280.605
280.605
280.606
280.605
280.617
280.617
280.617
280.617
280.595
280.595
280.595
280.595
280.692
280.694
280.694
280.694
280.526
280.527
280.526
280.526
281.002
280.984
280.985
280.997
280.924
280.937
280.939
280.931
280.425
280.425
280.425
280.424
280.63
280.631
280.631
280.632
280.567
280.566
280.566
280.566
280.599
280.6
280.6
280.6
280.606
280.607
280.607
280.607
280.586
280.586
280.586
280.586
280.658
280.66
280.661
280.66
280.443
280.442
280.442
280.442
281.048
281.044
281.044
281.047
282.187
280.887
280.344
279.997
279.703
279.461
279.27
279.118
278.997
278.892
282.335
281.096
280.263
279.739
279.324
279.016
278.789
278.619
278.49
278.384
282.911
281.605
280.476
279.838
279.338
278.992
278.738
278.548
278.405
278.29
283.509
282.144
280.747
280.044
279.479
279.109
278.836
278.631
278.475
278.349
283.991
282.603
280.96
280.207
279.582
279.192
278.899
278.682
278.516
278.382
284.545
283.1
281.234
280.444
279.76
279.351
279.037
278.805
278.623
278.472
285.031
283.504
281.438
280.625
279.883
279.461
279.126
278.879
278.683
278.522
285.6
283.996
281.745
280.915
280.114
279.674
279.31
279.038
278.815
278.621
286.051
284.39
281.96
281.155
280.32
279.875
279.474
279.173
278.921
278.702
287.783
286.121
283.536
282.678
281.716
281.147
280.621
280.217
279.881
279.585
283.986
282.676
281.689
280.976
280.483
280.137
279.886
279.699
279.553
279.432
284.435
282.649
281.319
280.46
279.907
279.529
279.26
279.065
278.922
278.815
285.032
282.839
281.253
280.324
279.73
279.333
279.054
278.853
278.71
278.607
285.522
283.028
281.249
280.297
279.676
279.273
278.993
278.794
278.653
278.553
285.791
283.087
281.178
280.22
279.578
279.177
278.899
278.706
278.572
278.478
285.993
283.161
281.16
280.213
279.555
279.161
278.886
278.698
278.566
278.471
286.041
283.145
281.073
280.155
279.485
279.104
278.834
278.652
278.523
278.431
286.099
283.206
281.079
280.204
279.521
279.154
278.882
278.699
278.563
278.46
286.06
283.197
281.023
280.228
279.561
279.224
278.945
278.754
278.606
278.49
286.969
284.259
282.088
281.345
280.629
280.236
279.888
279.641
279.447
279.301
282.121
281.741
281.371
281.041
280.759
280.522
280.325
280.162
280.025
279.906
282.585
281.903
281.285
280.774
280.361
280.033
279.776
279.575
279.42
279.3
283.358
282.342
281.476
280.809
280.293
279.901
279.604
279.379
279.21
279.085
284.129
282.791
281.691
280.896
280.301
279.866
279.546
279.309
279.133
279.006
284.705
283.085
281.784
280.891
280.237
279.778
279.446
279.205
279.029
278.902
285.216
283.358
281.886
280.924
280.228
279.754
279.417
279.175
278.998
278.87
285.565
283.512
281.896
280.89
280.164
279.687
279.348
279.109
278.933
278.807
285.889
283.693
281.957
280.932
280.186
279.713
279.372
279.131
278.95
278.815
286.095
283.78
281.945
280.943
280.205
279.75
279.406
279.159
278.969
278.825
287.083
284.764
282.892
281.912
281.145
280.653
280.264
279.979
279.759
279.598
281.516
281.369
281.191
281.011
280.84
280.685
280.548
280.428
280.322
280.224
281.726
281.436
281.106
280.79
280.51
280.27
280.069
279.903
279.768
279.66
282.355
281.871
281.361
280.907
280.522
280.207
279.952
279.748
279.588
279.466
283.089
282.373
281.667
281.076
280.597
280.22
279.924
279.694
279.516
279.382
283.718
282.758
281.86
281.148
280.59
280.166
279.841
279.594
279.407
279.268
284.335
283.136
282.057
281.242
280.62
280.161
279.817
279.56
279.365
279.221
284.826
283.399
282.154
281.258
280.586
280.105
279.749
279.486
279.288
279.142
285.3
283.67
282.281
281.327
280.618
280.124
279.76
279.491
279.287
279.133
285.67
283.849
282.336
281.359
280.639
280.147
279.776
279.5
279.288
279.127
286.716
284.793
283.22
282.235
281.487
280.967
280.565
280.263
280.031
279.864
281.109
281.062
280.991
280.907
280.819
280.732
280.649
280.572
280.499
280.427
281.12
281.006
280.851
280.684
280.519
280.365
280.226
280.105
280.001
279.916
281.575
281.368
281.105
280.835
280.583
280.358
280.164
280.001
279.867
279.76
282.169
281.831
281.433
281.051
280.709
280.417
280.174
279.974
279.814
279.689
282.715
282.222
281.676
281.181
280.756
280.406
280.122
279.896
279.717
279.58
283.295
282.63
281.933
281.331
280.831
280.433
280.118
279.871
279.677
279.53
283.79
282.945
282.098
281.4
280.837
280.401
280.062
279.801
279.598
279.445
284.292
283.269
282.282
281.506
280.892
280.429
280.073
279.8
279.588
279.426
284.71
283.506
282.393
281.566
280.923
280.447
280.078
279.796
279.577
279.408
285.748
284.422
283.237
282.378
281.705
281.204
280.812
280.511
280.277
280.108
280.937
280.919
280.887
280.845
280.799
280.751
280.702
280.655
280.608
280.557
280.81
280.758
280.682
280.592
280.496
280.401
280.311
280.229
280.156
280.094
281.126
281.029
280.89
280.733
280.575
280.424
280.287
280.166
280.063
279.978
281.577
281.413
281.191
280.953
280.722
280.512
280.326
280.167
280.034
279.927
282.009
281.756
281.434
281.107
280.803
280.535
280.305
280.114
279.957
279.832
282.499
282.14
281.706
281.288
280.912
280.591
280.324
280.105
279.928
279.788
282.934
282.453
281.902
281.394
280.952
280.587
280.288
280.048
279.855
279.706
283.397
282.785
282.116
281.528
281.031
280.629
280.306
280.048
279.842
279.683
283.791
283.037
282.26
281.61
281.073
280.648
280.307
280.038
279.824
279.657
284.774
283.915
283.069
282.377
281.807
281.357
280.997
280.712
280.487
280.323
280.855
280.848
280.833
280.812
280.788
280.762
280.735
280.706
280.676
280.64
280.64
280.616
280.577
280.529
280.474
280.417
280.361
280.308
280.26
280.218
280.857
280.809
280.735
280.645
280.548
280.452
280.36
280.275
280.2
280.136
281.197
281.113
280.989
280.844
280.695
280.55
280.416
280.296
280.193
280.107
281.527
281.394
281.206
280.997
280.789
280.594
280.419
280.266
280.136
280.031
281.924
281.729
281.465
281.185
280.916
280.671
280.458
280.275
280.122
279.998
282.28
282.009
281.661
281.308
280.978
280.688
280.44
280.232
280.06
279.923
282.674
282.317
281.881
281.457
281.074
280.744
280.468
280.238
280.051
279.902
283.008
282.553
282.033
281.551
281.125
280.768
280.47
280.227
280.029
279.872
283.913
283.384
282.804
282.278
281.82
281.439
281.123
280.866
280.659
280.507
280.82
280.818
280.811
280.8
280.788
280.773
280.758
280.741
280.722
280.695
280.555
280.543
280.522
280.495
280.464
280.43
280.396
280.363
280.332
280.305
280.703
280.678
280.637
280.585
280.526
280.465
280.405
280.348
280.296
280.251
280.957
280.912
280.84
280.753
280.658
280.561
280.468
280.382
280.305
280.239
281.205
281.133
281.021
280.89
280.75
280.614
280.485
280.369
280.268
280.183
281.52
281.411
281.251
281.068
280.88
280.702
280.538
280.392
280.267
280.163
281.8
281.647
281.429
281.189
280.952
280.732
280.534
280.363
280.217
280.098
282.123
281.915
281.636
281.34
281.056
280.798
280.572
280.378
280.215
280.083
282.389
282.119
281.779
281.434
281.111
280.825
280.577
280.367
280.193
280.052
283.211
282.893
282.507
282.124
281.771
281.462
281.198
280.976
280.793
280.658
280.809
280.809
280.805
280.8
280.793
280.785
280.776
280.766
280.753
280.732
280.516
280.509
280.498
280.483
280.465
280.445
280.425
280.404
280.385
280.368
280.617
280.603
280.579
280.549
280.514
280.476
280.437
280.4
280.365
280.335
280.805
280.78
280.738
280.685
280.625
280.562
280.499
280.439
280.384
280.336
280.991
280.95
280.883
280.8
280.708
280.615
280.524
280.439
280.363
280.298
281.238
281.175
281.077
280.959
280.831
280.704
280.583
280.472
280.374
280.29
281.453
281.363
281.227
281.068
280.901
280.739
280.588
280.453
280.334
280.236
281.712
281.59
281.412
281.21
281.005
280.811
280.633
280.477
280.341
280.229
281.915
281.755
281.536
281.296
281.058
280.837
280.639
280.467
280.319
280.198
282.657
282.469
282.216
281.946
281.684
281.443