/*--------------------------------*- C++ -*----------------------------------*\
| =========                 |                                                 |
| \\      /  F ield         | foam-extend: Open Source CFD                    |
|  \\    /   O peration     | Version:     4.0                                |
|   \\  /    A nd           | Web:         http://www.foam-extend.org         |
|    \\/     M anipulation  |                                                 |
\*---------------------------------------------------------------------------*/
FoamFile
{
    version     2.0;
    format      ascii;
    class       volVectorField;
    location    "1350";
    object      U;
}
// * * * * * * * * * * * * * * * * * * * * * * * * * * * * * * * * * * * * * //

dimensions      [0 1 -1 0 0 0 0];

internalField   nonuniform List<vector> 
34480
(
(208.97 2.16147 3.26344)
(209.291 1.19479 1.52684)
(209.448 0.409489 -0.269932)
(209.455 -0.214145 -2.17269)
(209.305 -0.708345 -4.32175)
(208.964 -1.06941 -6.89452)
(208.348 -1.27094 -10.2925)
(207.183 -1.19004 -14.861)
(204.511 -0.591288 -22.7699)
(197.568 1.97916 -50.0285)
(209.883 3.06849 2.88056)
(210.145 2.24783 1.06068)
(210.273 1.52387 -0.763076)
(210.247 0.890522 -2.66157)
(210.013 0.319804 -4.75483)
(209.51 -0.199564 -7.25284)
(208.705 -0.677834 -10.6169)
(207.414 -1.05226 -15.5901)
(204.278 -1.1523 -24.3942)
(196.116 0.631013 -55.0843)
(210.55 2.70697 3.29644)
(210.788 1.82811 1.41487)
(210.884 1.05417 -0.488413)
(210.816 0.400844 -2.4314)
(210.524 -0.176984 -4.54522)
(209.999 -0.702694 -7.09004)
(209.251 -1.1926 -10.5963)
(208.11 -1.56587 -16.0937)
(204.812 -1.64436 -25.7727)
(195.604 0.351611 -59.4409)
(210.545 3.25425 3.24659)
(210.784 2.42286 1.30926)
(210.896 1.68024 -0.626135)
(210.862 1.0565 -2.59641)
(210.632 0.507886 -4.74066)
(210.221 0.0102714 -7.34895)
(209.608 -0.455358 -10.9547)
(208.632 -0.796924 -16.808)
(205.31 -0.828151 -27.1069)
(195.303 1.31593 -62.7156)
(210.692 2.72266 3.753)
(210.96 1.81698 1.77681)
(211.111 1.02324 -0.237836)
(211.139 0.374142 -2.28307)
(211.001 -0.191128 -4.52369)
(210.726 -0.694552 -7.26224)
(210.262 -1.1473 -11.0295)
(209.47 -1.44426 -17.2631)
(206.248 -1.38995 -28.2261)
(195.601 0.918535 -65.3872)
(210.567 3.41442 3.52848)
(210.847 2.52428 1.55418)
(211.018 1.7462 -0.421684)
(211.08 1.11741 -2.43571)
(211.009 0.5879 -4.64583)
(210.851 0.132285 -7.37959)
(210.54 -0.260254 -11.1523)
(209.964 -0.485245 -17.5742)
(206.991 -0.324797 -29.0185)
(195.948 2.08241 -67.3607)
(210.64 2.57978 4.04404)
(210.96 1.59433 2.06842)
(211.159 0.74187 0.0503092)
(211.26 0.052014 -1.99531)
(211.247 -0.531057 -4.25626)
(211.187 -1.02424 -7.06183)
(211.017 -1.41213 -10.9317)
(210.659 -1.57153 -17.5987)
(208.018 -1.21119 -29.6176)
(196.684 1.4885 -68.9853)
(210.461 3.35625 3.57316)
(210.786 2.35839 1.62922)
(210.964 1.52509 -0.309652)
(211.023 0.862399 -2.28943)
(210.97 0.338091 -4.46166)
(210.891 -0.0834223 -7.16114)
(210.768 -0.377207 -10.8917)
(210.568 -0.413812 -17.4761)
(208.337 0.251798 -29.6801)
(197.041 3.31697 -69.5842)
(210.4 2.04195 4.12197)
(210.769 0.926619 2.23085)
(210.979 -0.0301291 0.315917)
(211.076 -0.844195 -1.6402)
(211.073 -1.54746 -3.83097)
(211.039 -2.14591 -6.56776)
(210.985 -2.55902 -10.39)
(210.926 -2.60971 -17.0899)
(209.027 -1.55472 -29.6629)
(197.618 2.46157 -69.5379)
(209.435 2.79036 3.53784)
(209.714 1.57252 1.60503)
(209.664 0.618423 -0.304889)
(209.308 -0.167502 -2.27024)
(208.693 -0.773366 -4.42668)
(207.913 -1.21408 -7.06104)
(207.05 -1.39791 -10.6507)
(206.274 -1.10745 -16.802)
(204.351 0.416836 -28.5207)
(194.189 5.28191 -66.495)
(205.848 1.90726 3.00203)
(206.327 1.10498 1.5459)
(206.514 0.422287 -0.00743021)
(206.431 -0.12131 -1.60718)
(206.053 -0.549993 -3.3166)
(205.291 -0.864386 -5.14821)
(203.945 -1.06856 -7.15576)
(201.58 -1.17401 -9.31429)
(198.115 -1.25868 -11.2424)
(193.537 -1.16033 -14.3905)
(207.127 2.85692 2.80304)
(207.561 2.15314 1.16771)
(207.734 1.50927 -0.48579)
(207.646 0.934711 -2.18233)
(207.235 0.408409 -3.98927)
(206.381 -0.0758578 -5.96472)
(204.889 -0.533376 -8.20177)
(202.305 -0.999332 -10.9517)
(198.137 -1.59001 -14.001)
(192.451 -1.82978 -20.5767)
(208.057 2.5674 3.3129)
(208.469 1.7623 1.55214)
(208.629 1.03704 -0.248053)
(208.531 0.415953 -2.08057)
(208.097 -0.139404 -4.01945)
(207.226 -0.64175 -6.14884)
(205.744 -1.12049 -8.65764)
(203.17 -1.59247 -12.0779)
(198.628 -2.16484 -16.3258)
(192.012 -2.07924 -26.7126)
(208.289 3.17059 3.30949)
(208.708 2.39716 1.46357)
(208.889 1.68941 -0.394447)
(208.834 1.08399 -2.28693)
(208.464 0.542691 -4.29905)
(207.695 0.0536429 -6.55771)
(206.326 -0.416322 -9.28861)
(203.846 -0.860319 -13.2491)
(199.076 -1.37039 -18.4685)
(191.649 -0.941109 -32.4516)
(208.632 2.66362 3.84448)
(209.078 1.8052 1.94296)
(209.299 1.03934 -0.011638)
(209.309 0.406242 -1.99876)
(209.03 -0.148991 -4.13518)
(208.398 -0.63782 -6.57531)
(207.181 -1.09514 -9.56119)
(204.863 -1.49223 -14.0529)
(200.016 -1.90763 -20.2223)
(191.883 -1.07886 -37.6925)
(208.659 3.39019 3.64054)
(209.119 2.53891 1.72683)
(209.366 1.78189 -0.198518)
(209.418 1.16226 -2.16616)
(209.214 0.633673 -4.28707)
(208.71 0.181609 -6.76183)
(207.659 -0.225225 -9.83207)
(205.562 -0.54963 -14.6519)
(200.804 -0.833056 -21.5388)
(192.149 0.361548 -42.2114)
(208.856 2.56567 4.16603)
(209.352 1.6152 2.24381)
(209.63 0.785841 0.266609)
(209.728 0.113787 -1.74077)
(209.592 -0.450922 -3.92553)
(209.203 -0.91999 -6.50437)
(208.314 -1.30999 -9.73239)
(206.464 -1.5684 -14.9065)
(201.914 -1.65697 -22.5581)
(192.837 0.00078164 -46.2477)
(208.765 3.37299 3.70204)
(209.27 2.40889 1.80966)
(209.536 1.59761 -0.0811273)
(209.609 0.950475 -2.01599)
(209.456 0.441219 -4.11029)
(209.088 0.0377436 -6.61126)
(208.294 -0.262854 -9.76862)
(206.666 -0.416904 -14.993)
(202.446 -0.206482 -23.0422)
(193.245 1.83701 -49.2208)
(208.772 2.05649 4.2522)
(209.309 0.978332 2.40852)
(209.604 0.0670299 0.532969)
(209.712 -0.687959 -1.36967)
(209.616 -1.31722 -3.4709)
(209.323 -1.83329 -6.01878)
(208.651 -2.18828 -9.322)
(207.251 -2.31949 -14.7802)
(203.373 -1.73934 -23.4773)
(193.922 1.00652 -51.5014)
(207.849 2.86659 3.6436)
(208.33 1.69535 1.79582)
(208.45 0.79825 -0.0281248)
(208.239 0.0696478 -1.89785)
(207.715 -0.472291 -3.92042)
(206.912 -0.853717 -6.34234)
(205.718 -1.01155 -9.45641)
(203.925 -0.830699 -14.5506)
(200.197 0.223481 -23.0271)
(191.57 4.0397 -51.3491)
(203.466 1.42353 2.33607)
(203.97 0.829338 1.21835)
(204.152 0.298581 -0.0108941)
(204.048 -0.135463 -1.26088)
(203.647 -0.485771 -2.55195)
(202.901 -0.749841 -3.8298)
(201.716 -0.937423 -5.04658)
(199.941 -1.07407 -6.0527)
(197.386 -1.24519 -6.49694)
(194.167 -1.43418 -6.51581)
(204.843 2.40408 2.31795)
(205.341 1.86212 0.951371)
(205.522 1.33659 -0.443239)
(205.399 0.846677 -1.86011)
(204.936 0.3824 -3.32562)
(204.049 -0.0616883 -4.84254)
(202.577 -0.499011 -6.37447)
(200.25 -0.961418 -7.85841)
(196.625 -1.56043 -8.79883)
(191.782 -2.142 -9.8088)
(205.862 2.20299 2.95325)
(206.364 1.52053 1.4018)
(206.546 0.883502 -0.201456)
(206.423 0.320946 -1.83016)
(205.937 -0.199025 -3.53047)
(204.987 -0.686474 -5.31938)
(203.373 -1.16626 -7.20674)
(200.73 -1.66873 -9.28531)
(196.23 -2.3384 -10.9979)
(189.787 -2.9176 -13.5828)
(206.249 2.89036 2.9994)
(206.774 2.21464 1.32443)
(206.982 1.57502 -0.373346)
(206.894 1.01063 -2.10404)
(206.446 0.48831 -3.93137)
(205.533 -0.00183811 -5.91402)
(203.904 -0.491806 -8.0979)
(201.094 -0.999314 -10.7333)
(195.857 -1.68598 -13.1954)
(187.923 -2.17194 -17.559)
(206.742 2.42212 3.57408)
(207.299 1.6466 1.8116)
(207.544 0.938315 -0.0121732)
(207.513 0.338594 -1.86916)
(207.135 -0.202659 -3.86044)
(206.311 -0.694095 -6.07701)
(204.741 -1.17126 -8.59363)
(201.887 -1.64031 -11.8241)
(196.104 -2.28985 -15.1249)
(186.85 -2.582 -21.574)
(206.9 3.1976 3.39518)
(207.476 2.41542 1.59985)
(207.749 1.70646 -0.215363)
(207.759 1.11386 -2.07642)
(207.444 0.593396 -4.08337)
(206.718 0.132668 -6.37825)
(205.248 -0.303859 -9.05392)
(202.453 -0.716121 -12.707)
(196.325 -1.27837 -16.7099)
(185.982 -1.34202 -25.3375)
(207.211 2.38944 3.94408)
(207.819 1.50226 2.12218)
(208.121 0.719915 0.237857)
(208.178 0.0784928 -1.6819)
(207.925 -0.470186 -3.7766)
(207.298 -0.934525 -6.21156)
(205.948 -1.33703 -9.112)
(203.273 -1.66865 -13.2238)
(196.971 -2.06869 -18.022)
(185.701 -1.7989 -28.9623)
(207.213 3.23481 3.48452)
(207.829 2.33196 1.68909)
(208.125 1.56553 -0.111269)
(208.165 0.948579 -1.96276)
(207.904 0.454655 -3.97602)
(207.306 0.0574761 -6.35759)
(206.041 -0.255809 -9.25033)
(203.52 -0.48607 -13.5453)
(197.236 -0.618727 -18.8664)
(185.305 -0.0670252 -31.8799)
(207.3 1.90458 4.03909)
(207.935 0.888449 2.28093)
(208.253 0.0358938 0.479023)
(208.321 -0.65961 -1.35443)
(208.103 -1.22997 -3.37933)
(207.567 -1.68553 -5.80537)
(206.414 -1.99092 -8.8658)
(204.088 -2.12465 -13.5052)
(197.939 -1.85826 -19.636)
(185.226 -0.795826 -34.2717)
(206.443 2.77209 3.39817)
(207.026 1.67876 1.6694)
(207.214 0.852456 -0.0466622)
(207.044 0.189068 -1.81773)
(206.511 -0.291938 -3.74027)
(205.604 -0.613699 -6.02853)
(204.093 -0.72501 -8.91175)
(201.531 -0.545913 -13.296)
(195.521 0.218852 -19.5411)
(182.751 2.30263 -34.7033)
(201.723 0.945271 1.7036)
(202.161 0.543934 0.913415)
(202.312 0.162045 0.0100551)
(202.214 -0.161317 -0.894252)
(201.865 -0.431849 -1.79793)
(201.25 -0.644248 -2.61949)
(200.339 -0.810717 -3.29395)
(199.106 -0.9548 -3.68593)
(197.546 -1.1319 -3.5798)
(195.813 -1.36721 -2.75292)
(203.028 1.8988 1.79561)
(203.498 1.52357 0.722659)
(203.662 1.12698 -0.383051)
(203.531 0.73449 -1.49251)
(203.084 0.347396 -2.59719)
(202.275 -0.0371689 -3.66673)
(201.027 -0.429935 -4.62512)
(199.235 -0.853519 -5.34415)
(196.768 -1.3762 -5.40123)
(193.966 -1.94281 -4.61975)
(204.003 1.75221 2.5081)
(204.516 1.21287 1.21142)
(204.693 0.684012 -0.144861)
(204.553 0.199165 -1.5117)
(204.055 -0.264988 -2.90567)
(203.128 -0.716854 -4.3071)
(201.639 -1.1759 -5.64958)
(199.391 -1.66855 -6.84181)
(196.037 -2.30065 -7.29716)
(191.955 -2.99615 -6.92454)
(204.455 2.52104 2.59159)
(205.014 1.96739 1.13706)
(205.221 1.41699 -0.348416)
(205.1 0.912905 -1.85452)
(204.602 0.430205 -3.41669)
(203.637 -0.040491 -5.04945)
(202.012 -0.528335 -6.70701)
(199.427 -1.05602 -8.37432)
(195.211 -1.76287 -9.29049)
(189.745 -2.52949 -9.54187)
(205.033 2.09745 3.20721)
(205.636 1.42927 1.63047)
(205.878 0.798367 -0.0138717)
(205.8 0.2485 -1.6807)
(205.337 -0.262511 -3.44444)
(204.396 -0.742716 -5.34901)
(202.722 -1.22509 -7.37514)
(199.921 -1.72901 -9.606)
(194.954 -2.44438 -11.1372)
(188.15 -3.18399 -12.371)
(205.283 2.92727 3.05731)
(205.914 2.23781 1.42345)
(206.184 1.59534 -0.237841)
(206.139 1.04505 -1.93721)
(205.716 0.548493 -3.75143)
(204.825 0.0931271 -5.77275)
(203.159 -0.358796 -8.0043)
(200.252 -0.826205 -10.6633)
(194.68 -1.50758 -12.7387)
(186.67 -2.16761 -15.1399)
(205.679 2.14531 3.63542)
(206.344 1.34291 1.95234)
(206.641 0.623448 0.200042)
(206.637 0.0245265 -1.58262)
(206.261 -0.497648 -3.51386)
(205.435 -0.950939 -5.71006)
(203.816 -1.36191 -8.21433)
(200.881 -1.74363 -11.3618)
(194.852 -2.29991 -14.1209)
(185.753 -2.77335 -17.9559)
(205.762 3.04129 3.18684)
(206.434 2.21912 1.52288)
(206.73 1.5109 -0.153767)
(206.714 0.934076 -1.88033)
(206.333 0.463846 -3.74863)
(205.523 0.0779877 -5.91829)
(203.944 -0.245487 -8.45977)
(201.048 -0.534092 -11.8504)
(194.763 -0.878845 -15.1074)
(184.778 -1.19155 -20.3262)
(205.918 1.7094 3.77004)
(206.601 0.771932 2.12881)
(206.913 -0.0153798 0.429492)
(206.921 -0.651727 -1.30175)
(206.574 -1.16845 -3.2031)
(205.808 -1.57276 -5.43014)
(204.287 -1.84415 -8.13522)
(201.482 -1.99352 -11.8827)
(195.127 -1.94526 -15.9837)
(184.168 -1.89624 -22.3899)
(205.128 2.65024 3.10775)
(205.764 1.6471 1.51975)
(205.985 0.89473 -0.0705539)
(205.824 0.295203 -1.72072)
(205.256 -0.130205 -3.50941)
(204.236 -0.401681 -5.60487)
(202.475 -0.480475 -8.1589)
(199.481 -0.315548 -11.7191)
(193.147 0.229408 -16.0556)
(181.7 1.20384 -22.8732)
(200.506 0.547787 1.19576)
(200.849 0.291593 0.667997)
(200.964 0.0308376 0.0376713)
(200.889 -0.198424 -0.581272)
(200.63 -0.399692 -1.18573)
(200.192 -0.565331 -1.69605)
(199.58 -0.704894 -2.06548)
(198.818 -0.833546 -2.2041)
(197.952 -0.977781 -2.02015)
(197.098 -1.14411 -1.42956)
(201.647 1.42734 1.31506)
(202.042 1.19298 0.514091)
(202.181 0.914133 -0.317402)
(202.068 0.615944 -1.14195)
(201.695 0.307702 -1.93247)
(201.047 -0.00940266 -2.64591)
(200.104 -0.339943 -3.20817)
(198.858 -0.693836 -3.51097)
(197.334 -1.0994 -3.32697)
(195.831 -1.51577 -2.51877)
(202.485 1.28648 2.05438)
(202.958 0.884769 1.02005)
(203.121 0.465721 -0.0785407)
(202.989 0.0644485 -1.17551)
(202.538 -0.333688 -2.26272)
(201.73 -0.73338 -3.29886)
(200.5 -1.14785 -4.19946)
(198.783 -1.59471 -4.83466)
(196.499 -2.1293 -4.81202)
(194.106 -2.69739 -3.92852)
(202.918 2.11297 2.15215)
(203.463 1.68732 0.939789)
(203.661 1.23459 -0.310576)
(203.533 0.800778 -1.56901)
(203.044 0.370857 -2.84177)
(202.136 -0.0617524 -4.1094)
(200.687 -0.521233 -5.28973)
(198.556 -1.02697 -6.26744)
(195.465 -1.66702 -6.46498)
(191.993 -2.37124 -5.60971)
(203.511 1.72607 2.79794)
(204.119 1.17699 1.43511)
(204.352 0.634555 -0.00166983)
(204.25 0.14508 -1.44859)
(203.762 -0.323432 -2.948)
(202.814 -0.77703 -4.50111)
(201.224 -1.2442 -6.03989)
(198.769 -1.74733 -7.48894)
(194.905 -2.42761 -8.08482)
(190.287 -3.19524 -7.53753)
(203.803 2.60565 2.67345)
(204.453 2.02362 1.23107)
(204.716 1.45975 -0.246953)
(204.638 0.962125 -1.75242)
(204.162 0.500952 -3.33104)
(203.209 0.0650357 -5.02422)
(201.54 -0.383052 -6.77924)
(198.858 -0.869841 -8.60246)
(194.299 -1.5593 -9.55885)
(188.557 -2.35336 -9.46406)
(204.247 1.853 3.27946)
(204.937 1.15119 1.76513)
(205.227 0.506272 0.173773)
(205.181 -0.0412847 -1.43964)
(204.733 -0.528171 -3.1626)
(203.803 -0.961403 -5.05722)
(202.104 -1.36977 -7.10656)
(199.272 -1.77828 -9.39327)
(194.118 -2.37875 -10.8774)
(187.293 -3.09863 -11.5081)
(204.385 2.8057 2.84361)
(205.088 2.07982 1.3382)
(205.381 1.44095 -0.188755)
(205.327 0.912658 -1.76116)
(204.87 0.474275 -3.44313)
(203.937 0.10724 -5.3383)
(202.224 -0.217083 -7.45276)
(199.321 -0.541337 -9.98696)
(193.741 -0.989444 -11.8657)
(185.958 -1.65457 -13.2529)
(204.594 1.47567 3.46207)
(205.305 0.631621 1.9632)
(205.611 -0.0831736 0.391285)
(205.575 -0.65839 -1.20981)
(205.143 -1.12287 -2.9516)
(204.238 -1.48127 -4.93095)
(202.539 -1.72569 -7.21927)
(199.614 -1.88858 -10.0706)
(193.791 -1.97983 -12.6836)
(184.961 -2.39231 -14.8276)
(203.866 2.50344 2.77919)
(204.533 1.60107 1.34912)
(204.777 0.926671 -0.0990426)
(204.624 0.391285 -1.60808)
(204.039 0.0188072 -3.23446)
(202.957 -0.208086 -5.09578)
(201.093 -0.262948 -7.26672)
(198.001 -0.118055 -9.99648)
(192.078 0.261098 -12.8112)
(182.54 0.642189 -15.1406)
(199.668 0.248826 0.82663)
(199.923 0.0902451 0.490143)
(200.004 -0.0823781 0.0652678)
(199.953 -0.23929 -0.341206)
(199.778 -0.384827 -0.734079)
(199.49 -0.510026 -1.04546)
(199.106 -0.621124 -1.25017)
(198.654 -0.725623 -1.29383)
(198.177 -0.834262 -1.14399)
(197.719 -0.945674 -0.778143)
(200.631 1.03469 0.914044)
(200.936 0.905378 0.339924)
(201.044 0.722852 -0.257054)
(200.957 0.50737 -0.84231)
(200.673 0.272416 -1.3839)
(200.196 0.0221692 -1.84114)
(199.532 -0.242167 -2.15667)
(198.712 -0.521251 -2.25783)
(197.801 -0.820058 -2.03778)
(196.989 -1.10771 -1.43238)
(201.296 0.856786 1.63935)
(201.696 0.570518 0.845775)
(201.835 0.250889 -0.0115838)
(201.723 -0.0695784 -0.860123)
(201.347 -0.398947 -1.67736)
(200.696 -0.737744 -2.4148)
(199.752 -1.09254 -2.99613)
(198.522 -1.4721 -3.31311)
(197.046 -1.8985 -3.14364)
(195.655 -2.32751 -2.34857)
(201.658 1.70889 1.72352)
(202.149 1.40118 0.749644)
(202.327 1.04421 -0.265459)
(202.206 0.683811 -1.27927)
(201.767 0.313845 -2.27647)
(200.976 -0.0680859 -3.21755)
(199.78 -0.478692 -4.01561)
(198.14 -0.930581 -4.54351)
(196.004 -1.47006 -4.43686)
(193.859 -2.04178 -3.44147)
(202.211 1.34138 2.38052)
(202.781 0.909753 1.23994)
(202.996 0.458928 0.0217933)
(202.887 0.0357719 -1.19617)
(202.417 -0.381521 -2.42855)
(201.538 -0.795645 -3.6456)
(200.144 -1.22828 -4.76057)
(198.141 -1.69901 -5.64509)
(195.321 -2.29768 -5.77416)
(192.311 -2.96246 -4.76868)
(202.501 2.25746 2.27103)
(203.129 1.78696 1.03527)
(203.376 1.30778 -0.242663)
(203.28 0.869813 -1.53779)
(202.795 0.452672 -2.86658)
(201.864 0.0481269 -4.22848)
(200.325 -0.376671 -5.54044)
(198.026 -0.848328 -6.71024)
(194.543 -1.4827 -7.04657)
(190.624 -2.22607 -6.09937)
(202.957 1.53077 2.89777)
(203.635 0.937261 1.57108)
(203.911 0.374204 0.160638)
(203.837 -0.115321 -1.26303)
(203.358 -0.559645 -2.75619)
(202.407 -0.963866 -4.3326)
(200.774 -1.35562 -5.93413)
(198.242 -1.76454 -7.50268)
(194.147 -2.34204 -8.22528)
(189.295 -3.07363 -7.56371)
(203.123 2.54065 2.47197)
(203.822 1.92057 1.14387)
(204.105 1.35899 -0.213895)
(204.024 0.885888 -1.61099)
(203.53 0.486117 -3.08243)
(202.553 0.145198 -4.67977)
(200.854 -0.167421 -6.35755)
(198.166 -0.499576 -8.13853)
(193.585 -0.971773 -9.13528)
(187.853 -1.7154 -8.79984)
(203.368 1.21158 3.12721)
(204.078 0.47095 1.78949)
(204.371 -0.16581 0.364948)
(204.304 -0.678201 -1.08368)
(203.823 -1.09125 -2.64009)
(202.854 -1.40705 -4.34786)
(201.13 -1.62705 -6.215)
(198.34 -1.79326 -8.277)
(193.422 -1.95642 -9.83366)
(186.714 -2.51218 -9.92256)
(202.691 2.33794 2.42231)
(203.362 1.54376 1.16262)
(203.616 0.950462 -0.129954)
(203.467 0.479492 -1.48113)
(202.881 0.157655 -2.92367)
(201.789 -0.0297732 -4.52739)
(199.941 -0.0671669 -6.30266)
(196.991 0.0564072 -8.29489)
(191.896 0.314678 -9.98533)
(184.469 0.414125 -10.0909)
(199.089 0.0397053 0.57799)
(199.274 -0.0590399 0.371317)
(199.33 -0.172856 0.0890624)
(199.298 -0.278245 -0.171211)
(199.187 -0.38169 -0.424525)
(199.01 -0.47381 -0.615736)
(198.779 -0.558455 -0.73601)
(198.521 -0.637914 -0.752706)
(198.259 -0.715201 -0.658614)
(197.995 -0.786305 -0.452338)
(199.898 0.736249 0.60169)
(200.117 0.677936 0.202836)
(200.196 0.567873 -0.20876)
(200.134 0.419564 -0.60763)
(199.934 0.24788 -0.964922)
(199.603 0.0584748 -1.24879)
(199.161 -0.143343 -1.42031)
(198.643 -0.353287 -1.43652)
(198.107 -0.566267 -1.25251)
(197.663 -0.757724 -0.85213)
(200.388 0.492075 1.28693)
(200.704 0.293167 0.69709)
(200.816 0.0562845 0.0485274)
(200.728 -0.191837 -0.588419)
(200.436 -0.455347 -1.18645)
(199.943 -0.731537 -1.70012)
(199.257 -1.02166 -2.06996)
(198.414 -1.32701 -2.22192)
(197.485 -1.65107 -2.04312)
(196.676 -1.95926 -1.47528)
(200.656 1.34007 1.33315)
(201.071 1.1309 0.576573)
(201.222 0.860414 -0.219911)
(201.119 0.571005 -1.00953)
(200.75 0.263094 -1.76516)
(200.105 -0.0617509 -2.44053)
(199.172 -0.412162 -2.95989)
(197.969 -0.793188 -3.21953)
(196.541 -1.22306 -3.01391)
(195.224 -1.65839 -2.19527)
(201.134 0.971833 1.98056)
(201.638 0.64608 1.0543)
(201.827 0.283202 0.0509457)
(201.724 -0.0721852 -0.945123)
(201.303 -0.433177 -1.92903)
(200.541 -0.798744 -2.85463)
(199.389 -1.18292 -3.63625)
(197.835 -1.59906 -4.14776)
(195.855 -2.09687 -4.06638)
(193.918 -2.62762 -3.12112)
(201.389 1.90613 1.8725)
(201.964 1.54201 0.84467)
(202.187 1.14778 -0.22871)
(202.086 0.772991 -1.31084)
(201.63 0.405856 -2.39557)
(200.78 0.0418668 -3.45482)
(199.447 -0.344251 -4.3966)
(197.577 -0.773927 -5.09903)
(195.027 -1.31918 -5.10602)
(192.402 -1.94504 -4.03436)
(201.828 1.19746 2.50905)
(202.464 0.711986 1.3775)
(202.717 0.233407 0.158156)
(202.629 -0.194037 -1.06649)
(202.157 -0.590319 -2.32589)
(201.253 -0.957853 -3.59869)
(199.781 -1.32018 -4.80622)
(197.64 -1.70531 -5.82647)
(194.531 -2.22051 -6.1004)
(191.163 -2.86347 -5.07761)
(201.997 2.26034 2.08765)
(202.662 1.74879 0.946463)
(202.927 1.26855 -0.230345)
(202.831 0.85504 -1.4398)
(202.335 0.498926 -2.69083)
(201.383 0.189871 -3.99431)
(199.807 -0.100591 -5.27363)
(197.46 -0.416127 -6.45263)
(193.877 -0.856507 -6.88477)
(189.776 -1.53797 -5.92868)
(202.261 0.927633 2.7786)
(202.943 0.294749 1.6129)
(203.218 -0.261044 0.349324)
(203.131 -0.709908 -0.93197)
(202.637 -1.07239 -2.2889)
(201.673 -1.34816 -3.7224)
(200.042 -1.54471 -5.19855)
(197.544 -1.70454 -6.62844)
(193.602 -1.88812 -7.46601)
(188.686 -2.41717 -6.70698)
(201.622 2.16185 2.04852)
(202.271 1.47937 0.965596)
(202.521 0.968684 -0.162271)
(202.379 0.561881 -1.3441)
(201.813 0.288437 -2.5902)
(200.759 0.135866 -3.9305)
(199.026 0.111054 -5.32864)
(196.372 0.2138 -6.71381)
(192.217 0.385687 -7.6179)
(186.685 0.373664 -6.78825)
(198.677 -0.100529 0.419255)
(198.815 -0.1648 0.296931)
(198.853 -0.241755 0.108245)
(198.834 -0.312403 -0.0568399)
(198.767 -0.385567 -0.222214)
(198.662 -0.452094 -0.342848)
(198.528 -0.514541 -0.420166)
(198.383 -0.572508 -0.433103)
(198.236 -0.625804 -0.383699)
(198.066 -0.670247 -0.274042)
(199.369 0.527387 0.369435)
(199.519 0.513615 0.098796)
(199.575 0.454726 -0.174669)
(199.534 0.357797 -0.436335)
(199.399 0.237486 -0.663539)
(199.182 0.099771 -0.834084)
(198.899 -0.0481676 -0.923702)
(198.58 -0.200067 -0.908559)
(198.265 -0.347956 -0.772113)
(198.017 -0.473349 -0.514474)
(199.706 0.202646 1.00417)
(199.942 0.0646102 0.576636)
(200.027 -0.107769 0.0981235)
(199.963 -0.294985 -0.368918)
(199.749 -0.499499 -0.79852)
(199.394 -0.716958 -1.15331)
(198.917 -0.945246 -1.39073)
(198.357 -1.18092 -1.46509)
(197.778 -1.41887 -1.32218)
(197.304 -1.63321 -0.948013)
(199.881 1.02547 0.996476)
(200.212 0.892216 0.426364)
(200.334 0.694819 -0.178664)
(200.252 0.469921 -0.774366)
(199.96 0.221909 -1.33001)
(199.461 -0.0448414 -1.80178)
(198.766 -0.332216 -2.13055)
(197.913 -0.639386 -2.24241)
(196.976 -0.968073 -2.03002)
(196.168 -1.28559 -1.42539)
(200.265 0.639137 1.61682)
(200.689 0.401889 0.885112)
(200.848 0.118309 0.0810246)
(200.758 -0.171864 -0.711849)
(200.403 -0.475186 -1.47758)
(199.778 -0.787452 -2.16582)
(198.871 -1.11599 -2.70273)
(197.711 -1.46716 -2.98636)
(196.353 -1.86347 -2.83207)
(195.115 -2.2662 -2.08668)
(200.467 1.57217 1.49714)
(200.967 1.30239 0.666734)
(201.161 0.988337 -0.208826)
(201.066 0.676704 -1.08698)
(200.661 0.362636 -1.94696)
(199.929 0.0451579 -2.74714)
(198.831 -0.292539 -3.40138)
(197.372 -0.664652 -3.7955)
(195.557 -1.10899 -3.64802)
(193.817 -1.60249 -2.71485)
(200.868 0.871574 2.13113)
(201.439 0.486961 1.19125)
(201.663 0.0909256 0.163317)
(201.573 -0.273294 -0.86367)
(201.136 -0.618255 -1.89894)
(200.326 -0.943504 -2.90055)
(199.067 -1.2671 -3.78633)
(197.333 -1.6113 -4.42108)
(195.047 -2.04529 -4.44894)
(192.744 -2.56646 -3.46021)
(201.017 1.97983 1.70692)
(201.625 1.57303 0.752752)
(201.864 1.17416 -0.239773)
(201.764 0.822037 -1.25852)
(201.295 0.512692 -2.29181)
(200.42 0.239606 -3.32341)
(199.035 -0.021148 -4.2646)
(197.079 -0.304434 -5.00191)
(194.375 -0.682451 -5.09168)
(191.499 -1.24076 -4.03364)
(201.289 0.635671 2.43073)
(201.92 0.109069 1.43941)
(202.169 -0.36583 0.343058)
(202.075 -0.751886 -0.76436)
(201.597 -1.06512 -1.91916)
(200.693 -1.30299 -3.09242)
(199.231 -1.47617 -4.22763)
(197.104 -1.62273 -5.1843)
(194.064 -1.79709 -5.56765)
(190.561 -2.23082 -4.57824)
(200.675 1.9847 1.67054)
(201.277 1.4131 0.764138)
(201.515 0.984445 -0.195308)
(201.382 0.640579 -1.20263)
(200.854 0.412981 -2.24905)
(199.879 0.291029 -3.33503)
(198.328 0.275211 -4.39544)
(196.054 0.358899 -5.31059)
(192.799 0.469702 -5.69764)
(188.822 0.425391 -4.59697)
(198.375 -0.193429 0.322583)
(198.482 -0.238694 0.253404)
(198.507 -0.293675 0.123508)
(198.497 -0.34186 0.017836)
(198.458 -0.394118 -0.0939767)
(198.398 -0.441836 -0.174081)
(198.322 -0.487058 -0.229624)
(198.24 -0.528317 -0.245554)
(198.155 -0.564384 -0.226785)
(198.034 -0.591706 -0.174278)
(198.986 0.393974 0.201162)
(199.085 0.406634 0.0206781)
(199.122 0.382199 -0.154335)
(199.096 0.322771 -0.319162)
(199.01 0.242118 -0.457619)
(198.872 0.145901 -0.5555)
(198.697 0.0413722 -0.598611)
(198.504 -0.065 -0.574054)
(198.319 -0.165502 -0.477598)
(198.177 -0.246453 -0.312476)
(199.198 -0.0141663 0.787022)
(199.365 -0.112623 0.482875)
(199.427 -0.237283 0.136166)
(199.382 -0.375789 -0.200834)
(199.233 -0.530323 -0.506314)
(198.988 -0.696395 -0.752084)
(198.668 -0.870158 -0.909396)
(198.305 -1.0461 -0.952088)
(197.948 -1.21645 -0.854724)
(197.667 -1.3623 -0.623103)
(199.293 0.772643 0.718463)
(199.545 0.693956 0.30092)
(199.64 0.554989 -0.14457)
(199.577 0.385697 -0.580394)
(199.357 0.192262 -0.977569)
(198.989 -0.0194033 -1.29943)
(198.49 -0.246815 -1.50316)
(197.903 -0.485621 -1.54023)
(197.295 -0.729665 -1.35826)
(196.798 -0.954604 -0.933018)
(199.582 0.356795 1.30016)
(199.922 0.18895 0.736459)
(200.05 -0.0268424 0.108322)
(199.976 -0.257454 -0.507268)
(199.692 -0.505084 -1.08997)
(199.203 -0.763438 -1.59318)
(198.517 -1.03499 -1.95854)
(197.679 -1.32019 -2.11262)
(196.762 -1.62579 -1.95497)
(195.973 -1.92013 -1.41292)
(199.721 1.27082 1.15916)
(200.138 1.07948 0.507142)
(200.3 0.837111 -0.186297)
(200.216 0.585467 -0.878382)
(199.876 0.324584 -1.54106)
(199.275 0.0562449 -2.12968)
(198.408 -0.228546 -2.57164)
(197.309 -0.537557 -2.77594)
(196.041 -0.885427 -2.57586)
(194.898 -1.25616 -1.84334)
(200.076 0.569005 1.77887)
(200.567 0.273229 1.01812)
(200.758 -0.0460106 0.172991)
(200.674 -0.348711 -0.666897)
(200.292 -0.641487 -1.4974)
(199.601 -0.921328 -2.26823)
(198.57 -1.20095 -2.9046)
(197.218 -1.49536 -3.28578)
(195.575 -1.84563 -3.19818)
(194.02 -2.24425 -2.37864)
(200.186 1.71313 1.34467)
(200.719 1.40203 0.569043)
(200.928 1.08077 -0.244089)
(200.832 0.789209 -1.0778)
(200.412 0.527674 -1.90628)
(199.647 0.292878 -2.69852)
(198.484 0.0665935 -3.36734)
(196.917 -0.176765 -3.80093)
(194.93 -0.484273 -3.70499)
(192.947 -0.909575 -2.75986)
(200.458 0.347402 2.09764)
(201.021 -0.0795563 1.27497)
(201.24 -0.476683 0.344597)
(201.147 -0.802318 -0.590715)
(200.71 -1.06834 -1.5509)
(199.903 -1.27039 -2.48951)
(198.651 -1.42018 -3.34238)
(196.915 -1.54899 -3.9633)
(194.638 -1.7004 -4.0846)
(192.198 -2.02912 -3.15178)
(199.857 1.81644 1.30098)
(200.395 1.35077 0.564343)
(200.611 1.00123 -0.228844)
(200.492 0.717811 -1.06321)
(200.016 0.533012 -1.91553)
(199.152 0.437744 -2.76746)
(197.82 0.428314 -3.54063)
(195.95 0.495385 -4.11024)
(193.48 0.563596 -4.18181)
(190.704 0.520131 -3.12003)
(198.144 -0.257154 0.266968)
(198.231 -0.29212 0.230553)
(198.249 -0.33458 0.136311)
(198.244 -0.36873 0.0664493)
(198.222 -0.407077 -0.0135667)
(198.188 -0.44158 -0.0709242)
(198.145 -0.474203 -0.1155)
(198.099 -0.503251 -0.13551)
(198.048 -0.527358 -0.136454)
(197.953 -0.543714 -0.117534)
(198.702 0.319419 0.0795659)
(198.766 0.347258 -0.0390417)
(198.791 0.345288 -0.146001)
(198.776 0.312302 -0.244351)
(198.722 0.261095 -0.323477)
(198.638 0.19665 -0.374884)
(198.531 0.125327 -0.390787)
(198.415 0.0529253 -0.364026)
(198.306 -0.0142105 -0.295487)
(198.222 -0.0659481 -0.18655)
(198.816 -0.168357 0.626046)
(198.93 -0.242499 0.412103)
(198.973 -0.33329 0.163423)
(198.944 -0.434503 -0.0779728)
(198.843 -0.548711 -0.295018)
(198.681 -0.672273 -0.467657)
(198.472 -0.800754 -0.577238)
(198.242 -0.928441 -0.609659)
(198.022 -1.04782 -0.552562)
(197.855 -1.14553 -0.418602)
(198.854 0.580483 0.496733)
(199.038 0.538642 0.199258)
(199.109 0.444244 -0.118826)
(199.064 0.320741 -0.428112)
(198.905 0.17459 -0.704123)
(198.643 0.0122466 -0.918586)
(198.297 -0.161804 -1.04216)
(197.902 -0.34168 -1.04458)
(197.511 -0.518742 -0.902617)
(197.204 -0.675407 -0.610804)
(199.055 0.130695 1.03437)
(199.316 0.0143468 0.609679)
(199.415 -0.146084 0.130307)
(199.358 -0.324753 -0.33702)
(199.14 -0.521304 -0.771922)
(198.772 -0.728667 -1.13542)
(198.272 -0.946104 -1.38422)
(197.682 -1.17028 -1.46955)
(197.072 -1.40032 -1.33906)
(196.57 -1.61016 -0.964939)
(199.133 1.01121 0.867164)
(199.466 0.88131 0.369448)
(199.596 0.699975 -0.163648)
(199.527 0.502683 -0.6933)
(199.254 0.292437 -1.18977)
(198.781 0.0728248 -1.61201)
(198.121 -0.159011 -1.90306)
(197.318 -0.40623 -1.9977)
(196.447 -0.670081 -1.79977)
(195.701 -0.939421 -1.25585)
(199.44 0.301702 1.46282)
(199.845 0.0802082 0.862208)
(200.004 -0.170694 0.184253)
(199.93 -0.416036 -0.486068)
(199.611 -0.658117 -1.13718)
(199.047 -0.892013 -1.71908)
(198.235 -1.12619 -2.16957)
(197.214 -1.36867 -2.39309)
(196.056 -1.64267 -2.26897)
(195.016 -1.93528 -1.64063)
(199.5 1.47173 1.01295)
(199.949 1.24366 0.400581)
(200.125 0.993266 -0.245181)
(200.039 0.758994 -0.906914)
(199.679 0.544259 -1.5509)
(199.038 0.348201 -2.14095)
(198.1 0.158554 -2.59946)
(196.889 -0.042565 -2.83507)
(195.461 -0.283637 -2.65616)
(194.115 -0.593988 -1.89123)
(199.769 0.0730174 1.79155)
(200.252 -0.2649 1.12496)
(200.44 -0.590091 0.352393)
(200.353 -0.859368 -0.420032)
(199.972 -1.08112 -1.20115)
(199.283 -1.24973 -1.9373)
(198.254 -1.37654 -2.56672)
(196.888 -1.4853 -2.96112)
(195.225 -1.60896 -2.95047)
(193.559 -1.84663 -2.18145)
(199.171 1.6665 0.951018)
(199.633 1.29839 0.371712)
(199.822 1.02278 -0.26305)
(199.718 0.796 -0.932307)
(199.306 0.650389 -1.60348)
(198.569 0.578143 -2.2488)
(197.467 0.573238 -2.78825)
(195.986 0.626296 -3.11561)
(194.162 0.665101 -3.01322)
(192.273 0.633946 -2.11049)
(197.961 -0.305448 0.238501)
(198.036 -0.334839 0.221842)
(198.049 -0.370538 0.148412)
(198.047 -0.396251 0.0992626)
(198.035 -0.425667 0.0375976)
(198.016 -0.451253 -0.00756841)
(197.991 -0.475066 -0.0469668)
(197.965 -0.495527 -0.070791)
(197.934 -0.511472 -0.0844378)
(197.853 -0.520744 -0.0856616)
(198.489 0.288585 -0.0102525)
(198.53 0.32529 -0.0868857)
(198.547 0.337677 -0.147544)
(198.538 0.322961 -0.20083)
(198.505 0.293001 -0.240499)
(198.454 0.251934 -0.261731)
(198.39 0.204983 -0.260684)
(198.321 0.156963 -0.233051)
(198.256 0.112687 -0.181901)
(198.204 0.0798264 -0.105549)
(198.525 -0.272809 0.510181)
(198.601 -0.332651 0.35999)
(198.63 -0.400129 0.181701)
(198.611 -0.473855 0.00821363)
(198.545 -0.557009 -0.147542)
(198.441 -0.646935 -0.272018)
(198.308 -0.739557 -0.353308)
(198.165 -0.829887 -0.384291)
(198.031 -0.91178 -0.358011)
(197.93 -0.976059 -0.288887)
(198.531 0.442339 0.324536)
(198.66 0.423909 0.118644)
(198.711 0.362177 -0.101351)
(198.681 0.274916 -0.313917)
(198.57 0.168024 -0.500034)
(198.389 0.0476389 -0.639013)
(198.155 -0.081341 -0.71164)
(197.896 -0.212903 -0.699524)
(197.646 -0.338669 -0.594292)
(197.455 -0.446472 -0.395884)
(198.654 -0.0393581 0.817773)