/*--------------------------------*- C++ -*----------------------------------*\
| =========                 |                                                 |
| \\      /  F ield         | foam-extend: Open Source CFD                    |
|  \\    /   O peration     | Version:     4.0                                |
|   \\  /    A nd           | Web:         http://www.foam-extend.org         |
|    \\/     M anipulation  |                                                 |
\*---------------------------------------------------------------------------*/
FoamFile
{
    version     2.0;
    format      ascii;
    class       volScalarField;
    location    "2950";
    object      divFlux;
}
// * * * * * * * * * * * * * * * * * * * * * * * * * * * * * * * * * * * * * //

dimensions      [1 -3 -1 0 0 0 0];

internalField   nonuniform List<scalar> 
34480
(
1.64877e-05
6.28255e-06
6.46174e-06
5.95483e-06
5.50958e-06
5.16456e-06
4.90045e-06
0.000293271
4.75177e-05
4.37254e-06
5.19732e-06
2.67539e-06
2.65437e-06
2.44687e-06
2.30752e-06
2.24623e-06
2.24091e-06
2.24383e-06
0.00354015
2.16742e-06
1.59113e-06
8.41976e-07
8.58425e-07
8.14988e-07
8.02846e-07
8.29055e-07
8.75149e-07
9.05802e-07
0.0033675
8.94026e-07
5.72598e-07
3.07524e-07
3.32152e-07
3.13939e-07
3.12449e-07
3.30395e-07
3.51243e-07
3.64416e-07
0.000804032
3.60483e-07
2.45788e-07
1.15137e-07
1.43153e-07
1.28556e-07
1.31371e-07
1.37e-07
1.45574e-07
1.4996e-07
1.52644e-07
1.4924e-07
1.0023e-07
5.12031e-08
6.36316e-08
5.52123e-08
5.77896e-08
6.01951e-08
6.26579e-08
6.46625e-08
6.63234e-08
6.4548e-08
5.13113e-08
2.08223e-08
3.04444e-08
2.35715e-08
2.65243e-08
2.73389e-08
2.83062e-08
3.0088e-08
2.93244e-08
2.97826e-08
2.08306e-08
1.67699e-08
1.37916e-08
1.20047e-08
1.27378e-08
1.41582e-08
1.41582e-08
1.43414e-08
1.46164e-08
1.42498e-08
2.54297e-08
2.33262e-09
9.83032e-09
6.49801e-09
7.49771e-09
7.66432e-09
7.74763e-09
7.45605e-09
8.20582e-09
8.4974e-09
3.31235e-09
7.44564e-09
2.94007e-09
7.25472e-09
4.81103e-09
5.61287e-09
5.19286e-09
4.4292e-09
5.61287e-09
5.23104e-09
2.37006e-05
8.19859e-06
8.19635e-06
7.65678e-06
7.18401e-06
6.82827e-06
6.59374e-06
6.47384e-06
6.46156e-06
0.00108075
7.72056e-06
3.87792e-06
3.85428e-06
3.60728e-06
3.4385e-06
3.36662e-06
3.37093e-06
3.43419e-06
3.54914e-06
0.00347742
2.22347e-06
1.45863e-06
1.40807e-06
1.35985e-06
1.35798e-06
1.40739e-06
1.47852e-06
1.56278e-06
1.65061e-06
0.00432071
1.00309e-06
5.67191e-07
6.09822e-07
6.02048e-07
5.99777e-07
6.33143e-07
6.69846e-07
7.12122e-07
7.53226e-07
0.00149824
6.11991e-07
1.73971e-07
2.87031e-07
2.93786e-07
2.64882e-07
2.98836e-07
3.09424e-07
3.29991e-07
3.48916e-07
3.58291e-07
3.10547e-07
5.11143e-08
1.37316e-07
1.55153e-07
1.1703e-07
1.48498e-07
1.4706e-07
1.58188e-07
1.66973e-07
1.69775e-07
1.69631e-07
1.77953e-08
1.07908e-08
1.26508e-07
3.64899e-08
7.776e-08
7.28852e-08
7.82806e-08
8.34394e-08
8.45575e-08
3.90819e-07
7.30509e-08
1.23526e-09
6.72579e-08
1.89123e-08
4.31064e-08
3.78246e-08
4.16582e-08
4.55343e-08
4.54172e-08
2.95801e-08
9.47938e-08
1.72317e-08
5.36313e-08
1.02229e-08
2.74933e-08
2.48989e-08
2.61767e-08
2.80741e-08
2.88099e-08
1.08964e-06
1.96648e-08
5.23212e-08
5.45219e-08
9.05149e-09
2.04812e-08
1.92034e-08
1.99843e-08
2.16881e-08
2.30902e-08
2.18799e-05
6.17069e-06
6.36578e-06
5.9898e-06
5.63774e-06
5.3887e-06
5.25153e-06
5.23404e-06
2.65442e-05
0.000888019
6.95838e-06
2.75414e-06
2.82364e-06
2.64164e-06
2.48908e-06
2.39098e-06
2.36084e-06
2.41429e-06
8.4023e-05
0.00136214
1.90585e-06
1.036e-06
9.87971e-07
9.29683e-07
8.96262e-07
8.80542e-07
8.95351e-07
9.5265e-07
0.000121268
0.00127677
7.87146e-07
3.87764e-07
3.88226e-07
3.76676e-07
3.61134e-07
3.56217e-07
3.63609e-07
3.91691e-07
4.3967e-07
5.50553e-07
4.10252e-07
1.24055e-07
1.70045e-07
1.63314e-07
1.51604e-07
1.49681e-07
1.53301e-07
1.65633e-07
1.8843e-07
2.39625e-07
1.8318e-07
4.67752e-08
8.33539e-08
6.95936e-08
6.70197e-08
6.69702e-08
6.71187e-08
7.32069e-08
8.39479e-08
1.08424e-07
1.16622e-07
1.37273e-08
3.90701e-08
3.48903e-08
2.93906e-08
3.12385e-08
3.13705e-08
3.41863e-08
3.92021e-08
5.17085e-08
3.31349e-08
3.91229e-08
1.81359e-08
1.66312e-08
1.57204e-08
1.5958e-08
1.54828e-08
1.78191e-08
1.93634e-08
2.65703e-08
1.94092e-08
6.83966e-09
2.33269e-08
8.74757e-09
9.17955e-09
1.00435e-08
9.64753e-09
1.04755e-08
1.16634e-08
1.63252e-08
1.05434e-07
2.34288e-09
7.75462e-09
1.49483e-08
3.79481e-09
6.23669e-09
6.46768e-09
6.92966e-09
8.67857e-09
1.1568e-08
2.16145e-05
5.54857e-06
5.77371e-06
5.45357e-06
5.15088e-06
4.93621e-06
4.82688e-06
4.82268e-06
1.42338e-05
0.000381369
6.96664e-06
2.54291e-06
2.6319e-06
2.47826e-06
2.33474e-06
2.23636e-06
2.18846e-06
2.20401e-06
3.71881e-05
0.00115187
1.86552e-06
1.00699e-06
9.72971e-07
9.02955e-07
8.60033e-07
8.3143e-07
8.26645e-07
8.53738e-07
0.000122466
0.00229232
7.60628e-07
4.12015e-07
3.83732e-07
3.71124e-07
3.53485e-07
3.41981e-07
3.40386e-07
3.55295e-07
0.000112389
0.00210149
3.95453e-07
1.45196e-07
1.64706e-07
1.61025e-07
1.51191e-07
1.46669e-07
1.45932e-07
1.53347e-07
4.4143e-05
0.00156042
1.84346e-07
5.13524e-08
8.07558e-08
7.07706e-08
6.69974e-08
6.53869e-08
6.46506e-08
6.83318e-08
1.02673e-05
0.000975063
1.19085e-07
1.23115e-08
3.94295e-08
3.39895e-08
3.09628e-08
3.03083e-08
3.00629e-08
3.18626e-08
3.66481e-08
0.000406547
2.50665e-09
2.49216e-08
1.95838e-08
1.64549e-08
1.53505e-08
1.58291e-08
1.52401e-08
1.59395e-08
1.92894e-08
0.000151385
4.23691e-08
1.2014e-08
2.15851e-08
1.04412e-08
9.16947e-09
1.014e-08
9.73838e-09
1.00061e-08
1.21144e-08
1.60821e-08
4.01967e-08
1.86206e-08
8.49738e-09
1.41725e-08
4.20267e-09
7.36235e-09
6.53409e-09
6.87153e-09
7.85317e-09
1.17452e-08
2.10769e-05
4.96463e-06
5.19246e-06
4.91298e-06
4.64235e-06
4.45296e-06
4.35123e-06
4.33931e-06
1.89952e-05
0.000147087
6.88386e-06
2.3159e-06
2.40551e-06
2.27646e-06
2.15463e-06
2.06488e-06
2.01445e-06
2.00671e-06
2.17867e-06
0.00058269
1.84364e-06
9.32057e-07
9.32091e-07
8.62348e-07
8.17552e-07
7.86171e-07
7.70429e-07
7.75459e-07
7.65304e-05
0.00133442
6.96973e-07
4.13282e-07
3.76921e-07
3.58698e-07
3.41502e-07
3.28013e-07
3.21853e-07
3.25475e-07
7.74405e-05
0.00141473
3.56702e-07
1.62992e-07
1.59814e-07
1.57272e-07
1.47984e-07
1.42753e-07
1.39428e-07
1.41384e-07
5.08581e-05
0.00126867
1.76547e-07
5.94171e-08
7.61856e-08
7.03252e-08
6.72025e-08
6.40798e-08
6.26681e-08
6.40798e-08
3.72312e-05
0.000999979
1.16466e-07
1.4373e-08
3.85182e-08
3.30428e-08
3.13697e-08
3.0191e-08
2.96586e-08
2.99628e-08
5.22908e-06
0.000650432
2.13414e-08
1.90614e-08
1.97116e-08
1.61183e-08
1.56392e-08
1.51943e-08
1.53655e-08
1.57761e-08
7.4054e-06
0.000481793
6.11729e-08
1.35953e-08
1.81996e-08
1.05464e-08
8.77315e-09
1.01109e-08
9.8309e-09
1.0142e-08
1.07953e-08
0.000292934
5.03519e-10
3.09705e-08
9.23981e-09
1.35175e-08
4.39176e-09
6.58764e-09
6.73023e-09
6.81578e-09
7.81391e-09
0.000384761
1.98213e-05
4.29697e-06
4.54758e-06
4.32372e-06
4.09718e-06
3.93109e-06
3.84077e-06
3.82314e-06
3.87984e-06
2.60578e-05
6.62265e-06
2.09464e-06
2.16745e-06
2.05527e-06
1.94989e-06
1.86877e-06
1.82188e-06
1.80645e-06
1.5077e-05
0.000223681
1.873e-06
8.29474e-07
8.68445e-07
8.06441e-07
7.63747e-07
7.33015e-07
7.138e-07
7.07119e-07
3.45647e-05
0.000716777
6.45276e-07
3.9295e-07
3.59758e-07
3.41465e-07
3.24736e-07
3.12223e-07
3.03156e-07
3.00373e-07
3.96475e-05
0.000842234
3.05299e-07
1.70384e-07
1.54068e-07
1.50978e-07
1.43388e-07
1.36798e-07
1.33799e-07
1.33071e-07
3.40151e-05
0.000853237
1.59264e-07
6.55756e-08
7.41255e-08
6.80014e-08
6.51382e-08
6.21954e-08
6.08036e-08
6.03264e-08
3.08605e-05
0.00076451
1.06548e-07
1.95123e-08
3.58432e-08
3.24498e-08
3.03996e-08
2.93391e-08
2.89857e-08
2.89857e-08
1.61879e-05
0.000577044
2.96045e-08
1.7052e-08
1.7911e-08
1.69884e-08
1.58431e-08
1.54614e-08
1.47615e-08
1.47615e-08
2.12441e-05
0.000503404
7.0185e-08
1.16553e-08
1.41715e-08
1.23784e-08
8.56073e-09
9.68866e-09
9.39945e-09
9.54406e-09
7.83087e-06
0.000426489
2.67621e-08
3.77255e-08
9.14639e-09
1.26724e-08
5.35528e-09
6.68084e-09
6.07108e-09
6.91944e-09
2.15928e-05
0.000498363
1.88417e-05
3.70091e-06
3.93539e-06
3.75508e-06
3.55873e-06
3.41278e-06
3.32361e-06
3.29753e-06
3.32351e-06
9.81538e-07
6.14559e-06
1.86056e-06
1.91428e-06
1.81753e-06
1.72673e-06
1.65875e-06
1.61505e-06
1.59797e-06
1.02213e-05
7.13176e-05
1.90214e-06
7.19766e-07
7.88114e-07
7.36269e-07
6.96461e-07
6.68394e-07
6.50147e-07
6.39854e-07
1.29108e-05
0.000376301
6.21787e-07
3.60322e-07
3.36193e-07
3.18103e-07
3.02774e-07
2.90328e-07
2.81874e-07
2.76772e-07
1.45604e-05
0.000485504
2.63835e-07
1.65789e-07
1.45889e-07
1.42298e-07
1.3558e-07
1.29665e-07
1.26116e-07
1.23412e-07
1.46691e-05
0.000534467
1.38789e-07
6.59522e-08
7.00557e-08
6.52128e-08
6.20705e-08
6.00002e-08
5.7856e-08
5.76712e-08
1.54965e-05
0.00052388
9.16747e-08
2.43829e-08
3.49313e-08
3.03636e-08
2.99036e-08
2.91806e-08
2.72747e-08
2.75047e-08
1.18263e-05
0.000426784
2.91034e-08
1.76267e-08
1.68873e-08
1.58818e-08
1.54086e-08
1.49945e-08
1.42256e-08
1.46396e-08
1.92074e-05
0.000413866
7.05086e-08
4.94709e-09
9.75974e-09
1.27172e-08
8.49608e-09
9.75974e-09
8.79183e-09
9.46399e-09
1.5334e-05
0.000389006
4.44248e-08
4.24401e-08
8.47816e-09
1.09181e-08
5.29885e-09
5.74247e-09
6.11216e-09
6.08752e-09
2.67339e-05
0.000445146
1.73621e-05
3.10794e-06
3.32798e-06
3.18856e-06
3.02908e-06
2.90528e-06
2.83142e-06
2.80555e-06
2.82399e-06
3.00512e-06
5.53263e-06
1.63764e-06
1.66854e-06
1.57482e-06
1.49598e-06
1.43817e-06
1.40006e-06
1.38016e-06
2.62007e-06
1.46329e-05
1.89669e-06
6.07341e-07
6.98236e-07
6.60239e-07
6.22133e-07
5.96481e-07
5.79325e-07
5.67062e-07
4.50111e-06
0.000179463
5.95249e-07
3.22206e-07
3.0697e-07
2.88847e-07
2.751e-07
2.63415e-07
2.559e-07
2.50126e-07
3.87312e-06
0.000263474
2.37888e-07
1.56676e-07
1.34092e-07
1.30989e-07
1.25058e-07
1.19795e-07
1.16064e-07
1.13903e-07
3.53276e-06
0.00031579
1.24899e-07
6.2205e-08
6.57105e-08
6.08647e-08
5.82871e-08
5.6122e-08
5.3785e-08
5.25822e-08
3.84571e-06
0.000340367
7.65413e-08
2.4714e-08
3.29316e-08
2.8777e-08
2.82271e-08
2.6608e-08
2.62109e-08
2.58443e-08
5.02953e-06
0.000291236
2.30734e-08
1.8366e-08
1.63864e-08
1.55616e-08
1.3802e-08
1.44068e-08
1.3637e-08
1.32246e-08
1.27295e-05
0.000309886
6.14409e-08
2.32449e-09
5.64875e-09
1.22723e-08
8.6231e-09
8.34816e-09
8.64809e-09
8.74807e-09
1.37489e-05
0.00029579
5.80774e-08
4.49526e-08
7.74413e-09
9.94364e-09
5.9112e-09
5.95702e-09
6.27778e-09
6.25487e-09
2.39631e-05
0.000347405
1.57859e-05
2.56571e-06
2.7619e-06
2.65202e-06
2.51811e-06
2.41727e-06
2.3478e-06
2.32402e-06
2.33715e-06
2.47789e-06
4.79474e-06
1.4142e-06
1.43873e-06
1.35139e-06
1.27848e-06
1.2248e-06
1.19091e-06
1.17356e-06
1.16755e-06
2.88566e-07
1.84406e-06
4.85883e-07
5.929e-07
5.73858e-07
5.43008e-07
5.19289e-07
5.02599e-07
4.92937e-07
1.42672e-06
7.89776e-05
5.59406e-07
2.79811e-07
2.73847e-07
2.57958e-07
2.44369e-07
2.34848e-07
2.2701e-07
2.21259e-07
6.98984e-07
0.000133424
2.12464e-07
1.45615e-07
1.21443e-07
1.17865e-07
1.12972e-07
1.08737e-07
1.04465e-07
1.01799e-07
4.97567e-07
0.00017307
1.19282e-07
5.54957e-08
5.91379e-08
5.58152e-08
5.35788e-08
5.11826e-08
4.99046e-08
1.26644e-05
1.78062e-06
0.00020807
6.82834e-08
2.11575e-08
3.13244e-08
2.69225e-08
2.59001e-08
2.50482e-08
2.43382e-08
2.34862e-08
7.02882e-07
0.000182136
1.71833e-08
1.72014e-08
1.55912e-08
1.40832e-08
1.36998e-08
1.30864e-08
1.26263e-08
1.08649e-05
6.9046e-06
0.000215403
4.51193e-08
1.19199e-08
2.18416e-09
1.1432e-08
7.9931e-09
8.08605e-09
8.52752e-09
8.15575e-09
9.80772e-06
0.000202645
6.98545e-08
4.62411e-08
6.00644e-09
7.51871e-09
5.75085e-09
5.32486e-09
5.11187e-09
5.34058e-06
1.86334e-05
0.000250106
1.4205e-05
2.10107e-06
2.27251e-06
2.1841e-06
2.07478e-06
1.98496e-06
1.92528e-06
1.89295e-06
1.88693e-06
1.96294e-06
4.00147e-06
1.15065e-06
1.19122e-06
1.12439e-06
1.0627e-06
1.01934e-06
9.8961e-07
9.74492e-07
9.70007e-07
9.16322e-07
1.82792e-06
3.90153e-07
4.91493e-07
4.85981e-07
4.62149e-07
4.42023e-07
4.2722e-07
4.17074e-07
1.09419e-07
3.1297e-05
5.1163e-07
2.31926e-07
2.34183e-07
2.2456e-07
2.11828e-07
2.03175e-07
1.96364e-07
1.91156e-07
1.06924e-08
6.30267e-05
1.75719e-07
1.34419e-07
1.08859e-07
1.02783e-07
9.98296e-08
9.50774e-08
9.30747e-08
8.96803e-08
1.28556e-06
8.87347e-05
1.13622e-07
5.067e-08
5.23333e-08
4.98681e-08
4.77593e-08
4.55615e-08
4.39873e-08
1.81882e-05
3.67881e-06
0.000121128
6.73505e-08
1.67646e-08
2.80906e-08
2.44737e-08
2.35761e-08
2.27048e-08
2.16752e-08
2.14112e-08
1.00514e-06
0.000103958
1.58015e-08
1.29259e-08
1.46129e-08
1.38288e-08
1.2023e-08
1.16428e-08
1.1928e-08
2.0311e-05
3.01174e-06
0.000141749
2.42945e-08
1.90519e-08
1.10164e-09
9.84996e-09
7.66828e-09
7.40907e-09
6.97705e-09
7.56028e-09
6.01441e-06
0.000128752
7.98388e-08
4.5304e-08
3.52453e-09
6.03922e-09
5.28679e-09
5.06898e-09
5.06898e-09
1.12274e-05
1.33099e-05
0.000170313
1.21058e-05
1.61448e-06
1.77731e-06
1.73242e-06
1.65409e-06
1.59375e-06
1.55655e-06
1.54797e-06
1.56531e-06
1.66342e-06
3.47494e-06
9.20612e-07
9.63133e-07
9.16056e-07
8.67212e-07
8.28887e-07
8.03734e-07
7.88409e-07
7.77862e-07
7.19755e-07
1.70448e-06
3.16557e-07
3.94022e-07
3.96872e-07
3.81233e-07
3.66389e-07
3.53931e-07
3.45206e-07
3.39087e-07
1.07002e-05
4.82089e-07
1.86541e-07
1.94512e-07
1.87922e-07
1.79914e-07
1.71999e-07
1.64802e-07
1.61102e-07
8.65886e-08
2.67624e-05
1.2975e-07
1.18239e-07
9.52664e-08
8.90815e-08
8.50424e-08
8.20446e-08
7.87313e-08
7.71535e-08
1.00489e-06
4.27134e-05
1.02396e-07
4.60278e-08
4.52823e-08
4.30182e-08
4.10302e-08
4.05332e-08
3.80206e-08
1.74662e-05
3.90182e-06
6.84818e-05
7.07465e-08
1.20262e-08
2.47151e-08
2.18435e-08
2.04936e-08
1.99046e-08
1.91437e-08
1.84811e-08
1.15054e-06
5.38055e-05
2.12185e-08
8.10664e-09
1.30104e-08
1.22815e-08
1.05143e-08
1.06469e-08
9.41121e-07
2.26142e-05
7.0974e-07
9.05188e-05
1.32534e-09
2.59043e-08
1.20485e-10
7.63072e-09
7.49016e-09
6.54636e-09
6.72709e-09
6.6066e-09
3.13165e-06
7.53304e-05
8.60128e-08
4.09198e-08
6.99483e-10
4.21531e-09
4.6939e-09
4.38097e-09
4.08645e-09
1.23573e-05
8.96222e-06
0.000111153
1.08162e-05
1.15697e-06
1.27156e-06
1.22924e-06
1.14989e-06
1.07634e-06
1.01633e-06
9.70485e-07
9.22708e-07
8.86129e-07
2.97667e-06
7.23718e-07
7.54418e-07
7.20407e-07
6.81083e-07
6.48433e-07
6.28438e-07
6.17066e-07
6.14525e-07
5.7364e-07
1.48389e-06
2.72269e-07
3.16891e-07
3.17527e-07
3.0572e-07
2.93399e-07
2.83173e-07
2.75452e-07
2.68819e-07
3.3459e-06
4.49289e-07
1.50365e-07
1.5466e-07
1.52881e-07
1.46446e-07
1.4097e-07
1.35443e-07
1.31216e-07
1.27811e-07
8.72415e-06
8.95072e-08
9.83903e-08
8.08185e-08
7.38954e-08
7.09619e-08
6.81457e-08
6.57109e-08
6.31587e-08
5.4719e-07
1.91062e-05
8.08336e-08
4.1249e-08
3.91185e-08
3.63463e-08
3.52426e-08
3.34972e-08
1.22944e-06
1.48382e-05
3.49859e-06
3.80404e-05
7.2064e-08
9.01243e-09
2.01011e-08
1.86637e-08
1.73404e-08
1.67928e-08
1.63821e-08
1.59714e-08
5.29863e-07
2.399e-05
3.18937e-08
3.73731e-09
9.69236e-09
1.11709e-08
9.79503e-09
9.40487e-09
1.69365e-05
2.16904e-05
5.48296e-07
5.71667e-05
1.93212e-08
2.88045e-08
1.06407e-09
6.42175e-09
6.06706e-09
5.6377e-09
5.54436e-09
5.48835e-09
1.24007e-06
3.9121e-05
8.20793e-08
3.1418e-08
3.33688e-09
2.96041e-09
4.41495e-09
3.66201e-09
3.97003e-09
1.11549e-05
5.78502e-06
7.01612e-05
1.18988e-05
1.64689e-06
1.80217e-06
1.86286e-06
1.87701e-06
1.86387e-06
1.86066e-06
1.89297e-06
1.97127e-06
2.11843e-06
2.20105e-06
5.29621e-07
5.6372e-07
5.65557e-07
5.53436e-07
5.38927e-07
5.2177e-07
5.06976e-07
4.87313e-07
4.1649e-07
1.12172e-06
2.30318e-07
2.49007e-07
2.47613e-07
2.3929e-07
2.3173e-07
2.24514e-07
2.18234e-07
3.59021e-07
2.22289e-06
3.88694e-07
1.25133e-07
1.21395e-07
1.19852e-07
1.1605e-07
1.11914e-07
1.07268e-07
1.04596e-07
1.00746e-07
8.7676e-08
6.76303e-08
7.65226e-08
6.58323e-08
5.956e-08
5.77056e-08
5.50603e-08
5.24695e-08
5.12151e-08
2.34995e-07
7.98236e-06
5.8096e-08
3.44808e-08
3.324e-08
2.94221e-08
2.83721e-08
2.71313e-08
9.0593e-06
1.21601e-05
2.96034e-06
2.10709e-05
6.67477e-08
6.6602e-09
1.6799e-08
1.56536e-08
1.4593e-08
1.419e-08
1.38719e-08
1.30234e-08
1.27477e-08
7.56002e-06
3.01627e-06
1.22174e-09
6.73868e-09
9.3158e-09
7.90315e-09
1.60086e-05
2.49748e-05
1.97081e-05
1.19025e-06
3.63985e-05
3.7484e-08
2.86346e-08
2.37754e-09
4.408e-09
5.70957e-09
5.15423e-09
4.70302e-09
5.10217e-09
1.58098e-07
1.59218e-05
6.74097e-08
2.07601e-08
5.74283e-09
2.87937e-09
2.89528e-09
3.3248e-09
2.04068e-06
9.12485e-06
3.63058e-06
4.31678e-05
1.10155e-05
2.95966e-06
3.49649e-06
3.51824e-06
3.3913e-06
3.33117e-06
3.30274e-06
3.22426e-06
3.04907e-06
2.75142e-06
2.72133e-06
5.66424e-07
4.43507e-07
3.72033e-07
3.31682e-07
3.02245e-07
2.90555e-07
3.00559e-07
3.27733e-07
3.40384e-07
5.84805e-05
6.74303e-06
9.36545e-06
7.10018e-06
5.84071e-06
4.91152e-06
3.76032e-06
1.53765e-06
1.65923e-06
3.92934e-06
2.88232e-07
1.0988e-07
9.76353e-08
9.19565e-08
8.88804e-08
8.47543e-08
8.21071e-08
7.841e-08
7.50677e-08
6.308e-08
6.25909e-08
5.33409e-08
5.1693e-08
4.66986e-08
4.4417e-08
4.25663e-08
4.11719e-08
3.94733e-08
1.3429e-07
3.43109e-06
9.76805e-06
2.52e-08
2.67307e-08
2.40687e-08
2.27377e-08
7.46547e-06
1.21577e-05
9.99028e-06
2.48917e-06
1.18863e-05
5.64451e-08
5.24508e-09
1.30733e-08
1.26986e-08
1.1693e-08
1.11606e-08
1.03324e-08
1.06676e-08
1.00958e-08
9.16479e-09
4.97935e-05
4.59978e-05
4.13479e-05
3.67972e-05
3.5131e-05
3.29152e-05
2.84362e-05
1.77206e-05
1.512e-06
2.39435e-05
5.00572e-08
2.5071e-08
4.17849e-09
3.82356e-09
3.8397e-09
3.77516e-09
3.8397e-09
3.5977e-09
3.56543e-09
1.91918e-06
4.03721e-08
8.87325e-09
5.44226e-09
2.80986e-09
2.72113e-09
2.61761e-09
5.27219e-06
6.96833e-06
2.23093e-06
2.5971e-05
0.000112731
1.76847e-05
1.6915e-05
1.57902e-05
1.54228e-05
1.48279e-05
1.36235e-05
1.18552e-05
9.67293e-06
7.16542e-06
2.26957e-06
3.62951e-09
2.72419e-08
1.33364e-07
2.38475e-07
2.83267e-07
2.79658e-07
2.64377e-07
2.75781e-07
3.28947e-07
0.000200859
0.000127996
6.9861e-05
3.99248e-05
2.25409e-05
1.2734e-05
6.6198e-06
1.6781e-06
3.63918e-06
6.99707e-06
1.54503e-07
8.99954e-08
7.402e-08
6.62661e-08
6.45613e-08
6.35439e-08
6.20179e-08
5.99282e-08
5.7536e-08
4.88258e-08
7.43132e-08
3.21942e-08
3.80156e-08
3.52817e-08
3.29248e-08
3.14872e-08
3.03795e-08
1.67052e-07
1.92058e-07
2.02578e-06
3.94979e-05
3.0103e-05
1.97396e-05
1.58197e-05
1.51473e-05
1.44703e-05
1.25847e-05
8.25563e-06
2.11947e-06
6.94455e-06
4.26529e-08
3.66617e-09
9.55038e-09
9.51372e-09
8.94546e-09
8.68883e-09
8.24889e-09
7.9006e-09
7.69896e-09
6.887e-09
0.000218539
4.41e-05
8.04909e-05
7.07075e-05
5.52869e-05
4.14861e-05
2.95678e-05
1.61971e-05
1.70024e-06
1.67542e-05
5.53793e-08
1.80426e-08
5.32428e-09
2.87961e-09
3.14958e-09
3.23956e-09
3.13458e-09
3.01459e-09
3.13458e-09
2.8176e-09
8.98339e-09
9.76118e-10
3.86323e-09
2.43342e-09
1.89724e-09
2.04847e-09
5.45003e-06
4.75694e-06
1.30497e-06
1.48977e-05
0.000411
3.58721e-05
4.72272e-05
5.04783e-05
4.6633e-05
3.90906e-05
3.03839e-05
2.17912e-05
1.36801e-05
5.84743e-06
9.93103e-06
2.99139e-06
1.73533e-06
1.0834e-06
8.73744e-07
7.77524e-07
6.31823e-07
3.4418e-07
1.63242e-07
9.52068e-07
0.000340755
0.000241777
0.000117497
6.12821e-05
3.09329e-05
1.5148e-05
6.33507e-06
1.58568e-07
6.53409e-06
1.11426e-05
2.02065e-08
7.0537e-08
5.60181e-08
4.59468e-08
4.2266e-08
4.15247e-08
4.1742e-08
4.20615e-08
4.24833e-08
3.36038e-08
1.83884e-05
1.40661e-08
2.52402e-08
2.03083e-07
1.59828e-06
2.43134e-06
2.49917e-06
1.67698e-06
2.95192e-07
1.77841e-06
3.99827e-05
4.51588e-05
3.53358e-05
2.64451e-05
2.01415e-05
1.53201e-05
1.11234e-05
6.56926e-06
1.76844e-06
4.12101e-06
3.02425e-08
2.31758e-09
6.59487e-09
6.98682e-09
6.68008e-09
6.20293e-09
5.75986e-09
5.7769e-09
5.65762e-09
4.87331e-09
0.000485982
1.57901e-05
8.47069e-05
8.37465e-05
6.42471e-05
4.5196e-05
2.95993e-05
1.52017e-05
1.84471e-06
1.27589e-05
4.80396e-08
9.23003e-09
4.36405e-09
2.92796e-09
2.37025e-09
2.17505e-09
1.9938e-09
2.35631e-09
2.42602e-09
2.15084e-09
1.57442e-08
2.53059e-09
2.41556e-09
1.80209e-09
2.07048e-09
3.64507e-08
3.00336e-06
2.35055e-06
6.34782e-07
7.21041e-06
0.00104188
0.000196583
0.000178992
0.000131998
9.06314e-05
5.90007e-05
3.56701e-05
1.82113e-05
4.18146e-06
8.51082e-06
3.05117e-05
2.92337e-06
3.49443e-06
3.77242e-06
3.35723e-06
2.41316e-06
1.11886e-06
4.70808e-07
2.44652e-06
4.79771e-06
0.000488193
0.000365556
0.000159466
7.5037e-05
3.31126e-05
1.32269e-05
3.32379e-06
3.02559e-06
1.04828e-05
1.64566e-05
3.60779e-08
4.80248e-08
4.25118e-08
3.15215e-08
2.40481e-08
1.84281e-08
1.48043e-08
1.32835e-08
1.33072e-08
2.11586e-08
5.90519e-05
3.53814e-05
2.04644e-05
1.32105e-05
8.97315e-06
6.19478e-06
4.07162e-06
2.13966e-06
3.27032e-07
1.58378e-06
2.93607e-05
3.72379e-05
3.07972e-05
2.29579e-05
1.66931e-05
1.18828e-05
8.03885e-06
4.54704e-06
1.30048e-06
2.26736e-06
1.8945e-08
1.18814e-09
4.03969e-09
4.43574e-09
4.73674e-09
3.91296e-09
4.02385e-09
3.78622e-09
3.15254e-09
2.79319e-09
0.000833737
0.000118774
6.22501e-05
8.02136e-05
6.37852e-05
4.42945e-05
2.79952e-05
1.40326e-05
1.87131e-06
1.0282e-05
2.78531e-08
2.1257e-09
2.7997e-09
1.80166e-09
1.25727e-09
1.74981e-09
1.59427e-09
1.65908e-09
1.011e-09
1.87734e-09
2.43679e-08
2.20995e-09
4.03969e-10
1.31884e-09
1.18814e-09
1.16438e-09
6.77243e-10
2.77349e-07
1.80325e-07
2.06315e-06
0.00527617
0.000106547
7.9092e-05
4.18986e-05
1.6792e-05
1.81094e-06
7.16267e-06
1.32784e-05
1.87389e-05
2.48433e-05
3.16113e-05
2.39799e-05
1.79198e-05
1.22842e-05
7.41667e-06
3.40856e-06
1.11669e-08
3.16633e-06
6.57097e-06
1.01708e-05
0.000554063
0.00045988
0.000178431
7.4921e-05
2.79046e-05
7.89621e-06
6.42949e-07
5.47586e-06
1.18221e-05
1.82504e-05
4.04123e-08
2.28419e-08
2.87291e-08
2.34494e-08
1.58391e-08
6.40634e-09
2.80554e-09
1.35196e-08
2.48522e-08
4.73631e-08
5.07014e-05
3.4256e-05
1.93647e-05
1.20513e-05
7.73771e-06
4.9902e-06
3.06347e-06
1.53637e-06
2.25724e-07
1.05216e-06
1.65981e-05
2.00012e-05
1.69786e-05
1.26926e-05
9.10064e-06
6.31481e-06
4.14024e-06
2.30241e-06
6.90609e-07
9.87695e-07
1.33091e-08
4.56544e-10
1.64945e-09
2.26799e-09
2.51835e-09
2.17963e-09
2.75399e-09
1.89981e-09
2.13545e-09
2.17689e-09
0.00106753
0.000215279
2.0794e-05
5.79531e-05
5.00161e-05
3.51949e-05
2.19888e-05
1.09239e-05
1.44422e-06
7.6394e-06
6.1865e-09
1.48209e-09
8.43468e-10
1.08446e-09
1.54234e-09
7.8322e-10
9.51914e-10
7.35022e-10
7.47072e-10
9.03066e-10
1.25296e-06
7.93735e-07
1.4359e-10
4.41817e-10
5.3018e-10
4.99661e-07
8.15649e-07
3.93603e-07
1.71193e-07
1.21983e-06
0.00349805
0.000573626
0.000386032
0.000260676
0.000182775
0.000125668
7.98159e-05
4.23408e-05
1.14756e-06
3.29079e-05
2.64308e-05
1.4477e-05
6.81714e-06
1.32435e-06
1.79656e-06
3.52531e-06
4.62849e-06
5.58295e-06
6.62647e-06
7.23926e-06
0.000286855
0.000371897
0.000124402
4.57153e-05
1.28754e-05
3.4856e-07
4.26624e-06
6.70826e-06
1.04522e-05
1.50995e-05
5.19841e-08
1.00115e-08
1.20959e-08
2.69335e-08
3.58566e-08
4.4256e-08
5.21625e-08
5.67421e-08
6.07159e-08
5.81909e-08
2.0724e-05
1.52464e-05
8.3476e-06
5.02841e-06
3.11262e-06
1.93159e-06
1.14044e-06
5.51016e-07
5.93913e-08
4.24785e-07
6.24016e-06
5.80157e-06
4.91637e-06
3.66461e-06
2.59962e-06
1.77005e-06
1.13105e-06
6.12858e-07
1.74123e-07
2.78387e-07
7.98098e-09
2.46437e-10
1.16373e-09
1.17742e-09
1.36909e-09
1.2048e-09
1.16373e-09
9.30984e-10
8.48839e-10
1.21017e-09
0.000714302
0.000178576
8.49658e-06
2.36175e-05
2.32742e-05
1.67839e-05
1.03892e-05
4.99562e-06
3.63384e-07
3.98976e-06
7.69302e-09
2.08351e-09
7.16908e-10
4.70471e-10
3.80857e-10
3.3605e-10
6.72101e-10
1.79227e-10
3.69656e-10
6.64186e-10
9.10552e-05
0.000129018
8.52323e-05
5.03696e-05
2.87218e-05
1.60994e-05
8.53587e-06
3.32341e-06
1.02041e-06
5.72516e-06
0.00736614
0.000675765
0.000506556
0.000383079
0.000288092
0.000213252
0.000153138
0.000104046
6.26437e-05
2.88763e-05
1.64791e-05
3.48145e-05
2.41868e-05
1.59896e-05
1.03775e-05
6.60359e-06
3.95718e-06
1.85673e-06
2.28424e-07
2.85175e-06
9.76457e-05
8.31568e-05
1.93348e-05
5.18821e-06
7.85572e-08
1.61286e-06
1.94487e-06
2.12102e-06
2.72717e-06
3.9886e-06
2.84482e-08
2.93339e-08
1.54927e-08
5.60332e-09
3.99964e-09
1.17603e-08
1.933e-08
2.82266e-08
3.40304e-08
4.2402e-08
1.69968e-06
1.76156e-06
9.16746e-07
5.28051e-07
3.10426e-07
1.79464e-07
9.54187e-08
3.61154e-08
1.53822e-08
7.50128e-08
7.81804e-07
4.3335e-07
3.5152e-07
2.54254e-07
1.72467e-07
1.10954e-07
6.32736e-08
2.71909e-08
5.02581e-09
4.1624e-08
2.60482e-09
7.50928e-10
3.43645e-10
1.78186e-10
4.70921e-10
2.29097e-10
2.16369e-10
2.92734e-10
2.92734e-10
5.34559e-10
5.34032e-05
2.86782e-05
2.87002e-06
2.29646e-06
2.5829e-06
1.82072e-06
9.98254e-07
2.92476e-07
3.29784e-07
9.2563e-07
1.20628e-08
1.04135e-10
2.0827e-10
1.04135e-10
1.56202e-10
3.12404e-11
6.24809e-11
4.58193e-10
2.3951e-10
8.33078e-11
0.000262502
0.000158035
9.29198e-05
5.22189e-05
2.85283e-05
1.49788e-05
6.93655e-06
1.6079e-06
2.77328e-06
7.27789e-06
0.528832
0.420868
0.53229
0.922997
0.688306
0.625626
0.741121
1.1184
0.850627
0.792359
0.938802
1.44267
0.6166
0.593141
0.702714
1.09976
0.449598
0.448239
0.532326
0.861979
0.296969
0.293612
0.364257
0.620008
0.196914
0.188098
0.251284
0.451613
0.126433
0.116713
0.167243
0.311652
0.0869627
0.0795314
0.120031
0.227116
0.0653964
0.0604287
0.0974499
0.184418
0.0360781
0.00180934
1.27235e-05
0.0191046
0.0787893
0.00654309
9.43328e-06
0.0410516
0.136791
0.0152203
5.06926e-06
0.0704876
0.12497
0.0170198
2.60267e-06
0.0603773
0.110048
0.0169573
1.33709e-06
0.0488414
0.0848829
0.0141687
6.84193e-07
0.037423
0.0637981
0.0109661
3.58139e-07
0.0302958
0.04572
0.00821875
2.06095e-07
0.0229042
0.0349916
0.0070061
0.00102173
0.0181107
0.0294041
0.00806428
0.00374055
0.0151806
0.0172449
0.0135411
0.014211
0.0197823
0.0388534
0.0267463
0.0262462
0.0409072
0.0750227
0.0487324
0.0492967
0.0797265
0.0710186
0.0430556
0.0446706
0.0749728
0.0649212
0.0369745
0.0394849
0.0698279
0.0516714
0.0278888
0.0305314
0.0564473
0.03998
0.0204581
0.0230342
0.0448539
0.0294204
0.0143149
0.0164557
0.0332458
0.0229462
0.0102374
0.0121554
0.0255238
0.0195545
0.00830052
0.0103301
0.0210669
0.00194511
0.00140186
0.00134885
0.00196292
0.00611643
0.00418654
0.00387294
0.00632839
0.0162454
0.0110145
0.010482
0.0166009
0.019023
0.0125432
0.0123847
0.0189565
0.0206431
0.0131302
0.0135681
0.0206833
0.018815
0.0115589
0.0123799
0.018949
0.0162249
0.00957115
0.0105917
0.0166017
0.013134
0.00747789
0.00847839
0.0134885
0.0109109
0.00570628
0.00677517
0.0110301
0.00965933
0.00495057
0.00632693
0.00985236
0.000620553
0.000576261
0.000605619
0.000823927
0.00227431
0.00210863
0.00236952
0.00341286
0.00609197
0.00574188
0.0064029
0.00889203
0.00727816
0.00653703
0.00704865
0.00958858
0.00834179
0.00710747
0.00760825
0.0103205
0.00806748
0.0065126
0.00699817
0.00946487
0.00735456
0.00561703
0.00611804
0.00834027
0.0063528
0.00460904
0.00509377
0.00695303
0.00567955
0.0037826
0.0043653
0.00593225
0.00541867
0.00359017
0.00444839
0.00569381
0.000117131
0.000107056
0.000106823
0.0001663
0.000768347
0.000722841
0.000846811
0.00123572
0.00245192
0.0024865
0.00298425
0.00410673
0.0030096
0.00304505
0.00353541
0.00470925
0.00356326
0.00353344
0.00402245
0.00529572
0.0035785
0.00342076
0.00384218
0.00500659
0.0033725
0.00309043
0.0034555
0.00447776
0.00308253
0.0026848
0.00299617
0.00384257
0.00296817
0.00237993
0.00273275
0.00340351
0.00293283
0.00231435
0.00281877
0.00329013
1.34564e-05
1.1099e-05
6.49807e-06
2.53206e-05
0.000271349
0.000251671
0.000301121
0.000459955
0.0011711
0.00119606
0.00147847
0.00206621
0.00148512
0.00156543
0.00189074
0.00252162
0.00178637
0.00190262
0.00226541
0.0029655
0.00182173
0.00191374
0.00224331
0.00289672
0.00171918
0.00177072
0.00205483
0.00262107
0.00162909
0.00160902
0.00184166
0.00231681
0.00164575
0.00151569
0.00174884
0.00209669
0.00163869
0.0014878
0.00178177
0.00200798
1.05105e-05
3.78023e-06
3.64635e-06
3.74631e-06
7.53336e-05
6.31978e-05
7.54538e-05
0.000129286
0.000534735
0.000527872
0.000658568
0.000945775
0.000750932
0.000791894
0.000968811
0.00130051
0.000946858
0.00102848
0.00124848
0.00163962
0.00100766
0.00109637
0.00131502
0.00170109
0.000953439
0.0010386
0.00123558
0.00156954
0.000934667
0.000988857
0.00115555
0.00144634
0.00093244
0.000940633
0.00108834
0.00128499
0.000943318
0.000950171
0.00112352
0.00125409
8.60139e-06
3.00662e-06
2.89734e-06
2.99899e-06
1.21286e-05
6.20061e-06
6.06368e-06
2.01329e-05
0.000231853
0.000209481
0.000261294
0.00040014
0.000374312
0.000388757
0.000477354
0.000646962
0.00049874
0.000544096
0.000666117
0.000879243
0.000569378
0.000627895
0.000760728
0.000988229
0.000543201
0.000608948
0.000733194
0.000929169
0.00055903
0.000613459
0.000725009
0.000907122
0.000530946
0.000568231
0.000657274
0.000773249
0.000559711
0.000605284
0.000708393
0.000790366
6.50005e-06
2.13961e-06
2.08095e-06
2.14003e-06
2.02318e-06
8.04837e-07
7.85866e-07
8.63285e-07
8.73068e-05
6.03174e-05
7.34462e-05
0.000137997
0.000180081
0.000180743
0.000221463
0.000304521
0.000253477
0.000274384
0.000337519
0.000449346
0.000316476
0.00034949
0.000425635
0.000556974
0.000300735
0.000343218
0.000415802
0.000525413
0.000333917
0.000373381
0.000444
0.000557498
0.000303622
0.000336805
0.000389438
0.000458746
0.000337982
0.000381756
0.00044343
0.000495681
5.80629e-06
1.96868e-06
1.86305e-06
1.93335e-06
1.67455e-06
5.85705e-07
5.75185e-07
6.39833e-07
2.21636e-05
2.5014e-07
2.41615e-07
2.17145e-05
8.24656e-05
7.7964e-05
9.45722e-05
0.000132698
0.000123702
0.000131182
0.000161896
0.000218776
0.000173847
0.000190375
0.000232698
0.000308211
0.000159567
0.000184475
0.000224486
0.000282275
0.000198606
0.000223343
0.00026684
0.000337793
0.000171553
0.000194056
0.000224393
0.000264857
0.000204792
0.000236943
0.000274215
0.000306842
1.75588e-06
5.19462e-07
5.30244e-07
6.69043e-07
1.241e-06
4.19078e-07
4.14078e-07
4.59318e-07
4.93437e-07
1.84305e-07
1.79342e-07
2.03518e-07
3.44399e-05
2.92436e-05
3.44805e-05
4.95263e-05
5.66384e-05
5.77678e-05
7.14357e-05
9.90426e-05
9.44019e-05
0.000101616
0.00012454
0.000167966
7.92371e-05
9.2922e-05
0.000113527
0.000141146
0.000118146
0.000132151
0.000158612
0.000203616
9.25152e-05
0.000105665
0.000122168
0.00014422
0.000122923
0.00014391
0.000166658
0.000186196
9.12172e-06
2.47891e-06
2.1456e-06
1.96415e-06
9.65899e-07
3.2661e-07
3.28287e-07
3.80358e-07
3.67882e-07