/*--------------------------------*- C++ -*----------------------------------*\
| =========                 |                                                 |
| \\      /  F ield         | foam-extend: Open Source CFD                    |
|  \\    /   O peration     | Version:     4.0                                |
|   \\  /    A nd           | Web:         http://www.foam-extend.org         |
|    \\/     M anipulation  |                                                 |
\*---------------------------------------------------------------------------*/
FoamFile
{
    version     2.0;
    format      ascii;
    class       surfaceScalarField;
    location    "2950";
    object      phi;
}
// * * * * * * * * * * * * * * * * * * * * * * * * * * * * * * * * * * * * * //

dimensions      [1 0 -1 0 0 0 0];

internalField   nonuniform List<scalar> 
97302
(
-0.000109786
9.51693e-07
-0.000869497
0.000878773
-0.0001196
1.14102e-06
-0.0008705
0.000879173
-0.000129523
1.20014e-06
-0.000871025
0.000879748
-0.000140125
1.13817e-06
-0.000871064
0.000880527
-0.000152232
9.46062e-07
-0.000870611
0.000881773
-0.000167325
6.13692e-07
-0.000869445
0.000883924
-0.000188496
1.14581e-07
-0.000866957
0.000888013
-0.000222747
-5.95577e-07
-0.000861331
0.000896178
-0.000271325
-1.63916e-06
-0.000851542
0.00090176
-4.39606e-06
-0.000824043
-0.000352996
0.00091011
-0.000150901
1.60319e-06
-0.00116596
0.00117606
-0.000161173
1.96545e-06
-0.00116691
0.00117636
-0.000171518
2.08398e-06
-0.0011675
0.00117697
-0.000182473
1.99201e-06
-0.00116753
0.00117763
-0.000194834
1.67455e-06
-0.00116673
0.00117836
-0.000210315
1.12034e-06
-0.00116472
0.0011797
-0.000232766
2.71773e-07
-0.00116113
0.00118342
-0.000271568
-9.66298e-07
-0.00115434
0.00119351
-0.00032835
-2.89684e-06
-0.00114203
0.00120007
-7.45971e-06
-0.00110414
-0.00043277
0.00121163
-0.000191208
1.89665e-06
-0.00146133
0.00147218
-0.000201778
2.39284e-06
-0.00146234
0.00147248
-0.000212297
2.57436e-06
-0.00146296
0.00147299
-0.000223274
2.49793e-06
-0.00146276
0.00147323
-0.000235634
2.14544e-06
-0.00146141
0.0014733
-0.000251511
1.5063e-06
-0.00145874
0.00147423
-0.000275388
5.01293e-07
-0.00145486
0.00147851
-0.000318359
-9.68022e-07
-0.00144829
0.00149126
-0.000381693
-3.35341e-06
-0.00143513
0.00149892
-9.13502e-06
-0.00138641
-0.000500693
0.00150709
-0.000231437
2.08615e-06
-0.00175271
0.00176398
-0.000242301
2.72206e-06
-0.00175394
0.00176448
-0.000253115
2.98233e-06
-0.00175482
0.00176523
-0.000264406
2.94676e-06
-0.00175482
0.00176566
-0.000277164
2.58661e-06
-0.00175364
0.00176596
-0.000293713
1.8931e-06
-0.00175121
0.00176737
-0.000318864
7.63917e-07
-0.00174765
0.00177254
-0.00036497
-8.92512e-07
-0.00174142
0.00178745
-0.000432991
-3.67984e-06
-0.00172781
0.00179616
-1.06291e-05
-0.00166796
-0.000560755
0.00179722
-0.000271568
2.31884e-06
-0.00204524
0.00205669
-0.000282602
3.02406e-06
-0.00204685
0.00205758
-0.000293585
3.32211e-06
-0.00204823
0.00205887
-0.000305071
3.3028e-06
-0.0020487
0.00205983
-0.000318118
2.93515e-06
-0.00204805
0.00206075
-0.000335169
2.21005e-06
-0.00204624
0.00206298
-0.000361326
1.01092e-06
-0.00204332
0.00206924
-0.000409968
-7.46138e-07
-0.00203779
0.00208628
-0.000481932
-3.81478e-06
-0.00202453
0.00209663
-1.18636e-05
-0.00195288
-0.000615169
0.00208735
-0.000312271
2.40452e-06
-0.00233637
0.00234812
-0.000323408
3.13532e-06
-0.00233843
0.00234946
-0.000334459
3.42121e-06
-0.0023402
0.00235116
-0.000346003
3.37423e-06
-0.00234109
0.00235256
-0.00035915
2.97232e-06
-0.00234096
0.00235407
-0.000376428
2.21523e-06
-0.00233991
0.00235718
-0.000403211
9.8508e-07
-0.00233792
0.00236472
-0.000453747
-7.84342e-07
-0.00233348
0.00238406
-0.000529016
-3.91244e-06
-0.00232173
0.0023971
-1.28332e-05
-0.00223797
-0.000665773
0.0023757
-0.000352796
2.38383e-06
-0.00262733
0.0026392
-0.000363875
3.02237e-06
-0.00262998
0.00264118
-0.00037485
3.23741e-06
-0.00263232
0.00264348
-0.000386303
3.10449e-06
-0.00263367
0.0026454
-0.000399399
2.62848e-06
-0.00263412
0.00264756
-0.000416696
1.80198e-06
-0.00263388
0.00265159
-0.000443818
5.61155e-07
-0.00263302
0.00266057
-0.000495694
-1.10957e-06
-0.00263019
0.00268239
-0.000573748
-3.86123e-06
-0.0026211
0.0026991
-1.29896e-05
-0.002525
-0.00071251
0.00266392
-0.000394592
2.02487e-06
-0.00291886
0.00293116
-0.000405723
2.47418e-06
-0.00292211
0.00293379
-0.000416697
2.50282e-06
-0.00292456
0.00293627
-0.000428101
2.16403e-06
-0.00292585
0.0029382
-0.000441061
1.49395e-06
-0.0029262
0.00294029
-0.000458083
4.90666e-07
-0.00292612
0.00294445
-0.000484931
-8.17595e-07
-0.00292596
0.00295419
-0.000536998
-2.36003e-06
-0.00292457
0.00297789
-0.000616519
-4.14951e-06
-0.00291883
0.00299864
-1.21413e-05
-0.00281223
-0.00075568
0.00295055
-0.000435788
1.0684e-06
-0.00320674
0.00321918
-0.000446493
1.13586e-06
-0.00321085
0.00322289
-0.000457073
8.44928e-07
-0.00321391
0.00322615
-0.000468173
1.11337e-07
-0.00321582
0.00322898
-0.000480963
-9.48126e-07
-0.00321695
0.00323219
-0.000497827
-2.3082e-06
-0.00321788
0.00323755
-0.000524529
-3.78324e-06
-0.00321913
0.0032488
-0.000576323
-5.09816e-06
-0.00322004
0.00327457
-0.000655776
-5.5057e-06
-0.00321668
0.00329749
-1.01952e-05
-0.00309932
-0.000792426
0.00323402
-0.000477199
-0.00347532
0.00348833
-0.000488545
-0.00347892
0.0034914
-0.000499733
-0.00347963
0.00349166
-0.000511446
-0.00347707
0.00348889
-0.000524721
-0.00347191
0.00348424
-0.000541688
-0.00346522
0.00347987
-0.000567579
-0.00345815
0.00348026
-0.000616584
-0.00345221
0.00349612
-0.000689675
-0.0034486
0.00351618
-0.00333961
-0.000818674
0.00345842
1.43957e-05
8.89026e-07
-0.000861041
5.31244e-06
1.11366e-06
-0.00086253
-3.79161e-06
1.19438e-06
-0.000863115
-1.31001e-05
1.13671e-06
-0.000862892
-2.28124e-05
9.30705e-07
-0.00086183
-3.31465e-05
5.5803e-07
-0.000859669
-4.42496e-05
-1.54636e-08
-0.000855839
-5.55407e-05
-8.68567e-07
-0.000849171
-6.62354e-05
-2.19717e-06
-0.00083865
-3.96819e-06
-0.000822397
-6.39127e-05
1.54089e-05
1.51392e-06
-0.00115611
5.39048e-06
1.93015e-06
-0.00115771
-4.61747e-06
2.08384e-06
-0.00115839
-1.49324e-05
2.00461e-06
-0.00115808
-2.58193e-05
1.67057e-06
-0.00115658
-3.7641e-05
1.05945e-06
-0.0011534
-5.12338e-05
1.09476e-07
-0.00114766
-6.76413e-05
-1.29552e-06
-0.0011375
-8.82616e-05
-3.5426e-06
-0.00112007
-6.60867e-06
-0.00109112
-9.86423e-05
1.67379e-05
1.82483e-06
-0.00145028
6.00704e-06
2.38883e-06
-0.00145207
-4.63112e-06
2.61234e-06
-0.00145285
-1.55086e-05
2.55008e-06
-0.00145243
-2.69631e-05
2.16892e-06
-0.00145045
-3.97283e-05
1.44524e-06
-0.00144636
-5.55499e-05
2.87069e-07
-0.00143922
-7.71568e-05
-1.42754e-06
-0.00142655
-0.000108636
-4.28342e-06
-0.00140291
-8.39576e-06
-0.00135938
-0.000133882
1.79544e-05
2.03309e-06
-0.00174097
6.73996e-06
2.7544e-06
-0.00174309
-4.38352e-06
3.06539e-06
-0.00174415
-1.58115e-05
3.04928e-06
-0.00174389
-2.79997e-05
2.65867e-06
-0.00174194
-4.19399e-05
1.872e-06
-0.0017377
-5.99425e-05
5.56602e-07
-0.00172991
-8.61301e-05
-1.40112e-06
-0.00171526
-0.000128053
-4.79438e-06
-0.00168538
-9.90568e-06
-0.00162551
-0.000168998
1.90694e-05
2.27936e-06
-0.0020331
7.56853e-06
3.07935e-06
-0.00203567
-3.83544e-06
3.4342e-06
-0.00203719
-1.5599e-05
3.44035e-06
-0.00203733
-2.83157e-05
3.04638e-06
-0.00203572
-4.31632e-05
2.23015e-06
-0.00203175
-6.29175e-05
8.19957e-07
-0.00202383
-9.29969e-05
-1.28813e-06
-0.00200782
-0.000144892
-5.07605e-06
-0.00197236
-1.10639e-05
-0.00189522
-0.000201392
1.97736e-05
2.39772e-06
-0.00232381
8.09555e-06
3.23238e-06
-0.00232691
-3.43912e-06
3.58275e-06
-0.00232882
-1.53454e-05
3.57157e-06
-0.00232932
-2.83369e-05
3.15441e-06
-0.00232808
-4.37547e-05
2.31907e-06
-0.00232458
-6.48033e-05
8.73935e-07
-0.00231692
-9.80695e-05
-1.27488e-06
-0.00230023
-0.000159356
-5.2086e-06
-0.00226031
-1.18828e-05
-0.00216571
-0.000230799
2.0186e-05
2.3688e-06
-0.0026145
8.53072e-06
3.10963e-06
-0.00261821
-2.95371e-06
3.39447e-06
-0.00262065
-1.47989e-05
3.3101e-06
-0.00262157
-2.78485e-05
2.85158e-06
-0.00262077
-4.3554e-05
1.98953e-06
-0.00261785
-6.54985e-05
5.48514e-07
-0.00261075
-0.000101308
-1.56522e-06
-0.00259409
-0.000171275
-5.24591e-06
-0.00255109
-1.22484e-05
-0.00243911
-0.000256801
1.99277e-05
2.03392e-06
-0.00290561
8.27075e-06
2.58925e-06
-0.00290993
-3.10716e-06
2.71804e-06
-0.0029125
-1.47854e-05
2.48053e-06
-0.00291335
-2.76628e-05
1.90763e-06
-0.00291238
-4.32647e-05
9.66322e-07
-0.0029095
-6.54741e-05
-4.35694e-07
-0.00290277
-0.000102751
-2.40744e-06
-0.00288645
-0.000180119
-5.22066e-06
-0.00284148
-1.1899e-05
-0.00271328
-0.000279418
1.93975e-05
1.07394e-06
-0.00319322
8.21039e-06
1.21883e-06
-0.00319829
-2.66293e-06
1.05881e-06
-0.00320138
-1.38331e-05
4.74219e-07
-0.00320265
-2.63531e-05
-4.03955e-07
-0.00320212
-4.18591e-05
-1.58506e-06
-0.00319983
-6.44382e-05
-3.01065e-06
-0.00319398
-0.00010304
-4.67523e-06
-0.00317917
-0.000186368
-6.14899e-06
-0.00313242
-1.00752e-05
-0.00298565
-0.00030186
1.82421e-05
-0.00346152
6.80353e-06
-0.00346626
-4.11897e-06
-0.00346765
-1.52137e-05
-0.0034655
-2.7421e-05
-0.00346011
-4.23451e-05
-0.00345188
-6.39064e-05
-0.0034396
-0.000101289
-0.00341951
-0.000186016
-0.00337002
-0.0032157
-0.000320006
1.20259e-05
7.77664e-07
-0.000854369
4.42317e-06
1.0177e-06
-0.000855945
-3.29476e-06
1.10571e-06
-0.000856503
-1.10379e-05
1.04125e-06
-0.00085619
-1.86828e-05
8.17757e-07
-0.000855003
-2.59847e-05
4.19428e-07
-0.000852786
-3.23916e-05
-1.7575e-07
-0.000849256
-3.65994e-05
-1.00569e-06
-0.000843958
-3.67275e-05
-2.15414e-06
-0.000836368
-3.43233e-06
-0.000826722
-2.89702e-05
1.3878e-05
1.36212e-06
-0.0011476
4.85239e-06
1.80226e-06
-0.00114947
-4.23422e-06
1.96532e-06
-0.00115016
-1.34727e-05
1.87465e-06
-0.00114968
-2.28693e-05
1.50876e-06
-0.00114788
-3.2273e-05
8.43088e-07
-0.00114442
-4.12831e-05
-1.7581e-07
-0.00113865
-4.87474e-05
-1.62043e-06
-0.00112942
-5.22014e-05
-3.70585e-06
-0.00111506
-6.12795e-06
-0.00109587
-4.47546e-05
1.59824e-05
1.70836e-06
-0.00144012
5.7802e-06
2.30344e-06
-0.00144237
-4.4165e-06
2.537e-06
-0.00144323
-1.4803e-05
2.45676e-06
-0.00144262
-2.54748e-05
2.02474e-06
-0.0014403
-3.64948e-05
1.20571e-06
-0.00143571
-4.7977e-05
-9.51916e-08
-0.00142782
-5.94529e-05
-1.97576e-06
-0.00141472
-6.8512e-05
-4.84589e-06
-0.00139271
-8.36577e-06
-0.00136071
-6.49449e-05
1.76322e-05
1.96722e-06
-0.00172977
6.64082e-06
2.7307e-06
-0.00173253
-4.34196e-06
3.05384e-06
-0.00173368
-1.5627e-05
3.01515e-06
-0.00173316
-2.74601e-05
2.56056e-06
-0.00173064
-4.01709e-05
1.65239e-06
-0.00172543
-5.43203e-05
1.42644e-07
-0.001716
-7.01002e-05
-2.08934e-06
-0.00169937
-8.58011e-05
-5.706e-06
-0.00166882
-1.03347e-05
-0.00162111
-8.82321e-05
1.90373e-05
2.25871e-06
-0.00202122
7.53708e-06
3.10767e-06
-0.00202455
-3.93399e-06
3.47867e-06
-0.00202615
-1.57947e-05
3.46346e-06
-0.00202591
-2.84701e-05
3.00312e-06
-0.00202349
-4.25424e-05
2.05574e-06
-0.00201808
-5.90247e-05
4.18183e-07
-0.00200763
-7.89061e-05
-2.0584e-06
-0.00198797
-0.000101936
-6.30177e-06
-0.00194873
-1.19701e-05
-0.0018834
-0.000112116
1.99753e-05
2.42607e-06
-0.00231133
8.13826e-06
3.31408e-06
-0.00231527
-3.61585e-06
3.68522e-06
-0.00231727
-1.57999e-05
3.66011e-06
-0.00231733
-2.89967e-05
3.18231e-06
-0.00231506
-4.40384e-05
2.21847e-06
-0.0023097
-6.24246e-05
5.35306e-07
-0.00229865
-8.60491e-05
-2.0394e-06
-0.00227662
-0.000116871
-6.63823e-06
-0.00222916
-1.31801e-05
-0.00214515
-0.000136227
2.05273e-05
2.42052e-06
-0.00260159
8.60975e-06
3.21463e-06
-0.00260619
-3.18675e-06
3.52615e-06
-0.00260869
-1.54208e-05
3.44122e-06
-0.00260911
-2.88415e-05
2.94661e-06
-0.00260711
-4.4491e-05
1.99616e-06
-0.00260197
-6.43533e-05
3.54302e-07
-0.00259071
-9.12585e-05
-2.20169e-06
-0.00256702
-0.000129976
-6.76614e-06
-0.00251225
-1.39491e-05
-0.00240905
-0.000159273
2.03511e-05
2.09691e-06
-0.00289221
8.40321e-06
2.70171e-06
-0.00289747
-3.30971e-06
2.87392e-06
-0.00290014
-1.54092e-05
2.67681e-06
-0.00290048
-2.87392e-05
2.12623e-06
-0.00289823
-4.4531e-05
1.17551e-06
-0.00289288
-6.52374e-05
-3.2727e-07
-0.00288138
-9.45838e-05
-2.64753e-06
-0.00285666
-0.000140685
-6.40224e-06
-0.00279575
-1.3738e-05
-0.0026736
-0.000180578
1.9738e-05
1.15075e-06
-0.0031795
8.24289e-06
1.3281e-06
-0.00318542
-2.96984e-06
1.24793e-06
-0.00318854
-1.45265e-05
7.72659e-07
-0.00318918
-2.74287e-05
2.58401e-08
-0.00318712
-4.31508e-05
-1.01351e-06
-0.00318191
-6.46507e-05
-2.33686e-06
-0.00317047
-9.64406e-05
-4.09057e-06
-0.00314594
-0.000148897
-6.37118e-06
-0.00308
-1.15129e-05
-0.00293619
-0.000200578
1.85759e-05
-0.00344765
6.99876e-06
-0.00345336
-4.10578e-06
-0.00345529
-1.54476e-05
-0.00345339
-2.79187e-05
-0.00344761
-4.30036e-05
-0.0034378
-6.37008e-05
-0.00342124
-9.54116e-05
-0.00339189
-0.00015068
-0.00332112
-0.00316254
-0.000215349
9.33367e-06
6.08753e-07
-0.000849538
3.46344e-06
8.5228e-07
-0.000850927
-2.58791e-06
9.44395e-07
-0.000851396
-8.54704e-06
8.78322e-07
-0.000851109
-1.41072e-05
6.5266e-07
-0.000850095
-1.88457e-05
2.58526e-07
-0.000848306
-2.21201e-05
-3.11022e-07
-0.000845671
-2.28923e-05
-1.05817e-06
-0.000842127
-1.95793e-05
-1.97937e-06
-0.000837702
-2.86303e-06
-0.000832856
-1.05823e-05
1.17248e-05
1.11603e-06
-0.00114077
4.1069e-06
1.5664e-06
-0.00114257
-3.63965e-06
1.73466e-06
-0.0011432
-1.13772e-05
1.63654e-06
-0.0011427
-1.88897e-05
1.25486e-06
-0.00114097
-2.57879e-05
5.71607e-07
-0.00113784
-3.13125e-05
-4.44713e-07
-0.00113299
-3.39459e-05
-1.81625e-06
-0.00112603
-3.08494e-05
-3.60305e-06
-0.00111654
-5.41808e-06
-0.00110602
-1.81518e-05
1.44341e-05
1.48721e-06
-0.00143135
5.25738e-06
2.09872e-06
-0.00143372
-3.98595e-06
2.33515e-06
-0.00143459
-1.32964e-05
2.23436e-06
-0.00143391
-2.25677e-05
1.76007e-06
-0.00143153
-3.15049e-05
8.77583e-07
-0.00142707
-3.94303e-05
-4.9053e-07
-0.00141985
-4.47344e-05
-2.39705e-06
-0.00140883
-4.3491e-05
-5.03605e-06
-0.00139252
-7.8932e-06
-0.00137302
-2.87078e-05
1.65211e-05
1.79864e-06
-0.00171967
6.22575e-06
2.59118e-06
-0.00172273
-4.13285e-06
2.9181e-06
-0.00172391
-1.4692e-05
2.84892e-06
-0.00172322
-2.54968e-05
2.33e-06
-0.00172041
-3.64585e-05
1.31939e-06
-0.00171491
-4.71094e-05
-3.1897e-07
-0.00170552
-5.58656e-05
-2.67746e-06
-0.00169033
-5.78753e-05
-6.17826e-06
-0.00166566
-1.01734e-05
-0.00163382
-4.28842e-05
1.82719e-05
2.14115e-06
-0.00201014
7.19078e-06
3.02848e-06
-0.0020139
-3.92252e-06
3.40712e-06
-0.00201552
-1.53443e-05
3.35857e-06
-0.002015
-2.73116e-05
2.82234e-06
-0.00201201
-3.99858e-05
1.74717e-06
-0.00200584
-5.32041e-05
-6.76554e-08
-0.00199466
-6.55998e-05
-2.768e-06
-0.00197548
-7.19267e-05
-7.05484e-06
-0.00194153
-1.21924e-05
-0.00189468
-5.86282e-05
1.95044e-05
2.36871e-06
-0.0022994
7.87318e-06
3.30118e-06
-0.00230392
-3.73276e-06
3.68477e-06
-0.00230594
-1.57157e-05
3.63235e-06
-0.00230562
-2.84893e-05
3.08102e-06
-0.00230255
-4.24905e-05
1.98312e-06
-0.00229593
-5.79591e-05
9.43523e-08
-0.00228334
-7.39575e-05
-2.78335e-06
-0.00226061
-8.5526e-05
-7.60716e-06
-0.00221704
-1.37667e-05
-0.0021533
-7.58003e-05
2.02609e-05
2.40722e-06
-0.00258903
8.39417e-06
3.24732e-06
-0.00259427
-3.4014e-06
3.57665e-06
-0.00259679
-1.56063e-05
3.47557e-06
-0.00259675
-2.88218e-05
2.92162e-06
-0.00259374
-4.37449e-05
1.85702e-06
-0.00258692
-6.10761e-05
2.20048e-08
-0.0025733
-8.04485e-05
-2.86681e-06
-0.00254757
-9.78696e-05
-7.85527e-06
-0.00249458
-1.48966e-05
-0.00241266
-9.31305e-05
2.02411e-05
2.1119e-06
-0.00287906
8.2715e-06
2.7594e-06
-0.00288501
-3.51522e-06
2.96175e-06
-0.00288774
-1.56847e-05
2.78382e-06
-0.00288762
-2.89512e-05
2.22356e-06
-0.00288426
-4.42604e-05
1.22629e-06
-0.00287694
-6.28401e-05
-4.01429e-07
-0.00286237
-8.50383e-05
-3.02072e-06
-0.00283431
-0.000108507
-7.33068e-06
-0.0027728
-1.48307e-05
-0.00267209
-0.00011009
1.96934e-05
1.19968e-06
-0.00316593
8.11853e-06
1.40484e-06
-0.00317249
-3.22937e-06
1.38959e-06
-0.00317562
-1.49165e-05
9.99299e-07
-0.00317571
-2.77958e-05
3.45864e-07
-0.00317236
-4.30467e-05
-6.07614e-07
-0.00316483
-6.25185e-05
-1.89517e-06
-0.00314951
-8.767e-05
-3.75203e-06
-0.00312006
-0.000117052
-6.4958e-06
-0.00305145
-1.22158e-05
-0.00292921
-0.000126645
1.86061e-05
-0.00343398
7.07066e-06
-0.00344042
-4.05815e-06
-0.00344278
-1.54504e-05
-0.00344099
-2.78757e-05
-0.00343484
-4.25532e-05
-0.00342373
-6.14333e-05
-0.00340425
-8.70674e-05
-0.00337
-0.000119682
-0.003295
-0.00315504
-0.000139403
6.84916e-06
4.23732e-07
-0.000846192
2.57469e-06
6.54314e-07
-0.000847307
-1.89888e-06
7.45002e-07
-0.000847667
-6.24117e-06
6.82667e-07
-0.00084745
-1.01075e-05
4.70837e-07
-0.0008467
-1.30929e-05
1.08612e-07
-0.000845429
-1.47038e-05
-3.95588e-07
-0.000843664
-1.43362e-05
-1.02047e-06
-0.000841475
-1.13196e-05
-1.72032e-06
-0.000838998
-2.32867e-06
-0.000836483
-5.36402e-06
9.38712e-06
8.21669e-07
-0.00113556
3.29718e-06
1.26132e-06
-0.00113709
-2.9688e-06
1.428e-06
-0.00113762
-9.13088e-06
1.32887e-06
-0.00113718
-1.48465e-05
9.52526e-07
-0.00113573
-1.96462e-05
2.92282e-07
-0.00113322
-2.28143e-05
-6.5693e-07
-0.00112956
-2.32474e-05
-1.87325e-06
-0.00112474
-1.92824e-05
-3.31357e-06
-0.00111891
-4.63238e-06
-0.00111323
-9.7644e-06
1.24559e-05
1.1875e-06
-0.00142418
4.59114e-06
1.79561e-06
-0.00142639
-3.40658e-06
2.02857e-06
-0.00142719
-1.13544e-05
1.91223e-06
-0.00142654
-1.89771e-05
1.41559e-06
-0.00142437
-2.58026e-05
5.14123e-07
-0.00142047
-3.09547e-05
-8.38499e-07
-0.00141451
-3.28544e-05
-2.64454e-06
-0.00140616
-2.86145e-05
-4.92408e-06
-0.00139515
-7.14041e-06
-0.00138374
-1.53859e-05
1.48905e-05
1.53328e-06
-0.00171098
5.63893e-06
2.33877e-06
-0.00171402
-3.75174e-06
2.664e-06
-0.00171515
-1.32152e-05
2.56646e-06
-0.00171441
-2.25873e-05
1.99749e-06
-0.00171162
-3.15025e-05
9.21581e-07
-0.0017064
-3.90682e-05
-7.63851e-07
-0.00169803
-4.33523e-05
-3.10096e-06
-0.00168559
-4.00334e-05
-6.26972e-06
-0.00166764
-9.53707e-06
-0.00164761
-2.38428e-05
1.69727e-05
1.9188e-06
-0.00200021
6.66646e-06
2.8324e-06
-0.00200409
-3.74492e-06
3.21383e-06
-0.00200566
-1.43387e-05
3.13066e-06
-0.00200497
-2.5121e-05
2.52509e-06
-0.00200176
-3.59145e-05
1.3464e-06
-0.00199547
-4.59411e-05
-5.76239e-07
-0.00198482
-5.30691e-05
-3.3457e-06
-0.00196811
-5.16608e-05
-7.37616e-06
-0.00194183
-1.17703e-05
-0.00191047
-3.36386e-05
1.85159e-05
2.20685e-06
-0.00228843
7.43002e-06
3.17578e-06
-0.00229317
-3.70338e-06
3.56771e-06
-0.00229516
-1.51054e-05
3.48413e-06
-0.00229457
-2.69533e-05
2.85972e-06
-0.00229103
-3.93134e-05
1.64048e-06
-0.00228387
-5.16591e-05
-3.99075e-07
-0.00227118
-6.18719e-05
-3.43169e-06
-0.00225031
-6.3368e-05
-8.12175e-06
-0.00221479
-1.35878e-05
-0.00216984
-4.50067e-05
1.95094e-05
2.30254e-06
-0.00257721
8.00646e-06
3.18486e-06
-0.00258277
-3.49318e-06
3.52922e-06
-0.00258525
-1.53157e-05
3.40758e-06
-0.00258485
-2.78318e-05
2.78975e-06
-0.00258115
-4.13656e-05
1.6092e-06
-0.00257336
-5.57438e-05
-3.89053e-07
-0.00255894
-6.90373e-05
-3.47945e-06
-0.00253423
-7.42164e-05
-8.48655e-06
-0.00248903
-1.49512e-05
-0.00242865
-5.68548e-05
1.96923e-05
2.04654e-06
-0.00286651
7.9813e-06
2.73752e-06
-0.00287285
-3.61876e-06
2.96577e-06
-0.00287557
-1.55464e-05
2.79865e-06
-0.00287509
-2.8298e-05
2.21742e-06
-0.00287094
-4.2452e-05
1.15886e-06
-0.00286234
-5.83086e-05
-5.89019e-07
-0.00284632
-7.4392e-05
-3.40839e-06
-0.0028183
-8.38712e-05
-7.91068e-06
-0.0027639
-1.50075e-05
-0.00268686
-6.9045e-05
1.92697e-05
1.1997e-06
-0.00315284
7.86647e-06
1.43343e-06
-0.00315978
-3.38699e-06
1.47505e-06
-0.00316288
-1.49378e-05
1.15381e-06
-0.00316252
-2.74304e-05
5.70624e-07
-0.00315822
-4.16494e-05
-3.27247e-07
-0.00314912
-5.8393e-05
-1.60667e-06
-0.00313174
-7.72893e-05
-3.53828e-06
-0.00310103
-9.15604e-05
-6.47537e-06
-0.00303862
-1.2078e-05
-0.00294222
-8.14822e-05
1.82915e-05
-0.00342081
7.00155e-06
-0.00342769
-3.96647e-06
-0.00343033
-1.51895e-05
-0.00342862
-2.72614e-05
-0.0034222
-4.10524e-05
-0.00341027
-5.75076e-05
-0.0033894
-7.70926e-05
-0.00335396
-9.41522e-05
-0.00328442
-0.00317041
-9.08525e-05
4.81643e-06
2.50757e-07
-0.000843933
1.84256e-06
4.55432e-07
-0.000844788
-1.31468e-06
5.39784e-07
-0.00084505
-4.3463e-06
4.85248e-07
-0.000844903
-6.94564e-06
2.99231e-07
-0.0008444
-8.79006e-06
-1.32664e-08
-0.000843572
-9.55037e-06
-4.33953e-07
-0.00084247
-8.91207e-06
-9.30852e-07
-0.000841182
-6.64592e-06
-1.44756e-06
-0.000839816
-1.86604e-06
-0.000838417
-2.84597e-06
7.16924e-06
5.20485e-07
-0.00113173
2.51916e-06
9.28704e-07
-0.00113291
-2.32273e-06
1.08671e-06
-0.00113333
-7.02499e-06
9.93457e-07
-0.00113299
-1.1215e-05
6.43119e-07
-0.00113189
-1.44513e-05
4.01939e-08
-0.00113004
-1.61746e-05
-7.98777e-07
-0.00112747
-1.57043e-05
-1.82545e-06
-0.00112432
-1.22592e-05
-2.95143e-06
-0.00112085
-3.90764e-06
-0.00111779
-5.6521e-06
1.03344e-05
8.48221e-07
-0.00141854
3.86885e-06
1.42933e-06
-0.00142043
-2.77481e-06
1.6515e-06
-0.00142111
-9.29145e-06
1.52798e-06
-0.00142056
-1.53073e-05
1.03465e-06
-0.00141875
-2.03022e-05
1.61423e-07
-0.0014156
-2.34788e-05
-1.10383e-06
-0.00141103
-2.36622e-05
-2.72154e-06
-0.00140508
-1.91471e-05
-4.61244e-06
-0.001398
-6.31291e-06
-0.00139139
-9.09064e-06
1.29532e-05
1.19964e-06
-0.00170381
4.94838e-06
1.99582e-06
-0.00170658
-3.26104e-06
2.31269e-06
-0.0017076
-1.14352e-05
2.1943e-06
-0.0017069
-1.92469e-05
1.60017e-06
-0.00170437
-2.61813e-05
5.08713e-07
-0.00169982
-3.12794e-05
-1.13852e-06
-0.0016929
-3.28877e-05
-3.33058e-06
-0.00168337
-2.80245e-05
-6.07374e-06
-0.00167104
-8.68525e-06
-0.00165872
-1.45454e-05
1.52829e-05
1.60948e-06
-0.00199166
6.0155e-06
2.53008e-06
-0.00199536
-3.42932e-06
2.90815e-06
-0.00199681
-1.2932e-05
2.7953e-06
-0.00199607
-2.22881e-05
2.1405e-06
-0.00199294
-3.10799e-05
9.02649e-07
-0.00198707
-3.82934e-05
-1.04147e-06
-0.0019777
-4.18769e-05
-3.73491e-06
-0.00196412
-3.73981e-05
-7.34517e-06
-0.00194504
-1.09851e-05
-0.0019247
-2.08734e-05
1.71002e-05
1.94798e-06
-0.00227867
6.8478e-06
2.93855e-06
-0.00228333
-3.53055e-06
3.33353e-06
-0.00228521
-1.40554e-05
3.22053e-06
-0.00228447
-2.46645e-05
2.53664e-06
-0.00228082
-3.51117e-05
1.231e-06
-0.00227375
-4.44662e-05
-8.7953e-07
-0.00226198
-5.04417e-05
-3.9123e-06
-0.00224416
-4.72132e-05
-8.23807e-06
-0.00221713
-1.2908e-05
-0.00218662
-2.85174e-05
1.83247e-05
2.10599e-06
-0.00256643
7.47606e-06
3.02123e-06
-0.00257201
-3.448e-06
3.37693e-06
-0.00257437
-1.45843e-05
3.235e-06
-0.00257373
-2.60514e-05
2.56154e-06
-0.00256971
-3.78169e-05
1.28892e-06
-0.00256165
-4.91489e-05
-8.08293e-07
-0.00254768
-5.7687e-05
-3.95143e-06
-0.00252565
-5.64449e-05
-8.68922e-06
-0.00248982
-1.43507e-05
-0.00244717
-3.64853e-05
1.87298e-05
1.89531e-06
-0.00285486
7.55181e-06
2.6266e-06
-0.00286128
-3.59975e-06
2.87616e-06
-0.00286392
-1.49953e-05
2.71464e-06
-0.00286317
-2.68834e-05
2.11023e-06
-0.0028586
-3.9458e-05
9.98046e-07
-0.00284947
-5.23275e-05
-8.26906e-07
-0.00283343
-6.33402e-05
-3.71011e-06
-0.00280752
-6.48619e-05
-8.0981e-06
-0.00276297
-1.44352e-05
-0.00270666
-4.4976e-05
1.84648e-05
1.14399e-06
-0.00314055
7.4892e-06
1.40471e-06
-0.00314759
-3.42716e-06
1.49469e-06
-0.00315058
-1.45709e-05
1.22793e-06
-0.00314989
-2.63524e-05
6.96173e-07
-0.00314503
-3.9157e-05
-1.64488e-07
-0.00313516
-5.29372e-05
-1.43834e-06
-0.00311735
-6.63028e-05
-3.37882e-06
-0.00308799
-7.12609e-05
-6.28898e-06
-0.00303547
-1.12878e-05
-0.00296302
-5.36123e-05
1.76239e-05
-0.00340842
6.79114e-06
-0.00341546
-3.81538e-06
-0.00341823
-1.46391e-05
-0.00341657
-2.60689e-05
-0.00341007
-3.86065e-05
-0.0033979
-5.23918e-05
-0.00337706
-6.65667e-05
-0.00334316
-7.36968e-05
-0.00328358
-0.00319582
-5.9578e-05
3.29099e-06
1.06858e-07
-0.000842409
1.28804e-06
2.78607e-07
-0.000843064
-8.66489e-07
3.53455e-07
-0.000843249
-2.9202e-06
3.08771e-07
-0.000843158
-4.63259e-06
1.54589e-07
-0.000842842
-5.77056e-06
-1.01061e-07
-0.000842333
-6.12986e-06
-4.35586e-07
-0.000841675
-5.55921e-06
-8.15697e-07
-0.000840937
-4.01132e-06
-1.18937e-06
-0.000840175
-1.47567e-06
-0.000839307
-1.64567e-06
5.24903e-06
2.44382e-07
-0.00112897
1.83115e-06
6.05577e-07
-0.00112982
-1.76731e-06
7.49074e-07
-0.00113012
-5.22962e-06
6.67048e-07
-0.00112988
-8.21497e-06
3.58139e-07
-0.00112911
-1.03601e-05
-1.64847e-07
-0.00112783
-1.12715e-05
-8.7183e-07
-0.00112613
-1.05667e-05
-1.70315e-06
-0.00112414
-7.94657e-06
-2.56206e-06
-0.0011221
-3.25274e-06
-0.00112043
-3.53707e-06
8.28506e-06
5.06968e-07
-0.00141424
3.15587e-06
1.03852e-06
-0.00141573
-2.16829e-06
1.2425e-06
-0.00141628
-7.33238e-06
1.12056e-06
-0.00141585
-1.19358e-05
6.55246e-07
-0.00141444
-1.5492e-05
-1.49545e-07
-0.00141206
-1.7373e-05
-1.27788e-06
-0.00140874
-1.68205e-05
-2.66175e-06
-0.00140468
-1.29825e-05
-4.17793e-06
-0.00140023
-5.46964e-06
-0.00139638
-5.777e-06
1.09001e-05
8.32925e-07
-0.00169809
4.20949e-06
1.5944e-06
-0.00170045
-2.72864e-06
1.89508e-06
-0.00170132
-9.5616e-06
1.76565e-06
-0.00170071
-1.58696e-05
1.17533e-06
-0.00169858
-2.10948e-05
1.1931e-07
-0.00169486
-2.43881e-05
-1.41752e-06
-0.00168947
-2.4546e-05
-3.37926e-06
-0.0016825
-1.98145e-05
-5.66792e-06
-0.00167428
-7.72321e-06
-0.00166674
-9.54044e-06
1.33485e-05
1.24191e-06
-0.00198454
5.27997e-06
2.14422e-06
-0.00198784
-3.02419e-06
2.51098e-06
-0.00198912
-1.12884e-05
2.37711e-06
-0.00198842
-1.91567e-05
1.70129e-06
-0.0019856
-2.60807e-05
4.58315e-07
-0.00198049
-3.10471e-05
-1.42156e-06
-0.00197273
-3.24058e-05
-3.92103e-06
-0.00196222
-2.72132e-05
-7.02999e-06
-0.00194887
-9.98193e-06
-0.00193583
-1.38201e-05
1.53599e-05
1.61235e-06
-0.00227027
6.15676e-06
2.60246e-06
-0.00227458
-3.2437e-06
2.99306e-06
-0.00227629
-1.26809e-05
2.85644e-06
-0.00227551
-2.18964e-05
2.13638e-06
-0.00227204
-3.04299e-05
7.93797e-07
-0.00226555
-3.72139e-05
-1.29868e-06
-0.00225532
-4.02437e-05
-4.1911e-06
-0.00224086
-3.525e-05
-8.01273e-06
-0.00222114
-1.18945e-05
-0.0022008
-1.9155e-05
1.67725e-05
1.82933e-06
-0.00255692
6.823e-06
2.76084e-06
-0.00256222
-3.28015e-06
3.12187e-06
-0.00256439
-1.34848e-05
2.96311e-06
-0.00256363
-2.36837e-05
2.25137e-06
-0.00255963
-3.35638e-05
9.26841e-07
-0.0025519
-4.21058e-05
-1.18841e-06
-0.00253924
-4.70695e-05
-4.2374e-06
-0.00252064
-4.28699e-05
-8.50871e-06
-0.00249353
-1.328e-05
-0.00246409
-2.45662e-05
1.73929e-05
1.66339e-06
-0.00284435
6.995e-06
2.42547e-06
-0.00285055
-3.4636e-06
2.69009e-06
-0.00285303
-1.40728e-05
2.5315e-06
-0.00285213
-2.48457e-05
1.90913e-06
-0.00284748
-3.56491e-05
7.6424e-07
-0.00283851
-4.56548e-05
-1.08017e-06
-0.00282353
-5.26161e-05
-3.88975e-06
-0.00280091
-4.99889e-05
-7.9176e-06
-0.00276619
-1.32844e-05
-0.00272615
-3.04918e-05
1.72975e-05
1.03254e-06
-0.00312932
6.99062e-06
1.31496e-06
-0.00313617
-3.35202e-06
1.44411e-06
-0.00313899
-1.38373e-05
1.2194e-06
-0.00313809
-2.46464e-05
7.26109e-07
-0.00313304
-3.58165e-05
-1.04243e-07
-0.00312312
-4.67385e-05
-1.3591e-06
-0.00310615
-5.55503e-05
-3.23934e-06
-0.00307983
-5.51163e-05
-5.95534e-06
-0.00303786
-1.01072e-05
-0.00298517
-3.61376e-05
1.66149e-05
-0.00339708
6.44336e-06
-0.00340397
-3.60035e-06
-0.00340674
-1.38041e-05
-0.00340514
-2.4348e-05
-0.0033988
-3.53958e-05
-0.00338695
-4.65287e-05
-0.00336728
-5.61807e-05
-0.00333675
-5.73759e-05
-0.00328834
-0.00322362
-3.96874e-05
2.21187e-06
-1.63768e-09
-0.000841366
8.93557e-07
1.3619e-07
-0.000841882
-5.42976e-07
2.00422e-07
-0.000842013
-1.90623e-06
1.65821e-07
-0.000841961
-3.02093e-06
4.40188e-08
-0.000841771
-3.72703e-06
-1.563e-07
-0.00084147
-3.90064e-06
-4.1247e-07
-0.000841089
-3.47112e-06
-6.9496e-07
-0.000840672
-2.44937e-06
-9.61298e-07
-0.000840235
-1.15656e-06
-0.00083963
-9.69412e-07
3.69415e-06
1.26638e-08
-0.00112699
1.2609e-06
3.18796e-07
-0.00112757
-1.32606e-06
4.44284e-07
-0.00112778
-3.79931e-06
3.76479e-07
-0.00112762
-5.87775e-06
1.17109e-07
-0.0011271
-7.28497e-06
-3.16592e-07
-0.00112626
-7.75929e-06
-8.88922e-07
-0.00112518
-7.09732e-06
-1.53974e-06
-0.00112395
-5.21297e-06
-2.1814e-06
-0.00112276
-2.67466e-06
-0.00112183
-2.29044e-06
6.44968e-06
1.93346e-07
-0.00141101
2.50231e-06
6.5808e-07
-0.00141212
-1.63126e-06
8.3785e-07
-0.00141254
-5.60408e-06
7.24644e-07
-0.00141223
-9.04156e-06
3.06315e-07
-0.00141119
-1.15315e-05
-4.02986e-07
-0.00140948
-1.26146e-05
-1.36881e-06
-0.00140718
-1.1835e-05
-2.51021e-06
-0.00140449
-8.82531e-06
-3.69455e-06
-0.00140172
-4.66016e-06
-0.00139947
-3.74682e-06
8.89276e-06
4.67226e-07
-0.00169366
3.47488e-06
1.16998e-06
-0.00169554
-2.20626e-06
1.44668e-06
-0.00169625
-7.74965e-06
1.31602e-06
-0.00169576
-1.27103e-05
7.5663e-07
-0.00169407
-1.65609e-05
-2.20689e-07
-0.00169119
-1.86212e-05
-1.59704e-06
-0.00168718
-1.80877e-05
-3.28619e-06
-0.00168226
-1.40467e-05
-5.14001e-06
-0.00167688
-6.72599e-06
-0.00167227
-6.45177e-06
1.13192e-05
8.48608e-07
-0.00197877
4.50706e-06
1.70517e-06
-0.00198156
-2.57552e-06
2.05169e-06
-0.00198265
-9.55503e-06
1.90709e-06
-0.00198203
-1.59937e-05
1.24084e-06
-0.00197965
-2.13085e-05
4.58443e-08
-0.00197544
-2.46098e-05
-1.69891e-06
-0.00196933
-2.4692e-05
-3.92676e-06
-0.0019615
-1.98185e-05
-6.51756e-06
-0.00195236
-8.8585e-06
-0.00194406
-9.45601e-06
1.34189e-05
1.22754e-06
-0.00226326
5.39578e-06
2.19022e-06
-0.00226705
-2.87788e-06
2.56735e-06
-0.00226853
-1.11043e-05
2.41554e-06
-0.0022678
-1.88931e-05
1.68807e-06
-0.0022647
-2.56755e-05
3.62995e-07
-0.00225909
-3.04247e-05
-1.62935e-06
-0.00225064
-3.15584e-05
-4.27502e-06
-0.00223938
-2.63097e-05
-7.52996e-06
-0.00222538
-1.06712e-05
-0.00221196
-1.33377e-05
1.49474e-05
1.4924e-06
-0.00254878
6.0769e-06
2.41739e-06
-0.00255357
-3.01355e-06
2.77567e-06
-0.00255551
-1.21107e-05
2.60601e-06
-0.00255473
-2.0934e-05
1.87968e-06
-0.00255099
-2.89927e-05
5.51799e-07
-0.00254403
-3.5195e-05
-1.50037e-06
-0.00253317
-3.76503e-05
-4.33585e-06
-0.00251812
-3.24409e-05
-8.03361e-06
-0.00249823
-1.19119e-05
-0.00247821
-1.70763e-05
1.57522e-05
1.36364e-06
-0.00283514
6.3332e-06
2.14086e-06
-0.00284085
-3.22551e-06
2.41273e-06
-0.00284311
-1.28462e-05
2.25699e-06
-0.00284216
-2.23471e-05
1.62865e-06
-0.00283773
-3.13616e-05
4.81904e-07
-0.00282942
-3.88668e-05
-1.31983e-06
-0.00281621
-4.28115e-05
-3.9472e-06
-0.00279735
-3.8339e-05
-7.47136e-06
-0.00277122
-1.18e-05
-0.00274329
-2.13095e-05
1.58175e-05
8.70946e-07
-0.00311936
6.38524e-06
1.16589e-06