/*--------------------------------*- C++ -*----------------------------------*\
| =========                 |                                                 |
| \\      /  F ield         | foam-extend: Open Source CFD                    |
|  \\    /   O peration     | Version:     4.0                                |
|   \\  /    A nd           | Web:         http://www.foam-extend.org         |
|    \\/     M anipulation  |                                                 |
\*---------------------------------------------------------------------------*/
FoamFile
{
    version     2.0;
    format      ascii;
    class       volVectorField;
    location    "2950";
    object      U;
}
// * * * * * * * * * * * * * * * * * * * * * * * * * * * * * * * * * * * * * //

dimensions      [0 1 -1 0 0 0 0];

internalField   nonuniform List<vector> 
34480
(
(209.006 2.16684 3.26216)
(209.326 1.1997 1.52481)
(209.483 0.413834 -0.272703)
(209.49 -0.210317 -2.17604)
(209.34 -0.705104 -4.32565)
(208.998 -1.06674 -6.89887)
(208.382 -1.26885 -10.2974)
(207.216 -1.18843 -14.8665)
(204.545 -0.590065 -22.7773)
(197.607 1.98009 -50.0421)
(209.939 3.08104 2.87489)
(210.198 2.25952 1.05401)
(210.325 1.53435 -0.770449)
(210.298 0.899809 -2.66947)
(210.063 0.327834 -4.7632)
(209.56 -0.192638 -7.2614)
(208.753 -0.671686 -10.6256)
(207.46 -1.04634 -15.599)
(204.324 -1.14609 -24.4048)
(196.165 0.636989 -55.1002)
(210.628 2.71749 3.28991)
(210.862 1.83731 1.40634)
(210.956 1.06181 -0.498558)
(210.886 0.407406 -2.44283)
(210.59 -0.17105 -4.55753)
(210.063 -0.696785 -7.10234)
(209.311 -1.18622 -10.608)
(208.167 -1.55846 -16.1048)
(204.866 -1.63532 -25.7843)
(195.656 0.361644 -59.4547)
(210.635 3.26162 3.23993)
(210.87 2.42891 1.30078)
(210.98 1.68498 -0.636479)
(210.942 1.06061 -2.60826)
(210.708 0.511869 -4.75358)
(210.294 0.0146734 -7.36194)
(209.677 -0.450218 -10.9672)
(208.697 -0.790527 -16.8198)
(205.371 -0.819771 -27.119)
(195.357 1.32584 -62.7272)
(210.795 2.72724 3.74629)
(211.059 1.82048 1.76873)
(211.206 1.0258 -0.247758)
(211.231 0.376412 -2.29454)
(211.088 -0.188715 -4.53644)
(210.809 -0.691528 -7.27535)
(210.341 -1.14346 -11.0425)
(209.544 -1.4393 -17.2756)
(206.317 -1.38324 -28.2387)
(195.66 0.926787 -65.3969)
(210.68 3.41705 3.52177)
(210.955 2.52634 1.5466)
(211.122 1.74775 -0.430918)
(211.181 1.11888 -2.44648)
(211.106 0.589481 -4.65803)
(210.943 0.134136 -7.3925)
(210.628 -0.258174 -11.1656)
(210.047 -0.482619 -17.5872)
(207.067 -0.320953 -29.0315)
(196.01 2.08752 -67.3687)
(210.761 2.58072 4.03781)
(211.077 1.59504 2.06172)
(211.273 0.742375 0.0420879)
(211.37 0.0524911 -2.0052)
(211.354 -0.530537 -4.26797)
(211.288 -1.02362 -7.07487)
(211.114 -1.41149 -10.9458)
(210.749 -1.57076 -17.6129)
(208.099 -1.20995 -29.6317)
(196.748 1.49028 -68.9926)
(210.589 3.35699 3.56673)
(210.909 2.35904 1.62279)
(211.084 1.5256 -0.317275)
(211.14 0.862732 -2.29873)
(211.083 0.338174 -4.47305)
(211 -0.083724 -7.17438)
(210.871 -0.378148 -10.9066)
(210.663 -0.415236 -17.4916)
(208.421 0.250184 -29.6951)
(197.105 3.31536 -69.591)
(210.534 2.04082 4.11466)
(210.898 0.925632 2.22404)
(211.104 -0.0310389 0.308492)
(211.198 -0.845249 -1.64904)
(211.192 -1.5488 -3.84203)
(211.153 -2.1476 -6.58127)
(211.093 -2.56112 -10.4058)
(211.024 -2.6122 -17.1068)
(209.112 -1.55742 -29.679)
(197.68 2.45885 -69.545)
(209.569 2.78743 3.5309)
(209.843 1.57017 1.59851)
(209.79 0.616382 -0.311867)
(209.431 -0.169546 -2.27863)
(208.813 -0.77555 -4.43741)
(208.027 -1.21635 -7.07443)
(207.158 -1.40004 -10.6665)
(206.371 -1.10918 -16.8187)
(204.433 0.415542 -28.5361)
(194.247 5.28069 -66.5005)
(205.891 1.91221 3.00056)
(206.369 1.10968 1.5439)
(206.556 0.426572 -0.00997483)
(206.473 -0.117384 -1.61008)
(206.095 -0.546499 -3.31983)
(205.333 -0.861307 -5.1516)
(203.986 -1.06591 -7.15911)
(201.62 -1.17178 -9.31733)
(198.154 -1.25687 -11.245)
(193.579 -1.15903 -14.3934)
(207.19 2.86857 2.79792)
(207.621 2.16424 1.1618)
(207.793 1.51939 -0.492265)
(207.704 0.943873 -2.18912)
(207.292 0.416499 -3.99635)
(206.437 -0.06879 -5.97184)
(204.943 -0.52711 -8.20874)
(202.358 -0.993387 -10.9582)
(198.189 -1.58382 -14.0068)
(192.505 -1.82409 -20.5815)
(208.139 2.57759 3.30714)
(208.548 1.77152 1.54475)
(208.706 1.04485 -0.256773)
(208.606 0.422696 -2.09024)
(208.169 -0.133508 -4.02985)
(207.295 -0.636291 -6.15937)
(205.811 -1.11497 -8.66773)
(203.233 -1.58622 -12.0869)
(198.689 -2.15709 -16.3332)
(192.07 -2.07114 -26.7166)
(208.382 3.17797 3.30358)
(208.797 2.40344 1.45617)
(208.976 1.69442 -0.403402)
(208.918 1.08824 -2.29703)
(208.545 0.546421 -4.31007)
(207.773 0.0572414 -6.56894)
(206.401 -0.412414 -9.29946)
(203.916 -0.855399 -13.2587)
(199.143 -1.36355 -18.4766)
(191.71 -0.933549 -32.4541)
(208.736 2.66841 3.83843)
(209.178 1.809 1.93581)
(209.396 1.04214 -0.0203493)
(209.403 0.408572 -2.00866)
(209.121 -0.146934 -4.14618)
(208.485 -0.635674 -6.58671)
(207.264 -1.09253 -9.57247)
(204.941 -1.48865 -14.063)
(200.089 -1.90229 -20.2309)
(191.949 -1.07299 -37.6931)
(208.771 3.39307 3.63435)
(209.228 2.54119 1.71997)
(209.472 1.78357 -0.206772)
(209.521 1.1637 -2.1756)
(209.313 0.634877 -4.29772)
(208.805 0.182683 -6.7731)
(207.75 -0.224138 -9.8435)
(205.648 -0.548029 -14.6623)
(200.884 -0.830139 -21.5476)
(192.218 0.364638 -42.21)
(208.977 2.56683 4.16011)
(209.469 1.61605 2.23761)
(209.744 0.786387 0.259138)
(209.839 0.114188 -1.74955)
(209.699 -0.450728 -3.93584)
(209.306 -0.919953 -6.51577)
(208.412 -1.31001 -9.74448)
(206.556 -1.56826 -14.9178)
(201.998 -1.65623 -22.5677)
(192.908 0.00106759 -46.2451)
(208.891 3.37381 3.69579)
(209.392 2.40955 1.80355)
(209.656 1.59811 -0.0881799)
(209.725 0.950766 -2.02434)
(209.569 0.441165 -4.12038)
(209.197 0.0372217 -6.62283)
(208.398 -0.263992 -9.78132)
(206.762 -0.418426 -15.0053)
(202.533 -0.208141 -23.0527)
(193.316 1.83441 -49.2174)
(208.903 2.05542 4.24518)
(209.436 0.977346 2.40202)
(209.728 0.0661189 0.526016)
(209.834 -0.688958 -1.37769)
(209.735 -1.31844 -3.48069)
(209.437 -1.83477 -6.03048)
(208.759 -2.19008 -9.33542)
(207.35 -2.32164 -14.7937)
(203.46 -1.74189 -23.4886)
(193.992 1.0029 -51.498)
(207.981 2.86378 3.63697)
(208.458 1.69309 1.7896)
(208.575 0.796303 -0.0346682)
(208.362 0.0677826 -1.90546)
(207.834 -0.474206 -3.92988)
(207.026 -0.855641 -6.35387)
(205.826 -1.01331 -9.46978)
(204.024 -0.832121 -14.5641)
(200.282 0.222237 -23.038)
(191.635 4.03739 -51.3446)
(203.517 1.42791 2.33437)
(204.02 0.833565 1.2163)
(204.201 0.302532 -0.0132718)
(204.098 -0.13175 -1.26342)
(203.697 -0.482355 -2.55463)
(202.95 -0.746709 -3.83245)
(201.764 -0.934587 -5.04907)
(199.989 -1.07151 -6.0548)
(197.434 -1.24288 -6.4985)
(194.217 -1.43224 -6.5169)
(204.912 2.41427 2.31326)
(205.407 1.87194 0.946138)
(205.587 1.34565 -0.4488)
(205.464 0.855002 -1.86578)
(205 0.389913 -3.33137)
(204.112 -0.0549681 -4.84816)
(202.639 -0.492953 -6.37975)
(200.311 -0.955674 -7.86299)
(196.687 -1.55451 -8.80245)
(191.847 -2.13658 -9.81071)
(205.947 2.21203 2.9481)
(206.447 1.52883 1.39545)
(206.627 0.890623 -0.208757)
(206.502 0.327166 -1.83808)
(206.014 -0.193587 -3.53884)
(205.061 -0.68156 -5.32776)
(203.445 -1.16151 -7.21466)
(200.801 -1.6636 -9.29204)
(196.299 -2.33217 -11.0028)
(189.857 -2.91119 -13.584)
(206.344 2.89693 2.99424)
(206.866 2.2203 1.31812)
(207.072 1.57953 -0.380859)
(206.982 1.01444 -2.11236)
(206.531 0.491517 -3.94034)
(205.615 0.00101987 -5.92308)
(203.983 -0.488948 -8.10652)
(201.17 -0.995817 -10.7406)
(195.931 -1.68094 -13.2006)
(187.995 -2.16625 -17.5587)
(206.846 2.42639 3.56886)
(207.4 1.64995 1.8055)
(207.643 0.940714 -0.0195463)
(207.609 0.340512 -1.87742)
(207.228 -0.201123 -3.86952)
(206.401 -0.692691 -6.08634)
(204.828 -1.16968 -8.60264)
(201.97 -1.6381 -11.8317)
(196.184 -2.28613 -15.1301)
(186.926 -2.57771 -21.5717)
(207.012 3.20016 3.3898)
(207.585 2.41736 1.59391)
(207.855 1.70779 -0.222465)
(207.863 1.11489 -2.08442)
(207.545 0.594091 -4.09228)
(206.815 0.133061 -6.38755)
(205.342 -0.303645 -9.06306)
(202.542 -0.715586 -12.7147)
(196.409 -1.27663 -16.715)
(186.061 -1.34003 -25.333)
(207.33 2.39047 3.93886)
(207.935 1.50286 2.1167)
(208.234 0.720164 0.231316)
(208.288 0.0785447 -1.68946)
(208.032 -0.47041 -3.78535)
(207.402 -0.935006 -6.22108)
(206.047 -1.33768 -9.12172)
(203.367 -1.66926 -13.2321)
(197.06 -2.06868 -18.0275)
(185.783 -1.79924 -28.9562)
(207.337 3.23552 3.4789)
(207.95 2.33243 1.68357)
(208.243 1.56578 -0.117591)
(208.28 0.948607 -1.9701)
(208.017 0.454324 -3.98472)
(207.414 0.0566508 -6.36734)
(206.145 -0.257244 -9.26059)
(203.617 -0.487889 -13.5544)
(197.326 -0.620581 -18.8723)
(185.387 -0.0696847 -31.8726)
(207.429 1.90357 4.03282)
(208.061 0.887433 2.27504)
(208.376 0.0348991 0.472715)
(208.441 -0.660695 -1.36159)
(208.22 -1.23125 -3.38784)
(207.68 -1.68699 -5.81521)
(206.521 -1.99265 -8.87653)
(204.188 -2.12671 -13.515)
(198.029 -1.86074 -19.6421)
(185.306 -0.799303 -34.2637)
(206.573 2.76959 3.39229)
(207.153 1.67668 1.66376)
(207.338 0.85064 -0.0526402)
(207.166 0.187344 -1.82457)
(206.629 -0.293666 -3.74854)
(205.717 -0.615384 -6.03825)
(204.201 -0.726518 -8.92243)
(201.63 -0.547165 -13.3058)
(195.609 0.21759 -19.5469)
(182.828 2.30022 -34.6944)
(201.781 0.949107 1.7018)
(202.218 0.547704 0.911414)
(202.369 0.165637 0.0079031)
(202.27 -0.15787 -0.896415)
(201.922 -0.428592 -1.80008)
(201.307 -0.641168 -2.62149)
(200.395 -0.807824 -3.29566)
(199.161 -0.952069 -3.68718)
(197.602 -1.1293 -3.58049)
(195.871 -1.36488 -2.75287)
(203.103 1.90747 1.79141)
(203.57 1.532 0.718136)
(203.733 1.13483 -0.387715)
(203.602 0.741803 -1.49712)
(203.154 0.354121 -2.6017)
(202.344 -0.0310039 -3.67095)
(201.095 -0.424229 -4.62883)
(199.303 -0.848021 -5.34701)
(196.838 -1.37057 -5.40303)
(194.04 -1.9379 -4.6197)
(204.092 1.75987 2.50356)
(204.602 1.21999 1.20608)
(204.778 0.690175 -0.150823)
(204.636 0.204614 -1.518)
(204.136 -0.260161 -2.91217)
(203.208 -0.712473 -4.31342)
(201.717 -1.17175 -5.65531)
(199.468 -1.66425 -6.84636)
(196.114 -2.29569 -7.29998)
(192.034 -2.99152 -6.92402)
(204.551 2.52655 2.58714)
(205.108 1.97215 1.1318)
(205.313 1.42078 -0.354563)
(205.191 0.916088 -1.86119)
(204.69 0.432858 -3.42372)
(203.723 -0.0382119 -5.05639)
(202.095 -0.526197 -6.71337)
(199.508 -1.05354 -8.37937)
(195.292 -1.75936 -9.29351)
(189.827 -2.52569 -9.54029)
(205.137 2.10097 3.20279)
(205.738 1.43196 1.62538)
(205.978 0.800207 -0.0199554)
(205.897 0.249904 -1.68741)
(205.432 -0.261465 -3.45167)
(204.489 -0.741842 -5.35628)
(202.811 -1.22419 -7.38188)
(200.008 -1.72776 -9.61126)
(195.04 -2.44207 -11.1402)
(188.235 -3.18124 -12.3679)
(205.394 2.92934 3.05273)
(206.023 2.23927 1.41842)
(206.29 1.59621 -0.24381)
(206.243 1.04563 -1.94382)
(205.817 0.548741 -3.75865)
(204.923 0.0930541 -5.78009)
(203.254 -0.359118 -8.01117)
(200.343 -0.826377 -10.6685)
(194.77 -1.50683 -12.7413)
(186.758 -2.16653 -15.1349)
(205.797 2.14604 3.63092)
(206.458 1.34317 1.9476)
(206.753 0.623338 0.194437)
(206.746 0.0242105 -1.58898)
(206.368 -0.498221 -3.52106)
(205.538 -0.951748 -5.71768)
(203.916 -1.36291 -8.22172)
(200.976 -1.7447 -11.3675)
(194.945 -2.30048 -14.1235)
(185.843 -2.77403 -17.9493)
(205.884 3.04181 3.18189)
(206.553 2.21933 1.51798)
(206.846 1.51088 -0.159323)
(206.828 0.933832 -1.88663)
(206.444 0.463281 -3.7559)
(205.631 0.0769792 -5.92616)
(204.048 -0.247025 -8.4676)
(201.147 -0.536003 -11.8565)
(194.857 -0.880744 -15.1101)
(184.869 -1.19393 -20.3181)
(206.044 1.7084 3.76454)
(206.724 0.770865 2.12358)
(207.034 -0.0164584 0.423888)
(207.039 -0.652887 -1.30798)
(206.689 -1.16975 -3.2103)
(205.919 -1.57419 -5.43811)
(204.393 -1.84577 -8.14337)
(201.582 -1.99543 -11.8892)
(195.221 -1.94755 -15.9862)
(184.257 -1.89924 -22.3805)
(205.256 2.64802 3.1026)
(205.889 1.6452 1.51471)
(206.107 0.89305 -0.0759143)
(205.943 0.293625 -1.72674)
(205.373 -0.131747 -3.51646)
(204.349 -0.403143 -5.61281)
(202.583 -0.481761 -8.16709)
(199.582 -0.316641 -11.7257)
(193.24 0.228204 -16.0578)
(181.785 1.20164 -22.863)
(200.571 0.551114 1.19395)
(200.914 0.294911 0.666111)
(201.028 0.0340496 0.0357621)
(200.953 -0.195288 -0.583088)
(200.694 -0.396662 -1.18743)
(200.256 -0.562403 -1.69751)
(199.643 -0.702071 -2.06661)
(198.881 -0.830805 -2.20479)
(198.016 -0.975082 -2.02032)
(197.164 -1.14159 -1.42912)
(201.727 1.4345 1.31137)
(202.121 1.20001 0.510257)
(202.258 0.920726 -0.321236)
(202.144 0.622158 -1.14561)
(201.771 0.313508 -1.93591)
(201.123 -0.00397063 -2.64897)
(200.178 -0.334792 -3.21066)
(198.934 -0.688762 -3.5126)
(197.411 -1.09414 -3.32757)
(195.914 -1.51128 -2.51764)
(202.577 1.29268 2.05044)
(203.048 0.890589 1.01565)
(203.209 0.470782 -0.0832884)
(203.076 0.0689684 -1.18038)
(202.623 -0.329627 -2.26758)
(201.814 -0.729643 -3.30342)
(200.583 -1.14429 -4.20336)
(198.865 -1.59108 -4.83741)
(196.582 -2.12529 -4.81327)
(194.193 -2.69422 -3.92696)
(203.017 2.11731 2.14839)
(203.559 1.69106 0.9355)
(203.755 1.23753 -0.31547)
(203.626 0.803227 -1.57419)
(203.135 0.372876 -2.84709)
(202.225 -0.0600513 -4.11447)
(200.775 -0.519689 -5.29415)
(198.642 -1.02524 -6.27061)
(195.552 -1.66464 -6.46642)
(192.083 -2.36906 -5.60753)
(203.616 1.72873 2.79427)
(204.221 1.17892 1.43096)
(204.453 0.63575 -0.00655446)
(204.349 0.145907 -1.45387)
(203.858 -0.3229 -2.95356)
(202.908 -0.776635 -4.50653)
(201.317 -1.24381 -6.04465)
(198.86 -1.74676 -7.49226)
(194.996 -2.42634 -8.08613)
(190.379 -3.19383 -7.53435)
(203.913 2.60711 2.66961)
(204.561 2.02452 1.22689)
(204.822 1.46011 -0.251846)
(204.742 0.962227 -1.75772)
(204.264 0.500769 -3.33668)
(203.308 0.0645766 -5.02975)
(201.637 -0.383737 -6.78409)
(198.952 -0.870456 -8.60572)
(194.393 -1.55926 -9.55978)
(188.652 -2.35307 -9.45946)
(204.362 1.85336 3.27563)
(205.05 1.15107 1.76111)
(205.338 0.505788 0.169082)
(205.29 -0.04196 -1.44484)
(204.84 -0.529057 -3.16833)
(203.907 -0.962459 -5.06306)
(202.205 -1.37097 -7.11184)
(199.37 -1.77959 -9.39676)
(194.214 -2.3797 -10.8781)
(187.39 -3.09956 -11.5021)
(204.504 2.80594 2.83931)
(205.204 2.07975 1.33392)
(205.495 1.44065 -0.193538)
(205.439 0.912161 -1.76645)
(204.98 0.473513 -3.44902)
(204.044 0.106114 -5.34441)
(202.327 -0.218615 -7.4584)
(199.42 -0.543168 -9.9907)
(193.839 -0.991232 -11.8663)
(186.055 -1.65654 -13.2454)
(204.717 1.47463 3.4573)
(205.425 0.630488 1.95862)
(205.729 -0.0843292 0.386411)
(205.692 -0.659606 -1.21511)
(205.257 -1.12419 -2.95751)
(204.348 -1.48265 -4.93718)
(202.645 -1.72718 -7.22515)
(199.715 -1.8903 -10.0745)
(193.889 -1.98183 -12.6837)
(185.057 -2.39472 -14.8185)
(203.991 2.50146 2.77472)
(204.656 1.59933 1.34468)
(204.897 0.92513 -0.103759)
(204.741 0.389857 -1.61326)
(204.153 0.0174469 -3.2403)
(203.069 -0.209342 -5.10204)
(201.2 -0.264035 -7.2727)
(198.102 -0.118999 -10.0005)
(192.174 0.260004 -12.811)
(182.633 0.640324 -15.1308)
(199.739 0.25168 0.824884)
(199.993 0.0931254 0.488411)
(200.075 -0.0795543 0.0636037)
(200.023 -0.236495 -0.34271)
(199.848 -0.382081 -0.735393)
(199.56 -0.507328 -1.0465)
(199.175 -0.618479 -1.25087)
(198.724 -0.72301 -1.29412)
(198.247 -0.831649 -1.14383)
(197.791 -0.943199 -0.777498)
(200.717 1.04043 0.910874)
(201.019 0.911064 0.336738)
(201.126 0.72821 -0.260145)
(201.038 0.512464 -0.845165)
(200.755 0.277236 -1.38648)
(200.276 0.0267535 -1.84331)
(199.612 -0.237737 -2.15828)
(198.794 -0.516801 -2.25868)
(197.885 -0.815364 -2.03778)
(197.078 -1.10366 -1.43094)
(201.39 0.861553 1.63604)
(201.788 0.575018 0.842251)
(201.926 0.254794 -0.015264)
(201.813 -0.0660739 -0.863771)
(201.436 -0.395767 -1.68088)
(200.784 -0.734775 -2.41795)
(199.839 -1.08968 -2.99864)
(198.61 -1.46916 -3.31459)
(197.136 -1.89527 -3.14388)
(195.749 -2.32527 -2.34647)
(201.758 1.71203 1.72042)
(202.246 1.40386 0.746243)
(202.423 1.04624 -0.269237)
(202.301 0.685456 -1.28316)
(201.86 0.31516 -2.28033)
(201.068 -0.0670155 -3.22108)
(199.871 -0.477736 -4.01849)
(198.23 -0.929488 -4.5453)
(196.096 -1.46852 -4.43725)
(193.955 -2.04073 -3.43906)
(202.316 1.34311 2.37752)
(202.884 0.910881 1.23666)
(203.097 0.45944 0.0179945)
(202.986 0.035987 -1.20018)
(202.514 -0.381531 -2.43266)
(201.634 -0.795741 -3.64945)
(200.239 -1.22838 -4.76371)
(198.235 -1.69896 -5.64698)
(195.416 -2.29716 -5.77441)
(192.408 -2.96205 -4.76566)
(202.61 2.25825 2.26786)
(203.236 1.78726 1.03188)
(203.482 1.30762 -0.24656)
(203.383 0.869436 -1.54191)
(202.897 0.452063 -2.87082)
(201.964 0.0473011 -4.23245)
(200.423 -0.377654 -5.54366)
(198.122 -0.849244 -6.71201)
(194.641 -1.48313 -7.0464)
(190.724 -2.22638 -6.09535)
(203.07 1.5307 2.89457)
(203.747 0.936741 1.56776)
(204.02 0.373354 0.156818)
(203.945 -0.116334 -1.26715)
(203.464 -0.560818 -2.76058)
(202.511 -0.965137 -4.33686)
(200.874 -1.35697 -5.93766)
(198.341 -1.76597 -7.50453)
(194.246 -2.34318 -8.22478)
(189.396 -3.07469 -7.55856)
(203.239 2.54058 2.46829)
(203.937 1.92021 1.14021)
(204.218 1.35842 -0.217915)
(204.135 0.885165 -1.6153)
(203.639 0.485186 -3.08705)
(202.659 0.143987 -4.6843)
(200.957 -0.168907 -6.36136)
(198.267 -0.50125 -8.14046)
(193.685 -0.973343 -9.13445)
(187.954 -1.71694 -8.79335)
(203.488 1.21048 3.12313)
(204.196 0.469748 1.78555)
(204.487 -0.16703 0.360806)
(204.418 -0.679455 -1.08805)
(203.935 -1.09255 -2.64478)
(202.963 -1.40837 -4.35252)
(201.236 -1.62842 -6.21898)
(198.442 -1.79478 -8.27892)
(193.523 -1.95812 -9.83221)
(186.815 -2.51404 -9.91442)
(202.813 2.33617 2.41848)
(203.482 1.54218 1.15876)
(203.733 0.94906 -0.13402)
(203.582 0.478214 -1.48548)
(202.994 0.156469 -2.92837)
(201.898 -0.0308411 -4.53214)
(200.048 -0.0680799 -6.30677)
(197.093 0.0555947 -8.29696)
(191.995 0.313708 -9.98369)
(184.568 0.412593 -10.0824)
(199.165 0.0421235 0.576361)
(199.35 -0.0565783 0.369761)
(199.406 -0.170419 0.0876327)
(199.374 -0.275808 -0.172443)
(199.263 -0.379265 -0.425535)
(199.085 -0.4714 -0.616463)
(198.855 -0.556065 -0.736407)
(198.597 -0.635529 -0.752733)
(198.335 -0.712801 -0.658274)
(198.074 -0.784029 -0.451626)
(199.988 0.740693 0.599034)
(200.205 0.682371 0.200239)
(200.283 0.572062 -0.211209)
(200.22 0.423571 -0.609817)
(200.019 0.25171 -0.966813)
(199.689 0.0621654 -1.25029)
(199.247 -0.139722 -1.42133)
(198.73 -0.34959 -1.43692)
(198.196 -0.562307 -1.25227)
(197.759 -0.754283 -0.850817)
(200.485 0.495502 1.28424)
(200.799 0.296404 0.694344)
(200.909 0.0590567 0.0457565)
(200.82 -0.189356 -0.591068)
(200.528 -0.453087 -1.1889)
(200.034 -0.729406 -1.7022)
(199.348 -1.01957 -2.07147)
(198.506 -1.3248 -2.2226)
(197.579 -1.64857 -2.04287)
(196.775 -1.95762 -1.47323)
(200.757 1.34206 1.33067)
(201.169 1.13253 0.573967)
(201.319 0.86153 -0.222723)
(201.215 0.571835 -1.01233)
(200.845 0.263681 -1.76784)
(200.199 -0.0613419 -2.44286)
(199.266 -0.411813 -2.96163)
(198.062 -0.792696 -3.22039)
(196.637 -1.22219 -3.01373)
(195.324 -1.658 -2.19301)
(201.238 0.972668 1.9782)
(201.741 0.64642 1.05179)
(201.928 0.28304 0.0481016)
(201.823 -0.0725753 -0.948038)
(201.401 -0.43373 -1.93192)
(200.638 -0.799337 -2.8572)
(199.486 -1.18349 -3.63817)
(197.931 -1.59949 -4.14865)
(195.952 -2.09691 -4.06604)
(194.019 -2.62783 -3.11849)
(201.497 1.90625 1.86996)
(202.07 1.54173 0.842007)
(202.292 1.14713 -0.23171)
(202.189 0.772156 -1.31391)
(201.731 0.404842 -2.39861)
(200.88 0.0406883 -3.4575)
(199.546 -0.345515 -4.39854)
(197.675 -0.775093 -5.09977)
(195.127 -1.31994 -5.10526)
(192.504 -1.94571 -4.03104)
(201.938 1.19695 2.50643)
(202.573 0.711082 1.37482)
(202.824 0.232219 0.155141)
(202.735 -0.195355 -1.06964)
(202.262 -0.591746 -2.3291)
(201.356 -0.959316 -3.60164)
(199.882 -1.32167 -4.80837)
(197.74 -1.70681 -5.82718)
(194.631 -2.22174 -6.09922)
(191.266 -2.86458 -5.0734)
(202.11 2.25995 2.08456)
(202.774 1.74815 0.943397)
(203.037 1.26775 -0.233638)
(202.94 0.854122 -1.44321)
(202.442 0.497856 -2.6943)
(201.488 0.188594 -3.9975)
(199.91 -0.10203 -5.27599)
(197.561 -0.417648 -6.45331)
(193.978 -0.857846 -6.88315)
(189.88 -1.53913 -5.92331)
(202.378 0.926451 2.77516)
(203.058 0.293485 1.60958)
(203.331 -0.262309 0.345889)
(203.243 -0.71118 -0.935475)
(202.747 -1.07367 -2.29248)
(201.781 -1.34942 -3.72571)
(200.147 -1.54597 -5.20101)
(197.646 -1.7059 -6.629)
(193.704 -1.88954 -7.46375)
(188.79 -2.4186 -6.70008)
(201.741 2.16027 2.04527)
(202.387 1.47794 0.962294)
(202.636 0.967422 -0.165702)
(202.492 0.560752 -1.34765)
(201.924 0.287416 -2.59386)
(200.867 0.134966 -3.93394)
(199.132 0.110291 -5.33125)
(196.475 0.213102 -6.71451)
(192.319 0.384836 -7.61552)
(186.787 0.372406 -6.78109)
(198.759 -0.098509 0.41778)
(198.896 -0.162733 0.29556)
(198.934 -0.239694 0.107032)
(198.915 -0.310327 -0.0578423)
(198.848 -0.383482 -0.222984)
(198.743 -0.450005 -0.343345)
(198.609 -0.512454 -0.42036)
(198.463 -0.570412 -0.432977)
(198.317 -0.623689 -0.383267)
(198.15 -0.668247 -0.273329)
(199.463 0.530686 0.367263)
(199.611 0.516924 0.0967186)
(199.665 0.457846 -0.176576)
(199.623 0.360792 -0.437984)
(199.489 0.240371 -0.664905)
(199.271 0.102582 -0.83511)
(198.989 -0.0453739 -0.924323)
(198.671 -0.197171 -0.908709)
(198.359 -0.344809 -0.771816)
(198.117 -0.47064 -0.513379)
(199.805 0.204877 1.00206)
(200.038 0.0666977 0.574567)
(200.122 -0.106046 0.0961059)
(200.057 -0.293472 -0.370773)
(199.843 -0.498131 -0.80016)
(199.488 -0.715664 -1.15462)
(199.011 -0.943954 -1.39157)
(198.452 -1.17948 -1.46532)
(197.876 -1.41713 -1.32178)
(197.406 -1.63214 -0.946313)
(199.982 1.02642 0.994581)
(200.311 0.892895 0.424452)
(200.432 0.695089 -0.180665)
(200.349 0.469983 -0.77628)
(200.056 0.221799 -1.33175)
(199.557 -0.0450732 -1.8032)
(198.861 -0.332464 -2.13148)
(198.01 -0.63948 -2.24268)
(197.075 -0.967813 -2.02958)
(196.271 -1.28566 -1.4235)
(200.369 0.639145 1.61504)
(200.791 0.401506 0.883285)
(200.949 0.117527 0.0789953)
(200.858 -0.172814 -0.713857)
(200.502 -0.476247 -1.47949)
(199.876 -0.788517 -2.16742)
(198.969 -1.11703 -2.70374)
(197.809 -1.46804 -2.9866)
(196.453 -1.86401 -2.83144)
(195.218 -2.2668 -2.08454)
(200.573 1.57166 1.49517)
(201.072 1.30158 0.66472)
(201.265 0.987221 -0.21104)
(201.168 0.675458 -1.08915)
(200.763 0.361258 -1.949)
(200.029 0.043658 -2.74881)
(198.93 -0.294066 -3.40237)
(197.471 -0.666055 -3.79556)
(195.657 -1.11003 -3.64697)
(193.921 -1.60338 -2.71221)
(200.977 0.87065 2.12905)
(201.546 0.485712 1.18916)
(201.769 0.0894465 0.161024)
(201.677 -0.274866 -0.865969)
(201.24 -0.619894 -1.90117)
(200.428 -0.94513 -2.90243)
(199.168 -1.26872 -3.78746)
(197.434 -1.61287 -4.42103)
(195.149 -2.0466 -4.44745)
(192.849 -2.56757 -3.45689)
(201.127 1.97914 1.70437)
(201.734 1.57216 0.750249)
(201.971 1.17316 -0.242393)
(201.87 0.820963 -1.26112)
(201.401 0.511515 -2.29431)
(200.524 0.238282 -3.32552)
(199.138 -0.0225469 -4.26586)
(197.18 -0.30584 -5.00177)
(194.477 -0.683622 -5.08972)
(191.604 -1.24165 -4.02933)
(201.403 0.63442 2.42788)
(202.032 0.107764 1.43667)
(202.28 -0.367117 0.340283)
(202.184 -0.753154 -0.76708)
(201.705 -1.06636 -1.92178)
(200.799 -1.30418 -3.09463)
(199.335 -1.47735 -4.22896)
(197.207 -1.62395 -5.18397)
(194.167 -1.79832 -5.56508)
(190.666 -2.23199 -4.57255)
(200.79 1.98329 1.66781)
(201.391 1.41181 0.761364)
(201.627 0.983323 -0.198139)
(201.493 0.639594 -1.20546)
(200.962 0.412112 -2.2518)
(199.986 0.290278 -3.33739)
(198.433 0.274576 -4.39692)
(196.157 0.358301 -5.31039)
(192.901 0.468956 -5.69501)
(188.926 0.424343 -4.59118)
(198.46 -0.191767 0.321281)
(198.567 -0.236992 0.252218)
(198.592 -0.29197 0.122492)
(198.582 -0.340135 0.0170269)
(198.543 -0.392375 -0.0945598)
(198.483 -0.440079 -0.174412)
(198.407 -0.485294 -0.229686)
(198.325 -0.526539 -0.245343)
(198.241 -0.562587 -0.226319)
(198.122 -0.590013 -0.173603)
(199.082 0.396288 0.199433)
(199.179 0.40896 0.0190493)
(199.215 0.384375 -0.155795)
(199.189 0.324858 -0.320387)
(199.102 0.244141 -0.45859)
(198.965 0.147892 -0.556186)
(198.789 0.0433757 -0.598976)
(198.598 -0.0628872 -0.574078)
(198.416 -0.163163 -0.477326)
(198.28 -0.244487 -0.311627)
(199.297 -0.0129609 0.785445)
(199.463 -0.111538 0.481381)
(199.523 -0.236485 0.134757)
(199.478 -0.375142 -0.202071)
(199.328 -0.529766 -0.507346)
(199.083 -0.695873 -0.752839)
(198.764 -0.869609 -0.909793)
(198.402 -1.04539 -0.952068)
(198.047 -1.21544 -0.854314)
(197.772 -1.3618 -0.621806)
(199.394 0.772706 0.717095)
(199.644 0.693804 0.299598)
(199.738 0.55452 -0.145909)
(199.675 0.385081 -0.581611)
(199.454 0.191529 -0.978608)
(199.085 -0.0202066 -1.30019)
(198.587 -0.247606 -1.50354)
(198.001 -0.486254 -1.54014)
(197.395 -0.729963 -1.35773)
(196.902 -0.95509 -0.931551)
(199.685 0.356092 1.29888)
(200.023 0.187944 0.735211)
(200.15 -0.0281563 0.106968)
(200.076 -0.258884 -0.508545)
(199.791 -0.506582 -1.09111)
(199.301 -0.76492 -1.59404)
(198.615 -1.03644 -1.95892)
(197.777 -1.32149 -2.11244)
(196.862 -1.62676 -1.9542)
(196.077 -1.92106 -1.41126)
(199.825 1.26977 1.1577)
(200.241 1.07821 0.505693)
(200.402 0.835609 -0.187844)
(200.318 0.583877 -0.879825)
(199.976 0.322903 -1.54231)
(199.375 0.0544748 -2.13057)
(198.507 -0.230299 -2.57195)
(197.408 -0.539177 -2.77556)
(196.142 -0.886723 -2.5747)
(195.003 -1.25725 -1.84129)
(200.182 0.567729 1.77726)
(200.672 0.271698 1.01656)
(200.862 -0.0477195 0.171326)
(200.777 -0.350478 -0.668484)
(200.394 -0.643285 -1.49884)
(199.702 -0.92308 -2.2693)
(198.671 -1.20268 -2.90499)
(197.318 -1.49701 -3.28527)
(195.677 -1.84703 -3.1966)
(194.125 -2.24541 -2.37604)
(200.294 1.71219 1.34261)
(200.826 1.40097 0.567056)
(201.034 1.07963 -0.246107)
(200.937 0.788023 -1.07971)
(200.516 0.526424 -1.90799)
(199.749 0.291529 -2.69978)
(198.585 0.0652314 -3.36782)
(197.018 -0.178093 -3.80029)
(195.032 -0.485354 -3.70297)
(193.052 -0.910371 -2.75646)
(200.569 0.346106 2.09532)
(201.13 -0.0808749 1.27276)
(201.348 -0.477966 0.342419)
(201.253 -0.80356 -0.592751)
(200.815 -1.06953 -1.55273)
(200.007 -1.27152 -2.49086)
(198.754 -1.42127 -3.34289)
(197.018 -1.5501 -3.96245)
(194.741 -1.7015 -4.08203)
(192.304 -2.03017 -3.14717)
(199.969 1.81517 1.29872)
(200.506 1.34963 0.562055)
(200.721 1.00025 -0.231126)
(200.6 0.716965 -1.06539)
(200.123 0.532281 -1.91751)
(199.258 0.437124 -2.76897)
(197.924 0.427788 -3.54129)
(196.053 0.494873 -4.1095)
(193.583 0.562944 -4.17924)
(190.809 0.519246 -3.11544)
(198.232 -0.25581 0.265845)
(198.319 -0.290749 0.229543)
(198.337 -0.333204 0.135471)
(198.332 -0.367335 0.0658022)
(198.31 -0.40566 -0.014005)
(198.276 -0.440146 -0.0711373)
(198.233 -0.472759 -0.115478)
(198.187 -0.501792 -0.135258)
(198.137 -0.525883 -0.135991)
(198.043 -0.542326 -0.116916)
(198.8 0.320911 0.0782262)
(198.862 0.348749 -0.0402929)
(198.886 0.346655 -0.147098)
(198.87 0.313604 -0.245244)
(198.816 0.262363 -0.324153)
(198.731 0.197911 -0.375328)
(198.625 0.126617 -0.390984)
(198.511 0.0543229 -0.36399)
(198.405 -0.0126191 -0.295272)
(198.326 -0.064663 -0.185941)
(198.916 -0.168001 0.624934)
(199.028 -0.242255 0.411083)
(199.07 -0.333274 0.162497)
(199.04 -0.434593 -0.0787383)
(198.939 -0.548853 -0.295603)
(198.777 -0.672424 -0.468021)
(198.569 -0.800856 -0.577343)
(198.34 -0.928379 -0.609503)
(198.123 -1.04748 -0.552202)
(197.96 -1.14555 -0.417675)
(198.954 0.579823 0.495825)
(199.137 0.537807 0.198422)
(199.207 0.443166 -0.119638)
(199.161 0.319565 -0.428793)
(199.002 0.173341 -0.704637)
(198.739 0.0109682 -0.918875)
(198.394 -0.16305 -1.04216)
(198 -0.34277 -1.04428)
(197.611 -0.519522 -0.902059)
(197.308 -0.67626 -0.609713)
(199.156 0.129418 1.03354)
(199.416 0.0128413 0.608912)
(199.515 -0.14782 0.129495)
(199.457 -0.326564 -0.33773)
(199.239 -0.523149 -0.772488)
(198.87 -0.730489 -1.13574)
(198.37 -0.947881 -1.38416)
(197.781 -1.17192 -1.46911)
(197.172 -1.40167 -1.33823)
(196.674 -1.6114 -0.963674)
(199.235 1.00973 0.866146)
(199.568 0.879678 0.368479)
(199.697 0.698177 -0.164646)
(199.627 0.50083 -0.694157)
(199.353 0.290526 -1.19043)
(198.88 0.0708631 -1.61234)
(198.22 -0.160938 -1.90292)
(197.417 -0.408031 -1.99707)
(196.547 -0.671601 -1.79858)
(195.805 -0.940714 -1.25425)
(199.543 0.300154 1.46165)
(199.948 0.0784726 0.861099)
(200.106 -0.172561 0.183117)
(200.031 -0.417932 -0.487077)
(199.711 -0.660016 -1.13801)
(199.147 -0.893851 -1.71956)
(198.335 -1.12799 -2.16947)
(197.314 -1.37039 -2.3923)
(196.156 -1.64416 -2.26741)
(195.12 -1.93654 -1.63859)
(199.605 1.47061 1.01133)
(200.053 1.24247 0.399052)
(200.228 0.992031 -0.246677)
(200.141 0.757743 -0.908239)
(199.781 0.542974 -1.55198)
(199.139 0.346852 -2.14158)
(198.2 0.157233 -2.59941)
(196.989 -0.0438351 -2.83416)
(195.562 -0.284684 -2.65422)
(194.219 -0.594805 -1.88854)
(199.876 0.0717119 1.78969)
(200.359 -0.266199 1.12323)
(200.545 -0.591339 0.350737)
(200.458 -0.860561 -0.421493)
(200.075 -1.08225 -1.20235)
(199.386 -1.25078 -1.93801)
(198.356 -1.37756 -2.56668)
(196.99 -1.48633 -2.96)
(195.327 -1.60996 -2.94809)
(193.664 -1.84764 -2.17774)
(199.279 1.66538 0.949171)
(199.741 1.29739 0.369861)
(199.929 1.02194 -0.264846)
(199.823 0.795285 -0.93394)
(199.41 0.649783 -1.60484)
(198.672 0.577638 -2.24967)
(197.57 0.572805 -2.78836)
(196.088 0.62586 -3.11461)
(194.265 0.664534 -3.0109)
(192.377 0.63319 -2.10693)
(198.051 -0.304385 0.237553)
(198.126 -0.333761 0.220997)
(198.139 -0.369457 0.147728)
(198.137 -0.395156 0.0987511)
(198.125 -0.424549 0.0372732)
(198.106 -0.450118 -0.0076958)
(198.081 -0.47392 -0.046894)
(198.056 -0.494367 -0.0705255)
(198.024 -0.510296 -0.0839967)
(197.945 -0.519633 -0.0851095)
(198.587 0.289406 -0.0112626)
(198.626 0.326093 -0.0878273)
(198.642 0.338374 -0.14835)
(198.632 0.323611 -0.201464)
(198.6 0.293636 -0.24095)
(198.549 0.252576 -0.261997)
(198.485 0.205663 -0.260763)
(198.418 0.157743 -0.232981)
(198.355 0.113631 -0.181741)
(198.309 0.0805308 -0.105154)
(198.624 -0.273133 0.509461)
(198.699 -0.333084 0.359352)
(198.726 -0.400744 0.181152)
(198.707 -0.474544 0.00780512)
(198.641 -0.557724 -0.147798)
(198.536 -0.647639 -0.272104)
(198.404 -0.7402 -0.353212)
(198.262 -0.830369 -0.384053)
(198.131 -0.911999 -0.357701)
(198.035 -0.976495 -0.288272)
(198.63 0.441127 0.324014)
(198.758 0.422549 0.118198)
(198.808 0.360633 -0.101754)
(198.777 0.273312 -0.314197)
(198.666 0.166382 -0.50017)
(198.485 0.0459974 -0.638972)
(198.252 -0.0829374 -0.71138)
(197.993 -0.214352 -0.699088)
(197.746 -0.339837 -0.593728)
(197.559 -0.447622 -0.3951)
(198.754 -0.0410651 0.81732)