/*--------------------------------*- C++ -*----------------------------------*\
| =========                 |                                                 |
| \\      /  F ield         | foam-extend: Open Source CFD                    |
|  \\    /   O peration     | Version:     4.0                                |
|   \\  /    A nd           | Web:         http://www.foam-extend.org         |
|    \\/     M anipulation  |                                                 |
\*---------------------------------------------------------------------------*/
FoamFile
{
    version     2.0;
    format      ascii;
    class       regIOobject;
    location    "1000/uniform";
    object      profilingInfo;
}
// * * * * * * * * * * * * * * * * * * * * * * * * * * * * * * * * * * * * * //

profilingInfo
(

    {
        id              24;
        parentId        16;
        description     "Foam::Time::writeObject - outputTime";
        calls           5;
        totalTime       1.93209;
        childTime       0;
        onStack         1;
    }

    {
        id              16;
        parentId        1;
        description     "Foam::Time::writeObject";
        calls           1000;
        totalTime       1.93793;
        childTime       1.93209;
        onStack         1;
    }

    {
        id              1;
        description     "application::main";
        calls           1;
        totalTime       305.99;
        childTime       163.695;
        onStack         1;
    }

    {
        id              19;
        parentId        17;
        description     "FO::Mach::execute";
        calls           999;
        totalTime       1.91952;
        childTime       0;
        onStack         0;
    }

    {
        id              18;
        parentId        17;
        description     "FO::flux::execute";
        calls           999;
        totalTime       0.974737;
        childTime       0;
        onStack         0;
    }

    {
        id              21;
        parentId        17;
        description     "FO::minMaxP::execute";
        calls           999;
        totalTime       0.155201;
        childTime       0;
        onStack         0;
    }

    {
        id              22;
        parentId        17;
        description     "FO::minMaxRho::execute";
        calls           999;
        totalTime       0.148293;
        childTime       0;
        onStack         0;
    }

    {
        id              23;
        parentId        17;
        description     "FO::minMaxT::execute";
        calls           999;
        totalTime       0.145763;
        childTime       0;
        onStack         0;
    }

    {
        id              20;
        parentId        17;
        description     "FO::minMaxU::execute";
        calls           999;
        totalTime       0.474393;
        childTime       0;
        onStack         0;
    }

    {
        id              3;
        parentId        2;
        description     "functionObjectList::read";
        calls           1;
        totalTime       0.005587;
        childTime       0;
        onStack         0;
    }

    {
        id              17;
        parentId        1;
        description     "functionObjects_.execute()";
        calls           999;
        totalTime       3.83887;
        childTime       3.81791;
        onStack         0;
    }

    {
        id              2;
        parentId        1;
        description     "functionObjects_.start()";
        calls           1;
        totalTime       0.005601;
        childTime       0.005587;
        onStack         0;
    }

    {
        id              4;
        parentId        1;
        description     "fvMatrix::solve_U";
        calls           1000;
        totalTime       14.2104;
        childTime       12.1316;
        onStack         0;
    }

    {
        id              12;
        parentId        1;
        description     "fvMatrix::solve_epsilon";
        calls           1000;
        totalTime       9.26922;
        childTime       6.37111;
        onStack         0;
    }

    {
        id              10;
        parentId        1;
        description     "fvMatrix::solve_i";
        calls           1000;
        totalTime       4.39098;
        childTime       3.99097;
        onStack         0;
    }

    {
        id              14;
        parentId        1;
        description     "fvMatrix::solve_k";
        calls           1000;
        totalTime       6.99904;
        childTime       6.61855;
        onStack         0;
    }

    {
        id              8;
        parentId        1;
        description     "fvMatrix::solve_p";
        calls           2000;
        totalTime       123.043;
        childTime       122.21;
        onStack         0;
    }

    {
        id              5;
        parentId        4;
        description     "lduMatrix::solver_Ux";
        calls           1000;
        totalTime       4.08772;
        childTime       0;
        onStack         0;
    }

    {
        id              6;
        parentId        4;
        description     "lduMatrix::solver_Uy";
        calls           1000;
        totalTime       4.05349;
        childTime       0;
        onStack         0;
    }

    {
        id              7;
        parentId        4;
        description     "lduMatrix::solver_Uz";
        calls           1000;
        totalTime       3.99038;
        childTime       0;
        onStack         0;
    }

    {
        id              13;
        parentId        12;
        description     "lduMatrix::solver_epsilon";
        calls           1000;
        totalTime       6.37111;
        childTime       0;
        onStack         0;
    }

    {
        id              11;
        parentId        10;
        description     "lduMatrix::solver_i";
        calls           1000;
        totalTime       3.99097;
        childTime       0;
        onStack         0;
    }

    {
        id              15;
        parentId        14;
        description     "lduMatrix::solver_k";
        calls           1000;
        totalTime       6.61855;
        childTime       0;
        onStack         0;
    }

    {
        id              9;
        parentId        8;
        description     "lduMatrix::solver_p";
        calls           2000;
        totalTime       122.21;
        childTime       0;
        onStack         0;
    }
);


// ************************************************************************* //
