/*--------------------------------*- C++ -*----------------------------------*\
| =========                 |                                                 |
| \\      /  F ield         | foam-extend: Open Source CFD                    |
|  \\    /   O peration     | Version:     4.0                                |
|   \\  /    A nd           | Web:         http://www.foam-extend.org         |
|    \\/     M anipulation  |                                                 |
\*---------------------------------------------------------------------------*/
FoamFile
{
    version     2.0;
    format      ascii;
    class       volScalarField;
    location    "2200";
    object      divFlux;
}
// * * * * * * * * * * * * * * * * * * * * * * * * * * * * * * * * * * * * * //

dimensions      [1 -3 -1 0 0 0 0];

internalField   nonuniform List<scalar> 
34480
(
0.0510664
0.0163447
0.0167521
0.0155103
0.0141248
0.0127956
0.0115464
0.0104079
0.00941969
0.00858185
0.0134957
0.00683445
0.00689818
0.00668671
0.00648587
0.00623702
0.00588978
0.00546342
0.00501277
0.00458395
0.00330027
0.00217123
0.0022141
0.00224841
0.00231478
0.00236953
0.00235617
0.00225845
0.00210259
0.00192238
0.00100442
0.00074711
0.000761169
0.000781566
0.000818028
0.000856823
0.000872713
0.000851361
0.000797469
0.000723881
0.000326918
0.000262317
0.000266846
0.000274616
0.000288494
0.000304684
0.00031355
0.000307929
0.000287503
0.000256865
0.000106607
9.06797e-05
9.24643e-05
9.56186e-05
0.000100669
0.000106574
0.000109747
0.00010732
9.86834e-05
8.66834e-05
3.12356e-05
2.82583e-05
2.93286e-05
3.07962e-05
3.26235e-05
3.45348e-05
3.52596e-05
3.38259e-05
2.995e-05
2.50843e-05
4.73115e-06
5.40851e-06
6.27005e-06
7.16371e-06
7.85129e-06
8.30685e-06
8.1386e-06
7.1353e-06
5.26686e-06
3.09855e-06
6.10872e-06
4.13235e-06
2.92277e-06
2.01764e-06
1.5031e-06
1.3566e-06
1.64106e-06
2.33208e-06
3.3464e-06
4.51352e-06
1.01706e-05
7.6546e-06
6.51987e-06
5.48658e-06
4.8718e-06
4.58527e-06
4.67185e-06
5.10845e-06
5.80827e-06
6.7177e-06
0.0663149
0.0190462
0.0194815
0.0182646
0.0168898
0.0156682
0.0146289
0.0138162
0.0133121
0.0140472
0.0190814
0.00881272
0.00890304
0.00864889
0.00838961
0.00818085
0.0079935
0.00780282
0.00763447
0.00815382
0.00502487
0.00308446
0.00314933
0.0031983
0.00329249
0.00338975
0.00346305
0.00348773
0.00345679
0.00369281
0.00167804
0.0011826
0.00120227
0.00122926
0.00128556
0.00134866
0.0014008
0.00142687
0.00141425
0.00149415
0.000596051
0.000458028
0.000462736
0.000472994
0.000494372
0.000521782
0.000544516
0.000555211
0.000545175
0.000564226
0.000208234
0.000172248
0.000173401
0.000177612
0.000185018
0.000195003
0.000202527
0.000204373
0.000196183
0.000195764
6.32071e-05
5.66884e-05
5.75341e-05
5.97718e-05
6.20873e-05
6.4838e-05
6.60288e-05
6.44119e-05
5.83647e-05
5.36014e-05
6.0239e-06
9.67782e-06
1.06643e-05
1.24435e-05
1.30418e-05
1.29937e-05
1.17213e-05
8.89727e-06
4.45491e-06
6.7091e-07
1.92321e-05
1.3945e-05
1.13154e-05
8.91345e-06
8.16146e-06
8.56526e-06
1.0225e-05
1.31281e-05
1.65619e-05
2.1375e-05
3.6583e-05
2.32098e-05
2.15936e-05
1.8375e-05
1.71196e-05
1.69173e-05
1.80166e-05
2.03135e-05
2.32244e-05
2.81538e-05
0.0671027
0.0165138
0.0172034
0.016336
0.0153729
0.0145665
0.0139629
0.0136188
0.0136876
0.0259226
0.0186627
0.0073151
0.00746585
0.00719991
0.00696587
0.00685218
0.00684405
0.00692915
0.00717595
0.00817572
0.00463014
0.00243679
0.00248061
0.00247569
0.00250187
0.00257562
0.0026963
0.00284491
0.00303388
4.04702e-05
0.00146463
0.000895163
0.000903001
0.000904778
0.000924675
0.000961983
0.00102168
0.00109588
0.00118309
0.00137759
0.000493404
0.000333208
0.000333358
0.000332725
0.000339844
0.000353878
0.00037689
0.000406674
0.000440204
0.000511498
0.000164953
0.000121143
0.00012057
0.000120363
0.000122473
0.000127211
0.000134984
0.000145142
0.000155469
0.000176592
4.93943e-05
3.95465e-05
3.96862e-05
4.00926e-05
4.07646e-05
4.21155e-05
4.41044e-05
4.64214e-05
4.77131e-05
5.01648e-05
7.61508e-06
8.37218e-06
8.96684e-06
9.8142e-06
1.01767e-05
1.03666e-05
1.02371e-05
9.51785e-06
7.42657e-06
3.23556e-06
8.20128e-06
4.76246e-06
3.34609e-06
2.1456e-06
1.63494e-06
1.64324e-06
2.36194e-06
4.07302e-06
7.35616e-06
1.42075e-05
1.41379e-05
7.94738e-06
7.24269e-06
5.96593e-06
5.47248e-06
5.45638e-06
6.11233e-06
7.74083e-06
1.11627e-05
1.97186e-05
0.0681755
0.0150652
0.0158538
0.0152465
0.0145273
0.0139364
0.0135243
0.0120358
0.00310671
0.0144654
0.019304
0.00695107
0.0071114
0.00683884
0.00658135
0.00642474
0.00638322
0.00646476
0.00559997
0.00671762
0.00482263
0.00236743
0.00240538
0.00237211
0.00236024
0.00239322
0.00247825
0.00261352
0.00280004
0.00205163
0.00154438
0.00089172
0.000897708
0.000890402
0.000894363
0.00091516
0.00095888
0.00102513
0.00111244
0.000143408
0.000525987
0.000339328
0.000339036
0.000335587
0.00033789
0.000345776
0.000362921
0.000389544
0.000424125
0.000480445
0.000177697
0.000125662
0.000125021
0.000123965
0.000124688
0.000127401
0.000133277
0.000142532
0.000153987
0.000264701
5.40075e-05
4.18731e-05
4.20034e-05
4.21642e-05
4.25103e-05
4.32971e-05
4.47991e-05
4.70046e-05
4.90916e-05
5.18581e-05
9.23591e-06
9.39278e-06
1.00032e-05
1.07824e-05
1.11161e-05
1.12278e-05
1.10642e-05
1.04371e-05
8.76957e-06
5.51855e-06
7.56506e-06
4.07203e-06
2.80406e-06
1.64003e-06
1.13546e-06
1.12368e-06
1.80119e-06
3.44748e-06
6.60083e-06
1.25353e-05
1.32437e-05
7.54712e-06
6.80422e-06
5.63336e-06
5.16968e-06
5.17654e-06
5.85983e-06
7.53476e-06
1.09552e-05
1.86152e-05
0.0678182
0.0134609
0.014317
0.0139124
0.0133635
0.0128998
0.01064
0.00698014
0.00228677
0.00623979
0.0195314
0.00646314
0.00664951
0.00640775
0.00615527
0.00596739
0.00586169
0.00585106
0.00329417
0.00339101
0.00496692
0.00226651
0.0023033
0.00225211
0.00221281
0.0022068
0.00224072
0.00231877
0.00231668
0.000842344
0.00161455
0.000876272
0.000882117
0.000867477
0.000859604
0.000864558
0.000886924
0.000928864
0.000988782
0.000386763
0.000556056
0.000340749
0.000340604
0.0003355
0.000333367
0.000335684
0.000345022
0.000362526
0.000387532
0.000560858
0.000189505
0.000128326
0.000127941
0.000126326
0.000125878
0.000126704
0.00012997
0.000136184
0.000144923
0.000433637
5.82211e-05
4.3502e-05
4.37614e-05
4.37784e-05
4.38454e-05
4.41053e-05
4.48839e-05
4.63173e-05
4.80661e-05
0.000245263
1.06488e-05
1.01961e-05
1.08574e-05
1.15786e-05
1.18826e-05
1.19148e-05
1.16747e-05
1.1066e-05
9.76939e-06
0.000127331
6.99199e-06
3.41058e-06
2.27609e-06
1.16868e-06
6.82507e-07
6.60756e-07
1.26359e-06
2.71144e-06
5.39587e-06
2.36071e-05
1.25237e-05
7.05738e-06
6.30883e-06
5.24171e-06
4.79925e-06
4.81361e-06
5.46895e-06
7.03995e-06
1.00858e-05
1.64428e-05
0.0660804
0.0117675
0.012637
0.0123803
0.0118094
0.010257
0.00840607
0.0065172
0.0042746
0.000539018
0.019237
0.00585755
0.00606579
0.00586911
0.0056466
0.00546307
0.00533067
0.00482428
0.00299184
0.000523939
0.00504571
0.00213297
0.002171
0.00211069
0.00205475
0.00202151
0.00201525
0.00203905
0.00195146
0.000216076
0.00166854
0.000848181
0.000854445
0.000834502
0.000817966
0.000810515
0.00081506
0.000833233
0.000890084
0.000624048
0.00058128
0.000337068
0.000337481
0.000330663
0.000325284
0.000323094
0.000325764
0.000334203
0.000347547
0.000576342
0.000199796
0.000129069
0.000129034
0.000127067
0.000125517
0.000124815
0.0001258
0.000128899
0.000133829
0.000436456
6.19968e-05
4.44612e-05
4.49086e-05
4.48126e-05
4.46231e-05
4.44416e-05
4.45765e-05
4.51787e-05
4.61094e-05
0.000278797
1.19558e-05
1.08154e-05
1.15489e-05
1.2213e-05
1.24833e-05
1.24509e-05
1.21464e-05
1.15409e-05
1.04891e-05
0.000192415
6.40943e-06
2.77423e-06
1.74879e-06
7.08733e-07
2.37852e-07
2.04457e-07
7.23563e-07
1.94449e-06
4.0991e-06
0.000123106
1.18665e-05
6.51561e-06
5.77734e-06
4.80528e-06
4.37802e-06
4.38467e-06
4.97401e-06
6.35855e-06
8.91058e-06
9.68398e-05
0.0626929
0.00964489
0.0103954
0.0099892
0.0091555
0.00834167
0.00730169
0.00638514
0.00521203
0.00353586
0.0184393
0.00517226
0.00539014
0.00523733
0.00505192
0.00489189
0.0047449
0.00423299
0.0031038
0.00120953
0.00503321
0.00196747
0.00200923
0.00194904
0.00188788
0.00184142
0.00181235
0.00180217
0.00172813
0.000724446
0.00169721
0.000806082
0.000813764
0.000791539
0.000770331
0.000755199
0.00074788
0.000749181
0.000867398
0.000688338
0.000598253
0.000327425
0.000328572
0.000320826
0.000313483
0.00030826
0.000306222
0.000307872
0.000311979
0.00052558
0.000207487
0.000127505
0.000127883
0.00012567
0.000123407
0.000121655
0.000120974
0.00012165
0.000123316
0.000381769
6.50762e-05
4.46353e-05
4.52765e-05
4.51244e-05
4.47322e-05
4.42442e-05
4.39057e-05
4.384e-05
4.39522e-05
0.000243686
1.31571e-05
1.12329e-05
1.20418e-05
1.26534e-05
1.2893e-05
1.28234e-05
1.24871e-05
1.18893e-05
1.09807e-05
0.000174864
5.76831e-06
2.15145e-06
1.21545e-06
2.48839e-07
2.064e-07
2.56887e-07
1.75001e-07
1.18108e-06
2.87742e-06
0.000122313
1.1185e-05
5.92031e-06
5.20039e-06
4.31668e-06
3.90106e-06
3.88827e-06
4.38738e-06
5.55358e-06
7.61301e-06
0.000103274
0.0577829
0.00726282
0.00808338
0.00800594
0.00753521
0.00711277
0.00649682
0.00606957
0.00536855
0.00464992
0.0172441
0.00445641
0.00467164
0.00455507
0.00440261
0.00426771
0.00411313
0.00377124
0.0031248
0.00211811
0.00489747
0.00177128
0.00181706
0.0017637
0.00170617
0.00165849
0.00162254
0.00163229
0.00154799
0.000951389
0.00168868
0.000748572
0.000758355
0.000736823
0.000714908
0.000697083
0.000684356
0.00067704
0.000793815
0.000662117
0.000603109
0.000311031
0.000313079
0.000305312
0.000297372
0.000290811
0.000286269
0.000283973
0.000320409
0.000448628
0.00021134
0.000123283
0.000124062
0.000121821
0.000119299
0.000117038
0.0001154
0.000114551
0.000117867
0.000313204
6.71089e-05
4.38988e-05
4.47056e-05
4.45368e-05
4.4052e-05
4.34202e-05
4.28076e-05
4.2307e-05
4.18128e-05
0.000193386
1.42014e-05
1.14172e-05
1.22841e-05
1.28509e-05
1.30694e-05
1.29939e-05
1.26605e-05
1.20912e-05
1.12707e-05
0.000138195
5.04996e-06
1.54379e-06
6.86246e-07
2.02502e-07
6.42654e-07
7.13549e-07
3.68412e-07
4.45905e-07
1.78081e-06
9.23569e-05
1.04272e-05
5.26986e-06
4.57722e-06
3.77577e-06
3.37219e-06
3.33432e-06
3.73474e-06
4.67724e-06
6.29862e-06
7.68888e-05
0.0531369
0.00579507
0.00654909
0.00661342
0.00632426
0.00609723
0.00569503
0.00550228
0.00501675
0.00473765
0.0157853
0.00375285
0.00395672
0.00386943
0.00374453
0.00364192
0.0035038
0.00327716
0.00290609
0.00235613
0.00463364
0.00155183
0.00159938
0.0015549
0.00150466
0.00146162
0.00142743
0.00144828
0.0013687
0.00101956
0.0016355
0.00067638
0.000687897
0.000668683
0.000648426
0.000631173
0.000617583
0.000607766
0.000693335
0.00060232
0.000592983
0.000287775
0.000290626
0.000283433
0.00027584
0.000269233
0.000263989
0.000260192
0.000302466
0.000370619
0.000210328
0.000116266
0.000117363
0.000115251
0.000112795
0.000110476
0.00010852
0.00010701
0.000138037
0.000248679
6.77528e-05
4.21726e-05
4.30877e-05
4.29225e-05
4.244e-05
4.17953e-05
4.10996e-05
4.04115e-05
3.96078e-05
0.000146491
1.50045e-05
1.13365e-05
1.22299e-05
1.27498e-05
1.29547e-05
1.28959e-05
1.25999e-05
1.20875e-05
1.34354e-05
0.000103113
4.2596e-06
9.63435e-07
1.80921e-07
6.25713e-07
1.04547e-06
1.13652e-06
8.74378e-07
2.30088e-07
8.17702e-07
6.03533e-05
9.56549e-06
4.57484e-06
3.91521e-06
3.19634e-06
2.80732e-06
2.74357e-06
3.04741e-06
3.78376e-06
5.03495e-06
4.91616e-05
0.0484263
0.00472469
0.00535902
0.00547587
0.00528033
0.00515225
0.00486305
0.00478615
0.00441382
0.00434013
0.0141824
0.00309112
0.00327794
0.00321481
0.0031284
0.0030417
0.00292403
0.00277129
0.0025514
0.00223284
0.00426629
0.00132269
0.00136901
0.0013328
0.00129003
0.0012527
0.00122244
0.00123985
0.00117598
0.000972151
0.00153952
0.000593541
0.000605748
0.000589224
0.000571325
0.000555789
0.000543139
0.000533427
0.000584519
0.000526702
0.000567295
0.000258689
0.00026201
0.000255588
0.000248703
0.000242604
0.000237537
0.000233528
0.000262388
0.000299413
0.000203973
0.000106665
0.000107934
0.000106001
0.000103739
0.000101579
9.96627e-05
9.80273e-05
0.000131441
0.000192033
6.6766e-05
3.94709e-05
4.04184e-05
4.02569e-05
3.98069e-05
3.92132e-05
3.85475e-05
3.78471e-05
3.69777e-05
0.000105885
1.54749e-05
1.0973e-05
1.1854e-05
1.23214e-05
1.25085e-05
1.24704e-05
1.22245e-05
1.17907e-05
2.14041e-05
7.32324e-05
3.42679e-06
4.30366e-07
2.73462e-07
9.94204e-07
1.38701e-06
1.4927e-06
1.30399e-06
8.07278e-07
5.63558e-09
3.51922e-05
8.59699e-06
3.85451e-06
3.23581e-06
2.59783e-06
2.23151e-06
2.14544e-06
2.36285e-06
2.92095e-06
3.77551e-06
2.76436e-05
0.0438287
0.00387123
0.00437529
0.00450213
0.00435614
0.00427637
0.00404627
0.00402309
0.003708
0.00371852
0.0125242
0.00253614
0.00266447
0.00263435
0.00256373
0.00247968
0.00238664
0.00228247
0.00214824
0.00195072
0.00382771
0.00109731
0.00114004
0.00111109
0.0010752
0.00104329
0.00104307
0.00102932
0.000979156
0.000854608
0.00140845
0.000505714
0.000517541
0.000503589
0.00048807
0.000474406
0.000463075
0.000454114
0.00047966
0.000442974
0.000527466
0.000225641
0.000229056
0.000223419
0.000217295
0.000211814
0.000207157
0.000203331
0.000218332
0.000237637
0.000192386
9.49996e-05
9.62967e-05
9.45377e-05
9.24866e-05
9.05262e-05
8.87515e-05
8.71806e-05
0.0001145
0.000145458
6.4052e-05
3.58989e-05
3.68115e-05
3.6639e-05
3.62192e-05
3.5681e-05
3.50749e-05
3.44251e-05
3.35982e-05
7.32464e-05
1.55319e-05
1.03254e-05
1.11554e-05
1.15631e-05
1.17244e-05
1.16969e-05
1.14966e-05
1.11381e-05
2.20326e-05
4.97698e-05
2.5927e-06
3.2403e-08
6.51415e-07
1.28152e-06
1.63819e-06
1.7509e-06
1.62316e-06
1.24973e-06
6.29097e-07
1.82566e-05
7.5355e-06
3.13544e-06
2.56485e-06
2.00958e-06
1.67406e-06
1.57413e-06
1.71951e-06
2.12861e-06
2.69055e-06
1.32075e-05
0.038593
0.00307029
0.00345539
0.00358918
0.00349499
0.00346738
0.00330382
0.00334407
0.003098
0.00318034
0.0108517
0.00203035
0.00212929
0.00209897
0.00203813
0.00196943
0.00189978
0.00182825
0.00174347
0.00160998
0.00334576
0.000885333
0.000922952
0.000900333
0.000872521
0.000867669
0.000855202
0.00083065
0.000790863
0.000709381
0.00125121
0.000418107
0.000428716
0.00041714
0.000403945
0.000392168
0.00038226
0.000374255
0.000383134
0.000359072
0.000475924
0.000190708
0.000193901
0.000189043
0.00018369
0.000178847
0.000174662
0.000171137
0.000177073
0.000185307
0.0001761
8.19659e-05
8.31769e-05
8.15912e-05
7.97505e-05
7.79865e-05
7.63675e-05
7.49051e-05
9.548e-05
0.000108806
5.96536e-05
3.16407e-05
3.24666e-05
3.22777e-05
3.18781e-05
3.13859e-05
3.08347e-05
3.02427e-05
2.94823e-05
4.90564e-05
1.5123e-05
9.41364e-06
1.01619e-05
1.05051e-05
1.06341e-05
1.06078e-05
1.04404e-05
1.01437e-05
1.98182e-05
3.27222e-05
1.81088e-06
4.01433e-07
9.28965e-07
1.46465e-06
1.77903e-06
1.89023e-06
1.80741e-06
1.53295e-06
1.06875e-06
8.01885e-06
6.40901e-06
2.45123e-06
1.93258e-06
1.46155e-06
1.16393e-06
1.05997e-06
1.14933e-06
1.44134e-06
2.53749e-06
4.50843e-06
0.0343927
0.00244566
0.00267506
0.00272747
0.00258
0.00248984
0.00227838
0.00227508
0.00199497
0.00205013
0.00918721
0.00153149
0.00161928
0.00160301
0.00156542
0.00152191
0.00148007
0.0014398
0.00139433
0.00130894
0.00287181
0.000727737
0.000759377
0.000743069
0.000722019
0.000700753
0.000678077
0.000651863
0.000619621
0.000561941
0.00107613
0.000334711
0.000343521
0.000334116
0.000323207
0.000313351
0.000304957
0.000298055
0.000296663
0.000280589
0.000415461
0.000155783
0.000158522
0.000154435
0.000149879
0.000145714
0.000142066
0.000138933
0.000140377
0.000141542
0.000155923
6.82954e-05
6.93426e-05
6.79461e-05
6.63298e-05
6.47733e-05
6.33295e-05
6.40901e-05
7.718e-05
8.02661e-05
5.37346e-05
2.69261e-05
2.76319e-05
2.74313e-05
2.70558e-05
2.66065e-05
2.61089e-05
2.55754e-05
2.48885e-05
3.20803e-05
1.42262e-05
8.28016e-06
8.92344e-06
9.20213e-06
9.29712e-06
9.26579e-06
9.12194e-06
1.16331e-05
1.66313e-05
2.08239e-05
1.1317e-06
6.60271e-07
1.09166e-06
1.53195e-06
1.79864e-06
1.9006e-06
1.84966e-06
1.65259e-06
1.31049e-06
2.7248e-06
5.25444e-06
1.83291e-06
1.36905e-06
9.80897e-07
7.28977e-07
6.27802e-07
6.78039e-07
8.80298e-07
2.55305e-06
1.89624e-07
0.0284169
0.00224781
0.00259557
0.00287028
0.00297041
0.00307516
0.00301253
0.00309783
0.00284657
0.00289351
0.00752365
0.00112234
0.0011927
0.00116425
0.00111533
0.00106672
0.00102451
0.00098976
0.000957627
0.000888282
0.0023395
0.000566785
0.000600121
0.000587514
0.000565644
0.000542428
0.000519083
0.000495313
0.000469591
0.000427331
0.00089059
0.000258228
0.000264883
0.00025741
0.000248713
0.000240802
0.000233998
0.000228322
0.000222166
0.000210531
0.000348994
0.000122436
0.000124567
0.000121225
0.000117486
0.00011404
0.000110986
0.000108327
0.000108527
0.000105311
0.000132851
5.46882e-05
5.55232e-05
5.43338e-05
5.29622e-05
5.16371e-05
5.03966e-05
5.71026e-05
6.04633e-05
5.79599e-05
4.6561e-05
2.20052e-05
2.25769e-05
2.23767e-05
2.20348e-05
2.16356e-05
2.11988e-05
2.07321e-05
2.01307e-05
2.06826e-05
1.28584e-05
6.98773e-06
7.50938e-06
7.72852e-06
7.79318e-06
7.75602e-06
1.02471e-05
1.27894e-05
1.30613e-05
1.24632e-05
6.01311e-07
8.00818e-07
1.13615e-06
1.48194e-06
1.69848e-06
1.78563e-06
1.75521e-06
1.61639e-06
1.36895e-06
9.58558e-07
4.11322e-06
1.30586e-06
8.98153e-07
5.87755e-07
3.84311e-07
2.95622e-07
3.19997e-07
4.56011e-07
2.5554e-06
2.42114e-06
0.0117863
0.000897964
0.00153609
0.0018404
0.00196708
0.00184018
0.00167926
0.00125392
0.0011206
0.000658036
0.00591024
0.000931142
0.00102112
0.00104051
0.00103778
0.00102341
0.0010013
0.000974137
0.000942057
0.000895121
0.00180382
0.000402576
0.000445889
0.000441319
0.000423411
0.000401814
0.000379443
0.000357202
0.000334276
0.000299778
0.000703565
0.000191134
0.000195449
0.000189481
0.000182698
0.000176563
0.000171294
0.000166892
0.000162063
0.00015055
0.000279729
9.19654e-05
9.34238e-05
9.07722e-05
8.78283e-05
8.51055e-05
8.2674e-05
8.05289e-05
8.12386e-05
7.56309e-05
0.00010805
4.17764e-05
4.23822e-05
4.14102e-05
4.02976e-05
4.0934e-05
4.58179e-05
4.68763e-05
4.54591e-05
4.03863e-05
3.85003e-05
1.71363e-05
1.75715e-05
1.7387e-05
1.70907e-05
1.6752e-05
1.6385e-05
1.59951e-05
1.54899e-05
1.40812e-05
0.00021441
7.43955e-05
2.93331e-05
1.93077e-05
1.66384e-05
1.52825e-05
1.38384e-05
1.15026e-05
9.10203e-06
6.19325e-06
2.52341e-07
8.27741e-07
1.07202e-06
1.32707e-06
1.49373e-06
1.56402e-06
1.54667e-06
1.4496e-06
1.27344e-06
1.00104e-06
3.02782e-06
8.82868e-07
5.35669e-07
2.9422e-07
1.38745e-07
6.7194e-08
7.75699e-08
3.31077e-07
2.42855e-06
3.24214e-06
0.088525
0.0122125
0.0123752
0.0110061
0.00929824
0.00770519
0.00622579
0.0051046
0.003918
0.00322918
0.00306435
9.77844e-05
4.90211e-05
3.99524e-06
3.86619e-06
2.2399e-05
7.17121e-05
0.000133905
0.000201276
0.000258053
0.00120475
0.000242493
0.000315048
0.000328757
0.000321631
0.000305324
0.000285246
0.000264116
0.000242125
0.000210542
0.000518712
0.000133565
0.000135987
0.000131509
0.000126541
0.000122024
0.000118084
0.000114728
0.000111017
0.000101433
0.000210949
6.52277e-05
6.60484e-05
6.40339e-05
6.18484e-05
6.03949e-05
6.0754e-05
5.98906e-05
5.79049e-05
5.15551e-05
0.000149312
6.67987e-05
5.0788e-05
4.45806e-05
4.19038e-05
4.00757e-05
3.80529e-05
3.52297e-05
3.19806e-05
2.63952e-05
3.00154e-05
1.25624e-05
1.28687e-05
1.27148e-05
1.24743e-05
1.22051e-05
1.19143e-05
1.16075e-05
1.1206e-05
1.00452e-05
0.000635405
0.00027272
0.000119285
5.98732e-05
3.39789e-05
2.1033e-05
1.35245e-05
8.19308e-06
4.2507e-06
6.19113e-07
9.59161e-08
7.5479e-07
9.21884e-07
1.09497e-06
1.21296e-06
1.26463e-06
1.2538e-06
1.18818e-06
1.0668e-06
8.61988e-07
2.04469e-06
5.59442e-07
2.84006e-07
1.02034e-07
1.04178e-08
6.27763e-08
5.93467e-08
3.79816e-07
1.74353e-06
2.98716e-06
0.355273
0.0118834
0.0107458
0.00810582
0.00570144
0.00381
0.00238709
0.00132674
0.000646215
7.76289e-05
0.00551213
0.0019759
0.00183015
0.00159511
0.00133799
0.00109288
0.00087357
0.000681818
0.000511487
0.000365761
0.000799027
5.4681e-05
0.000157441
0.000186232
0.000192706
0.000188509
0.000179904
0.000170483
0.000161426
0.000148053
0.000354047
8.71942e-05
8.82012e-05
8.48258e-05
8.12173e-05
7.7948e-05
7.50336e-05
7.24003e-05
6.9306e-05
6.18152e-05
0.00015948
5.5912e-05
5.45976e-05
5.14351e-05
4.84757e-05
4.57777e-05
4.31877e-05
4.05574e-05
3.77097e-05
3.20846e-05
0.000150185
7.75253e-05
5.48343e-05
4.27759e-05
3.55521e-05
3.05553e-05
2.66366e-05
2.31463e-05
1.99327e-05
1.52662e-05
2.16403e-05
8.49686e-06
8.69176e-06
8.57684e-06
8.4011e-06
8.20232e-06
7.99132e-06
7.76689e-06
7.46948e-06
6.58313e-06
0.00106496
0.000457892
0.000193595
8.81163e-05
4.24941e-05
2.0754e-05
9.17132e-06
2.16839e-06
2.63756e-06
5.83188e-06
9.8877e-08
5.98616e-07
7.11876e-07
8.18958e-07
8.93583e-07
9.26048e-07
9.19362e-07
8.75999e-07
7.95234e-07
6.45482e-07
1.22713e-06
3.17717e-07
1.25356e-07
1.97298e-10
7.64006e-08
1.11449e-07
1.09065e-07
7.42339e-08
1.75648e-07
1.5581e-06
0.433614
0.00472938
0.00508973
0.00424221
0.00333231
0.00258056
0.00200531
0.00158036
0.00139164
0.00103334
0.000937719
0.00143853
0.000944901
0.000522829
0.000210144
9.9652e-06
0.000163645
0.000273989
0.000358372
0.000425368
0.000302503
8.03089e-05
7.94655e-05
0.000120981
0.000127928
0.0001174
9.88703e-05
7.70778e-05
5.3434e-05
2.72904e-05
0.000206818
4.97613e-05
5.02809e-05
4.86265e-05
4.69871e-05
4.56681e-05
4.46891e-05
4.4033e-05
4.32303e-05
3.93922e-05
0.000103179
3.813e-05
3.67657e-05
3.35933e-05
3.0481e-05
2.76795e-05
2.5173e-05
2.28882e-05
2.05831e-05
1.66451e-05
9.7463e-05
5.18009e-05
3.58312e-05
2.68401e-05
2.12108e-05
1.7335e-05
1.44356e-05
1.20797e-05
9.96859e-06
6.96652e-06
1.39374e-05
5.10952e-06
5.21236e-06
5.13702e-06
5.02395e-06
4.89798e-06
4.76021e-06
4.61448e-06
4.41589e-06
3.80445e-06
0.00129665
0.000547948
0.000219206
9.06368e-05
3.65742e-05
1.1918e-05
5.07162e-07
7.42218e-06
1.2188e-05
1.39653e-05
1.62754e-07
3.87032e-07
4.70251e-07
5.33301e-07
5.7413e-07
5.9157e-07
5.85586e-07
5.59074e-07
5.09231e-07
4.05968e-07
6.40788e-07
1.44633e-07
3.59623e-08
3.80656e-08
8.24552e-08
1.01658e-07
9.98231e-08
7.10658e-07
7.8229e-07
1.52318e-06
0.411815
0.00152332
0.000496806
6.83552e-05
0.000393876
0.000572469
0.000667098
0.000743021
0.000582127
0.000728148
0.00270821
0.0017348
0.0014465
0.00115561
0.000906336
0.000703919
0.000543013
0.000415707
0.000313326
0.000237604
4.21855e-05
0.000141927
2.99852e-05
7.73824e-05
9.22293e-05
9.03027e-05
8.08864e-05
6.86325e-05
5.51095e-05
3.8448e-05
9.67461e-05
2.242e-05
2.19753e-05
2.09243e-05
1.99943e-05
1.92415e-05
1.86498e-05
1.82244e-05
1.77692e-05
1.59351e-05
5.03158e-05
1.65628e-05
1.59321e-05
1.44993e-05
1.30704e-05
1.17776e-05
1.06228e-05
9.57661e-06
8.46347e-06
6.43229e-06
3.70528e-05
1.87004e-05
1.31199e-05
9.87769e-06
7.77563e-06
6.31301e-06
5.22169e-06
4.3458e-06
3.47475e-06
1.96606e-06
7.39186e-06
2.49009e-06
2.52319e-06
2.48292e-06
2.42646e-06
2.36103e-06
2.29031e-06
2.21268e-06
2.10182e-06
1.74694e-06
0.00084071
0.000365279
0.000135052
4.77018e-05
1.1782e-05
4.09665e-06
1.18247e-05
1.59888e-05
1.92104e-05
1.95049e-05
1.48312e-07
1.74838e-07
2.30983e-07
2.66521e-07
2.87671e-07
2.95441e-07
2.9058e-07
2.76401e-07
2.50412e-07
1.89206e-07
0.000104548
0.000103125
7.46881e-05
4.99081e-05
3.4579e-05
2.5826e-05
2.10223e-05
1.86676e-05
1.68287e-05
1.6126e-05
0.10747
0.00402375
0.00335411
0.00269652
0.00213732
0.00168452
0.00132243
0.00104108
0.000825995
0.000699524
0.000615584
0.000513986
0.000444691
0.000366104
0.000294271
0.000232294
0.000179349
0.000133298
9.10919e-05
5.09796e-05
0.000134519
5.88714e-05
1.06212e-05
7.7122e-07
3.73931e-06
5.46441e-06
6.20644e-06
6.87186e-06
7.99263e-06
9.1229e-06
3.11453e-05
7.90974e-06
7.61736e-06
7.11541e-06
6.61168e-06
6.12756e-06
5.64446e-06
5.13682e-06
4.50224e-06
3.32927e-06
1.39325e-05
3.80576e-06
3.66407e-06
3.40655e-06
3.15424e-06
2.92579e-06
2.71978e-06
2.52899e-06
2.26697e-06
1.47702e-06
6.35013e-06
2.54705e-06
2.05225e-06
1.73838e-06
1.51272e-06
1.34392e-06
1.20839e-06
1.08613e-06
8.81245e-07
1.46719e-07
2.30534e-06
8.07303e-07
8.09258e-07
7.94866e-07
7.74807e-07
7.53955e-07
7.29332e-07
7.0127e-07
6.59635e-07
5.19017e-07
6.37738e-05
4.58177e-05
1.18756e-05
9.85629e-07
6.47055e-06
8.932e-06
1.01629e-05
1.08975e-05
1.18404e-05
1.247e-05
2.94224e-08
4.97965e-08
6.94461e-08
8.16995e-08
8.8231e-08
9.08164e-08
8.80093e-08
8.32885e-08
7.32745e-08
5.01895e-08
0.000265264
0.000178857
0.000130408
9.92749e-05
8.09425e-05
7.06665e-05
6.50847e-05
6.21689e-05
6.03387e-05
6.06149e-05
1.25867
1.27273
1.46848
1.90121
0.953112
1.00624
1.20406
1.77728
0.525655
0.508376
0.70962
1.1709
0.220238
0.186656
0.331811
0.588551
0.0627639
0.0481641
0.10772
0.198499
0.00177792
0.000335655
0.003113
0.00822777
0.0249496
0.0141766
0.0351688
0.0761993
0.0313392
0.0172721
0.0458823
0.106783
0.0321475
0.016927
0.0489855
0.121079
0.0292623
0.0145683
0.0481175
0.125678
0.113726
0.0314729
0.0139196
0.0701849
0.125403
0.037175
0.0153442
0.0497598
0.085312
0.0251668
0.00899981
0.0293424
0.0435118
0.0118535
0.000973466
0.0219135
0.0148499
0.00300305
0.00102353
0.0100225
0.000935014
0.000371674
0.000502548
9.9655e-05
0.0082311
0.000626463
0.000143498
0.000252639
0.0113098
6.88015e-07
3.15782e-05
3.03973e-05
0.013031
9.45813e-05
0.000108419
0.000106909
0.0133765
0.000139764
0.000166134
0.000162658
0.114925
0.110321
0.107064
0.136383
0.0960274
0.0869044
0.0834093
0.117259
0.0586828
0.0506776
0.0509667
0.0729111
0.0276907
0.0229454
0.0255963
0.0374611
0.00887862
0.00736255
0.00944133
0.0146631
0.000804125
0.000204109
0.000884485
0.00201891
0.00561618
0.00315834
0.00335989
0.00461441
0.00792869
0.00462275
0.00503581
0.00724241
0.00961716
0.00540764
0.00576842
0.00836342
0.0114651
0.00614561
0.00649214
0.00838831
0.0256459
0.0322393
0.034424
0.0375975
0.0234036
0.0249377
0.0271684
0.0344275
0.0157786
0.0156353
0.0178989
0.0241115
0.00779466
0.00757163
0.00906541
0.0133099
0.00241946
0.00254
0.00320883
0.00536508
0.000653613
1.75899e-05
0.000280103
0.000866904
0.00229037
0.00120224
0.000939206
0.00126792
0.00315012
0.00168941
0.00126984
0.00207224
0.0037378
0.00179658
0.00112409
0.00223513
0.00391882
0.00144396
0.000575099
0.00182451
0.00802606
0.0130548
0.014322
0.015893
0.00809403
0.0113366
0.013763
0.017723
0.005363
0.00730832
0.00920939
0.0124067
0.00245506
0.00366459
0.00475873
0.00680413
0.000553183
0.00125044
0.00174114
0.00277268
0.000548232
3.96231e-05
0.000207945
0.000565506
0.00118706
0.000722817
0.000528435
0.000586255
0.00157528
0.001066
0.000804752
0.00108799
0.00191089
0.0012411
0.000819794
0.00126046
0.00209563
0.00124241
0.000687062
0.00122795
0.00172809
0.00146399
0.00231026
0.00326954
0.00122671
0.00404156
0.00569518
0.00781526
0.00125088
0.00296864
0.00421254
0.00598926
0.000428257
0.00154869
0.00230458
0.0034052
0.000119145
0.000513894
0.000870759
0.00142574
0.000443708
6.83737e-05
0.000110869
0.000324407
0.000645173
0.000399014
0.000274682
0.000268486
0.000786396
0.000578739
0.00042797
0.000534214
0.000932583
0.000686527
0.000436576
0.000627727
0.00094968
0.000672112
0.00036642
0.000652502
0.00517123
0.00303466
0.00251542
0.00192844
0.00184149
0.000464733
0.00138323
0.00246898
0.000302839
0.00105031
0.00179231
0.00274682
0.000282248
0.000598807
0.00108432
0.00165186
0.000322842
0.000178297
0.000425329
0.000712548
0.000361852
7.68483e-05
5.37839e-05
0.000175303
0.000400789
0.000241665
0.000160654
0.000137929
0.000444607
0.000342958
0.000259825
0.000290252
0.000508649
0.000415512
0.000277065
0.000350478
0.000478304
0.000405258
0.000256819
0.000394303
0.00618898
0.00465725
0.00435994
0.00402374
0.00322352
0.00140353
0.000935085
0.000425235
0.00102499
4.44285e-05
0.000454267
0.000946214
0.000575763
0.000106802
0.000393373
0.000668775
0.000383612
3.85745e-06
0.000161002
0.000303664
0.00029885
8.05148e-05
9.00275e-06
7.48048e-05
0.000266475
0.000151688
9.83363e-05
7.80159e-05
0.000265171
0.00020363
0.000156015
0.000159737
0.000284626
0.000245933
0.000169465
0.000196199
0.000242053
0.000234149
0.000168287
0.000237001
0.00603231
0.00487466
0.00470877
0.00451738
0.00350114
0.00205417
0.00181918
0.00161295
0.00130926
0.000446199
0.000230549
8.5228e-06
0.000688175
0.000144158
1.58055e-05
0.000134971
0.00039251
8.5286e-05
8.9551e-06
7.5888e-05
0.000252241
8.03747e-05
2.11544e-05
1.32519e-05
0.000188241
0.000100812
6.53106e-05
5.1086e-05
0.000166439
0.000124319
9.57442e-05
9.19631e-05
0.000160205
0.000142947
0.000100688
0.000109589
0.000122896
0.000132723
0.000105609
0.000141211
0.00538125
0.0044848
0.00439602
0.00428882
0.00324516
0.00208688
0.00196923
0.00191798
0.00131619
0.000620481
0.000510726
0.000403278
0.000689112
0.000253687
0.000169583
0.000132737
0.000370988
0.000125702
7.29871e-05
4.72502e-05
0.000213569
7.68898e-05
3.97868e-05
2.37951e-05
0.000137441
6.95647e-05
4.66446e-05
3.82496e-05
0.000106598
7.61347e-05
5.85111e-05
5.39566e-05
8.78824e-05
7.92282e-05
5.57402e-05
5.79492e-05
5.94436e-05
7.17684e-05
6.15367e-05
8.07572e-05
0.00451075
0.00379952
0.00374507
0.00368042
0.00278102
0.00186024
0.00180349
0.00183064
0.00117
0.000614131
0.000557937
0.000512192
0.000618888
0.000273037
0.000230664
0.000232703
0.000326432
0.000132352
0.000104609
9.97918e-05
0.000176765
6.9056e-05
4.70436e-05
4.17038e-05
0.000101089
4.87371e-05
3.49303e-05
3.11433e-05
6.81175e-05
4.57612e-05
3.52237e-05
3.18125e-05
4.6444e-05
4.15443e-05
2.86825e-05
2.85475e-05
2.55977e-05
3.60765e-05
3.27672e-05
4.33591e-05
0.00385152
0.00328933
0.00326513
0.00323238
0.00225073
0.00153015
0.00150476
0.00157128
0.000963831
0.000528244
0.000498866
0.000479937
0.000515962
0.000245715
0.000225326
0.000242898
0.000270234
0.000119044
0.000105202
0.000109235
0.000141292
5.79117e-05
4.54364e-05
4.55307e-05
7.37655e-05
3.41929e-05
2.66938e-05
2.61431e-05
4.29747e-05
2.66875e-05
2.0888e-05
1.89645e-05
2.30197e-05
2.00588e-05
1.34078e-05
1.27082e-05
8.20498e-06
1.59774e-05
1.5353e-05
2.11757e-05
0.00239581
0.00202946
0.00203475
0.00205922
0.00181429
0.00125606
0.00124721
0.00132937
0.000749252
0.000417237
0.000401278
0.000392964
0.000405814
0.000200162
0.000191274
0.000213201
0.000212105
9.7093e-05
9.05993e-05
9.71536e-05
0.00010861
4.5577e-05
3.8793e-05
4.10558e-05
5.3001e-05
2.39012e-05
2.04549e-05
2.18955e-05
2.66017e-05
1.501e-05
1.22483e-05
1.15878e-05
1.0173e-05
8.43547e-06
5.4205e-06
4.83078e-06
8.81817e-08
5.35621e-06
5.71223e-06
8.86946e-06
0.00342181
0.00281205
0.00268874
0.00257825
0.00117385
0.000834753
0.000846192
0.000877109
0.00055479