/*--------------------------------*- C++ -*----------------------------------*\
| =========                 |                                                 |
| \\      /  F ield         | foam-extend: Open Source CFD                    |
|  \\    /   O peration     | Version:     4.0                                |
|   \\  /    A nd           | Web:         http://www.foam-extend.org         |
|    \\/     M anipulation  |                                                 |
\*---------------------------------------------------------------------------*/
FoamFile
{
    version     2.0;
    format      ascii;
    class       volScalarField;
    location    "2200";
    object      k;
}
// * * * * * * * * * * * * * * * * * * * * * * * * * * * * * * * * * * * * * //

dimensions      [0 2 -2 0 0 0 0];

internalField   nonuniform List<scalar> 
34480
(
8.71423
8.7079
8.70505
8.70314
8.70382
8.71963
8.78644
8.97511
9.38874
10.2596
28.7782
30.6192
33.1032
36.0581
39.6372
45.3833
58.5664
89.9179
147.109
214.901
56.0703
58.5176
61.5496
64.8736
68.3287
72.8984
83.7548
117.052
194.834
305.71
56.9762
60.2824
64.5288
69.3771
74.3714
80.0128
90.5118
123.448
212.455
356.333
53.1733
57.2723
62.722
69.1706
76.0115
83.3485
94.6959
128.183
227.778
404.657
47.8215
52.1783
58.1773
65.6366
73.9604
83.1033
96.4273
132.974
247.156
462.705
41.8586
46.149
52.2655
60.2032
69.5656
80.2975
95.6908
135.224
262.486
513.73
32.39
36.0032
41.3106
48.5743
57.6691
68.7966
85.2631
126.07
259.642
533.497
13.8373
15.2521
17.5251
21.0599
26.2719
33.8071
46.039
76.1745
177.843
402.685
9.15322
9.13729
9.14075
9.17037
9.23442
9.32778
9.42907
9.53555
9.72603
9.97729
8.63072
8.63027
8.63955
8.65916
8.68846
8.72917
8.79577
8.91851
9.14757
9.59035
20.2316
21.5596
23.737
26.807
30.7255
35.1025
40.6004
53.5655
89.4193
170.808
41.2931
43.3654
46.2584
49.9243
54.409
59.6797
65.288
77.7956
124.891
253.881
43.1173
45.8015
49.5723
54.3771
60.0536
66.6942
73.4995
85.8914
139.349
302.624
41.1194
44.37
49.0421
55.0777
62.2366
70.4855
78.8711
91.7877
151.905
350.486
37.7085
41.1359
46.2154
53.0495
61.4474
71.2444
81.4849
96.1803
166.298
410.91
33.6308
36.9979
42.1572
49.3477
58.5779
69.6319
81.634
98.1576
177.646
467.482
26.5402
29.326
33.7419
40.2539
49.0917
60.1838
72.8816
90.493
174.923
493.856
11.9891
12.9626
14.6508
17.4987
22.1885
29.2458
38.3315
51.1742
113.071
365.351
9.01932
8.99596
8.98728
9.00119
9.05223
9.14476
9.24996
9.33333
9.58622
10.2156
8.53533
8.53476
8.5417
8.55803
8.58455
8.6218
8.6734
8.75052
8.87494
9.07716
13.8557
14.603
15.8999
17.8653
20.5426
23.9048
28.1249
34.1958
44.7457
62.7435
28.7857
30.292
32.4601
35.2779
38.7507
42.859
47.5838
54.3254
69.2686
102.15
31.1218
33.0893
35.9487
39.7073
44.2193
49.4859
55.1994
62.6664
81.6065
130.672
30.578
32.9663
36.54
41.3009
47.064
53.7591
60.7972
69.1412
92.4527
161.119
28.7694
31.3055
35.2309
40.6897
47.5653
55.7148
64.3916
74.2659
103.584
197.596
26.2943
28.812
32.8493
38.6637
46.3306
55.6881
65.9256
77.3015
112.638
234.2
21.3372
23.4112
26.8565
32.1297
39.5175
49.0054
59.9351
72.3599
112.113
256.112
10.4566
11.1429
12.3751
14.4818
18.0465
23.6618
31.3935
40.9295
70.4906
185.376
8.90268
8.87678
8.86193
8.86421
8.89408
8.96001
9.05229
9.13055
9.26737
9.7012
8.42697
8.4267
8.43155
8.44315
8.46236
8.48998
8.52738
8.57848
8.65503
8.78714
9.77862
10.1263
10.7429
11.7556
13.2186
15.1843
17.7225
20.9679
25.2328
30.8149
19.3994
20.3312
21.6921
23.5108
25.8109
28.5857
31.8619
35.9187
41.9021
52.0552
21.7237
22.9891
24.8499
27.3466
30.4216
34.0801
38.2387
43.1728
51.0309
67.2404
22.1086
23.6818
26.0817
29.3279
33.321
38.0673
43.3255
49.2318
59.2404
83.6474
21.4562
23.1566
25.8564
29.6724
34.5447
40.4686
47.1083
54.4552
67.6609
103.724
20.2035
21.9278
24.7723
28.927
34.4766
41.4164
49.3591
58.0609
74.5494
124.121
17.0091
18.4397
20.8779
24.6681
30.0591
37.1682
45.7255
55.3987
74.6764
136.479
9.2016
9.66518
10.5113
11.9319
14.3084
18.1506
23.8748
31.3348
46.0606
95.8276
8.7683
8.74377
8.72814
8.72577
8.74321
8.78873
8.86548
8.95317
9.05546
9.34595
8.30355
8.30319
8.30608
8.31318
8.32484
8.34149
8.36407
8.39532
8.44384
8.53673
7.46484
7.60511
7.84679
8.26576
8.88709
9.75277
10.9025
12.3426
13.9934
15.7926
13.0893
13.5939
14.333
15.3386
16.6291
18.2042
20.0736
22.242
24.7085
27.8341
15.0268
15.7511
16.8182
18.2728
20.0936
22.29
24.8491
27.781
31.2451
36.4422
15.8319
16.7714
18.2128
20.1759
22.6194
25.5667
28.9525
32.743
37.3917
45.7544
15.8734
16.9148
18.5891
20.9787
24.0515
27.8629
32.3213
37.3469
43.848
57.286
15.4296
16.5191
18.344
21.0217
24.6153
29.2004
34.6774
40.8733
49.282
68.9956
13.5564
14.4782
16.0626
18.5304
22.0518
26.7978
32.7701
39.809
49.9855
75.9324
8.17862
8.47895
9.03093
9.9268
11.373
13.7017
17.3337
22.4492
30.312
51.1534
8.62757
8.60509
8.59002
8.58549
8.59548
8.62603
8.68302
8.76206
8.85367
9.04404
8.16611
8.16569
8.1674
8.17181
8.17898
8.18902
8.2024
8.22129
8.25342
8.3237
6.24986
6.30334
6.38922
6.54501
6.77296
7.08563
7.49581
8.00314
8.5633
9.12537
9.23732
9.48365
9.83989
10.331
10.965
11.7379
12.6443
13.6521
14.6667
15.6883
10.6383
11.0144
11.5658
12.3312
13.3008
14.4752
15.841
17.3567
18.8968
20.6401
11.4979
12.0154
12.8057
13.8869
15.2472
16.8981
18.8118
20.925
23.1071
26.0481
11.8578
12.4509
13.404
14.7738
16.5509
18.7849
21.452
24.4759
27.7463
32.8507
11.8642
12.5108
13.5955
15.1854
17.3262
20.1009
23.501
27.423
31.8267
39.7456
10.895
11.4604
12.4232
13.9117
16.0275
18.9266
22.6873
27.2618
32.7682
43.7047
7.35467
7.5432
7.89049
8.43131
9.26481
10.5691
12.6093
15.604
19.6848
28.247
8.47879
8.45893
8.44545
8.44072
8.44731
8.4693
8.51134
8.57462
8.65205
8.77303
8.01591
8.01543
8.01642
8.01926
8.02398
8.03056
8.03934
8.05207
8.07564
8.13283
5.6335
5.65331
5.68202
5.7383
5.81898
5.92518
6.05745
6.2125
6.37403
6.53246
7.08675
7.19509
7.34485
7.55106
7.81578
8.13535
8.50461
8.90337
9.27985
9.6091
7.98644
8.16197
8.41422
8.77074
9.22502
9.77448
10.4079
11.0933
11.7384
12.3303
8.70797
8.97062
9.36412
9.90028
10.5773
11.3982
12.3462
13.3776
14.3569
15.4042
9.14265
9.45784
9.95531
10.6698
11.602
12.7803
14.1974
15.8068
17.4118
19.3779
9.34356
9.70648
10.3054
11.1726
12.3395
13.8631
15.7519
17.9573
20.226
23.4171
8.93566
9.26839
9.81851
10.6518
11.8195
13.4282
15.5485
18.1879
21.1114
25.6968
6.7109
6.82519
7.03604
7.34924
7.80816
8.49363
9.53104
11.0559
12.9956
16.3405
8.32073
8.30375
8.29233
8.28841
8.29377
8.31114
8.34353
8.39277
8.45405
8.5287
7.85441
7.8539
7.85447
7.85642
7.85978
7.86454
7.87099
7.88063
7.89965
7.94898
5.32409
5.33119
5.34022
5.36096
5.39072
5.42866
5.47376
5.52353
5.57168
5.61862
5.96926
6.01409
6.07038
6.14551
6.2392
6.349
6.47207
6.60021
6.71399
6.80478
6.49277
6.56717
6.66907
6.81538
7.00047
7.22143
7.47129
7.73373
7.96666
8.14899
7.01523
7.1395
7.31802
7.55604
7.8528
8.20759
8.61091
9.04027
9.42763
9.78286
7.39903
7.55672
7.79601
8.13464
8.57295
9.12415
9.78538
10.5339
11.2566
12.0072
7.64125
7.83554
8.14489
8.57966
9.15827
9.90955
10.8414
11.9346
13.023
14.3048
7.54711
7.73674
8.03464
8.46996
9.06253
9.86928
10.934
12.2766
13.7253
15.6337
6.22138
6.28788
6.41154
6.58607
6.83001
7.17513
7.67048
8.37544
9.21383
10.4444
8.1522
8.13813
8.1289
8.12613
8.13113
8.14574
8.17176
8.21034
8.25656
8.30365
7.68262
7.68209
7.68242
7.68387
7.68645
7.69019
7.69534
7.70321
7.71935
7.76305
5.1672
5.16948
5.17196
5.18
5.19205
5.20742
5.22561
5.24543
5.26428
5.28299
5.4112
5.4299
5.44997
5.47458
5.50344
5.53542
5.56961
5.60354
5.63117
5.65173
5.69242
5.72206
5.7594
5.81399
5.88145
5.95953
6.04453
6.12926
6.19761
6.23996
6.03313
6.08947
6.16504
6.26126
6.37669
6.50946
6.65447
6.80193
6.92523
7.0239
6.32442
6.40008
6.50794
6.65569
6.84132
7.06905
7.33698
7.6353
7.91534
8.1743
6.53532
6.63563
6.78717
6.98977
7.25173
7.58371
7.98885
8.46009
8.91882
9.39864
6.59612
6.70179
6.85624
7.07049
7.34906
7.71556
8.19062
8.78796
9.42659
10.1777
5.8598
5.89641
5.96635
6.05993
6.18589
6.35492
6.58452
6.89686
7.24437
7.68383
7.97221
7.96088
7.95371
7.95205
7.95684
7.96929
7.99039
8.02061
8.05472
8.08578
7.50103
7.50051
7.50071
7.50186
7.50398
7.50711
7.51145
7.51815
7.53215
7.57123
5.08489
5.08533
5.08577
5.08922
5.09495
5.10263
5.1123
5.1236
5.13536
5.14749
5.13619
5.14445
5.15161
5.15894
5.16651
5.1741
5.18185
5.18957
5.19573
5.20099
5.27569
5.28717
5.29999
5.31942
5.34262
5.36832
5.39487
5.41936
5.43593
5.44048
5.48005
5.50519
5.53599
5.57257
5.61359
5.65753
5.70204
5.74344
5.77283
5.79112
5.68239
5.7179
5.76446
5.82527
5.89773
5.9825
6.07823
6.18095
6.27284
6.34763
5.83985
5.89027
5.96173
6.05111
6.16151
6.29551
6.45315
6.6314
6.79768
6.95423
5.9648
6.02285
6.10025
6.20071
6.32319
6.47571
6.6661
6.90015
7.14689
7.41503
5.60088
5.61936
5.65733
5.70554
5.76896
5.8504
5.95603
6.09417
6.24088
6.40555
7.77998
7.77111
7.76573
7.76494
7.76938
7.77979
7.79663
7.81991
7.84466
7.86584
7.30978
7.30927
7.30941
7.31036
7.31218
7.31489
7.31867
7.32448
7.33671
7.37166
5.03902
5.03881
5.03873
5.0405
5.04386
5.04878
5.05567
5.06468
5.07535
5.08684
5.001
5.0049
5.00755
5.0094
5.01071
5.01167
5.01279
5.0146
5.01698
5.02046
5.06315
5.06754
5.07172
5.07854
5.08641
5.0947
5.10278
5.10955
5.11278
5.11035
5.17574
5.18688
5.19918
5.21256
5.22612
5.23907
5.25049
5.25927
5.26286
5.26267
5.30871
5.32523
5.34474
5.36875
5.39524
5.4241
5.45473
5.48583
5.51176
5.5289
5.41535
5.44005
5.4727
5.51052
5.55472
5.60554
5.66242
5.7242
5.77796
5.82219
5.55819
5.58985
5.62754
5.67256
5.72287
5.78091
5.84961
5.9312
6.01603
6.10409
5.42159
5.42948
5.44907
5.47288
5.50423
5.5434
5.59261
5.65532
5.72052
5.78847
7.57494
7.56819
7.56427
7.56405
7.56796
7.5764
7.58947
7.60697
7.62468
7.63935
7.10877
7.10829
7.10838
7.1092
7.11079
7.11317
7.11649
7.12156
7.1322
7.16325
5.01136
5.01097
5.01086
5.01201
5.0144
5.01821
5.02408
5.03258
5.04372
5.0563
4.93446
4.93638
4.93742
4.93769
4.93749
4.93713
4.93713
4.93822
4.94072
4.94484
4.95727
4.95899
4.9603
4.9627
4.96539
4.96809
4.97061
4.97253
4.97293
4.97043
5.01258
5.01741
5.02223
5.02698
5.03118
5.03448
5.03658
5.03725
5.03588
5.03371
5.09707
5.10472
5.11271
5.1218
5.13078
5.1395
5.14786
5.15563
5.16139
5.16345
5.16426
5.17592
5.19027
5.20568
5.2227
5.24125
5.261
5.28171
5.29814
5.30919
5.3042
5.32147
5.33934
5.35847
5.37724
5.39641
5.41733
5.44115
5.46599
5.49366
5.30179
5.30381
5.31319
5.32448
5.34002
5.35946
5.38348
5.41374
5.44497
5.47644
7.35679
7.35177
7.34899
7.3491
7.35235
7.35894
7.3688
7.38162
7.39416
7.40441
6.89781
6.89736
6.89743
6.89814
6.89953
6.90162
6.90453
6.90892
6.91809
6.94533
4.99321
4.99284
4.99283
4.99375
4.99564
4.99887
5.00421
5.01259
5.02447
5.03859
4.90155
4.90251
4.90296
4.9029
4.90256
4.90225
4.90245
4.90386
4.90698
4.91186
4.90609
4.90684
4.90728
4.90813
4.90905
4.90992
4.91074
4.91135
4.91137
4.90982
4.92798
4.92995
4.93177
4.93344
4.93473
4.93548
4.93562
4.93513
4.9339
4.93283
4.98084
4.98439
4.98761
4.99089
4.99357
4.99561
4.99707
4.99803
4.99835
4.99731
5.02104
5.02616
5.0321
5.03814
5.04458
5.0514
5.05848
5.06589
5.07123
5.0739
5.1503
5.15978
5.16805
5.17559
5.18141
5.18577
5.18939
5.19305
5.197
5.20556
5.22459
5.22362
5.22755
5.23275
5.24085
5.25141
5.26446
5.2808
5.29732
5.31387
7.12541
7.12177
7.11984
7.12009
7.12266
7.12763
7.13485
7.14402
7.15285
7.16008
6.67668
6.67627
6.67632
6.67693
6.67813
6.67995
6.68247
6.68622
6.69398
6.71749
4.98031
4.98004
4.98016
4.98096
4.98253
4.98531
4.9902
4.9984
5.01088
5.02659
4.88519
4.88565
4.88588
4.88583
4.88569
4.88568
4.88623
4.88798
4.89152
4.89692
4.88223
4.88268
4.88289
4.88319
4.88346
4.88368
4.8839
4.88412
4.8842
4.88347
4.88605
4.88673
4.88738
4.88801
4.88851
4.88882
4.88891
4.88878
4.88843
4.88843
4.91915
4.92081
4.92211
4.92322
4.92385
4.92397
4.92367
4.92307
4.92229
4.92114
4.94272
4.94465
4.94683
4.94914
4.95171
4.95459
4.95771
4.9612
4.96371
4.9649
5.05936
5.06462
5.06838
5.071
5.07199
5.07143
5.06967
5.06729
5.06458
5.06759
5.17649
5.17418
5.17534
5.17777
5.18251
5.18922
5.19754
5.20785
5.21763
5.22758
6.88091
6.87831
6.87699
6.87727
6.87921
6.88283
6.88797
6.89439
6.90061
6.90574
6.44521
6.44484
6.44487
6.44539
6.44641
6.44795
6.45009
6.45322
6.45963
6.47948
4.9705
4.97037
4.97059
4.97129
4.97258
4.97495
4.97931
4.98713
4.9999
5.0171
4.87703
4.87724
4.87739
4.87744
4.8775
4.87775
4.87853
4.88043
4.88412
4.8898
4.87156
4.87194
4.87211
4.87221
4.87221
4.87216
4.87213
4.87217
4.87231
4.87217
4.86662
4.86674
4.86694
4.86723
4.86756
4.86789
4.86821
4.8685
4.86874
4.86932
4.88754
4.88833
4.88887
4.88923
4.8893
4.88906
4.88856
4.88788
4.88716
4.88642
4.90189
4.90232
4.90292
4.90382
4.90509
4.90674
4.90874
4.91114
4.91308
4.91438
5.00596
5.00889
5.01056
5.01125
5.01077
5.00912
5.00638
5.00301
4.99869
5.00057
5.14717
5.14445
5.14427
5.14552
5.1488
5.15382
5.16003
5.16756
5.17394
5.18073
6.62354
6.62173
6.62084
6.62108
6.62248
6.62503
6.6286
6.633
6.63739
6.64105
6.20333
6.203
6.20302
6.20344
6.20428
6.20555
6.20731
6.20984
6.21496
6.23122
4.96258
4.9626
4.96289
4.9635
4.96453
4.96644
4.97018
4.97737
4.98999
5.00845
4.87303
4.87312
4.87325
4.87338
4.87357
4.87397
4.87484
4.8767
4.8803
4.88604
4.86698
4.86734
4.86751
4.86753
4.86743
4.86725
4.86709
4.86702
4.86718
4.86745
4.85861
4.85853
4.85857
4.85874
4.85902
4.85938
4.85981
4.86027
4.86075
4.86149
4.87192
4.87229
4.87254
4.87266
4.87264
4.87245
4.87211
4.87167
4.87119
4.87081
4.88163
4.88143
4.88142
4.88183
4.88266
4.8839
4.8855
4.88747
4.88922
4.89075
4.97331
4.97492
4.97562
4.97564
4.97497
4.97354
4.97127
4.9685
4.96433
4.96641
5.12909
5.12644
5.12565
5.12643
5.12905
5.13323
5.13835
5.14436
5.14874
5.15391
6.35376
6.35252
6.35193
6.35211
6.35309
6.35482
6.35723
6.3602
6.36325
6.36586
5.95117
5.95089
5.9509
5.95123
5.95188
5.95288
5.95426
5.9562
5.96009
5.97289
4.95581
4.95598
4.9563
4.95682
4.95758
4.95902
4.96202
4.96827
4.98018
4.99944
4.87111
4.87116
4.87128
4.87145
4.87171
4.87216
4.87301
4.87469
4.87795
4.88351
4.86494
4.86528
4.86543
4.86542
4.86529
4.86509
4.86487
4.86475
4.8649
4.86542
4.85613
4.85601
4.856
4.85611
4.85632
4.85664
4.85702
4.85745
4.85791
4.85857
4.86454
4.86473
4.86485
4.8649
4.86488
4.86478
4.8646
4.86434
4.86405
4.86389
4.87184
4.87145
4.87127
4.87151
4.87213
4.8731
4.87437
4.87591
4.87737
4.8789
4.95081
4.95166
4.95189
4.95176
4.95127
4.95035
4.94886
4.947
4.94352
4.94604
5.11674
5.11438
5.11336
5.11395
5.11618
5.11979
5.12415
5.1291
5.13205
5.13629
6.07223
6.07142
6.07104
6.07116
6.0718
6.07293
6.07449
6.07644
6.07851
6.08033
5.68924
5.68899
5.68899
5.68923
5.6897
5.69042
5.69142
5.69281
5.69555
5.70504
4.94944
4.94972
4.95004
4.95043
4.95093
4.9519
4.95407
4.95905
4.9695
4.98873
4.87016
4.8702
4.8703
4.87047
4.87073
4.87116
4.8719
4.87328
4.87598
4.881
4.86368
4.86395
4.86407
4.86406
4.86395
4.86377
4.86358
4.86345
4.86357
4.86418
4.85608
4.856
4.85598
4.85605
4.85619
4.8564
4.85666
4.85696
4.85728
4.85774
4.86132
4.86144
4.8615
4.86153
4.86152
4.86145
4.86133
4.86116
4.86096
4.86087
4.86663
4.86626
4.86611
4.86625
4.86668
4.86736
4.86822
4.86924
4.87025
4.87151
4.93214
4.93259
4.93263
4.93251
4.93222
4.93169
4.9308
4.92966
4.92698
4.92962
5.10526
5.10328
5.10225
5.10272
5.10459
5.10764
5.11125
5.11521
5.11693
5.12051
5.77993
5.77942
5.77919
5.77927
5.77965
5.78034
5.7813
5.78249
5.7838
5.78501
5.41807
5.4179
5.41791
5.41807
5.41838
5.41886
5.41952
5.42041
5.42212
5.42858
4.94163
4.9419
4.94219
4.94242
4.94267
4.94319
4.9445
4.9479
4.956
4.97371
4.8695
4.86952
4.8696
4.86974
4.86996
4.87032
4.87089
4.87189
4.87385
4.87781
4.86235
4.86251
4.8626
4.86259
4.86253
4.86241
4.86228
4.86219
4.86227
4.86279
4.85701
4.85696
4.85695
4.85698
4.85705
4.85716
4.85729
4.85744
4.85761
4.85786
4.86019
4.86027
4.86032
4.86033
4.8603
4.86023
4.86012
4.85998
4.85981
4.85971
4.86288
4.86265
4.86256
4.86264
4.86288
4.86324
4.86367
4.86417
4.86469
4.86552
4.91377
4.91406
4.91407
4.914
4.9138
4.91343
4.91283
4.91206
4.91024
4.91236
5.08662
5.08498
5.08409
5.08441
5.08585
5.08817
5.09088
5.09368
5.09422
5.09707
5.47794
5.47765
5.47752
5.47756
5.47776
5.47813
5.47865
5.47931
5.48003
5.48075
5.13745
5.13742
5.13743
5.13752
5.13768
5.13793
5.13827
5.13872
5.13953
5.1436
4.92452
4.92469
4.92488
4.92499
4.92507
4.92524
4.92576
4.92737
4.93213
4.94521
4.86826
4.86826
4.86832
4.86841
4.86858
4.86884
4.86923
4.86984
4.87096
4.8733
4.86104
4.86112
4.86116
4.86117
4.86114
4.86109
4.86102
4.86098
4.861
4.86125
4.85834
4.85833
4.85832
4.85833
4.85836
4.85839
4.85844
4.85849
4.85855
4.85864
4.8601
4.86016
4.86019
4.86019
4.86016
4.86009
4.86
4.85988
4.85975
4.85965
4.86029
4.86019
4.86016
4.86019
4.86028
4.86041
4.86055
4.86068
4.86082
4.86114
4.89342
4.89364
4.8937
4.89365
4.89347
4.89315
4.89269
4.89217
4.89138
4.89258
5.03658
5.03518
5.03453
5.03468
5.03556
5.03698
5.03864
5.04022
5.04002
5.04163
5.16638
5.16623
5.16617
5.16618
5.16626
5.16641
5.16661
5.16688
5.16719
5.16755
12.1684
12.6067
12.3843
11.345
213.03
207.761
204.51
200.108
323.079
316.524
309.636
295.029
395.687
388.836
378.006
357.655
470.539
463.061
447.052
423.465
555.523
543.188
518.031
488.309
629.026
611.281
579.165
546.992
662.656
640.623
604.457
570.304
519.283
496.54
462.774
430.737
13.1922
13.3774
13.2884
13.1328
10.0874
10.4398
10.5857
10.4103
236.16
215.567
211.365
205.467
370.184
343.196
334.12
313.172
463.164
436.516
423.957
389.438
563.615
541.018
520.267
472.391
696.09
671.985
629.877
561.278
823.94
794.076
728.779
646.181
903.539
868.728
788.175
689.484
733.666
700.262
623.973
529.725
12.82
12.8942
12.7174
12.3734
9.22839
9.38379
9.42761
9.32802
81.3673
83.341
80.25
72.7538
137.801
139.905
132.844
117.636
182.962
184.155
173.466
152.138
234.631
235.15
220.109
191.548
302.172
303.463
283.604
244.628
376.296
378.272
352.668
302.833
433.094
434.338
402.407
342.632
346.722
345.158
315.34
260.544
10.7253
10.8135
10.7969
10.7003
8.93932
9.01163
9.02286
8.95659
33.8412
34.0726
33.5312
31.9967
59.2518
59.4817
57.701
54.2293
79.4084
79.2231
76.1131
70.8473
102.81
102.122
97.2836
89.3011
133.089
131.781
124.626
113.331
166.354
164.248
154.435
139.562
192.157
189.282
177.332
159.594
147.076
143.442
133.128
117.246
9.77263
9.82837
9.85599
9.86156
8.70523
8.7589
8.76037
8.70506
16.5307
16.6905
16.5455
16.1937
29.8303
30.1144
29.6354
28.6241
40.0129
40.2799
39.4527
37.8824
51.7558
51.9857
50.6306
48.1672
67.2654
67.5777
65.679
62.2344
84.3177
84.7219
82.2032
77.615
97.2353
97.7539
94.806
89.2441
70.8001
70.8976
68.5072
63.2682
9.21649
9.25519
9.28737
9.31339
8.49935
8.54549
8.54597
8.4979
9.20838
9.23237
9.20682
9.16253
16.1541
16.2336
16.0998
15.8042
21.5659
21.6625
21.4504
21.0166
27.7918
27.9256
27.5803
26.8841
36.1056
36.3743
35.9466
34.9993
45.1693
45.6096
45.0921
43.8263
51.7281
52.3684
51.8372
50.2802
35.481
35.8587
35.4909
33.9519
8.8285
8.85062
8.87569
8.90521
8.30785
8.3498
8.34991
8.30655
6.5279
6.52201
6.52003
6.53077
9.71021
9.7289
9.68562
9.58946
12.5663
12.5978
12.5422
12.4152
15.9192
15.9809
15.8938
15.6802
20.4725
20.6262
20.5536
20.2813
25.3967
25.6751
25.6252
25.2663
28.8087
29.2341
29.238
28.7964
19.0667
19.3542
19.4021
18.9562
8.52883
8.54092
8.55937
8.58716
8.11893
8.15776
8.15773
8.11787
5.62838
5.62009
5.62017
5.63188
6.81702
6.81648
6.7987
6.76509
8.19531
8.20036
8.18421
8.14849
9.92522
9.94468
9.91863
9.84819
12.3673
12.4315
12.4242
12.3434
15.0147
15.1425
15.1606
15.0588
16.8239
17.0306
17.0893
16.9681
11.4318
11.577
11.6539
11.5453
8.27784
8.28376
8.29683
8.32071
7.92552
7.96142
7.96135
7.92471
5.3089
5.3042
5.3043
5.31075
5.64952
5.64622
5.63731
5.62316
6.23931
6.23747
6.23287
6.22513
7.05535
7.05912
7.04974
7.02588
8.28321
8.30588
8.30759
8.28451
9.6407
9.69184
9.70845
9.68154
10.6208
10.71
10.7487
10.7182
8.02599
8.09043
8.13809
8.12167
8.04827
8.05043
8.05938
8.07878
7.72473
7.75761
7.75753
7.72413
5.1813
5.17999
5.18014
5.1826
5.19998
5.19763
5.19244
5.18469
5.43275
5.43031
5.42919
5.42906
5.79407
5.79356
5.78946
5.78098
6.37419
6.38044
6.38172
6.37601
7.02562
7.04273
7.05093
7.04579
7.56872
7.60272
7.62092
7.61478
6.5203
6.54666
6.56989
6.57292
7.82377
7.82369
7.82964
7.84488
7.51506
7.54476
7.54468
7.51462
5.12337
5.12454
5.12477
5.12458
5.022
5.02088
5.0176
5.01243
5.10432
5.10267
5.10264
5.104
5.2611
5.26023
5.25818
5.25467
5.53282
5.53402
5.53447
5.53337
5.83816
5.84274
5.84604
5.8463
6.15432
6.16616
6.1732
6.1721
5.82367
5.83377
5.84415
5.84934
7.59636
7.59502
7.59889
7.61062
7.29558
7.32196
7.32187
7.29526
5.09296
5.09597
5.09626
5.09412
4.94805
4.94782
4.94568
4.94185
4.96674
4.96578
4.96602
4.96733
5.03264
5.03214
5.03105
5.02929
5.16262
5.16262
5.16273
5.16264
5.30987
5.31054
5.31175
5.31291
5.5101
5.51404
5.51625
5.51554
5.48202
5.4851
5.48964
5.49421
7.36262
7.36064
7.3631
7.372
7.06567
7.08861
7.08852
7.06543
5.0743
5.07888
5.07918
5.07535
4.91606
4.91643
4.91503
4.91205
4.90781
4.9073
4.90756
4.90849
4.93266
4.93249
4.9319
4.93088
4.9961
4.99595
4.99597
4.99603
5.07128
5.07093
5.07136
5.07245
5.21149
5.21283
5.21323
5.21227
5.30733
5.30723
5.30924
5.31324
7.12084
7.11864
7.12016
7.12682
6.82494
6.84466
6.8446
6.82474
5.06111
5.06706
5.06732
5.06199
4.90173
4.90254
4.90166
4.89921
4.88259
4.88237
4.88256
4.8831
4.88881
4.88884
4.88852
4.88789
4.92033
4.92025
4.92026
4.92031
4.96219
4.9617
4.96187
4.96275
5.07039
5.07097
5.07078
5.06966
5.2155
5.21385
5.21479
5.21856
6.87
6.86786
6.86876
6.87367
6.57319
6.58991
6.58988
6.57308
5.05076
5.05808
5.05827
5.0514
4.89507
4.89622
4.89569
4.89357
4.8721
4.87208
4.87219
4.87239
4.86992
4.87003
4.86988
4.86947
4.88601
4.886
4.88603
4.88604
4.91235
4.91197
4.91208
4.91274
5.00266
5.00311
5.00279
5.00163
5.16582
5.16338
5.16387
5.1676
6.60948
6.60756
6.60808
6.61163
6.31053
6.32427
6.32425
6.31047
5.04196
5.05087
5.051
5.04238
4.89173
4.89317
4.89288
4.8909
4.86799
4.86813
4.86817
4.86809
4.86209
4.86223
4.86215
4.86188
4.87066
4.87069
4.87071
4.87068
4.88949
4.88928
4.88937
4.88983
4.96866
4.96923
4.96893
4.9677
5.13743
5.1346
5.13492
5.13867
6.33896
6.33736
6.33764
6.34013
6.03704
6.0479
6.04789
6.03702
5.03402
5.04477
5.04484
5.03427
4.88956
4.89126
4.89112
4.88917
4.86642
4.86669
4.86669
4.86639
4.85907
4.85918
4.85913
4.85895
4.86385
4.86388
4.86388
4.86381
4.87829
4.87825
4.87832
4.87857
4.94877
4.94958
4.9493
4.94791
5.11898
5.11606
5.11632
5.12002
6.05845
6.05722
6.05736
6.05903
5.75326
5.76136
5.76136
5.75325
5.02587
5.03846
5.0385
5.02598
4.8872
4.88908
4.88903
4.88707
4.86542
4.86578
4.86575
4.86534
4.85808
4.85815
4.85812
4.85799
4.86085
4.86085
4.86082
4.86072
4.8714
4.87149
4.87154
4.8716
4.93273
4.93381
4.9335
4.9318
5.10303
5.10038
5.10063
5.10397
5.7684
5.76755
5.76761
5.76865
5.46011
5.46568
5.46568
5.46011
5.01358
5.02744
5.02745
5.01359
4.88346
4.88527
4.88526
4.88345
4.86392
4.86426
4.86424
4.86384
4.85803
4.85806
4.85804
4.85796
4.85965
4.85962
4.85956
4.85947
4.86574
4.8659
4.86593
4.86586
4.91487
4.91601
4.91562
4.91373
5.08042
5.0787
5.07894
5.08131
5.46969
5.46922
5.46923
5.46975
5.15758
5.16105
5.16105
5.15758
4.98096
4.99348
4.99348
4.98094
4.87716
4.87834
4.87835
4.87719
4.86187
4.86206
4.86205
4.86183
4.85869
4.85869
4.85868
4.85865
4.85956
4.85951
4.85945
4.85939
4.86139
4.86152
4.86156
4.8615
4.89291
4.8933
4.89286
4.89168
5.02739
5.02749
5.02777
5.02829
5.16228
5.16215
5.16215
5.16229
10.13
9.4318
9.10856
8.98316
8.92744
8.87968
8.82979
8.78493
8.75056
8.72755
197.978
104.247
62.1262
50.041
44.0327
38.6965
34.2607
30.8953
28.8484
28.112
266.449
124.758
88.7202
75.1455
68.2881
62.9999
59.1507
56.498
55.0068
54.7904
307.851
133.743
97.963
81.1319
72.0734
65.2527
60.4741
57.2492
55.3773
55.212
366.536
148.604
106.458
85.1029
72.7665
63.9952
57.9409
53.8865
51.3946
51.0848
439.63
176.88
117.643
89.5534
73.1929
62.1701
54.6389
49.6295
46.4583
45.7975
505.252
202.982
123.12
89.9444
70.714
58.3513
49.9764
44.4778
40.9188
40.0017
532.841
207.853
112.886
79.117
59.5632
47.6678
39.8378
34.9087
31.8061
30.9192
397.769
129.3
56.5224
35.9714
24.89
19.2239
16.0947
14.4555
13.4764
13.2058
12.8222
10.5759
9.94975
9.67321
9.49957
9.38394
9.30638
9.25066
9.2035
9.16911
9.72164
9.26144
9.03735
8.91413
8.83637
8.77713
8.72768
8.68747
8.65832
8.63987
131.924
71.5276
48.5186
38.8187
33.1827
28.7242
25.1247
22.3968
20.6868
19.9355
183.027
96.6083
70.5953
58.9704
52.4459
47.678
44.2279
41.8704
40.5669
40.316
213.215
108.331
79.2766
64.6959
56.4056
50.4513
46.3214
43.5832
42.0291
41.8004
250.625
121.602
87.0033
68.5961
57.8585
50.446
45.3846
42.0579
40.0244
39.6163
316.342
144.284
97.4243
73.37
59.4046
50.1216
43.831
39.6997
37.0651
36.3062
391.457
166.06
103.583
74.9607
58.541
48.0505
40.9988
36.4223
33.4088
32.3836
432.313
172.241
96.8878
67.2752
50.3665
40.1174
33.4255
29.2558
26.5796
25.6041
324.643
108.762
49.6937
31.3876
21.7854
16.8991
14.2036
12.7997
11.9362
11.6301
11.6746
10.2597
9.74674
9.50432
9.3538
9.25187
9.18121
9.12873
9.08291
9.04561
9.131
8.93103
8.8248
8.75134
8.69287
8.64444
8.60529
8.57527
8.55442
8.54167
55.6826
41.9052
33.405
27.5134
23.0857
19.6716
17.1198
15.2974
14.1972
13.7105
85.2371
63.0872
51.1854
43.014
37.5734
33.6964
30.9812
29.1797
28.2293
28.0742
106.02
74.516
58.6902
48.0679
41.3444
36.6603
33.4697
31.3995
30.2865
30.1549
128.655
85.2559
65.0713
51.5645
43.1951
37.5123
33.6731
31.1994
29.7546
29.4827
159.366
101.182
73.4356
56.0015
45.2901
38.1666
33.3586
30.2421
28.3177
27.7577
194.309
116.019
78.8361
58.1491
45.5138
37.3757
31.9207
28.4256
26.1807
25.3962
219.386
120.696
74.5829
53.0966
39.9103
31.8616
26.6331
23.4201
21.4099
20.6706
159.944
74.1262
37.775
24.9419
17.7314
14.109
12.1037
11.0563
10.4179
10.204
10.5256
9.85853
9.51716
9.33042
9.20877
9.12408
9.06229
9.01369
8.96912
8.93157
8.79834
8.68287
8.61655
8.56707
8.52719
8.49494
8.46962
8.45066
8.43786
8.43051
29.2372
24.8221
20.8221
17.4865
14.8746
12.9086
11.4964
10.5209
9.95056
9.70422
47.563
39.9524
33.7949
28.8497
25.2566
22.663
20.8469
19.6505
19.036
18.9498
60.4544
48.9704
40.0208
33.3262
28.7393
25.5168
23.3166
21.897
21.1616
21.0934
73.6892
57.5569
45.2578
36.5415
30.7819
26.8401
24.1782
22.4854
21.5395
21.384
92.3413
69.5053
52.0102
40.5642
33.0732
28.031
24.6264
22.4441
21.1463
20.7841
112.701
80.3245
56.7455
42.9505
33.9519
28.0804
24.1513
21.6674
20.1266
19.5996
127.615
83.6514
54.4979
39.9546
30.3992
24.5229
20.728
18.4318
17.0453
16.5552
90.2857
49.291
27.2783
19.0423
14.1604
11.7115
10.3319
9.60409
9.16206
9.02609
9.84436
9.47712
9.26061
9.12557
9.0334
8.9654
8.91333
8.8706
8.83
8.79533
8.53376
8.4547
8.41299
8.38396
8.3611
8.34255
8.3278
8.31668
8.30932
8.30545
15.7021
14.0448
12.331
10.8554
9.69439
8.8256
8.20489
7.77397
7.52539
7.42359
26.7612
23.736
20.7893
18.2934
16.3587
14.9147
13.8863
13.2065
12.8666
12.8329
34.8915
30.1429
25.5157
21.909
19.2466
17.3189
15.9832
15.1177
14.6813
14.654
43.4396
36.3598
29.5694
24.6556
21.1696
18.7287
17.0708
16.0263
15.4648
15.3898
55.4262
44.8284
34.8016
28.0623
23.3305
20.0777
17.8727
16.4723
15.6681
15.4574
68.1887
52.4958
38.7574
30.351
24.4845
20.5849
17.9748
16.346
15.3686
15.0457
77.2216
54.9485
37.955
28.8277
22.4632
18.5048
15.9589
14.4403
13.5542
13.2588
52.0866
31.0591
19.1685
14.3522
11.3563
9.81598
8.91812
8.4363
8.14227
8.05969
9.33648
9.13745
9.01436
8.92238
8.8546
8.80052
8.75697
8.71993
8.68359
8.65226
8.31898
8.25795
8.22993
8.21245
8.1991
8.1882
8.17944
8.1729
8.1688
8.16704
9.18524
8.6489
8.04389
7.51189
7.08792
6.76499
6.52779
6.35629
6.25804
6.22366
15.2518
14.0729
12.7977
11.6714
10.7592
10.0669
9.57267
9.24834
9.09571
9.09784
20.1133
18.1392
15.9862
14.2261
12.849
11.8296
11.1175
10.6547
10.4295
10.4309
25.3531
22.1591
18.8253
16.2977
14.399
13.0465
12.128
11.5567
11.2631
11.2421
32.7519
27.6986
22.5814
18.9158
16.1887
14.2786
12.9825
12.1673
11.715
11.6112
40.5652
32.7745
25.6051
20.8339
17.3221
14.9447
13.3549
12.3754
11.8046
11.6279
45.8477
34.55
25.608
20.2423
16.3498
13.8937
12.3177
11.3879
10.8623
10.7031
29.5284
19.2874
13.6167
11.011
9.30908
8.38572
7.82286
7.51376
7.32334
7.27528
8.94842
8.84878
8.78225
8.72066
8.67077
8.62784
8.5917
8.5601
8.52825
8.50062
8.12876
8.07741
8.0562
8.04427
8.03556
8.02855
8.02302
8.01905
8.01685
8.0163
6.58628
6.43371
6.24436
6.07261
5.93088
5.81759
5.72943
5.6619
5.62419
5.61606
9.40849
8.95555
8.45563
8.00834
7.64306
7.36744
7.1729
7.04758
6.99658
7.01368
12.1167
11.2989
10.3763
9.59599
8.9686
8.50097
8.1739
7.96013
7.86192
7.87701
15.118
13.6825
12.1752
10.9797
10.0588
9.40093
8.95822
8.68809
8.5581
8.5661
19.4448
17.0822
14.6633
12.805
11.3805
10.373
9.69129
9.2665
9.03949
9.00108
24.0043
20.2546
16.7739
14.2385
12.3198
11.0035
10.125
9.58956
9.28547
9.20151
27
21.5102
17.1175
14.1675
11.9921
10.5968
9.70015
9.17456
8.88675
8.81294
17.1488
12.5957
10.1307
8.79757
7.88006
7.34358
7.00043
6.80685
6.68617
6.65912
8.63991
8.5949
8.5586
8.51717
8.4802
8.44636
8.41677
8.39041
8.36318
8.33945
7.94595
7.90021
7.88252
7.8733
7.86687
7.86189
7.8581
7.85557
7.85441
7.85453
5.64788
5.60392
5.54118
5.48201
5.43134
5.38895
5.35411
5.32626
5.31176
5.31245
6.70542
6.54889
6.38111
6.23187
6.11128
6.02179
5.96011
5.92229
5.91317
5.93126
8.05818
7.75362
7.40408
7.10265
6.85706
6.67284
6.54281
6.45606
6.41995
6.43682
9.63741
9.04036
8.4234
7.9218
7.53464
7.2591
7.07604
6.96721
6.92105
6.93878
12.0304
10.9976
9.93561
9.07901
8.41572
7.94353
7.62395
7.42576
7.32497
7.31922
14.5716
12.8746
11.2848
10.0481
9.10207
8.44466
8.00461
7.73817
7.59037
7.55743
16.2509
13.7463
11.7105
10.2198
9.11271
8.38602
7.91504
7.63975
7.49508
7.4689
10.8761
9.06023
8.04965
7.39075
6.91025
6.60425
6.39887
6.27938
6.20384
6.18871
8.37645
8.35826
8.33733
8.30916
8.28172
8.25537
8.23161
8.21016
8.18754
8.16776
7.76096
7.7194
7.70401
7.69634
7.69118
7.68731
7.68449
7.68275
7.68216
7.68261
5.29924
5.28237
5.25565
5.23021
5.20853
5.19029
5.17491
5.16249
5.15675
5.15957
5.59938
5.54746
5.49688
5.45319
5.41924
5.39547
5.38067
5.37361
5.3772
5.39112
6.20509
6.10883
5.99372
5.8921
5.80724
5.74215
5.69495
5.66211
5.65068
5.66391
6.95084
6.73158
6.51089
6.32908
6.18858
6.0886
6.02339
5.98657
5.97552
5.99244
8.17609
7.77303
7.35473
7.00493
6.73046
6.53187
6.3963
6.3124
6.27319
6.27969
9.50519
8.80826
8.14551
7.60533
7.18572
6.88696
6.6842
6.56189
6.49592
6.48677
10.4449
9.39975
8.5302
7.84692
7.33068
6.97969
6.74887
6.61484
6.54922
6.5462
7.90089
7.23707
6.83154
6.51223
6.2641
6.09155
5.96993
5.89653
5.84919
5.84025
8.13376
8.12715
8.11423
8.09491
8.07468
8.05452