/*--------------------------------*- C++ -*----------------------------------*\
| =========                 |                                                 |
| \\      /  F ield         | foam-extend: Open Source CFD                    |
|  \\    /   O peration     | Version:     4.0                                |
|   \\  /    A nd           | Web:         http://www.foam-extend.org         |
|    \\/     M anipulation  |                                                 |
\*---------------------------------------------------------------------------*/
FoamFile
{
    version     2.0;
    format      ascii;
    class       volScalarField;
    location    "2200";
    object      MaU;
}
// * * * * * * * * * * * * * * * * * * * * * * * * * * * * * * * * * * * * * //

dimensions      [0 0 0 0 0 0 0];

internalField   nonuniform List<scalar> 
34480
(
0.634056
0.639205
0.644132
0.649068
0.654292
0.659692
0.663427
0.65974
0.638828
0.573105
0.641697
0.64783
0.653474
0.658719
0.664087
0.670032
0.675886
0.677743
0.667433
0.612993
0.645464
0.65243
0.658989
0.66524
0.67162
0.678854
0.686947
0.693
0.690563
0.646267
0.646412
0.654884
0.663042
0.670997
0.678995
0.687744
0.697648
0.706823
0.710501
0.673987
0.646975
0.656771
0.666311
0.675768
0.685289
0.695493
0.706997
0.718812
0.727642
0.697113
0.646416
0.657252
0.667831
0.67842
0.68915
0.700564
0.713382
0.7274
0.74061
0.714992
0.646225
0.657733
0.668917
0.680164
0.691624
0.703822
0.71761
0.733591
0.75098
0.730198
0.645276
0.657092
0.668493
0.679939
0.691594
0.703988
0.718131
0.735542
0.756938
0.741395
0.645062
0.656952
0.668396
0.67994
0.691736
0.704239
0.718476
0.736816
0.761966
0.750969
0.640738
0.652687
0.664206
0.67576
0.687344
0.699296
0.712691
0.730702
0.759168
0.753675
0.608999
0.611851
0.613368
0.61327
0.611097
0.606026
0.596763
0.581581
0.555923
0.501372
0.622578
0.626871
0.629989
0.631509
0.631101
0.628068
0.620875
0.607277
0.583688
0.528602
0.630105
0.635484
0.639863
0.642973
0.64448
0.643868
0.639707
0.629256
0.609104
0.555014
0.633579
0.640484
0.646551
0.651595
0.65519
0.656842
0.655251
0.647601
0.630752
0.578597
0.63587
0.644114
0.651642
0.658332
0.663766
0.667413
0.668075
0.663036
0.649376
0.599672
0.636615
0.645956
0.654628
0.662594
0.669501
0.674793
0.67736
0.674666
0.663875
0.616293
0.63739
0.64748
0.656894
0.665697
0.67362
0.68014
0.684284
0.683842
0.676046
0.631078
0.637122
0.647634
0.657439
0.666688
0.675184
0.682474
0.687767
0.689325
0.68476
0.643412
0.637104
0.647739
0.657697
0.667228
0.676218
0.684245
0.690573
0.693873
0.692673
0.655088
0.633241
0.643935
0.654048
0.663718
0.672779
0.680861
0.687453
0.691677
0.693949
0.661158
0.590435
0.591961
0.591979
0.590274
0.58646
0.580002
0.570198
0.55624
0.536737
0.508822
0.606618
0.609521
0.611017
0.610732
0.608166
0.602547
0.592735
0.577169
0.553512
0.517847
0.616323
0.620406
0.623208
0.624391
0.62349
0.619667
0.611445
0.596571
0.571706
0.530042
0.621604
0.627158
0.631569
0.634548
0.635533
0.63365
0.627194
0.613342
0.587922
0.541356
0.625249
0.632116
0.637962
0.642545
0.645266
0.645224
0.640576
0.628066
0.602774
0.552618
0.627063
0.635048
0.642077
0.647965
0.652151
0.653711
0.650728
0.639669
0.614915
0.56227
0.628648
0.637434
0.645289
0.652109
0.657403
0.660266
0.6588
0.649377
0.625758
0.571888
0.629016
0.6383
0.646663
0.654079
0.66014
0.663988
0.663829
0.656121
0.634212
0.580277
0.629401
0.638847
0.647415
0.655167
0.661818
0.666582
0.667756
0.661893
0.642114
0.58813
0.626179
0.635667
0.644397
0.652297
0.659055
0.663951
0.665728
0.661329
0.644152
0.590292
0.577352
0.578075
0.577476
0.575428
0.571748
0.566244
0.558799
0.549547
0.538796
0.526241
0.593748
0.595571
0.596003
0.594777
0.591539
0.585827
0.577095
0.564837
0.548631
0.528727
0.60439
0.607328
0.6089
0.608787
0.606575
0.60163
0.593048
0.579729
0.560464
0.534532
0.610812
0.615096
0.61808
0.619431
0.618621
0.61485
0.606879
0.592996
0.571141
0.539292
0.615469
0.620994
0.625292
0.628063
0.628671
0.626217
0.619169
0.605242
0.581471
0.544404
0.618161
0.624781
0.630221
0.634217
0.636106
0.634909
0.628864
0.615187
0.589973
0.548353
0.620449
0.627889
0.634178
0.63911
0.642047
0.641971
0.636981
0.623914
0.597947
0.552771
0.62139
0.629379
0.636238
0.64183
0.645576
0.646459
0.642528
0.630379
0.604382
0.556678
0.622105
0.630304
0.637413
0.643366
0.647693
0.64945
0.646722
0.635927
0.610666
0.560674
0.619323
0.627586
0.634895
0.641046
0.645577
0.647571
0.645405
0.635747
0.612096
0.560129
0.569325
0.569676
0.569054
0.56741
0.564702
0.560916
0.556152
0.550809
0.545746
0.54148
0.584198
0.58532
0.585267
0.583886
0.580992
0.57639
0.56992
0.561577
0.551654
0.541171
0.594558
0.596625
0.597427
0.596728
0.594244
0.589602
0.582383
0.57225
0.559155
0.544152
0.601361
0.604591
0.60653
0.606878
0.605231
0.601022
0.593519
0.581932
0.565695
0.545698
0.606557
0.610913
0.613982
0.61546
0.614814
0.611321
0.603939
0.591376
0.572369
0.547442
0.609814
0.615206
0.619311
0.621845
0.622187
0.619493
0.612436
0.59922
0.577763
0.548084
0.612601
0.618802
0.623724
0.627121
0.62834
0.626453
0.619905
0.606449
0.583099
0.54921
0.613986
0.620762
0.626273
0.630322
0.632278
0.631165
0.625274
0.611977
0.587379
0.549933
0.615017
0.622044
0.627834
0.632247
0.634721
0.634318
0.629286
0.616688
0.591666
0.550985
0.612603
0.619721
0.625736
0.630374
0.633091
0.632945
0.628331
0.616332
0.591825
0.548374
0.565012
0.565201
0.564738
0.563621
0.561865
0.559518
0.556721
0.55387
0.551873
0.551621
0.577574
0.578255
0.578043
0.57686
0.574641
0.571347
0.566996
0.561738
0.555926
0.550304
0.586857
0.588276
0.588631
0.587775
0.585544
0.581773
0.57634
0.569272
0.560893
0.552206
0.593436
0.59581
0.597012
0.596813
0.594943
0.59107
0.584854
0.576075
0.564871
0.552505
0.598747
0.602099
0.604215
0.604829
0.60355
0.59988
0.593228
0.583037
0.569077
0.552771
0.602271
0.606565
0.60957
0.611016
0.610402
0.607089
0.60022
0.58885
0.572223
0.551817
0.605354
0.610419
0.614163
0.616341
0.616376
0.613521
0.606672
0.594483
0.575531
0.551194
0.607041
0.61268
0.616993
0.619759
0.620386
0.618046
0.611437
0.598823
0.578024
0.550082
0.608327
0.614247
0.618853
0.621967
0.623017
0.621172
0.615026
0.602515
0.580598
0.54932
0.606188
0.612221
0.617067
0.620414
0.62171
0.620095
0.614195
0.601812
0.579624
0.545497
0.563197
0.563321
0.563034
0.562356
0.561313
0.559958
0.55841
0.556995
0.556569
0.558358
0.573318
0.573735
0.573527
0.572658
0.57112
0.568937
0.566183
0.563011
0.559679
0.556616
0.581114
0.582072
0.582201
0.58142
0.579654
0.576857
0.573045
0.568358
0.563131
0.558035
0.587044
0.58875
0.589468
0.589041
0.587312
0.58412
0.579361
0.573079
0.565609
0.557935
0.592118
0.594638
0.596053
0.596155
0.594683
0.591345
0.585862
0.5781
0.568271
0.557664
0.595637
0.598982
0.601121
0.601822
0.600722
0.597393
0.591354
0.582222
0.569955
0.556119
0.598824
0.602873
0.605647
0.60692
0.606238
0.603056
0.596682
0.586439
0.571888
0.554778
0.600661
0.605262
0.608551
0.610314
0.61005
0.607123
0.600644
0.58962
0.573093
0.552829
0.602129
0.607027
0.610606
0.612682
0.612735
0.610094
0.60374
0.592393
0.574464
0.551254
0.600182
0.605206
0.609024
0.611319
0.611589
0.609114
0.602845
0.591305
0.572676
0.546998
0.562877
0.562973
0.562818
0.562436
0.561852
0.561106
0.560283
0.559645
0.559989
0.562819
0.570817
0.571078
0.570927
0.57035
0.569358
0.567989
0.566314
0.564449
0.562555
0.560861
0.577038
0.577677
0.577708
0.577092
0.575803
0.573853
0.571302
0.568293
0.565075
0.562045
0.582087
0.583289
0.583707
0.58324
0.581811
0.579365
0.575912
0.571583
0.566695
0.561889
0.586671
0.588526
0.589448
0.589287
0.587889
0.585107
0.580853
0.575187
0.568432
0.561514
0.589969
0.592516
0.594001
0.594235
0.59298
0.589982
0.585018
0.57802
0.569233
0.559886
0.59309
0.596259
0.598262
0.598907
0.597869
0.594789
0.589286
0.581109
0.570317
0.558408
0.594934
0.598609
0.601057
0.60208
0.601295
0.598253
0.592412
0.5833
0.570683
0.556225
0.596508
0.600481
0.603198
0.604484
0.603913
0.600985
0.595029
0.585359
0.571344
0.554505
0.59468
0.59878
0.601719
0.603195
0.60279
0.599948
0.593945
0.5839
0.569035
0.550232
0.563351
0.563431
0.563357
0.563154
0.562841
0.562443
0.56202
0.561785
0.562485
0.565844
0.569524
0.569692
0.5696
0.569244
0.568639
0.567816
0.566828
0.565751
0.564682
0.563735
0.574281
0.574706
0.574705
0.574263
0.573379
0.57208
0.57043
0.568541
0.566576
0.564764
0.578386
0.57922
0.57946
0.57905
0.577956
0.576178
0.573769
0.570864
0.567705
0.564684
0.582333
0.583671
0.584261
0.584002
0.582811
0.580631
0.577473
0.573463
0.568897
0.564382
0.585258
0.587158
0.588165
0.58814
0.586938
0.584429
0.580546
0.575367
0.569201
0.562908
0.588185
0.590612
0.592025
0.592272
0.591135
0.588403
0.583906
0.577626
0.569817
0.561592
0.589908
0.592781
0.594561
0.595076
0.594056
0.591211
0.586256
0.579037
0.569682
0.559497
0.591523
0.594677
0.596693
0.597413
0.596517
0.59366
0.588451
0.580594
0.569998
0.557998
0.589748
0.593022
0.595232
0.596103
0.595315
0.592471
0.587121
0.578817
0.567397
0.553911
0.564171
0.56424
0.564211
0.564108
0.563944
0.563736
0.563526
0.563489
0.564329
0.567939
0.569004
0.569114
0.569066
0.568859
0.568504
0.568025
0.567455
0.566843
0.566243
0.565712
0.572506
0.572786
0.572782
0.572487
0.57191
0.571076
0.570038
0.568871
0.567679
0.566591
0.575723
0.576293
0.576434
0.576114
0.575326
0.574087
0.572457
0.570547
0.568523
0.566621
0.578979
0.579926
0.5803
0.580037
0.579096
0.57747
0.575207
0.572436
0.569388
0.566446
0.581448
0.582836
0.583507
0.583364
0.582326
0.580341
0.577422
0.573693
0.569437
0.565219
0.584099
0.585917
0.586893
0.586913
0.58584
0.583567
0.58005
0.575375
0.569836
0.564199
0.585599
0.587795
0.58906
0.589254
0.5882
0.58573
0.581723
0.576201
0.569425
0.56233
0.587204
0.589654
0.591113
0.591455
0.590451
0.587889
0.583571
0.577433
0.569632
0.561201
0.58543
0.587982
0.589605
0.590055
0.589109
0.586502
0.581993
0.575411
0.566899
0.557388
0.565081
0.56514
0.565133
0.565083
0.564998
0.564891
0.564789
0.564842
0.565709
0.56941
0.568942
0.569014
0.568994
0.568878
0.568677
0.568403
0.56808
0.567736
0.567403
0.567104
0.571419
0.571603
0.571602
0.571417
0.571055
0.570536
0.569897
0.569187
0.568469
0.567816
0.573877
0.574262
0.574348
0.574119
0.573576
0.572743
0.571669
0.570434
0.569148
0.567951
0.576456
0.577115
0.577352
0.577128
0.576427
0.575263
0.57369
0.571815
0.569803
0.567891
0.578448
0.57944
0.579882
0.579706
0.578873
0.577374
0.575252
0.572632
0.569735
0.566925
0.580782
0.582115
0.582777
0.582686
0.581766
0.579971
0.57732
0.573934
0.570071
0.56624
0.581986
0.583627
0.584506
0.584518
0.583554
0.581529
0.578421
0.574324
0.569514
0.564627
0.583554
0.585414
0.586446
0.586554
0.585588
0.583429
0.580005
0.575369
0.569755
0.563908
0.58174
0.583679
0.584841
0.585022
0.584072
0.581835
0.578208
0.573175
0.566995
0.560386
0.565946
0.565998
0.566
0.565976
0.565932
0.565877
0.56583
0.565915
0.566746
0.57044
0.569125
0.569173
0.569167
0.569105
0.568993
0.56884
0.568658
0.568466
0.568283
0.568114
0.570788
0.570908
0.570911
0.5708
0.570579
0.570265
0.569879
0.569453
0.569023
0.568633
0.572649
0.572905
0.57296
0.572805
0.572445
0.571901
0.571209
0.570423
0.569614
0.568864
0.574608
0.575058
0.575208
0.575036
0.574538
0.573733
0.572668
0.571424
0.570111
0.568877
0.576145
0.57684
0.577127
0.576963
0.576332
0.575243
0.573747
0.571947
0.570004
0.568145
0.578162
0.579117
0.579558
0.57943
0.578692
0.577335
0.575403
0.573011
0.57036
0.567781
0.579023
0.580219
0.580817
0.58074
0.579928
0.578347
0.576023
0.573068
0.569718
0.566391
0.580551
0.58193
0.582642
0.582622
0.581776
0.580049
0.577438
0.57404
0.570083
0.566079
0.578664
0.580098
0.58091
0.580933
0.580076
0.578257
0.575457
0.571732
0.567349
0.562822
0.566706
0.566752
0.566757
0.566747
0.566724
0.566695
0.566673
0.566762
0.567521
0.571137
0.569424
0.569457
0.569457
0.569425
0.569363
0.569277
0.569176
0.569069
0.56897
0.568874
0.570438
0.570515
0.570521
0.570456
0.570326
0.570139
0.56991
0.569658
0.569403
0.569172
0.571871
0.572038
0.572074
0.571974
0.571744
0.571397
0.57096
0.570467
0.569963
0.569495
0.573285
0.573586
0.573682
0.573559
0.573219
0.572678
0.571975
0.571164
0.57032
0.569529
0.574422
0.574898
0.575082
0.574949
0.574492
0.573728
0.572702
0.571492
0.570208
0.568992
0.576145
0.576815
0.577104
0.576978
0.576417
0.575431
0.574066
0.572415
0.570627
0.568909
0.57664
0.57749
0.577889
0.577782
0.577138
0.575955
0.574274
0.572199
0.569911
0.567676
0.578152
0.579149
0.579629
0.579551
0.57886
0.577539
0.575618
0.573197
0.570462
0.567756
0.576163
0.577193
0.577747
0.577691
0.576975
0.575564
0.573482
0.570806
0.567768
0.564713
0.567341
0.567382
0.567387
0.567383
0.56737
0.567355
0.567344
0.567423
0.568088
0.571565
0.569768
0.569789
0.569792
0.569775
0.569741
0.569693
0.569636
0.569577
0.569523
0.569467
0.570246
0.570295
0.570301
0.570265
0.570189
0.57008
0.569946
0.569799
0.56965
0.569514
0.571409
0.571517
0.571541
0.571479
0.571335
0.57112
0.570848
0.570544
0.570232
0.569943
0.572359
0.572556
0.572617
0.572534
0.572309
0.571957
0.571503
0.570984
0.570448
0.569948
0.573165
0.573484
0.573601
0.573501
0.573184
0.572665
0.57198
0.571183
0.570348
0.569563
0.574634
0.575093
0.575279
0.575174
0.574768
0.574076
0.573138
0.572026
0.57084
0.569711
0.574754
0.575343
0.575602
0.575497
0.575014
0.574162
0.572984
0.571564
0.570032
0.568555
0.576298
0.577001
0.577317
0.577225
0.576692
0.575722
0.574355
0.572676
0.570823
0.56902
0.574178
0.574895
0.575263
0.575179
0.574617
0.573568
0.572073
0.570206
0.568147
0.566118
0.567843
0.56788
0.567885
0.567883
0.567876
0.567867
0.56786
0.567923
0.568479
0.571753
0.570123
0.570137
0.57014
0.570131
0.570112
0.570085
0.570052
0.570018
0.569989
0.569955
0.570126
0.570157
0.570161
0.570142
0.570099
0.570036
0.569959
0.569874
0.569788
0.56971
0.571165
0.571234
0.57125
0.571213
0.571125
0.570994
0.570829
0.570643
0.570453
0.570276
0.571726
0.571852
0.571891
0.571837
0.571693
0.571468
0.571181
0.570856
0.570521
0.57021
0.572277
0.572486
0.57256
0.572489
0.572276
0.571934
0.571487
0.570974
0.570441
0.569943
0.573533
0.573839
0.573959
0.573878
0.573596
0.573127
0.572502
0.57177
0.570999
0.570267
0.573279
0.573675
0.57384
0.573751
0.573404
0.572812
0.572011
0.571065
0.570061
0.569103
0.574925
0.575409
0.575613
0.575528
0.575137
0.574452
0.57351
0.572375
0.571147
0.569962
0.572629
0.573111
0.573351
0.573266
0.572847
0.572098
0.571061
0.569795
0.568432
0.567109
0.568194
0.568227
0.56823
0.56823
0.568226
0.56822
0.568215
0.56826
0.568697
0.571695
0.570485
0.570495
0.570497
0.570492
0.570481
0.570465
0.570445
0.570426
0.570409
0.570387
0.570024
0.570042
0.570045
0.570035
0.570011
0.569975
0.569931
0.569883
0.569833
0.569789
0.571067
0.571111
0.571122
0.571101
0.571049
0.570971
0.570872
0.570761
0.570648
0.57054
0.571311
0.57139
0.571414
0.57138
0.57129
0.57115
0.570973
0.570772
0.570567
0.570375
0.571681
0.571815
0.57186
0.571813
0.571675
0.571455
0.571171
0.570848
0.570513
0.570202
0.572757
0.572956
0.573031
0.572974
0.572786
0.572477
0.572072
0.571603
0.571113
0.570647
0.572137
0.572395
0.572497
0.572429
0.572189
0.571791
0.571262
0.570648
0.570003
0.569398
0.573973
0.574298
0.574426
0.574358
0.574085
0.573618
0.572989
0.572243
0.571447
0.570678
0.57141
0.571724
0.571875
0.571803
0.571505
0.570991
0.570295
0.56946
0.568581
0.567735
0.568314
0.568342
0.568346
0.568347
0.568345
0.568343
0.56834
0.568369
0.568683
0.571312
0.570877
0.570884
0.570885
0.570882
0.570875
0.570866
0.570855
0.570843
0.570834
0.570818
0.569916
0.569925
0.569927
0.569921
0.569907
0.569886
0.56986
0.569832
0.569803
0.569778
0.571065
0.571093
0.571101
0.57109
0.571061
0.571016
0.57096
0.570896
0.570829
0.570766
0.571068
0.571116
0.57113
0.571109
0.571054
0.570968
0.57086
0.570739
0.570614
0.570497
0.571325
0.571408
0.571436
0.571406
0.571319
0.571181
0.571004
0.570804
0.570597
0.570405
0.572237
0.572363
0.572409
0.572371
0.57225
0.572054
0.5718
0.571507
0.571205
0.570913
0.571288
0.571452
0.571514
0.571464
0.571304
0.571043
0.570701
0.57031
0.569903
0.569532
0.573406
0.573618
0.573698
0.573648
0.573464
0.573157
0.572751
0.572272
0.57177
0.571272
0.570364
0.570562
0.570654
0.570599
0.570395
0.570054
0.5696
0.569064
0.568511
0.567982
0.568001
0.568025
0.568028
0.56803
0.56803
0.568029
0.568028
0.568044
0.568237
0.570378
0.571366
0.571372
0.571373
0.571372
0.571369
0.571365
0.571361
0.571356
0.571352
0.571342
0.569832
0.569836
0.569836
0.56983
0.56982
0.569805
0.569787
0.569767
0.569748
0.569731
0.571121
0.57114
0.571146
0.571141
0.571126
0.571103
0.571072
0.571037
0.571001
0.570966
0.570967
0.570996
0.571004
0.570991
0.570957
0.570905
0.570839
0.570765
0.570689
0.570618
0.57117
0.571222
0.571239
0.57122
0.571166
0.571081
0.570972
0.570848
0.570721
0.570603
0.571929
0.572007
0.572035
0.572011
0.571935
0.571814
0.571658
0.57148
0.571299
0.571122
0.570776
0.57088
0.570916
0.570882
0.570776
0.570607
0.570388
0.570138
0.569878
0.569651
0.57325
0.573384
0.573433
0.573398
0.573278
0.573082
0.572825
0.572526
0.572218
0.571891
0.569235
0.56936
0.569415
0.569376
0.569241
0.569018
0.568728
0.568387
0.568045
0.567716
0.566986
0.566996
0.566994
0.56699
0.566983
0.566973
0.566961
0.566954
0.567026
0.568499
0.572099
0.572106
0.572108
0.572111
0.572115
0.57212
0.572126
0.572132
0.572138
0.572139
0.569877
0.569877
0.569875
0.569868
0.569857
0.569843
0.569825
0.569805
0.569784
0.569761
0.571191
0.571204
0.571209
0.571209
0.571202
0.571191
0.571176
0.57116
0.571144
0.571129
0.570975
0.570993
0.570998
0.570989
0.570968
0.570935
0.570894
0.570847
0.570799
0.570752
0.571167
0.5712
0.571211
0.571199
0.571165
0.571111
0.571043
0.570964
0.570883
0.570806
0.57179
0.571839
0.571857
0.571842
0.571793
0.571717
0.57162
0.571512
0.571404
0.571299
0.570735
0.570804
0.570827
0.570803
0.570733
0.570621
0.570474
0.570305
0.570123
0.569966
0.573609
0.573693
0.573724
0.573699
0.573621
0.573494
0.573332
0.573147
0.572966
0.572751
0.567713
0.567803
0.567839
0.567813
0.567723
0.567576
0.567383
0.567158
0.566933
0.566708
0.565374
0.565375
0.565364
0.565346
0.565319
0.565285
0.565241
0.565187
0.565129
0.565636
0.573131
0.573139
0.573146
0.573155
0.573167
0.573185
0.573208
0.573237
0.573273
0.57332
0.570114
0.570112
0.570108
0.570101
0.57009
0.570074
0.570054
0.57003
0.570001
0.569964
0.571223
0.571232
0.571237
0.571237
0.571235
0.571229
0.571222
0.571216
0.571212
0.571211
0.571028
0.571041
0.571045
0.571039
0.571024
0.571001
0.570971
0.570938
0.570903
0.570868
0.571226
0.57125
0.571258
0.57125
0.571226
0.571187
0.571138
0.571082
0.571024
0.570968
0.571744
0.57178
0.571793
0.571781
0.571747
0.571692
0.571623
0.571548
0.571475
0.57141
0.571148
0.571202
0.57122
0.571203
0.571151
0.571067
0.570957
0.570827
0.570678
0.570531
0.57446
0.574518
0.57454
0.574522
0.574465
0.574373
0.574259
0.574135
0.574029
0.573924
0.56588
0.565972
0.566005
0.565988
0.565921
0.56581
0.565665
0.565494
0.565313
0.565105
0.357232
0.262842
0.259855
0.358721
0.350637
0.254691
0.250202
0.355886
0.341327
0.244923
0.239484
0.335502
0.329555
0.232237
0.223662
0.300868
0.316222
0.218583
0.20659
0.269073
0.303406
0.208521
0.197215
0.26024
0.292247
0.202261
0.192968
0.256432
0.279658
0.1945
0.186454
0.247391
0.267036
0.18694
0.179489
0.236097
0.255008
0.180063
0.170986
0.219515
0.393796
0.357257
0.351125
0.37498
0.397507
0.355611
0.347678
0.3715
0.396384
0.35018
0.337579
0.35838
0.393051
0.342351
0.323593
0.339303
0.388673
0.333911
0.309776
0.320021
0.379866
0.320987
0.292045
0.297374
0.37093
0.308998
0.276359
0.276648
0.361919
0.29826
0.263723
0.262113
0.353533
0.288677
0.252308
0.247996
0.345449
0.278444
0.238402
0.228757
0.471648
0.458345
0.454082
0.46043
0.475773
0.45821
0.452559
0.46009
0.473922
0.453759
0.446362
0.45186
0.468934
0.44593
0.436199
0.439157
0.462772
0.43702
0.424848
0.425675
0.454536
0.426437
0.412629
0.41254
0.446469
0.416333
0.40107
0.399711
0.437814
0.405994
0.389338
0.386035
0.429856
0.397068
0.37902
0.373105
0.423114
0.390486
0.370109
0.35916
0.505271
0.500712
0.498642
0.499028
0.511176
0.503152
0.500094
0.501795
0.510309
0.500651
0.496341
0.496997
0.506277
0.494692
0.48886
0.488394
0.501226
0.487726
0.480412
0.478936
0.493815
0.478443
0.469735
0.467172
0.486092
0.46894
0.458886
0.455135
0.477546
0.458803
0.447436
0.4422
0.469008
0.449257
0.4367
0.429539
0.45965
0.440252
0.426343
0.415435
0.52682
0.525853
0.524663
0.523207
0.533406
0.529481
0.527557
0.527604
0.533187
0.528273
0.525477
0.524758
0.530133
0.523958
0.520119
0.518534
0.526263
0.518787
0.513897
0.511437
0.520308
0.511503
0.50554
0.502124
0.514048
0.503937
0.496901
0.492466
0.506808
0.49545
0.487323
0.481714
0.499638
0.487413
0.478301
0.471163
0.491767
0.479752
0.469671
0.459408
0.539334
0.539995
0.539316
0.537267
0.546407
0.544328
0.54315
0.542865
0.546603
0.543908
0.542131
0.541286
0.544323
0.540803
0.538297
0.536803
0.541348
0.536946
0.533677
0.5315
0.536438
0.531095
0.527016
0.5241
0.531249
0.52496
0.520066
0.516381
0.52509
0.517889
0.512181
0.507653
0.519086
0.511258
0.504857
0.499243
0.512025
0.504342
0.49739
0.489578
0.547174
0.548636
0.548245
0.545987
0.554521
0.553372
0.552659
0.552376
0.554939
0.553386
0.552266
0.551598
0.553288
0.551191
0.549569
0.548435
0.551048
0.548356
0.54619
0.544551
0.547063
0.543729
0.540979
0.538791
0.54288
0.538893
0.535554
0.5328
0.537769
0.533155
0.529238
0.52589
0.53295
0.527916
0.523534
0.519449
0.526752
0.521747
0.51703
0.511517
0.552244
0.554135
0.55391
0.551561
0.559669
0.559014
0.558585
0.558377
0.560242
0.559316
0.558615
0.55815
0.559099
0.557806
0.556761
0.555974
0.557463
0.555767
0.554342
0.553194
0.55427
0.552135
0.550299
0.548757
0.550967
0.548388
0.546138
0.544194
0.546775
0.543777
0.541129
0.538779
0.543047
0.539776
0.53683
0.534008
0.537583
0.534288
0.531137
0.527446
0.555689
0.557828
0.557699
0.555294
0.563024
0.562643
0.562385
0.562246
0.563693
0.563134
0.562696
0.562387
0.562965
0.562156
0.561485
0.560956
0.56183
0.560743
0.559808
0.559028
0.55932
0.557932
0.556709
0.55565
0.556801
0.555111
0.5536
0.552261
0.55341
0.551441
0.549661
0.548047
0.550661
0.548512
0.546541
0.544636
0.545829
0.543641
0.541544
0.539128
0.558143
0.560434
0.560361
0.557913
0.565268
0.565043
0.564888
0.564801
0.565946
0.565605
0.565333
0.565132
0.565548
0.565038
0.564607
0.564259
0.564817
0.564115
0.563502
0.56298
0.562892
0.561981
0.561168
0.560452
0.561064
0.559945
0.558933
0.558022
0.558345
0.55704
0.555846
0.554749
0.556415
0.554989
0.55367
0.5524
0.552142
0.550679
0.549283
0.547716
0.559972
0.562361
0.562319
0.559838
0.566815
0.56668
0.566587
0.566535
0.567425
0.567217
0.567048
0.56692
0.567277
0.566954
0.566678
0.566451
0.566845
0.56639
0.565989
0.565643
0.565406
0.564808
0.564268
0.563788
0.564173
0.563431
0.562754
0.56214
0.561998
0.561131
0.56033
0.55959
0.560745
0.559793
0.55891
0.558068
0.556954
0.555974
0.555042
0.554029
0.561392
0.563842
0.563818
0.561314
0.567917
0.567835
0.567779
0.567749
0.568396
0.56827
0.568166
0.568085
0.568439
0.568235
0.568059
0.567913
0.568204
0.567911
0.56765
0.567423
0.567153
0.566761
0.566404
0.566085
0.566416
0.565923
0.565472
0.565061
0.564654
0.564077
0.563542
0.563046
0.563971
0.563334
0.562744
0.562189
0.560576
0.559918
0.559297
0.558643
0.562537
0.565016
0.565002
0.562492
0.568732
0.56868
0.568646
0.56863
0.569029
0.568953
0.568889
0.568838
0.569228
0.569099
0.568988
0.568895
0.5691
0.568912
0.568744
0.568596
0.568348
0.568091
0.567858
0.567648
0.568009
0.567684
0.567385
0.567114
0.566533
0.566152
0.565796
0.565465
0.566346
0.565919
0.565528
0.565165
0.563252
0.562813
0.5624
0.561979
0.563492
0.565965
0.565957
0.563466
0.56936
0.569326
0.569306
0.569298
0.569429
0.569383
0.569345
0.569314
0.569775
0.569695
0.569625
0.569567
0.569677
0.569557
0.56945
0.569356
0.569149
0.568983
0.568832
0.568695
0.569122
0.568909
0.568714
0.568536
0.567811
0.567561
0.567327
0.567109
0.568072
0.567787
0.56753
0.567296
0.565181
0.564889
0.564618
0.564349
0.564312
0.566736
0.566731
0.564297
0.56987
0.569848
0.569835
0.569832
0.56966
0.569634
0.569611
0.569591
0.57017
0.57012
0.570077
0.570042
0.57004
0.569966
0.569898
0.569839
0.569679
0.569573
0.569477
0.56939
0.569885
0.569747
0.569621
0.569508
0.568627
0.568466
0.568314
0.568172
0.569319
0.56913
0.568962
0.568817
0.56652
0.566329
0.566152
0.565983
0.565023
0.567337
0.567334
0.565014
0.570319
0.570303
0.570295
0.570295
0.569761
0.569746
0.569733
0.569721
0.570473
0.570443
0.570416
0.570395
0.570271
0.570225
0.570184
0.570147
0.570036
0.56997
0.56991
0.569855
0.570403
0.570315
0.570236
0.570164
0.5691
0.568998
0.568901
0.56881
0.570233
0.570106
0.569999
0.569912
0.567376
0.567252
0.567139
0.567035
0.565586
0.567706
0.567705
0.565582
0.570762
0.570751
0.570746
0.570747
0.569763
0.569755
0.569747
0.56974
0.570724
0.570705
0.570689
0.570677
0.570434
0.570406
0.570381
0.570359
0.570302
0.570261
0.570224
0.57019
0.570761
0.570707
0.570657
0.570613
0.569349
0.569286
0.569225
0.569168
0.570951
0.570864
0.570797
0.57075
0.567773
0.567693
0.567623
0.567559
0.565828
0.567637
0.567636
0.565827
0.571296
0.571289
0.571285
0.571286
0.569722
0.569716
0.569712
0.569709
0.57094
0.57093
0.57092
0.570912
0.570578
0.57056
0.570545
0.570533
0.570536
0.57051
0.570487
0.570468
0.571032
0.570998
0.570968
0.570941
0.569533
0.569492
0.569455
0.56942
0.571641
0.571578
0.571537
0.571517
0.5676
0.567551
0.567507
0.567468
0.565416
0.56674
0.566739
0.565415
0.572103
0.5721
0.572098
0.572096
0.569749
0.569742
0.56974
0.569742
0.571116
0.571111
0.571105
0.571099
0.570723
0.570712
0.570702
0.570696
0.570759
0.570742
0.570728
0.570717
0.571251
0.571231
0.571212
0.571193
0.569854
0.569822
0.569798
0.569783
0.57255
0.5725
0.572473
0.57247
0.566636
0.566604
0.566576
0.566552
0.564358
0.564931
0.564931
0.564357
0.573323
0.573337
0.573336
0.573318
0.569938
0.569925
0.569924
0.569933
0.571211
0.57121
0.571206
0.571199
0.570843
0.570834
0.570827
0.570824
0.570928
0.570915
0.570905
0.570898
0.571389
0.571378
0.571364
0.571348
0.570367
0.570329
0.570312
0.570315
0.57384
0.573808
0.573788
0.573781
0.565014
0.564984
0.564964
0.564953
0.524389
0.563581
0.57898
0.588259
0.596144
0.60374
0.61091
0.617338
0.623224
0.628731
0.518305
0.543968
0.56397
0.579511
0.592562
0.603201
0.612414
0.620614
0.628113
0.635091
0.501869
0.526969
0.556286
0.574521
0.589909
0.60226
0.612897
0.622281
0.630711
0.638285
0.477351
0.509141
0.543299
0.564616
0.582349
0.596552
0.608818
0.619655
0.629395
0.638041
0.453989
0.49284
0.531081
0.555773
0.575566
0.591502
0.605209
0.617297
0.628131
0.63762
0.425011
0.476184
0.518482
0.546562
0.568341
0.585932
0.600937
0.614145
0.625955
0.636207
0.395841
0.462669
0.508354
0.539728
0.56315
0.582159
0.598201
0.612277
0.624773
0.635479
0.366052
0.450325
0.49861
0.533262
0.55804
0.578326
0.595218
0.60999
0.623019
0.634143
0.337353
0.441176
0.490904
0.528699
0.554609
0.576157
0.593775
0.609077
0.622354
0.633707
0.302325
0.430781
0.479836
0.520244
0.547329
0.570094
0.588579
0.604651
0.61846
0.630218
0.458002
0.503173
0.53102
0.551219
0.566284
0.577825
0.586959
0.594329
0.600305
0.605136
0.454277
0.501682
0.533662
0.556225
0.572737
0.585316
0.595435
0.603865
0.611047
0.61724
0.448983
0.499462
0.534947
0.558141
0.57531
0.58864
0.599615
0.608935
0.616991
0.623954
0.43778
0.491067
0.528748
0.55298
0.571469
0.586078
0.598331
0.6089
0.618174
0.626222
0.425501
0.480965
0.520914
0.546971
0.567011
0.583017
0.596526
0.60824
0.618579
0.627511
0.408449
0.468169
0.511107
0.539573
0.561331
0.578796
0.593516
0.606303
0.61762
0.627364
0.389702
0.456639
0.502633
0.533782
0.557094
0.575879
0.591608
0.605248
0.617279
0.62755
0.366752
0.445671
0.494094
0.528071
0.552688
0.572656
0.589203
0.603517
0.616097
0.62683
0.343317
0.437579
0.487096
0.52389
0.549533
0.570623
0.587847
0.602672
0.615516
0.626549
0.315697
0.428943
0.476868
0.516037
0.542687
0.564889
0.582899
0.598433
0.611778
0.623274
0.491322
0.511862
0.5283
0.542249
0.554044
0.563869
0.571958
0.578522
0.583719
0.587661
0.484523
0.510074
0.53117
0.548335
0.562303
0.57368
0.583032
0.59077
0.597164
0.602425
0.479148
0.508017
0.532362
0.551236
0.566413
0.578742
0.588989
0.597632
0.604965
0.611153
0.469252
0.500611
0.527514
0.548
0.564564
0.578125
0.589571
0.599402
0.607926
0.615224
0.45874
0.491622
0.521134
0.543459
0.561536
0.576421
0.589073
0.600021
0.609616
0.617851
0.443958
0.480122
0.51256
0.537123
0.556871
0.573164
0.587015
0.599035
0.609631
0.618736
0.427718
0.469401
0.504842
0.53189
0.55322
0.570827
0.585713
0.59861
0.609968
0.61968
0.408726
0.459119
0.496986
0.526643
0.549316
0.568086
0.583803
0.597385
0.60932
0.619541
0.389243
0.451719
0.490659
0.522973
0.546677
0.566482
0.582837
0.596899
0.6091
0.619641
0.367014
0.444409
0.481749
0.516223
0.540731
0.561436
0.57841
0.593038
0.605631
0.616557
0.51683
0.524395
0.533059
0.541951
0.550205
0.557449
0.563594
0.568646
0.572612
0.575502
0.50961
0.52248
0.535579
0.547596
0.558145
0.567186
0.574836
0.58123
0.58646
0.590637
0.504987
0.520325
0.536152
0.550158
0.562235
0.572527
0.581296
0.588751
0.595033
0.600245
0.496257
0.513607
0.531808
0.547636
0.561269
0.57293
0.582976
0.591658
0.599146
0.605487
0.48657
0.505556
0.526098
0.543815
0.559047
0.572098
0.583394
0.593225
0.601809
0.609128
0.473792
0.495121
0.518207
0.538098
0.555043
0.569541
0.582078
0.593015
0.602634
0.610872
0.460102
0.485136
0.51089
0.533173
0.551778
0.567644
0.581276
0.593138
0.603572
0.612484
0.444178
0.475331
0.503377
0.52816
0.548201
0.565267
0.579776
0.592359
0.60341
0.612875
0.427774
0.468068
0.497278
0.524652
0.545806
0.563898
0.57906
0.592135
0.603487
0.61329
0.409614
0.460834
0.48901
0.518422
0.540342
0.55925
0.574966
0.588541
0.600252
0.61043
0.536486
0.537612
0.541314
0.546189
0.551196
0.555862
0.559978
0.563443
0.566177
0.568132
0.530032
0.535983
0.543237
0.550711
0.557832
0.564303
0.569993
0.574848
0.578832
0.581972
0.526506
0.533803
0.543034
0.552367
0.561128
0.569036
0.576011
0.582045
0.587144
0.591342
0.519328
0.52777
0.53887
0.549998
0.560394
0.569773
0.578103
0.585409
0.59172
0.597036
0.511109
0.520592
0.533568
0.546522
0.558548
0.569377
0.579008
0.587502
0.594931
0.601243
0.500217
0.511195
0.526216
0.541198
0.554934
0.567241
0.578158
0.587798
0.596292
0.603555
0.488644
0.502057
0.519269
0.536468
0.551889
0.565608
0.577679
0.588295
0.597652
0.605642
0.475414
0.492903
0.512094
0.531604
0.548511
0.563464
0.576463
0.587847
0.597866
0.606449
0.462081
0.486005