/*--------------------------------*- C++ -*----------------------------------*\
| =========                 |                                                 |
| \\      /  F ield         | foam-extend: Open Source CFD                    |
|  \\    /   O peration     | Version:     4.0                                |
|   \\  /    A nd           | Web:         http://www.foam-extend.org         |
|    \\/     M anipulation  |                                                 |
\*---------------------------------------------------------------------------*/
FoamFile
{
    version     2.0;
    format      ascii;
    class       volScalarField;
    location    "2200";
    object      mut;
}
// * * * * * * * * * * * * * * * * * * * * * * * * * * * * * * * * * * * * * //

dimensions      [1 -1 -1 0 0 0 0];

internalField   nonuniform List<scalar> 
34480
(
0.00190199
0.00189975
0.00189864
0.00189901
0.00190183
0.0019094
0.00192659
0.00195853
0.00200522
0.00212233
0.0178342
0.0163584
0.0137606
0.00989732
0.00582551
0.00306449
0.00187957
0.00169756
0.002003
0.00236917
0.0516397
0.0468951
0.0394185
0.0290431
0.0174483
0.00838181
0.00387547
0.0025542
0.00265269
0.00304887
0.0641732
0.0592646
0.0513525
0.0397062
0.0252857
0.0124172
0.00528367
0.00299356
0.00293665
0.00339434
0.069525
0.0652682
0.0580853
0.0466989
0.0311917
0.0158145
0.00650179
0.00334463
0.00316845
0.00370146
0.0714144
0.0679579
0.0616425
0.0507823
0.0348052
0.0179237
0.00726065
0.00359002
0.00342138
0.00407811
0.0700472
0.0676097
0.0624792
0.0525712
0.036781
0.0192087
0.00777157
0.00378008
0.00366465
0.00445213
0.0593662
0.0585201
0.0554993
0.0479467
0.0341583
0.0179524
0.00732056
0.00364174
0.00372202
0.00468003
0.0192286
0.0199235
0.0204446
0.019502
0.0151905
0.00851291
0.00377825
0.00216684
0.00265271
0.00382863
0.00177351
0.00176218
0.00175342
0.0017475
0.00174547
0.00174692
0.00175083
0.00175754
0.00175696
0.00172605
0.00191529
0.00191422
0.00191499
0.00191808
0.00192392
0.00193329
0.00194883
0.00197527
0.00201976
0.00209593
0.0165375
0.0162393
0.0156626
0.0143889
0.0119104
0.00821642
0.00461146
0.0027201
0.00244111
0.00326289
0.0497394
0.0475315
0.043692
0.0377881
0.0299197
0.0204728
0.0110398
0.00519724
0.00376645
0.00491214
0.0613724
0.0591036
0.0550822
0.0485626
0.0394335
0.0279776
0.015493
0.00671825
0.00439897
0.00582038
0.0661607
0.0644337
0.0611252
0.0552308
0.046066
0.0337827
0.0192769
0.00798415
0.0049011
0.00665121
0.067815
0.0667597
0.0643389
0.0593484
0.0505521
0.0379349
0.0220772
0.00889214
0.0053683
0.00766985
0.0665079
0.0662379
0.0649292
0.0611712
0.0532478
0.0408485
0.0242528
0.00960729
0.00579182
0.00872624
0.0562421
0.0569436
0.057216
0.0556756
0.0501827
0.0397592
0.024148
0.00944005
0.00583605
0.00939049
0.018003
0.0187042
0.0198277
0.0212147
0.0220846
0.0206232
0.0140759
0.0054933
0.0037412
0.00703547
0.00177526
0.00176309
0.00175287
0.00174527
0.00174176
0.00174303
0.00174726
0.00175372
0.00178475
0.00189443
0.00192054
0.00192039
0.00192183
0.0019254
0.00193143
0.00194023
0.0019525
0.00196974
0.00199462
0.00202983
0.0146334
0.0145954
0.0146232
0.0144913
0.0137572
0.0120489
0.00950144
0.00696002
0.00533946
0.00480212
0.0461625
0.0450959
0.0430058
0.0395685
0.0345543
0.0277903
0.0197952
0.0124673
0.00816959
0.00700664
0.0566331
0.0556208
0.0534996
0.0496525
0.0438393
0.0356569
0.0252608
0.0150021
0.00912263
0.00801668
0.0607607
0.0602225
0.0587796
0.0555617
0.0499771
0.0414502
0.0295693
0.0168175
0.00965796
0.00888134
0.0621827
0.0621872
0.0615508
0.0592553
0.0542507
0.0457788
0.0328553
0.0180023
0.00999505
0.00983131
0.0610792
0.0616566
0.0619505
0.0608232
0.0568127
0.0488585
0.0353795
0.0187658
0.0101716
0.0107643
0.0517838
0.0528962
0.054243
0.0548679
0.0530356
0.0471217
0.0347852
0.0179897
0.00971438
0.0112288
0.016812
0.0173609
0.0183431
0.0197721
0.0214014
0.0220954
0.018848
0.0103536
0.00590142
0.00791685
0.00177101
0.00176008
0.00175097
0.00174439
0.00174158
0.00174418
0.00175277
0.00176648
0.00179834
0.00189746
0.0019177
0.00191792
0.00191917
0.00192178
0.00192594
0.00193178
0.0019395
0.00194951
0.00196294
0.00198198
0.0130333
0.0130385
0.0132214
0.0135318
0.0137638
0.0136349
0.0129222
0.0116505
0.0101827
0.00906283
0.0423684
0.0418938
0.0408637
0.0390611
0.0362234
0.0321287
0.0268824
0.0210993
0.016022
0.0130244
0.0514885
0.0511163
0.0500811
0.0479631
0.044505
0.0393462
0.0324439
0.0245013
0.0175612
0.0140626
0.0548912
0.0549091
0.0544505
0.0528221
0.0496035
0.0442627
0.0364405
0.0267504
0.0182534
0.0147393
0.05611
0.0565313
0.0567255
0.0558645
0.053182
0.0479829
0.039527
0.0282844
0.0185684
0.015512
0.055301
0.056114
0.0570149
0.0570978
0.0552717
0.0505757
0.0418133
0.0291913
0.0184755
0.0161439
0.0472399
0.0483143
0.0498508
0.0511812
0.0510505
0.0480706
0.04043
0.0278276
0.0172255
0.0160442
0.0157958
0.0161896
0.0169425
0.0180732
0.0195298
0.0208087
0.0202457
0.0155895
0.0102488
0.0107817
0.00176486
0.00175533
0.00174759
0.00174225
0.00174028
0.00174349
0.00175378
0.00177208
0.00180477
0.00188209
0.00190872
0.00190907
0.00190994
0.00191149
0.00191378
0.00191683
0.00192069
0.00192562
0.00193256
0.00194412
0.0119903
0.0119718
0.0121078
0.0124267
0.0128862
0.0134001
0.0138294
0.0140125
0.0138262
0.0133439
0.0387057
0.0386089
0.0383265
0.0377114
0.0365311
0.0345612
0.0317232
0.0281464
0.0242132
0.0208822
0.0464655
0.0464825
0.046207
0.0453702
0.0437181
0.0409599
0.0369851
0.0319478
0.026423
0.0220881
0.049171
0.0494725
0.0496135
0.0491246
0.0476628
0.0448142
0.0403244
0.0342531
0.0274113
0.0225706
0.0502274
0.0507906
0.051397
0.0514596
0.0504292
0.0477518
0.0429652
0.0359904
0.0279946
0.0231489
0.0497388
0.0505427
0.0516284
0.0523573
0.0519724
0.0497222
0.0448537
0.037051
0.0279558
0.0234314
0.0429839
0.0438766
0.0452753
0.0467702
0.0475501
0.0466038
0.0427413
0.0352214
0.0260695
0.0225392
0.0149631
0.015226
0.0157656
0.0165803
0.0176869
0.0189472
0.0196763
0.0183776
0.0148292
0.014081
0.00175751
0.00174939
0.001743
0.00173888
0.00173781
0.00174136
0.00175154
0.00177019
0.00180043
0.0018567
0.00189511
0.0018955
0.00189603
0.00189681
0.00189781
0.00189902
0.00190044
0.00190231
0.00190562
0.0019132
0.0115473
0.011504
0.0115615
0.0117532
0.0120765
0.0125285
0.0130973
0.0137548
0.0144325
0.0149778
0.0351536
0.0352574
0.0354013
0.0355187
0.0354669
0.0350673
0.0341702
0.032706
0.0307259
0.028626
0.0416786
0.0419076
0.042114
0.0421594
0.041842
0.0409241
0.0392351
0.0367283
0.0334948
0.0302536
0.0438632
0.0442779
0.0447524
0.0450275
0.0448399
0.0438694
0.0418722
0.0387479
0.0345588
0.0305393
0.0448407
0.0454006
0.0461595
0.0467908
0.0469183
0.0461119
0.0440073
0.0404155
0.0353707
0.0309035
0.0446678
0.0453602
0.04641
0.04745
0.0480087
0.0475272
0.0454613
0.041459
0.0355279
0.0308457
0.0391806
0.0398631
0.0410017
0.0423993
0.0436122
0.0439923
0.0427288
0.0391548
0.0332032
0.0290658
0.0143119
0.0144743
0.0148425
0.0153939
0.0161563
0.0171376
0.0181515
0.0185254
0.0172919
0.0164646
0.00174871
0.00174194
0.00173683
0.00173383
0.0017336
0.00173738
0.00174674
0.00176337
0.00178882
0.00182779
0.0018782
0.0018786
0.0018789
0.00187918
0.00187942
0.00187958
0.00187969
0.00187996
0.00188139
0.00188687
0.0115817
0.0115303
0.0115412
0.0116381
0.0118195
0.0120872
0.0124482
0.0129229
0.0135404
0.0142772
0.0320617
0.0321837
0.0323968
0.0326987
0.033045
0.0333613
0.0335588
0.033546
0.0332545
0.0327415
0.0373957
0.0376438
0.0379797
0.0383735
0.0387259
0.0389029
0.0387622
0.0381912
0.0371322
0.0357951
0.039233
0.0396068
0.0401262
0.0406937
0.0411695
0.0413619
0.041069
0.0401373
0.0384583
0.0364042
0.0401963
0.0406482
0.0413327
0.0421298
0.0428399
0.0431988
0.0429144
0.0417647
0.0395411
0.0368809
0.0402969
0.0408243
0.0416824
0.0427149
0.0436945
0.0442852
0.0440811
0.0427517
0.0399358
0.0367467
0.0359596
0.0364413
0.0372766
0.0384007
0.0396297
0.0406505
0.0409541
0.040009
0.0372361
0.0341931
0.0138474
0.013936
0.0141753
0.0145268
0.0150091
0.0156573
0.0164598
0.017199
0.0171811
0.0169392
0.00173819
0.00173269
0.00172874
0.0017267
0.00172713
0.00173095
0.00173923
0.00175311
0.00177308
0.00179924
0.00185893
0.00185933
0.0018595
0.00185948
0.00185928
0.00185888
0.0018583
0.00185775
0.00185821
0.00186253
0.0119232
0.011876
0.0118672
0.0119145
0.0120159
0.0121714
0.0123876
0.0126906
0.0131388
0.0137981
0.0299307
0.0299984
0.0301228
0.0303175
0.0305763
0.0308815
0.0312081
0.0315171
0.0317506
0.0318561
0.0340888
0.0342481
0.0344816
0.0348066
0.0351934
0.0355995
0.0359662
0.0362236
0.0362971
0.0361972
0.0355815
0.0358316
0.0362017
0.0366732
0.0372035
0.037725
0.0381422
0.0383496
0.0382346
0.0378556
0.0364912
0.0367911
0.0372677
0.0379037
0.0386326
0.039358
0.0399293
0.0401791
0.0399051
0.0391994
0.0367601
0.0371133
0.0377079
0.038497
0.0394146
0.0403354
0.0410447
0.0412973
0.0407561
0.0396213
0.0333836
0.0336959
0.0342468
0.035025
0.0359785
0.037025
0.0379462
0.0384112
0.0378855
0.0366872
0.0135653
0.0136017
0.01375
0.0139619
0.0142462
0.0146266
0.0151202
0.0156603
0.0157861
0.0157487
0.00172573
0.0017214
0.00171844
0.00171717
0.00171802
0.00172164
0.00172869
0.00173979
0.00175465
0.00177194
0.00183788
0.00183828
0.00183837
0.00183819
0.00183776
0.00183705
0.00183612
0.00183513
0.00183503
0.00183861
0.0124376
0.0124
0.0123848
0.0124067
0.012465
0.0125599
0.012699
0.012912
0.01327
0.0138857
0.0287712
0.0287982
0.028849
0.0289339
0.029053
0.0292022
0.0293752
0.0295587
0.0297228
0.0298182
0.0319324
0.0320078
0.0321187
0.032285
0.0324969
0.0327425
0.0330029
0.0332493
0.0334378
0.0335446
0.0330288
0.0331636
0.0333631
0.0336274
0.0339471
0.0343058
0.0346745
0.0350116
0.0352533
0.035392
0.0337932
0.0339614
0.0342302
0.0346074
0.0350777
0.0356239
0.036203
0.0367473
0.0371377
0.0373473
0.034099
0.034308
0.0346626
0.0351483
0.0357605
0.0364788
0.0372405
0.0379413
0.0383773
0.038533
0.0314549
0.0316401
0.0319687
0.0324378
0.0330355
0.0337653
0.0345818
0.03536
0.0357676
0.0358305
0.0134568
0.0134578
0.0135451
0.0136664
0.0138245
0.0140301
0.0142939
0.0145818
0.0145337
0.0143585
0.00171116
0.00170786
0.00170572
0.00170501
0.00170605
0.00170926
0.001715
0.00172351
0.00173412
0.00174539
0.00181535
0.00181574
0.0018158
0.00181554
0.00181498
0.00181412
0.00181299
0.00181177
0.0018113
0.00181433
0.0130453
0.0130188
0.0130027
0.0130107
0.0130436
0.0131028
0.0131976
0.013361
0.0136728
0.0142746
0.0282672
0.0282766
0.0282938
0.0283255
0.0283728
0.0284352
0.0285121
0.0286
0.0286837
0.0287255
0.0306928
0.0307225
0.0307654
0.0308351
0.0309259
0.0310329
0.0311483
0.0312598
0.0313463
0.0313921
0.0314187
0.0314819
0.0315728
0.0316927
0.0318377
0.0320021
0.0321761
0.032344
0.0324784
0.0325724
0.0319897
0.0320726
0.032203
0.0323883
0.0326225
0.0329036
0.0332215
0.0335544
0.0338493
0.0340777
0.0322393
0.0323498
0.0325373
0.0327924
0.0331197
0.0335201
0.0339816
0.0344741
0.0349019
0.0352408
0.0301167
0.0302162
0.0303956
0.0306483
0.0309671
0.0313638
0.0318397
0.0323611
0.0327546
0.0330398
0.0135113
0.0134889
0.0135372
0.0136032
0.0136869
0.0137917
0.0139216
0.0140507
0.0138817
0.0136202
0.00169434
0.00169193
0.00169044
0.00169011
0.00169114
0.00169379
0.00169822
0.00170446
0.00171172
0.00171886
0.00179145
0.00179184
0.00179187
0.00179157
0.00179095
0.00179
0.00178877
0.0017874
0.00178668
0.00178924
0.0137099
0.0136944
0.0136797
0.0136797
0.0136963
0.0137324
0.013799
0.0139321
0.0142179
0.0148186
0.0281263
0.02813
0.0281352
0.028146
0.0281644
0.0281915
0.0282289
0.0282771
0.0283273
0.0283473
0.0300364
0.0300465
0.0300613
0.0300889
0.0301259
0.0301698
0.0302173
0.0302627
0.030296
0.030308
0.0304771
0.0305037
0.0305413
0.0305905
0.0306488
0.0307133
0.0307798
0.0308422
0.0308905
0.030923
0.0308671
0.0309038
0.0309608
0.0310426
0.0311447
0.0312662
0.0314034
0.0315482
0.0316797
0.0317808
0.0310265
0.0310785
0.0311688
0.0312895
0.0314437
0.031632
0.0318506
0.0320891
0.032304
0.0324794
0.0292712
0.029318
0.0294085
0.029533
0.0296841
0.0298674
0.0300868
0.0303299
0.0305026
0.0306346
0.0137183
0.0136807
0.0137053
0.0137394
0.0137818
0.0138328
0.0138933
0.013942
0.0137351
0.0134792
0.00167517
0.00167349
0.00167252
0.00167241
0.00167331
0.00167536
0.00167858
0.0016829
0.00168761
0.00169191
0.00176616
0.00176655
0.00176657
0.00176625
0.00176559
0.0017646
0.00176331
0.00176185
0.00176092
0.00176304
0.0144235
0.0144182
0.014406
0.0144012
0.0144072
0.0144276
0.0144753
0.0145887
0.0148593
0.0154647
0.0281682
0.0281709
0.0281723
0.0281757
0.028183
0.0281961
0.0282177
0.0282497
0.0282864
0.028298
0.0297104
0.0297133
0.029718
0.0297291
0.0297448
0.0297641
0.0297854
0.029806
0.0298209
0.0298235
0.0299579
0.0299676
0.029982
0.0300015
0.0300247
0.0300499
0.0300753
0.0300987
0.0301165
0.030129
0.030209
0.0302233
0.0302462
0.0302803
0.0303224
0.0303719
0.030427
0.0304847
0.0305374
0.0305763
0.0302858
0.0303064
0.0303461
0.0303996
0.0304685
0.0305523
0.0306489
0.0307537
0.0308463
0.0309173
0.0288051
0.0288222
0.0288643
0.0289211
0.0289861
0.0290608
0.0291473
0.0292383
0.0292797
0.0293071
0.0140699
0.0140228
0.0140335
0.0140502
0.014071
0.0140949
0.0141216
0.0141336
0.0139359
0.0137252
0.0016536
0.00165251
0.00165192
0.00165193
0.00165263
0.00165409
0.00165627
0.00165906
0.00166188
0.00166423
0.00173942
0.0017398
0.00173982
0.00173948
0.00173881
0.0017378
0.00173647
0.00173493
0.00173382
0.00173551
0.0151954
0.0151994
0.0151902
0.015183
0.0151819
0.0151916
0.0152263
0.0153268
0.0155889
0.0162027
0.028297
0.0282999
0.0283005
0.0283014
0.0283044
0.0283117
0.0283262
0.0283507
0.0283811
0.0283894
0.0295588
0.0295595
0.029561
0.0295657
0.0295729
0.0295821
0.0295929
0.0296039
0.0296122
0.0296128
0.0296866
0.029689
0.0296941
0.029702
0.029712
0.0297232
0.029735
0.0297461
0.0297554
0.0297633
0.0298433
0.0298479
0.0298563
0.0298701
0.0298874
0.0299078
0.0299306
0.0299544
0.0299768
0.0299934
0.0298626
0.0298679
0.0298834
0.0299062
0.0299371
0.0299757
0.0300208
0.0300701
0.030113
0.0301444
0.0286111
0.0286128
0.0286306
0.0286545
0.0286795
0.0287058
0.0287342
0.0287599
0.0287509
0.028744
0.0145637
0.0145107
0.0145137
0.0145214
0.0145314
0.0145426
0.0145538
0.0145498
0.0143831
0.0142264
0.00162961
0.00162898
0.00162866
0.00162872
0.0016292
0.00163014
0.00163147
0.00163308
0.00163456
0.00163558
0.00171112
0.0017115
0.00171151
0.00171117
0.00171048
0.00170945
0.0017081
0.0017065
0.00170522
0.00170647
0.0160467
0.0160592
0.0160534
0.0160453
0.0160396
0.0160421
0.0160679
0.0161599
0.0164186
0.0170446
0.0284645
0.0284679
0.0284686
0.0284689
0.0284703
0.028475
0.0284858
0.0285061
0.0285333
0.0285408
0.029494
0.0294943
0.0294949
0.0294971
0.0295005
0.0295051
0.029511
0.0295174
0.0295228
0.0295233
0.0295527
0.0295523
0.0295538
0.0295573
0.0295624
0.0295688
0.0295759
0.0295832
0.0295901
0.0295968
0.0296499
0.0296507
0.0296535
0.0296591
0.0296666
0.0296758
0.0296861
0.0296972
0.029708
0.0297165
0.0296382
0.0296369
0.0296416
0.0296513
0.0296662
0.0296863
0.0297105
0.0297377
0.0297618
0.0297797
0.0285989
0.0285934
0.0285999
0.028609
0.0286172
0.028624
0.0286297
0.0286312
0.0286092
0.028598
0.0152055
0.0151488
0.0151476
0.0151511
0.015156
0.0151614
0.0151658
0.015155
0.0150282
0.0149222
0.0016032
0.00160292
0.00160278
0.00160285
0.00160313
0.00160364
0.00160431
0.00160505
0.00160559
0.00160571
0.00168115
0.00168152
0.00168153
0.00168118
0.00168049
0.00167944
0.00167807
0.00167643
0.00167499
0.00167577
0.0170082
0.0170287
0.0170265
0.0170186
0.0170104
0.0170081
0.0170279
0.0171145
0.0173736
0.0180181
0.0286474
0.0286512
0.0286522
0.0286524
0.0286533
0.0286567
0.0286653
0.0286829
0.0287081
0.0287169
0.0294696
0.0294701
0.0294706
0.0294716
0.0294731
0.0294754
0.0294785
0.0294824
0.0294862
0.0294871
0.029491
0.0294898
0.02949
0.0294918
0.0294949
0.0294993
0.0295044
0.02951
0.0295156
0.0295215
0.0295519
0.0295514
0.0295522
0.0295546
0.0295583
0.029563
0.0295685
0.0295743
0.0295803
0.0295855
0.0295298
0.0295261
0.0295265
0.0295308
0.0295391
0.0295513
0.0295665
0.0295841
0.0296004
0.0296133
0.0286987
0.0286905
0.0286922
0.0286952
0.028697
0.0286972
0.0286954
0.0286896
0.0286688
0.0286623
0.0160125
0.0159534
0.0159503
0.0159518
0.0159546
0.0159574
0.015959
0.015947
0.0158606
0.015798
0.0015744
0.00157437
0.00157436
0.00157441
0.00157452
0.0015747
0.00157488
0.00157501
0.0015749
0.00157443
0.00164943
0.00164979
0.0016498
0.00164945
0.00164875
0.00164769
0.0016463
0.00164461
0.00164302
0.00164332
0.0181222
0.0181504
0.0181522
0.0181454
0.018136
0.0181308
0.0181465
0.0182296
0.0184928
0.0191672
0.0288334
0.0288374
0.0288386
0.0288391
0.0288398
0.0288424
0.0288495
0.0288648
0.0288887
0.0289001
0.0294622
0.0294629
0.0294634
0.0294638
0.0294644
0.0294653
0.0294667
0.0294689
0.0294718
0.0294733
0.0294648
0.0294635
0.0294634
0.0294645
0.0294666
0.0294697
0.0294736
0.0294778
0.0294823
0.029487
0.0295032
0.0295025
0.0295027
0.0295039
0.0295059
0.0295087
0.0295119
0.0295154
0.029519
0.0295223
0.0294833
0.0294794
0.0294784
0.0294806
0.0294859
0.0294941
0.0295046
0.029517
0.0295288
0.0295392
0.0288594
0.0288509
0.0288508
0.0288514
0.0288513
0.02885
0.0288468
0.0288403
0.0288251
0.0288246
0.0170186
0.0169581
0.0169541
0.0169549
0.0169566
0.0169584
0.0169587
0.0169522
0.0168996
0.016872
0.00154326
0.0015434
0.00154348
0.00154351
0.00154349
0.00154342
0.00154325
0.00154296
0.00154242
0.00154156
0.00161597
0.00161634
0.00161634
0.00161599
0.00161527
0.00161421
0.0016128
0.00161107
0.00160932
0.00160911
0.0194469
0.0194827
0.0194887
0.0194838
0.0194747
0.0194682
0.0194812
0.0195615
0.0198306
0.0205507
0.0290142
0.029018
0.0290193
0.0290199
0.0290207
0.0290228
0.0290286
0.0290416
0.0290638
0.0290787
0.0294602
0.029461
0.0294614
0.0294616
0.0294616
0.0294618
0.0294622
0.0294634
0.0294655
0.0294675
0.0294543
0.0294534
0.0294532
0.0294538
0.0294553
0.0294575
0.0294601
0.0294632
0.0294664
0.0294699
0.0294781
0.0294775
0.0294775
0.0294782
0.0294794
0.0294811
0.0294831
0.0294852
0.0294874
0.0294896
0.0294658
0.0294625
0.0294614
0.0294626
0.0294662
0.0294718
0.0294791
0.0294877
0.029496
0.0295044
0.0290431
0.0290356
0.0290348
0.0290348
0.0290345
0.0290334
0.0290309
0.0290263
0.0290167
0.0290212
0.0182818
0.018221
0.0182169
0.0182174
0.0182186
0.0182197
0.0182192
0.0182165
0.0181933
0.0181928
0.00150991
0.00151017
0.0015103
0.00151031
0.00151019
0.00150995
0.00150955
0.00150898
0.00150816
0.00150705
0.00158098
0.00158133
0.00158134
0.00158098
0.00158026
0.00157918
0.00157776
0.001576
0.00157411
0.00157335
0.0210628
0.021106
0.0211164
0.0211143
0.0211071
0.0211013
0.0211131
0.0211897
0.0214627
0.022247
0.0291804
0.0291836
0.0291849
0.0291856
0.0291864
0.0291882
0.0291926
0.029203
0.0292226
0.0292407
0.029458
0.0294586
0.029459
0.029459
0.0294589
0.0294587
0.0294586
0.0294591
0.0294606
0.0294629
0.0294493
0.0294487
0.0294486
0.029449
0.0294499
0.0294513
0.029453
0.0294549
0.029457
0.0294593
0.0294632
0.0294628
0.0294628
0.0294632
0.0294639
0.0294649
0.029466
0.0294672
0.0294684
0.0294698
0.0294574
0.029455
0.0294541
0.0294549
0.0294572
0.0294609
0.0294655
0.0294709
0.0294763
0.0294824
0.0292193
0.0292135
0.0292128
0.0292127
0.0292125
0.029212
0.0292106
0.0292081
0.0292027
0.0292102
0.0198993
0.01984
0.0198362
0.0198366
0.0198373
0.0198378
0.0198365
0.0198331
0.0198237
0.019843
0.00147458
0.00147491
0.00147508
0.00147507
0.00147489
0.00147453
0.00147399
0.00147324
0.00147225
0.00147099
0.00154451
0.0015449
0.00154491
0.00154456
0.00154386
0.0015428
0.00154138
0.00153962
0.00153763
0.00153633
0.0230693
0.0231183
0.0231337
0.0231364
0.0231344
0.0231336
0.0231472
0.0232183
0.0234825
0.0243331
0.0293195
0.0293218
0.0293228
0.0293234
0.0293242
0.0293256
0.0293288
0.0293361
0.0293511
0.0293701
0.0294536
0.029454
0.0294542
0.0294542
0.029454
0.0294538
0.0294537
0.0294538
0.0294546
0.0294564
0.0294457
0.0294454
0.0294453
0.0294455
0.029446
0.0294468
0.0294477
0.0294488
0.0294501
0.0294514
0.0294528
0.0294526
0.0294526
0.0294528
0.0294531
0.0294536
0.0294542
0.0294548
0.0294554
0.0294561
0.029448
0.0294466
0.0294461
0.0294465
0.0294479
0.0294499
0.0294525
0.0294554
0.0294583
0.0294622
0.0293607
0.0293571
0.0293567
0.0293567
0.0293566
0.0293564
0.0293556
0.0293543
0.029351
0.0293591
0.0220374
0.0219828
0.0219799
0.0219801
0.0219804
0.0219801
0.0219782
0.0219739
0.0219634
0.0219757
0.00143745
0.00143782
0.00143799
0.00143797
0.00143775
0.00143733
0.00143671
0.00143587
0.00143479
0.00143348
0.00150582
0.00150619
0.00150621
0.00150587
0.00150519
0.00150415
0.00150276
0.00150104
0.00149901
0.00149727
0.0257137
0.0257527
0.0257624
0.0257633
0.025761
0.0257583
0.0257624
0.025801
0.0259894
0.0268277
0.0294187
0.0294198
0.0294203
0.0294207
0.0294213
0.0294223
0.0294241
0.0294279
0.0294364
0.0294509
0.0294483
0.0294484
0.0294485
0.0294485
0.0294484
0.0294483
0.0294483
0.0294482
0.0294485
0.0294493
0.0294434
0.0294431
0.0294431
0.0294432
0.0294435
0.0294439
0.0294445
0.0294451
0.0294458
0.0294466
0.0294458
0.0294456
0.0294456
0.0294457
0.029446
0.0294463
0.0294467
0.0294471
0.0294476
0.029448
0.0294385
0.0294377
0.0294374
0.0294376
0.0294384
0.0294396
0.029441
0.0294425
0.029444
0.0294458
0.0294472
0.0294457
0.0294455
0.0294456
0.0294457
0.0294456
0.0294455
0.0294453
0.0294449
0.0294508
0.0250081
0.0249667
0.0249651
0.0249651
0.0249652
0.0249648
0.0249631
0.0249594
0.0249507
0.0249538
0.00139781
0.00139817
0.00139834
0.00139831
0.00139808
0.00139764
0.00139698
0.0013961
0.001395
0.00139371
0.00239285
0.00246253
0.00243259
0.00231099
0.00232583
0.00232641
0.00229749
0.00225636
0.00287974
0.00288856
0.00284973
0.00275961
0.00319435
0.00321054
0.00317087
0.00305618
0.00349141
0.00351363
0.00347119
0.00334508
0.00381599
0.0038341
0.00378233
0.0036506
0.00408592
0.0040977
0.00404273
0.00392219
0.00421928
0.0042231
0.00416662
0.00405221
0.00372981
0.00371275
0.0036453
0.00352905
0.00255892
0.002621
0.00265909
0.00265929
0.00204783
0.00209954
0.00211891
0.00209332
0.00411218
0.00429189
0.00425027
0.0039415
0.0062734
0.00644905
0.00634473
0.00589834
0.0075768
0.00772515
0.00758589
0.00710713
0.00889053
0.0090685
0.00891515
0.00841775
0.0107294
0.0110415
0.0109311
0.0104834
0.0127052
0.0131267
0.0130318
0.0126291
0.0142209
0.0147186
0.0146597
0.0143868
0.0119104
0.0123264
0.0122452
0.0119884
0.00235793
0.00239051
0.00239444
0.00237527
0.00193775
0.00196077
0.00196692
0.00195417
0.00475882
0.00497822
0.00507276
0.00518525
0.00700877
0.00728849
0.00736919
0.00752299
0.00819156
0.00846742
0.00853495
0.00867907
0.00934434
0.00963247
0.00969851
0.00978281
0.0108248
0.0112329
0.0114185
0.0116302
0.0124758
0.0130232
0.0133159
0.0136095
0.0137746
0.0144463
0.0148317
0.0152293
0.0108046
0.0113631
0.0116654
0.0119337
0.00214146
0.0021679
0.00217852
0.00217638
0.00188463
0.00189573
0.00189804
0.00188993
0.00821267
0.00824446
0.00852918
0.00921301
0.0116681
0.0117597
0.0122175
0.013235
0.0127138
0.012908
0.0134663
0.0146167
0.0135765
0.0138688
0.0144949
0.0157158
0.0147059
0.0151295
0.0158824
0.0172857
0.0158336
0.0163804
0.0172301
0.0187329
0.016441
0.0171173
0.018057
0.0195918
0.0120148
0.012607
0.0133222
0.0143226
0.00200801
0.00202451
0.00203585
0.00204389
0.00184811
0.00185585
0.00185664
0.00185001
0.0124908
0.0125099
0.0127871
0.0133811
0.0193421
0.0193475
0.0199152
0.0210674
0.0203784
0.0205411
0.0213139
0.0227197
0.0209046
0.0212349
0.0221587
0.023721
0.0217592
0.0223077
0.0234319
0.0251711
0.0224537
0.0231884
0.0244449
0.0262445
0.0221703
0.0230427
0.0243306
0.0260188
0.0146185
0.0152974
0.016107
0.016946
0.00193346
0.00194456
0.00195347
0.00196111
0.00181861
0.00182493
0.00182534
0.00181953
0.0139989
0.0140886
0.0142463
0.0144859
0.027485
0.0273873
0.0277521
0.028512
0.0288612
0.0288576
0.0294141
0.0304307
0.0290368
0.0291709
0.0298805
0.031051
0.0294611
0.0297781
0.0306618
0.0319796
0.0295658
0.0300427
0.0310392
0.0324096
0.0281323
0.0287176
0.0297086
0.0309496
0.0165008
0.0168927
0.0173697
0.0177829
0.00187891
0.00188595
0.00189248
0.00189903
0.00179333
0.00179893
0.00179915
0.00179379
0.0130478
0.0131812
0.0132769
0.0133503
0.0322205
0.0321743
0.0322966
0.0325588
0.0351843
0.035152
0.0353786
0.0358028
0.0356042
0.0356179
0.0359422
0.0364896
0.0359418
0.036042
0.0364904
0.037175
0.0357115
0.0358965
0.0364318
0.0371864
0.0332399
0.033485
0.034009
0.0346761
0.017058
0.0172012
0.0173412
0.0173802
0.00183708
0.00184153
0.00184617
0.00185144
0.00176979
0.00177495
0.00177506
0.00177001
0.0124437
0.0125755
0.012641
0.0126505
0.0315296
0.0315112
0.0315324
0.0315898
0.0360924
0.0360913
0.0361345
0.0362089
0.037681
0.0376848
0.0377623
0.0378874
0.0389072
0.0389343
0.0390819
0.0393084
0.0391654
0.0392094
0.0394074
0.0397011
0.036198
0.036252
0.0364312
0.0366695
0.0160497
0.0160927
0.0160843
0.0159693
0.00180238
0.00180514
0.00180839
0.00181253
0.00174658
0.00175139
0.00175144
0.00174667
0.0124417
0.0125674
0.0126138
0.0125877
0.0294912
0.0294662
0.0294705
0.0295039
0.0335326
0.0335374
0.0335418
0.0335437
0.0354226
0.0354357
0.0354409
0.0354334
0.037412
0.0374475
0.0374867
0.0375201
0.0385822
0.0386259
0.0386876
0.0387511
0.0358926
0.0359263
0.0359633
0.0359812
0.0146109
0.0146286
0.0146016
0.0144918
0.00177153
0.00177318
0.00177542
0.0017786
0.00172296
0.00172746
0.00172749
0.001723
0.0127355
0.0128536
0.0128868
0.0128402
0.0284036
0.0283743
0.0283766
0.0284107
0.0313715
0.0313717
0.0313747
0.0313799
0.0325952
0.0326021
0.0325999
0.0325871
0.0341593
0.0341856
0.0342008
0.0342018
0.03539
0.0354322
0.0354593
0.0354658
0.0332651
0.0333036
0.033311
0.0332774
0.0137833
0.0137875
0.0137636
0.0136866
0.00174237
0.00174331
0.00174482
0.00174723
0.00169852
0.0017027
0.00170271
0.00169853
0.0131763
0.0132838
0.0133071
0.0132513
0.0280406
0.0280103
0.0280118
0.0280453
0.0302861
0.0302849
0.0302885
0.0302965
0.0309302
0.0309331
0.0309324
0.0309273
0.0318164
0.031829
0.0318374
0.0318401
0.0325609
0.0325838
0.0325986
0.0326026
0.0307959
0.0308193
0.0308199
0.0307922
0.0136107
0.0136096
0.0135886
0.0135325
0.00171373
0.00171422
0.00171523
0.00171703
0.00167297
0.00167681
0.00167681
0.00167296
0.0137099
0.0138008
0.0138164
0.0137626
0.0280089
0.0279788
0.0279795
0.0280116
0.0298049
0.0298036
0.0298067
0.0298141
0.0301327
0.0301346
0.0301348
0.0301332
0.0305901
0.030596
0.030601
0.0306046
0.0309513
0.0309615
0.0309697
0.0309746
0.029408
0.029419
0.0294163
0.0293968
0.0138641
0.0138638
0.0138461
0.0138018
0.00168496
0.00168516
0.00168582
0.00168716
0.00164607
0.00164955
0.00164955
0.00164606
0.0143228
0.0143849
0.0143937
0.0143581
0.0281194
0.02809
0.0280903
0.0281206
0.0295977
0.0295965
0.0295987
0.0296044
0.0297668
0.0297684
0.029769
0.0297685
0.0299999
0.030003
0.0300062
0.0300092
0.0301594
0.0301641
0.0301688
0.0301732
0.0288169
0.0288228
0.0288193
0.0288047
0.0143902
0.014394
0.01438
0.0143426
0.0016556
0.00165562
0.00165605
0.00165704
0.00161766
0.00162079
0.00162079
0.00161765
0.0150236
0.0150661
0.0150716
0.0150441
0.0282922
0.0282645
0.0282646
0.0282926
0.0295113
0.0295102
0.0295117
0.0295157
0.0296003
0.0296017
0.0296023
0.0296022
0.0297204
0.0297223
0.0297244
0.0297264
0.0297876
0.02979
0.029793
0.0297965
0.0286581
0.0286623
0.0286593
0.0286482
0.0151185
0.0151279
0.0151175
0.015084
0.00162528
0.00162521
0.00162548
0.0016262
0.0015876
0.00159039
0.00159039
0.00158759
0.0158345
0.0158741
0.0158781
0.0158492
0.0284926
0.0284676
0.0284676
0.0284927
0.029478
0.029477
0.0294779
0.0294805
0.0295246
0.0295258
0.0295263
0.0295263
0.0295881
0.0295894
0.0295908
0.0295921
0.0296181
0.0296196
0.0296216
0.0296242
0.0287144
0.028718
0.0287159
0.0287075
0.0160299
0.0160452
0.0160381
0.0160067
0.00159373
0.00159361
0.00159377
0.00159429
0.0015558
0.00155822
0.00155822
0.0015558
0.0168099
0.0168538
0.0168564
0.0168198
0.028704
0.0286827
0.0286827
0.028704
0.029467
0.0294664
0.0294668
0.0294682
0.0294897
0.0294906
0.029491
0.0294909
0.0295242
0.0295251
0.029526
0.0295267
0.0295424
0.0295434
0.0295448
0.0295467
0.0288698
0.0288732
0.0288719
0.0288656
0.0171395
0.0171603
0.017156
0.0171258
0.00156072
0.00156059
0.00156069
0.00156105
0.00152226
0.00152428
0.00152428
0.00152226
0.0180071
0.0180682
0.0180697
0.018013
0.0289155
0.0288991
0.0288991
0.0289157
0.029464
0.0294638
0.0294639
0.0294644
0.0294719
0.0294726
0.0294728
0.0294727
0.0294909
0.0294915
0.0294919
0.0294923
0.0295065
0.0295072
0.0295082
0.0295094
0.0290599
0.029063
0.0290622
0.0290573
0.0184895
0.0185132
0.0185114
0.0184839
0.00152615
0.00152604
0.00152609
0.00152634
0.00148717
0.00148874
0.00148874
0.00148717
0.0195179
0.0196216
0.0196223
0.0195208
0.0291158
0.0291055
0.0291056
0.0291161
0.0294617
0.0294619
0.0294619
0.0294617
0.0294608
0.0294612
0.0294613
0.0294612
0.0294706
0.0294709
0.0294711
0.0294711
0.0294838
0.0294843
0.0294849
0.0294856
0.0292425
0.0292455
0.0292449
0.0292406
0.0201455
0.0201634
0.0201636
0.0201464
0.00149011
0.00149002
0.00149005
0.00149021
0.00145082
0.00145192
0.00145192
0.00145082
0.021506
0.0217021
0.0217022
0.0215067
0.0292891
0.0292858
0.0292859
0.0292894
0.0294568
0.0294572
0.0294572
0.0294567
0.0294523
0.0294526
0.0294526
0.0294525
0.0294566
0.0294567
0.0294567
0.0294565
0.0294632
0.0294636
0.029464
0.0294642
0.0293847
0.0293875
0.0293867
0.0293824
0.0222599
0.0222715
0.022272
0.0222613
0.00145269
0.00145265
0.00145266
0.00145275
0.00141255
0.00141317
0.00141317
0.00141255
0.0243528
0.0246973
0.0246974
0.024353
0.0294164
0.0294185
0.0294186
0.0294166
0.0294498
0.0294501
0.0294501
0.0294498
0.029447
0.0294472
0.0294472
0.0294472
0.0294482
0.0294482
0.0294481
0.0294481
0.0294463
0.0294466
0.0294469
0.0294471
0.0294641
0.0294654
0.0294644
0.0294614
0.0251698
0.0251709
0.0251715
0.0251717
0.00141312
0.00141312
0.00141314
0.00141316
0.00219649
0.002083
0.00202164
0.00198585
0.00196463
0.0019488
0.00193523
0.00192363
0.00191423
0.00190676
0.00280747
0.00252481
0.00384833
0.00830446
0.0133672
0.0171451
0.0192226
0.0198349
0.0195584
0.0188283
0.00403154
0.00498256
0.0114516
0.0211225
0.0322222
0.0417968
0.0487848
0.0530191
0.0547414
0.0542158
0.00557345
0.00896977
0.0176601
0.0302535
0.0434551
0.0540519
0.0614685
0.0657982
0.0674399
0.0668296
0.00876757
0.0121169
0.023061
0.03701
0.0505318
0.060915
0.0677772
0.0714753
0.0725827
0.0718573
0.0132378
0.01596
0.0274708
0.0417027
0.0549629
0.0648106
0.0708952
0.0737617
0.0742143
0.0733478
0.0167121
0.018841
0.0294898
0.0436955
0.0565242
0.0656471
0.0707073
0.0725958
0.0723423
0.0714116
0.0185319
0.0194623
0.0276081