/*--------------------------------*- C++ -*----------------------------------*\
| =========                 |                                                 |
| \\      /  F ield         | foam-extend: Open Source CFD                    |
|  \\    /   O peration     | Version:     4.0                                |
|   \\  /    A nd           | Web:         http://www.foam-extend.org         |
|    \\/     M anipulation  |                                                 |
\*---------------------------------------------------------------------------*/
FoamFile
{
    version     2.0;
    format      ascii;
    class       volScalarField;
    location    "2200";
    object      p;
}
// * * * * * * * * * * * * * * * * * * * * * * * * * * * * * * * * * * * * * //

dimensions      [1 -1 -2 0 0 0 0];

internalField   nonuniform List<scalar> 
34480
(
107864
107576
107359
107237
107247
107441
107920
108690
109398
112516
107124
106699
106327
106027
105836
105809
106060
106669
107077
109444
106723
106177
105669
105203
104804
104529
104501
104851
104875
106280
106506
105817
105161
104526
103922
103405
103101
103166
102785
103205
106384
105573
104799
104027
103258
102533
101984
101765
100985
100497
106393
105492
104631
103759
102866
101979
101228
100749
99591.8
98331.8
106294
105331
104418
103487
102522
101531
100632
99921.1
98399.3
96431.3
106365
105379
104447
103501
102518
101490
100511
99610.2
97722.5
95003.9
106159
105169
104237
103311
102371
101388
100398
99349
97082.7
93610.5
106277
105271
104318
103383
102474
101574
100678
99656.5
97130.5
92815.6
109721
109564
109511
109594
109852
110340
111149
112404
114301
117349
108624
108343
108153
108082
108182
108527
109246
110514
112589
116407
107966
107565
107246
107021
106936
107075
107594
108736
110797
115099
107554
107015
106550
106165
105891
105814
106104
107058
109014
113613
107298
106636
106048
105526
105091
104821
104887
105623
107414
112151
107204
106446
105762
105132
104570
104138
104006
104516
106100
110827
107035
106205
105455
104753
104103
103552
103259
103548
104890
109470
107057
106190
105401
104661
103964
103342
102930
103015
104070
108376
106849
105962
105149
104391
103685
103051
102582
102501
103231
107279
106920
106022
105188
104409
103696
103078
102629
102515
102984
106894
111091
111020
111058
111227
111552
112059
112782
113755
115021
116602
109871
109700
109636
109708
109955
110426
111198
112351
113991
116253
109056
108780
108605
108556
108678
109039
109747
110952
112836
115721
108504
108102
107798
107610
107585
107804
108396
109573
111612
115050
108137
107617
107198
106885
106723
106797
107253
108351
110468
114361
107950
107334
106818
106403
106124
106066
106386
107377
109517
113763
107715
107023
106435
105943
105575
105410
105609
106474
108579
113063
107689
106951
106314
105771
105341
105097
105190
105918
107920
112517
107487
106718
106044
105462
104994
104703
104724
105331
107158
111858
107532
106752
106053
105445
104949
104633
104625
105182
106824
111655
111952
111921
111976
112129
112388
112761
113253
113860
114563
115306
110808
110704
110698
110811
111064
111483
112094
112920
113964
115140
109967
109775
109683
109715
109904
110295
110948
111927
113283
114944
109353
109052
108855
108782
108875
109198
109836
110907
112533
114697
108925
108516
108217
108040
108031
108265
108853
109963
111807
114449
108678
108177
107788
107519
107414
107557
108079
109190
111205
114281
108398
107820
107360
107017
106833
106893
107343
108425
110556
114005
108337
107708
107193
106795
106550
106540
106916
107940
110120
113866
108123
107461
106909
106470
106179
106119
106436
107391
109537
113566
108141
107467
106890
106426
106108
106018
106296
107202
109256
113558
112442
112428
112474
112585
112762
113002
113302
113649
114022
114387
111472
111410
111427
111536
111745
112061
112487
113017
113628
114246
110688
110558
110517
110581
110772
111112
111624
112322
113195
114139
110073
109852
109730
109726
109869
110198
110759
111597
112736
114055
109622
109307
109100
109017
109095
109388
109965
110907
112294
114002
109341
108941
108656
108497
108507
108751
109321
110338
111950
114049
109033
108560
108207
107983
107930
108123
108671
109732
111537
114005
108947
108421
108015
107739
107632
107774
108288
109360
111303
114105
108726
108166
107724
107408
107260
107360
107840
108899
110906
114034
108726
108152
107686
107347
107173
107246
107695
108731
110724
114152
112674
112667
112698
112768
112876
113018
113188
113377
113571
113754
111909
111872
111892
111977
112127
112344
112621
112945
113294
113624
111234
111146
111131
111199
111361
111623
111991
112456
112995
113534
110661
110503
110430
110458
110606
110893
111337
111945
112701
113502
110221
109983
109845
109820
109935
110224
110721
111454
112433
113525
109932
109619
109414
109332
109406
109681
110213
111054
112254
113658
109613
109232
108969
108833
108864
109117
109665
110592
111997
113718
109513
109082
108770
108589
108578
108803
109351
110334
111912
113936
109288
108823
108477
108261
108217
108415
108954
109968
111661
113982
109277
108797
108429
108192
108125
108302
108824
109843
111574
114157
112748
112744
112762
112802
112864
112943
113037
113137
113238
113331
112174
112151
112167
112225
112325
112464
112635
112828
113028
113209
111629
111570
111566
111624
111747
111936
112187
112488
112817
113130
111124
111012
110970
111009
111139
111368
111698
112121
112613
113105
110721
110545
110454
110460
110581
110834
111231
111775
112445
113147
110443
110203
110060
110027
110128
110392
110845
111503
112362
113300
110129
109828
109636
109563
109639
109904
110397
111155
112202
113390
110028
109681
109446
109336
109386
109642
110160
110997
112212
113650
109802
109422
109158
109020
109045
109288
109817
110710
112057
113740
109787
109392
109107
108951
108959
109189
109715
110631
112040
113929
112735
112732
112742
112763
112797
112839
112889
112942
112994
113042
112317
112304
112314
112351
112413
112497
112599
112712
112825
112926
111901
111862
111862
111905
111992
112121
112286
112477
112679
112865
111476
111398
111374
111411
111514
111685
111921
112208
112526
112832
111126
110997
110939
110959
111067
111271
111574
111964
112418
112872
110874
110694
110596
110591
110696
110925
111289
111784
112388
113015
110576
110344
110207
110174
110269
110514
110929
111522
112282
113098
110484
110211
110038
109979
110059
110310
110764
111441
112348
113358
110261
109958
109761
109679
109744
109994
110472
111213
112244
113444
110248
109930
109714
109619
109672
109917
110401
111175
112273
113626
112681
112678
112683
112694
112712
112734
112760
112787
112815
112839
112382
112373
112379
112401
112438
112488
112547
112611
112675
112732
112081
112055
112056
112085
112143
112227
112333
112452
112575
112687
111735
111681
111667
111697
111773
111895
112057
112248
112453
112646
111444
111352
111314
111337
111426
111582
111802
112076
112380
112677
111228
111095
111029
111038
111132
111319
111598
111959
112379
112799
110954
110778
110682
110674
110768
110978
111310
111759
112302
112861
110879
110668
110545
110518
110608
110834
111209
111736
112398
113102
110662
110425
110281
110239
110322
110554
110959
111548
112313
113159
110656
110405
110246
110193
110269
110502
110920
111545
112371
113326
112613
112611
112613
112619
112628
112639
112652
112666
112681
112693
112398
112393
112396
112408
112429
112458
112491
112528
112564
112596
112193
112176
112177
112195
112232
112285
112351
112424
112499
112566
111917
111881
111872
111894
111948
112031
112139
112263
112394
112516
111686
111622
111598
111619
111686
111800
111955
112142
112345
112538
111510
111414
111370
111384
111462
111606
111812
112069
112357
112638
111264
111134
111068
111073
111157
111327
111581
111911
112292
112674
111213
111054
110967
110961
111047
111236
111533
111930
112404
112890
111004
110822
110720
110703
110788
110989
111316
111767
112322
112910
111009
110816
110701
110677
110759
110965
111307
111791
112397
113062
112546
112545
112546
112548
112553
112558
112565
112572
112580
112586
112388
112385
112386
112393
112405
112421
112439
112460
112480
112498
112260
112248
112249
112260
112283
112315
112355
112400
112444
112484
112040
112016
112011
112026
112062
112117
112187
112267
112350
112427
111866
111822
111807
111823
111872
111952
112058
112183
112316
112442
111728
111661
111632
111647
111707
111813
111960
112139
112333
112520
111513
111418
111374
111384
111454
111584
111772
112008
112272
112530
111489
111372
111313
111317
111392
111542
111768
112057
112391
112723
111289
111152
111081
111079
111156
111321
111574
111908
112303
112706
111308
111163
111082
111075
111152
111324
111592
111955
112388
112845
112488
112486
112487
112488
112490
112493
112497
112500
112504
112507
112365
112363
112363
112367
112373
112382
112393
112404
112416
112426
112297
112290
112289
112296
112310
112329
112353
112380
112406
112430
112121
112105
112101
112112
112135
112170
112215
112265
112317
112365
111996
111966
111957
111969
112003
112057
112128
112210
112296
112377
111893
111847
111828
111841
111885
111960
112063
112184
112313
112436
111706
111640
111610
111621
111675
111772
111906
112070
112250
112423
111712
111628
111588
111597
111658
111772
111938
112143
112373
112597
111519
111419
111370
111375
111441
111569
111758
111999
112273
112547
111556
111449
111394
111396
111463
111598
111801
112065
112367
112678
112440
112439
112439
112440
112441
112442
112444
112446
112448
112449
112336
112335
112335
112337
112341
112346
112352
112358
112365
112370
112317
112312
112312
112316
112324
112335
112349
112365
112381
112395
112170
112160
112157
112164
112178
112201
112228
112260
112292
112321
112088
112068
112062
112071
112093
112129
112176
112229
112284
112335
112015
111983
111971
111981
112012
112064
112133
112214
112299
112378
111853
111807
111788
111798
111838
111906
112000
112112
112231
112346
111889
111831
111804
111813
111860
111944
112061
112204
112359
112507
111699
111628
111596
111603
111655
111751
111887
112056
112244
112427
111757
111681
111644
111650
111704
111806
111954
112140
112347
112554
112404
112404
112404
112404
112404
112405
112406
112406
112408
112408
112306
112306
112306
112307
112309
112312
112315
112319
112323
112326
112328
112325
112325
112327
112331
112338
112346
112355
112365
112373
112198
112191
112190
112193
112203
112216
112233
112252
112272
112290
112152
112139
112135
112141
112155
112178
112208
112242
112276
112308
112101
112081
112073
112080
112101
112136
112181
112234
112289
112339
111963
111931
111919
111927
111955
112002
112065
112140
112218
112293
112027
111987
111970
111979
112013
112072
112153
112249
112351
112448
111836
111786
111766
111773
111812
111881
111976
112091
112217
112337
111918
111865
111841
111848
111889
111964
112067
112195
112333
112470
112381
112380
112380
112380
112380
112380
112381
112381
112382
112381
112277
112277
112277
112278
112279
112281
112283
112285
112287
112289
112336
112334
112333
112335
112337
112341
112346
112351
112357
112361
112211
112207
112206
112208
112214
112222
112232
112244
112255
112267
112194
112186
112184
112187
112197
112211
112230
112251
112272
112292
112161
112147
112143
112147
112161
112184
112213
112247
112281
112313
112041
112021
112013
112019
112038
112069
112111
112159
112209
112257
112133
112107
112096
112103
112127
112168
112222
112284
112351
112412
111935
111902
111888
111895
111922
111970
112034
112111
112193
112272
112046
112011
111996
112002
112032
112084
112154
112240
112330
112418
112372
112371
112371
112371
112371
112371
112371
112371
112372
112371
112247
112247
112248
112248
112249
112250
112251
112252
112254
112255
112343
112342
112341
112342
112344
112346
112349
112352
112355
112357
112216
112213
112212
112213
112216
112221
112227
112234
112241
112248
112221
112216
112215
112217
112223
112232
112243
112256
112269
112281
112198
112190
112187
112190
112199
112213
112232
112252
112274
112294
112097
112084
112079
112083
112095
112115
112142
112172
112203
112234
112213
112197
112190
112195
112211
112238
112273
112314
112356
112394
112002
111979
111971
111976
111995
112026
112069
112119
112171
112222
112153
112130
112121
112126
112147
112182
112228
112283
112341
112396
112389
112389
112388
112388
112388
112387
112387
112386
112387
112385
112214
112214
112215
112215
112215
112216
112217
112217
112218
112219
112350
112349
112349
112350
112351
112352
112354
112356
112358
112359
112214
112212
112212
112212
112214
112217
112220
112224
112228
112231
112234
112231
112230
112232
112235
112241
112248
112256
112264
112271
112217
112212
112210
112212
112218
112227
112238
112251
112264
112276
112133
112125
112122
112125
112133
112145
112162
112180
112199
112218
112268
112257
112253
112257
112268
112285
112308
112333
112361
112382
112036
112022
112017
112020
112033
112053
112080
112112
112145
112178
112255
112240
112234
112238
112252
112275
112305
112340
112376
112410
112456
112455
112455
112454
112454
112454
112453
112452
112453
112449
112170
112169
112170
112170
112170
112170
112170
112170
112171
112171
112350
112350
112350
112350
112351
112352
112354
112356
112357
112359
112210
112209
112209
112209
112209
112211
112212
112214
112216
112218
112236
112235
112234
112235
112237
112241
112245
112250
112255
112259
112221
112217
112216
112217
112221
112227
112234
112242
112250
112258
112154
112149
112147
112149
112154
112162
112172
112183
112194
112205
112287
112281
112278
112281
112288
112299
112314
112331
112349
112362
112034
112026
112022
112025
112033
112046
112063
112083
112102
112125
112378
112368
112365
112368
112377
112392
112411
112434
112456
112477
112594
112594
112594
112595
112595
112597
112598
112599
112601
112599
112097
112097
112097
112096
112096
112095
112094
112093
112092
112090
112331
112331
112331
112332
112333
112334
112336
112338
112340
112342
112208
112207
112207
112207
112207
112207
112208
112209
112210
112210
112231
112230
112230
112230
112232
112234
112237
112240
112244
112247
112215
112213
112212
112213
112215
112219
112223
112229
112234
112240
112163
112160
112159
112160
112163
112168
112175
112182
112189
112196
112258
112253
112251
112253
112258
112266
112276
112289
112302
112313
111984
111978
111976
111978
111983
111992
112003
112015
112027
112042
112548
112540
112538
112539
112546
112556
112570
112585
112601
112618
112756
112757
112758
112760
112763
112767
112771
112778
112785
112792
112007
112006
112005
112005
112003
112001
111999
111995
111991
111983
112295
112295
112296
112296
112297
112299
112300
112303
112305
112309
112211
112211
112210
112210
112211
112211
112211
112212
112212
112212
112226
112225
112225
112225
112226
112228
112230
112233
112236
112239
112209
112207
112207
112207
112209
112212
112216
112220
112225
112229
112169
112166
112165
112166
112168
112173
112178
112184
112190
112194
112199
112195
112194
112195
112199
112206
112214
112225
112237
112250
111904
111899
111897
111899
111903
111910
111919
111929
111937
111941
112722
112714
112711
112712
112717
112726
112738
112751
112766
112784
128801
132342
132375
130320
129743
133715
133687
131793
130452
134650
135027
133350
130748
135119
136233
134810
131065
135589
137368
136136
131825
136586
139081
138407
132602
137522
140530
140474
133382
138366
141722
142183
133065
137996
141577
142507
131682
136430
140177
141656
120882
122473
122850
121965
121428
123276
123815
123035
121851
123921
124618
124062
122256
124523
125432
125161
122781
125199
126350
126318
123417
125903
127180
127254
123944
126447
127798
127970
124570
127050
128435
128788
124630
127048
128490
129064
124367
126744
128340
129170
118004
118700
118883
118600
118340
119194
119474
119260
118661
119681
120083
119956
119005
120196
120755
120740
119463
120811
121524
121614
120118
121602
122439
122637
120731
122326
123268
123574
121459
123127
124141
124561
121784
123465
124526
125062
122014
123648
124723
125353
115869
116191
116305
116218
116004
116418
116603
116569
116213
116731
117000
117031
116476
117106
117475
117592
116841
117579
118042
118245
117370
118207
118754
119045
117860
118784
119407
119792
118505
119500
120192
120679
118833
119865
120611
121196
119091
120131
120916
121576
114648
114805
114871
114848
114656
114869
114983
115001
114765
115047
115218
115282
114957
115314
115551
115678
115247
115680
115983
116173
115701
116209
116576
116833
116124
116703
117131
117457
116721
117364
117848
118249
117064
117743
118270
118739
117379
118068
118623
119140
113882
113961
113999
113996
113831
113944
114014
114040
113866
114025
114134
114194
113993
114203
114359
114464
114218
114482
114686
114839
114593
114911
115162
115366
114937
115307
115604
115860
115463
115880
116221
116531
115775
116224
116597
116953
116087
116550
116944
117330
113396
113437
113459
113461
113320
113383
113426
113447
113318
113412
113480
113525
113390
113519
113620
113697
113560
113726
113862
113973
113865
114069
114240
114388
114136
114378
114583
114768
114591
114868
115105
115327
114853
115153
115414
115665
115137
115449
115724
115994
113076
113098
113110
113113
112988
113024
113049
113064
112975
113032
113075
113105
113005
113085
113151
113204
113128
113234
113324
113401
113369
113503
113618
113721
113571
113731
113871
114000
113956
114140
114303
114459
114156
114358
114538
114711
114404
114615
114804
114990
112858
112869
112876
112879
112766
112786
112802
112812
112754
112788
112815
112835
112753
112804
112847
112882
112840
112909
112969
113021
113028
113116
113194
113264
113169
113275
113371
113460
113491
113615
113727
113833
113626
113762
113885
114003
113838
113979
114109
114235
112703
112710
112714
112715
112614
112626
112635
112642
112607
112628
112645
112658
112584
112616
112644
112667
112644
112689
112728
112763
112788
112847
112899
112946
112878
112949
113014
113075
113148
113231
113308
113380
113220
113312
113396
113477
113402
113497
113586
113671
112592
112595
112598
112599
112508
112514
112520
112524
112510
112523
112533
112542
112469
112489
112507
112522
112510
112540
112566
112589
112619
112657
112692
112724
112666
112714
112757
112798
112895
112951
113003
113052
112914
112976
113034
113088
113072
113137
113197
113254
112511
112513
112514
112515
112430
112434
112437
112440
112446
112454
112461
112466
112391
112404
112415
112425
112421
112440
112457
112472
112501
112526
112549
112571
112513
112545
112574
112601
112711
112749
112784
112817
112687
112728
112767
112803
112828
112872
112912
112951
112451
112452
112453
112454
112371
112373
112375
112377
112405
112410
112414
112417
112337
112345
112352
112359
112363
112375
112386
112396
112420
112437
112452
112466
112405
112426
112445
112463
112583
112608
112631
112653
112520
112548
112574
112598
112654
112683
112710
112735
112410
112410
112410
112411
112325
112326
112327
112329
112379
112382
112385
112387
112300
112305
112309
112313
112326
112334
112341
112347
112366
112377
112387
112396
112331
112344
112357
112369
112497
112513
112528
112543
112400
112418
112435
112451
112534
112553
112571
112588
112383
112383
112383
112383
112287
112287
112287
112289
112366
112368
112369
112370
112272
112275
112277
112280
112303
112308
112312
112316
112330
112337
112343
112349
112281
112290
112298
112305
112444
112454
112464
112473
112313
112325
112336
112346
112459
112471
112483
112493
112372
112372
112372
112372
112251
112251
112251
112253
112361
112362
112363
112363
112250
112252
112253
112255
112288
112291
112293
112296
112305
112309
112313
112316
112248
112253
112258
112263
112414
112420
112427
112432
112249
112257
112264
112270
112421
112429
112436
112443
112386
112385
112385
112386
112214
112214
112214
112215
112362
112363
112364
112364
112232
112233
112234
112235
112275
112277
112279
112280
112283
112286
112288
112290
112226
112229
112232
112235
112396
112400
112404
112407
112196
112201
112205
112209
112425
112429
112434
112438
112451
112449
112449
112451
112165
112164
112164
112166
112362
112363
112363
112363
112218
112218
112219
112220
112263
112264
112265
112265
112263
112264
112266
112267
112209
112210
112212
112214
112373
112376
112378
112380
112137
112140
112143
112145
112485
112488
112491
112493
112605
112602
112602
112605
112083
112082
112082
112084
112346
112348
112348
112347
112209
112209
112209
112210
112249
112250
112251
112251
112243
112244
112245
112246
112196
112197
112198
112200
112327
112329
112331
112331
112047
112049
112050
112052
112623
112625
112627
112629
112814
112812
112812
112814
111970
111965
111965
111970
112313
112315
112315
112313
112210
112210
112210
112211
112240
112241
112242
112242
112232
112233
112234
112235
112194
112194
112195
112197
112267
112270
112272
112271
111927
111925
111927
111932
112792
112795
112796
112797
120057
116537
114356
112641
111413
110492
109759
109156
108653
108224
121298
117351
114654
112779
111409
110366
109520
108805
108189
107626
122383
118088
114936
113016
111551
110411
109463
108653
107944
107308
123649
118999
115589
113582
111980
110722
109658
108735
107912
107191
124998
119938
116345
114151
112412
111032
109860
108839
107917
107142
126564
121011
117219
114810
112939
111438
110170
109061
108059
107221
128068
121820
117890
115243
113258
111644
110290
109108
108039
107168
129700
122612
118660
115764
113699
111983
110563
109319
108204
107281
130755
122860
118987
115892
113787
111987
110512
109216
108077
107110
131856
123325
119571
116299
114123
112230
110686
109327
108151
107143
119505
117123
115410
114071
112994
112118
111401
110817
110350
109985
120191
117475
115428
113829
112568
111563
110744
110066
109504
109019
120891
117906
115514
113784
112415
111322
110420
109661
109016
108452
121692
118543
115935
114090
112610
111419
110416
109554
108801
108144
122476
119316
116486
114497
112899
111600
110497
109540
108689
107966
123557
120253
117214
115051
113328
111918
110720
109677
108742
107948
124692
121015
117805
115436
113598
112078
110793
109677
108669
107832
126126
121794
118520
115931
114005
112388
111036
109855
108798
107904
127202
122070
118845
116080
114106
112408
110997
109764
108676
107739
128411
122416
119337
116417
114381
112607
111144
109863
108750
107785
117758
116582
115487
114520
113687
112982
112396
111918
111544
111267
118297
116807
115394
114174
113154
112309
111609
111028
110556
110165
118878
117133
115434
114037
112884
111934
111141
110475
109918
109441
119564
117655
115750
114220
112951
111895
110998
110227
109564
108992
120318
118310
116211
114540
113147
111981
110981
110115
109352
108706
121330
119152
116868
115028
113505
112224
111127
110171
109321
108598
122359
119883
117425
115385
113735
112341
111153
110119
109193
108419
123677
120683
118122
115868
114117
112624
111363
110262
109283
108449
124682
121041
118485
116058
114246
112667
111342
110185
109168
108291
125746
121417
118949
116373
114498
112850
111478
110280
109239
108335
115921
115401
114835
114274
113750
113278
112870
112530
112262
112068
116261
115569
114781
114014
113311
112688
112150
111693
111323
111022
116719
115870
114867
113918
113062
112314
111668
111118
110658
110268
117320
116352
115179
114079
113090
112223
111465
110806
110240
109753
118023
116953
115620
114370
113249
112264
111399
110639
109972
109406
118957
117735
116243
114826
113570
112466
111498
110645
109888
109241
119900
118432
116782
115173
113783
112562
111497
110561
109725
109020
121090
119232
117464
115652
114150
112825
111682
110676
109781
109015
122002
119657
117847
115860
114276
112859
111647
110584
109649
108842
122939
120071
118274
116142
114495
113016
111763
110664
109706
108875
114733
114496
114209
113900
113591
113301
113040
112818
112642
112515
114908
114591
114169
113710
113256
112829
112446
112113
111842
111622
115221
114819
114255
113647
113054
112505
112012
111583
111221
110917
115696
115228
114541
113797
113073
112401
111794
111255
110791
110391
116289
115758
114951
114069
113214
112423
111705
111063
110498
110018
117085
116460
115530
114497
113510
112599
111775
111037
110381
109818
117882
117097
116037
114832
113711
112680
111756
110932
110194
109570
118906
117860
116690
115305
114067
112931
111923
111026
110227
109541
119689
118307
117074
115522
114188
112957
111879
110925
110083
109358
120475
118722
117466
115783
114387
113099
111982
110995
110130
109381
113950
113842
113699
113536
113364
113196
113041
112906
112797
112719
114021
113876
113654
113391
113111
112836
112579
112351
112164
112011
114210
114027
113721
113350
112960
112577
112221
111902
111631
111402
114553
114346
113958
113479
112974
112478
112013
111591
111224
110908
115020
114788
114319
113725
113102
112493
111920
111397
110934
110540
115669
115396
114837
114119
113374
112650
111973
111354
110802
110326
116309
115950
115292
114430
113561
112721
111944
111239
110604
110067
117160
116649
115901
114888
113904
112961
112099
111319
110623
110023
117792
117072
116258
115096
114014
112978
112046
111212
110471
109834
118419
117462
116613
115341
114199
113110
112141
111274
110511
109849
113442
113392
113322
113237
113145
113052
112963
112885
112822
112775
113448
113381
113264
113115
112948
112778
112614
112467
112344
112242
113554
113474
113309
113089
112839
112583
112335
112109
111914
111748
113783
113700
113487
113187
112846
112493
112150
111832
111553
111310
114131
114050
113784
113397
112958
112504
112062
111651
111283
110970
114642
114553
114228
113745
113202
112645
112106
111604
111152
110762
115132
115011
114616
114021
113367
112705
112070
111484
110953
110503
115824
115628
115165
114449
113692
112933
112217
111558
110966
110455
116306
115995
115471
114633
113784
112940
112157
111446
110809
110263
116794
116347
115790
114863
113960
113066
112248
111505
110846
110275
113105
113082
113047
113004
112956
112906
112857
112814
112778
112751
113071
113039
112978
112895
112799
112697
112597
112505
112428
112362
113131
113097
113008
112878
112722
112555
112389
112234
112099
111984
113271
113244
113127
112942
112717
112473
112229
111997
111792
111613
113521
113507
113359
113112
112809
112481
112151
111838
111556
111315
113911
113909
113726
113408
113021
112605
112189
111794
111436
111125
114272
114268
114039
113638
113159
112651
112148
111675
111244
110876
114825
114795
114518
114027
113460
112866
112288
111747
111258
110833
115173
115088
114761
114175
113529
112861
112222
111632
111099
110642
115550
115397
115043
114390
113696
112984
112311
111691
111136
110655
112875
112865
112848
112826
112801
112775
112749
112725
112705
112690
112819
112804
112773
112727
112673
112614
112555
112500
112453
112411
112854
112840
112792
112715
112620
112514
112406
112305
112214
112137
112930
112925
112861
112747
112602
112438
112269
112107
111961
111832
113106
113117
113035
112878
112674
112442
112204
111973
111763
111584
113400
113429
113327
113121
112851
112548
112237
111935
111660
111420
113653
113695
113565
113300
112957
112577
112190
111820
111479
111189
114093
114135
113975
113644
113231
112779
112326
111894
111501
111158
114325
114346
114151
113751
113273
112760
112253
111776
111342
110969
114619
114613
114397
113949
113431
112879
112342
111838
111382
110987
112714
112710
112701
112690
112677
112664
112650
112637
112626
112618
112648
112642
112625
112601
112571
112537
112503
112471
112443
112417
112670
112666
112639
112595
112538
112472
112404
112339
112281
112230
112700
112703
112667
112599
112506
112399
112286
112175
112075
111985
112821
112839
112793
112695
112559
112401
112233
112068
111917
111787
113041
113076
113020
112888
112703
112488
112262
112038
111833
111653
113209
113261
113189
113015
112775
112498
112209
111927
111666
111443
113561
113624
113535
113316
113021
112686
112341
112006
111699
111430
113697
113759
113646
113380
113035
112650
112259
111885
111541
111245
113932
113986
113860
113560
113184
112768
112350
111952
111588
111271
112598
112597
112592
112587
112580
112574
112566
112560
112553
112549
112529
112527
112519
112506
112489
112471
112451
112433
112417
112400
112549
112548
112534
112509
112475
112435
112393
112353
112315
112283
112545
112549
112530
112489
112431
112362
112289
112215
112149
112087
112628
112644
112619
112558
112470
112363
112248
112134
112028
111937
112789
112820
112790
112706
112582
112434
112273
112113
111964
111832
112890
112937
112898
112786
112621
112425
112214
112006
111811
111645
113176
113238
113189
113046
112841
112600
112344
112092
111859
111653
113237
113305
113243
113068
112826
112545
112252
111966
111700
111472
113430
113500
113430
113233
112967
112661
112346
112039
111757
111511
112514
112514
112512
112509
112506
112502
112498
112495
112491
112489
112444
112444
112440
112433
112424
112414
112403
112393
112384
112373
112470
112470
112463
112448
112429
112405
112380
112355
112331
112312
112440
112444
112434
112410
112374
112331
112284
112237
112193
112152
112498
112511
112497
112460
112403
112333
112257
112179
112107
112044
112614
112639
112623
112570
112489
112388
112277
112165
112061
111967
112663
112701
112680
112608
112498
112362
112213
112063
111922
111802
112901
112952
112927
112836
112696
112526
112342
112158
111986
111833
112903
112963
112930
112817
112651
112451
112236
112025
111825
111655
113069
113134
113097
112970
112786
112568
112336
112107
111894
111708
112453
112454
112452
112451
112449
112448
112446
112444
112442
112441
112382
112382
112380
112376
112372
112366
112360
112354
112349
112342
112419
112420
112416
112408
112396
112382
112367
112352
112338
112326
112369
112372
112367
112353
112331
112305
112275
112245
112218
112191
112412
112422
112415
112392
112356
112311
112261
112210
112162
112120
112494
112513
112504
112472
112419
112353
112278
112202
112130
112065
112505
112532
112522
112476
112403
112311
112208
112104
112005
111920
112709
112749
112736
112679
112586
112469
112340
112209
112087
111976
112663
112710
112693
112622
112510
112371
112219
112066
111921
111797
112815
112866
112849
112768
112644
112492
112326
112160
112004
111868
112410
112411
112410
112410
112409
112408
112407
112406
112405
112404
112333
112333
112332
112331
112328
112325
112322
112319
112316
112311
112387
112388
112386
112381
112375
112366
112357
112348
112340
112333
112320
112322
112319
112311
112298
112282
112264
112246
112229
112211
112357
112364
112360
112346
112324
112296
112264
112231
112200
112173
112414
112427
112423
112403
112369
112326
112277
112227
112179
112135
112396