/*--------------------------------*- C++ -*----------------------------------*\
| =========                 |                                                 |
| \\      /  F ield         | foam-extend: Open Source CFD                    |
|  \\    /   O peration     | Version:     4.0                                |
|   \\  /    A nd           | Web:         http://www.foam-extend.org         |
|    \\/     M anipulation  |                                                 |
\*---------------------------------------------------------------------------*/
FoamFile
{
    version     2.0;
    format      ascii;
    class       surfaceScalarField;
    location    "2200";
    object      phi;
}
// * * * * * * * * * * * * * * * * * * * * * * * * * * * * * * * * * * * * * //

dimensions      [1 0 -1 0 0 0 0];

internalField   nonuniform List<scalar> 
97302
(
-0.000109157
5.33128e-06
-0.000614689
0.000631493
-0.000133906
5.79737e-06
-0.000618281
0.000637232
-0.000162519
6.22058e-06
-0.000621094
0.000643487
-0.000196834
6.63474e-06
-0.000623128
0.000650809
-0.000239376
7.05864e-06
-0.000624237
0.000659719
-0.000293219
7.47594e-06
-0.000623683
0.00067005
-0.000361113
7.79401e-06
-0.000619415
0.000679515
-0.00044234
7.788e-06
-0.000606777
0.000680216
-0.000532897
7.05841e-06
-0.000575084
0.000658582
4.58597e-06
-0.000491023
-0.000669222
0.000622763
-0.000137841
7.9157e-06
-0.00085971
0.000875194
-0.000158097
8.80987e-06
-0.000865488
0.000882732
-0.00018138
9.47851e-06
-0.000870243
0.000890268
-0.000209466
9.9866e-06
-0.000873811
0.000898545
-0.00024538
1.03783e-05
-0.000876481
0.000909075
-0.000293523
1.06548e-05
-0.000878101
0.000923066
-0.000359404
1.07275e-05
-0.000876842
0.00093979
-0.000446163
1.03267e-05
-0.000867424
0.000951644
-0.000549427
8.84836e-06
-0.00083649
0.000937964
4.5964e-06
-0.000726305
-0.000721802
0.00089867
-0.000168265
8.43732e-06
-0.00110354
0.00111815
-0.000185282
9.69371e-06
-0.00111152
0.00112765
-0.000204951
1.06166e-05
-0.00111848
0.00113701
-0.000228889
1.12807e-05
-0.00112428
0.00114693
-0.000260223
1.17302e-05
-0.00112921
0.00115919
-0.000304155
1.19817e-05
-0.00113376
0.00117636
-0.000367976
1.19584e-05
-0.00113682
0.00119942
-0.00045788
1.13569e-05
-0.00113283
0.00122171
-0.0005695
9.3744e-06
-0.00110626
0.00121735
3.59113e-06
-0.000974896
-0.000767596
0.001174
-0.000199694
8.52531e-06
-0.00134385
0.00135777
-0.000215523
1.00039e-05
-0.00135535
0.00137087
-0.000233881
1.1086e-05
-0.00136585
0.00138373
-0.000256172
1.18413e-05
-0.00137518
0.00139691
-0.000285324
1.22915e-05
-0.00138331
0.0014119
-0.00032678
1.24451e-05
-0.00139098
0.00143197
-0.000389029
1.22306e-05
-0.00139786
0.00145983
-0.00048072
1.13268e-05
-0.00139906
0.00149079
-0.000597582
8.70077e-06
-0.00137788
0.00149541
1.10925e-06
-0.00122754
-0.000811536
0.00144398
-0.000233302
8.44341e-06
-0.00158422
0.00159768
-0.000248477
9.97781e-06
-0.00159967
0.00161487
-0.000266122
1.10756e-05
-0.00161416
0.00163182
-0.000287473
1.18056e-05
-0.00162746
0.00164885
-0.000315261
1.21749e-05
-0.0016393
0.0016672
-0.000354962
1.21724e-05
-0.00165034
0.00169032
-0.000415916
1.1724e-05
-0.0016609
0.00172236
-0.000508789
1.04996e-05
-0.00166721
0.00176091
-0.000629453
7.19127e-06
-0.00165185
0.00177402
-2.37022e-06
-0.00148262
-0.000852987
0.00170963
-0.00026943
8.23368e-06
-0.00182304
0.00183612
-0.000284094
9.66452e-06
-0.00184261
0.00185759
-0.000301178
1.06432e-05
-0.0018611
0.00187862
-0.000321808
1.12414e-05
-0.00187837
0.00189956
-0.000348555
1.14569e-05
-0.00189399
0.00192145
-0.000386861
1.12674e-05
-0.00190844
0.00194765
-0.000446695
1.06112e-05
-0.00192247
0.00198342
-0.000540583
9.19642e-06
-0.00193347
0.00202866
-0.000665162
5.48454e-06
-0.00192338
0.00204966
-5.67842e-06
-0.00173221
-0.000898881
0.00196924
-0.000307433
8.00594e-06
-0.002061
0.00207371
-0.000321635
9.13791e-06
-0.00208434
0.00209907
-0.000338174
9.8583e-06
-0.00210645
0.00212377
-0.000358077
1.02115e-05
-0.00212723
0.00214817
-0.000383749
1.01864e-05
-0.0021463
0.00217324
-0.000420498
9.76432e-06
-0.00216394
0.00220219
-0.000478726
8.95085e-06
-0.00218137
0.00224126
-0.000572659
7.58362e-06
-0.00219728
0.00229282
-0.000700058
4.02285e-06
-0.0021933
0.00232216
-7.87724e-06
-0.00198021
-0.00094265
0.002225
-0.000348444
7.22765e-06
-0.00229916
0.00231179
-0.000361999
7.89486e-06
-0.00232585
0.00234065
-0.000377843
8.29905e-06
-0.00235094
0.00236834
-0.000396925
8.41077e-06
-0.00237466
0.00239554
-0.000421421
8.18819e-06
-0.00239658
0.00242307
-0.000456341
7.60304e-06
-0.00241687
0.00245395
-0.0005122
6.76513e-06
-0.00243717
0.00249522
-0.000604743
5.73916e-06
-0.00245788
0.00255226
-0.000733297
3.12634e-06
-0.00246151
0.00259096
-8.12701e-06
-0.00222909
-0.000982708
0.00247875
-0.000390228
5.05634e-06
-0.00253416
0.00254689
-0.000402699
5.0469e-06
-0.00256336
0.00257868
-0.00041763
4.98806e-06
-0.00259081
0.00260906
-0.000436076
4.77425e-06
-0.00261742
0.0026395
-0.00045999
4.37059e-06
-0.00264298
0.00267071
-0.000493697
3.73127e-06
-0.00266721
0.00270479
-0.000547099
3.04758e-06
-0.00269117
0.00274829
-0.00063696
2.6138e-06
-0.00271663
0.00280962
-0.0007645
1.6691e-06
-0.00272863
0.00285763
-7.24417e-06
-0.00248144
-0.00101449
0.00273055
-0.000432598
-0.0027542
0.00276781
-0.000443473
-0.00278605
0.00280197
-0.000456903
-0.00281607
0.00283449
-0.000474068
-0.00284515
0.00286709
-0.000496877
-0.00287296
0.00290014
-0.000529224
-0.00289949
0.00293557
-0.000579857
-0.00292614
0.00297982
-0.000665252
-0.00295701
0.00304501
-0.000788327
-0.00298294
0.00310768
-0.00273963
-0.00103719
0.00298125
1.2331e-05
5.38462e-06
-0.000599553
-1.01109e-05
5.8493e-06
-0.000601688
-3.48993e-05
6.23764e-06
-0.000602544
-6.26579e-05
6.55684e-06
-0.000601927
-9.43e-05
6.80218e-06
-0.000599397
-0.00013071
6.94113e-06
-0.000594214
-0.000171775
6.90079e-06
-0.000585251
-0.000214217
6.5358e-06
-0.00057087
-0.000247641
5.58656e-06
-0.000547247
3.53357e-06
-0.000505107
-0.000237091
2.2567e-05
7.97455e-06
-0.000844367
2.61799e-06
8.92772e-06
-0.000848618
-1.96392e-05
9.63627e-06
-0.000851385
-4.47771e-05
1.01304e-05
-0.000852247
-7.41066e-05
1.04161e-05
-0.000850766
-0.000109734
1.04674e-05
-0.000846
-0.000153786
1.02148e-05
-0.000836105
-0.000206163
9.47619e-06
-0.000817987
-0.000259397
7.89561e-06
-0.000785565
4.63527e-06
-0.000720916
-0.000265887
3.2175e-05
8.48818e-06
-0.00108817
1.43826e-05
9.88538e-06
-0.00109468
-5.77267e-06
1.09317e-05
-0.00109962
-2.90178e-05
1.16724e-05
-0.00110258
-5.67681e-05
1.21043e-05
-0.00110315
-9.18206e-05
1.22021e-05
-0.00110044
-0.000138159
1.18963e-05
-0.00109217
-0.000198826
1.0967e-05
-0.00107366
-0.000270194
8.91754e-06
-0.00103591
4.49578e-06
-0.000947947
-0.000297004
4.1489e-05
8.43127e-06
-0.0013286
2.42989e-05
1.01589e-05
-0.00133843
4.5933e-06
1.14735e-05
-0.00134668
-1.84001e-05
1.24193e-05
-0.00135293
-4.60916e-05
1.29732e-05
-0.00135649
-8.14693e-05
1.30872e-05
-0.00135649
-0.000129741
1.26784e-05
-0.00135037
-0.000197082
1.15084e-05
-0.00133227
-0.000284528
8.93341e-06
-0.00129045
3.216e-06
-0.00117858
-0.000332212
4.89332e-05
8.14346e-06
-0.00156902
3.19317e-05
1.00574e-05
-0.00158256
1.23156e-05
1.15174e-05
-0.00159459
-1.07294e-05
1.25682e-05
-0.00160457
-3.86211e-05
1.31796e-05
-0.00161161
-7.43939e-05
1.32743e-05
-0.00161476
-0.000124111
1.27465e-05
-0.00161125
-0.000196821
1.13489e-05
-0.00159434
-0.000298334
8.27075e-06
-0.00154967
1.21458e-06
-0.00141356
-0.000365389
5.41403e-05
7.66847e-06
-0.00180782
3.72625e-05
9.6222e-06
-0.00182529
1.7718e-05
1.11076e-05
-0.00184115
-5.34913e-06
1.21739e-05
-0.00185491
-3.33678e-05
1.27881e-05
-0.00186558
-6.94014e-05
1.28564e-05
-0.00187199
-0.000120129
1.2258e-05
-0.00187126
-0.000197073
1.07625e-05
-0.00185594
-0.000310489
7.41926e-06
-0.00180911
-7.0653e-07
-0.00164779
-0.000392991
5.70924e-05
7.07423e-06
-0.00204579
4.03879e-05
8.87507e-06
-0.00206689
2.10438e-05
1.0255e-05
-0.00208625
-1.82107e-06
1.12443e-05
-0.00210344
-2.96377e-05
1.1806e-05
-0.0021175
-6.54653e-05
1.18372e-05
-0.00212709
-0.00011645
1.1234e-05
-0.00212937
-0.000196345
9.84553e-06
-0.00211647
-0.00031984
6.6786e-06
-0.00206906
-2.08784e-06
-0.00188322
-0.000415457
5.74993e-05
5.89575e-06
-0.00228375
4.12804e-05
7.34362e-06
-0.0023081
2.24722e-05
8.53153e-06
-0.00233041
1.72008e-07
9.4315e-06
-0.00235055
-2.70116e-05
9.99229e-06
-0.00236758
-6.20631e-05
1.00879e-05
-0.00238007
-0.000112389
9.65885e-06
-0.00238527
-0.00019373
8.67535e-06
-0.00237537
-0.000325722
6.39045e-06
-0.00232923
-2.25362e-06
-0.00212081
-0.000433842
5.58632e-05
3.41191e-06
-0.00251843
4.06973e-05
4.24165e-06
-0.00254509
2.29491e-05
5.0379e-06
-0.00256957
1.53466e-06
5.68451e-06
-0.00259226
-2.50439e-05
6.17691e-06
-0.00261258
-5.95922e-05
6.37827e-06
-0.00262896
-0.000109153
6.28614e-06
-0.00263824
-0.000190792
5.98782e-06
-0.00263231
-0.000329957
5.37294e-06
-0.00258845
-1.41644e-06
-0.00235912
-0.000453118
5.31618e-05
-0.00273892
3.92802e-05
-0.00276792
2.29837e-05
-0.00279473
3.11143e-06
-0.0028196
-2.18926e-05
-0.00284178
-5.49985e-05
-0.00286001
-0.000102723
-0.00287213
-0.000182684
-0.00287106
-0.000327129
-0.00283312
-0.00259055
-0.000477624
6.83712e-06
5.29823e-06
-0.000587467
-1.19249e-05
5.70751e-06
-0.000588634
-3.19975e-05
6.0086e-06
-0.00058848
-5.32705e-05
6.20348e-06
-0.000586857
-7.54548e-05
6.27201e-06
-0.000583484
-9.78414e-05
6.16833e-06
-0.000577996
-0.000118913
5.82183e-06
-0.000570001
-0.000135736
5.13959e-06
-0.000559186
-0.000141919
4.01024e-06
-0.000545074
2.34454e-06
-0.000526477
-0.000122893
1.61564e-05
7.99727e-06
-0.000830625
-2.08548e-06
8.87536e-06
-0.000833544
-2.21487e-05
9.49021e-06
-0.000834803
-4.40031e-05
9.85808e-06
-0.000834047
-6.77064e-05
9.96056e-06
-0.000830751
-9.31568e-05
9.73782e-06
-0.00082412
-0.000119496
9.09912e-06
-0.000813043
-0.000144142
7.91239e-06
-0.000796114
-0.000160325
6.01334e-06
-0.000771385
3.25486e-06
-0.000736777
-0.000145374
2.57255e-05
8.72602e-06
-0.00107351
8.43647e-06
1.00532e-05
-0.00107857
-1.09697e-05
1.10141e-05
-0.00108174
-3.27785e-05
1.16344e-05
-0.00108255
-5.74228e-05
1.1886e-05
-0.00108043
-8.55243e-05
1.1697e-05
-0.0010743
-0.000117257
1.09468e-05
-0.00106228
-0.000150867
9.43558e-06
-0.00104157
-0.000179643
6.8691e-06
-0.00100799
2.91949e-06
-0.00095493
-0.000172325
3.51911e-05
8.77809e-06
-0.00131358
1.80328e-05
1.04592e-05
-0.00132168
-1.58057e-06
1.17108e-05
-0.00132776
-2.41314e-05
1.25631e-05
-0.00133131
-5.02528e-05
1.29604e-05
-0.00133144
-8.10366e-05
1.2806e-05
-0.00132681
-0.000117618
1.19411e-05
-0.00131478
-0.000159604
1.01004e-05
-0.00129094
-0.000201473
6.83762e-06
-0.00124855
1.59694e-06
-0.0011742
-0.000204528
4.31143e-05
8.54358e-06
-0.00155379
2.58846e-05
1.04444e-05
-0.00156532
5.96287e-06
1.18768e-05
-0.00157483
-1.72506e-05
1.2873e-05
-0.00158166
-4.46093e-05
1.33648e-05
-0.00158466
-7.75494e-05
1.32255e-05
-0.00158224
-0.000118113
1.22546e-05
-0.001571
-0.000167572
1.01225e-05
-0.0015449
-0.000222319
6.19056e-06
-0.00149428
-4.09545e-07
-0.00139681
-0.000237066
4.89673e-05
8.05995e-06
-0.0017924
3.17098e-05
1.00356e-05
-0.00180763
1.16191e-05
1.15324e-05
-0.00182072
-1.20058e-05
1.25877e-05
-0.001831
-4.02176e-05
1.31301e-05
-0.00183713
-7.47483e-05
1.30136e-05
-0.00183725
-0.000118493
1.20091e-05
-0.00182727
-0.00017454
9.74456e-06
-0.00179951
-0.00024174
5.385e-06
-0.0017411
-2.3567e-06
-0.00161892
-0.000268663
5.26272e-05
7.37225e-06
-0.00203024
3.54772e-05
9.22288e-06
-0.00204892
1.54671e-05
1.06487e-05
-0.00206536
-8.18392e-06
1.16748e-05
-0.00207887
-3.66921e-05
1.22317e-05
-0.00208809
-7.20452e-05
1.21588e-05
-0.00209088
-0.000117943
1.12248e-05
-0.00208268
-0.000179415
9.06572e-06
-0.00205432
-0.0002583
4.70786e-06
-0.0019895
-3.86659e-06
-0.00184237
-0.00029763
5.36769e-05
6.05998e-06
-0.00226795
3.70062e-05
7.55864e-06
-0.00228976
1.7518e-05
8.79036e-06
-0.00230906
-5.64885e-06
9.73683e-06
-0.00232544
-3.38147e-05
1.03366e-05
-0.00233752
-6.91549e-05
1.04172e-05
-0.00234298
-0.000116056
9.7835e-06
-0.00233693
-0.000181497
8.12398e-06
-0.00230898
-0.000271033
4.55115e-06
-0.00223954
-4.24484e-06
-0.0020683
-0.00032316
5.23848e-05
3.55347e-06
-0.00250227
3.67374e-05
4.40591e-06
-0.00252629
1.83583e-05
5.22022e-06
-0.00254762
-3.80499e-06
5.8818e-06
-0.00256624
-3.13349e-05
6.40431e-06
-0.00258112
-6.65648e-05
6.63765e-06
-0.00258995
-0.00011408
6.48408e-06
-0.00258742
-0.000182222
5.72491e-06
-0.00256177
-0.00028079
3.91306e-06
-0.00248924
-3.26348e-06
-0.00229392
-0.000346967
5.00228e-05
-0.00272289
3.55453e-05
-0.00274904
1.85731e-05
-0.00277254
-2.02729e-06
-0.00279311
-2.78299e-05
-0.00280958
-6.14507e-05
-0.00281975
-0.000107794
-0.00281931
-0.000176295
-0.00279683
-0.000280719
-0.00272478
-0.00250934
-0.000365192
3.95558e-06
4.93746e-06
-0.000579016
-1.02936e-05
5.27603e-06
-0.000579661
-2.50553e-05
5.48378e-06
-0.000579202
-3.99104e-05
5.56382e-06
-0.000577566
-5.42478e-05
5.49759e-06
-0.000574645
-6.71588e-05
5.25114e-06
-0.000570336
-7.72955e-05
4.78243e-06
-0.000564647
-8.2666e-05
4.04767e-06
-0.000557863
-8.01212e-05
3.01595e-06
-0.000550635
1.7477e-06
-0.000543102
-6.52436e-05
1.136e-05
7.67527e-06
-0.000819369
-4.05659e-06
8.44983e-06
-0.000821301
-2.0654e-05
8.94251e-06
-0.000821664
-3.80717e-05
9.16652e-06
-0.000820232
-5.5768e-05
9.09903e-06
-0.000816656
-7.28154e-05
8.68257e-06
-0.000810504
-8.76155e-05
7.84587e-06
-0.000801306
-9.74815e-05
6.52175e-06
-0.000788722
-9.78253e-05
4.68339e-06
-0.000772708
2.47589e-06
-0.000754218
-8.11131e-05
2.00348e-05
8.66916e-06
-0.00106041
4.22046e-06
9.88228e-06
-0.00106419
-1.32544e-05
1.07113e-05
-0.00106603
-3.22681e-05
1.11675e-05
-0.00106553
-5.26025e-05
1.12159e-05
-0.00106221
-7.3712e-05
1.07743e-05
-0.00105528
-9.41923e-05
9.72908e-06
-0.00104369
-0.000110943
7.94404e-06
-0.00102624
-0.000117645
5.30262e-06
-0.00100191
1.93393e-06
-0.000971002
-0.000101031
2.90578e-05
8.90238e-06
-0.00129948
1.27013e-05
1.04852e-05
-0.00130592
-5.79926e-06
1.1617e-05
-0.00131017
-2.65761e-05
1.23138e-05
-0.00131168
-4.964e-05
1.25042e-05
-0.00130967
-7.48098e-05
1.20737e-05
-0.00130294
-0.000101046
1.0855e-05
-0.00128967
-0.000125261
8.62902e-06
-0.00126741
-0.000140077
5.15125e-06
-0.00123358
5.13553e-07
-0.00118681
-0.000126046
3.70353e-05
8.78296e-06
-0.00153906
2.01899e-05
1.0615e-05
-0.0015486
8.20109e-07
1.19566e-05
-0.0015558
-2.1384e-05
1.28285e-05
-0.00155997
-4.66841e-05
1.31328e-05
-0.00155999
-7.52922e-05
1.27205e-05
-0.00155428
-0.000106692
1.13635e-05
-0.00154011
-0.000138217
8.7484e-06
-0.0015135
-0.000162096
4.45134e-06
-0.0014697
-1.54395e-06
-0.00140436
-0.000152483
4.32408e-05
8.34174e-06
-0.0017772
2.60937e-05
1.02828e-05
-0.00179015
6.16771e-06
1.17256e-05
-0.00180056
-1.70042e-05
1.26972e-05
-0.00180769
-4.3964e-05
1.30893e-05
-0.00181013
-7.52976e-05
1.27261e-05
-0.00180592
-0.000111126
1.13297e-05
-0.00179141
-0.000149542
8.5e-06
-0.00176085
-0.000183022
3.60417e-06
-0.00170678
-3.57943e-06
-0.00162054
-0.000179364
4.74283e-05
7.61337e-06
-0.00201469
3.02226e-05
9.45802e-06
-0.00203089
1.01298e-05
1.08616e-05
-0.0020444
-1.34538e-05
1.18444e-05
-0.00205444
-4.13408e-05
1.23029e-05
-0.00205942
-7.44904e-05
1.20398e-05
-0.00205705
-0.000113753
1.07497e-05
-0.00204284
-0.000158319
7.97637e-06
-0.00200923
-0.000201604
2.88596e-06
-0.0019455
-5.26208e-06
-0.00183712
-0.000205177
4.90549e-05
6.21262e-06
-0.00225201
3.22419e-05
7.71782e-06
-0.00227121
1.25454e-05
8.93195e-06
-0.00228744
-1.07741e-05
9.84332e-06
-0.00230012
-3.87532e-05
1.03704e-05
-0.00230761
-7.26964e-05
1.03152e-05
-0.00230732
-0.000114219
9.40038e-06
-0.00229406
-0.000163896
7.16071e-06
-0.00225849
-0.000216979
2.71834e-06
-0.00218629
-5.80618e-06
-0.00205539
-0.00022934
4.83265e-05
3.67884e-06
-0.00248591
3.24569e-05
4.53782e-06
-0.00250724
1.38172e-05
5.34087e-06
-0.00252539
-8.5047e-06
5.97007e-06
-0.00254005
-3.58991e-05
6.43333e-06
-0.00254979
-7.00686e-05
6.57419e-06
-0.00255204
-0.000113231
6.24879e-06
-0.00254111
-0.000167166
5.08072e-06
-0.00250575
-0.000229426
2.44649e-06
-0.00242671
-4.60368e-06
-0.00227251
-0.000252046
4.64422e-05
-0.0027064
3.16461e-05
-0.0027297
1.43406e-05
-0.0027499
-6.47543e-06
-0.00276633
-3.21702e-05
-0.00277745
-6.47233e-05
-0.00278062
-0.000107149
-0.00277063
-0.000162918
-0.00273598
-0.000231873
-0.00265338
-0.00247765
-0.000268168
2.5114e-06
4.39857e-06
-0.000573802
-7.61597e-06
4.6674e-06
-0.000574201
-1.78451e-05
4.8e-06
-0.000573773
-2.77117e-05
4.80158e-06
-0.000572501
-3.66464e-05
4.66244e-06
-0.000570372
-4.39485e-05
4.36616e-06
-0.0005674
-4.87843e-05
3.89812e-06
-0.000563709
-5.01951e-05
3.2489e-06
-0.000559701
-4.69676e-05
2.42179e-06
-0.000556284
1.47888e-06
-0.000554111
-3.74377e-05
7.96097e-06
7.08061e-06
-0.000810871
-4.27012e-06
7.7395e-06
-0.000812142
-1.71522e-05
8.11166e-06
-0.000812094
-3.01868e-05
8.21175e-06
-0.000810607
-4.26878e-05
8.02424e-06
-0.000807517
-5.36765e-05
7.51186e-06
-0.000802661
-6.17914e-05
6.63901e-06
-0.000795932
-6.52549e-05
5.39423e-06
-0.000787404
-6.18762e-05
3.82682e-06
-0.000777492
2.13618e-06
-0.000767247
-4.95045e-05
1.5364e-05
8.31673e-06
-0.00104937
1.65678e-06
9.38769e-06
-0.00105213
-1.32204e-05
1.0067e-05
-0.00105311
-2.88727e-05
1.03589e-05
-0.00105203
-4.4728e-05
1.02318e-05
-0.00104856
-5.98324e-05
9.61668e-06
-0.00104228
-7.25803e-05
8.43802e-06
-0.00103274
-8.04037e-05
6.63903e-06
-0.00101966
-7.94472e-05
4.23276e-06
-0.00100327
1.48733e-06
-0.000985061
-6.47391e-05
2.35335e-05
8.7592e-06
-0.00128685
8.6289e-06
1.02053e-05
-0.00129184
-8.00217e-06
1.1186e-05
-0.00129466
-2.61649e-05
1.17044e-05
-0.00129486
-4.54301e-05
1.16888e-05
-0.00129186
-6.49573e-05
1.10308e-05
-0.00128483
-8.30292e-05
9.59798e-06
-0.00127276
-9.64226e-05
7.26131e-06
-0.00125464
-9.96532e-05
3.95411e-06
-0.00123007
1.99862e-08
-0.00120084
-8.41548e-05
3.11912e-05
8.79412e-06
-0.00152535
1.53209e-05
1.05122e-05
-0.00153304
-2.7368e-06
1.17211e-05
-0.00153828
-2.29918e-05
1.24279e-05
-0.00154044
-4.52089e-05
1.25229e-05
-0.00153861
-6.87848e-05
1.1855e-05
-0.00153152
-9.2094e-05
1.02217e-05
-0.00151742
-0.000111522
7.39638e-06
-0.0014942
-0.000120167
3.17339e-06
-0.00146027
-2.07904e-06
-0.00141724
-0.000105195
3.74541e-05
8.4375e-06
-0.00176267
2.09442e-05
1.02968e-05
-0.00177342
1.88628e-06
1.1637e-05
-0.00178142
-1.99081e-05
1.24734e-05
-0.00178594
-4.44584e-05
1.26735e-05
-0.00178573
-7.1474e-05
1.20526e-05
-0.0017791
-9.9609e-05
1.03398e-05
-0.00176339
-0.000125169
7.20306e-06
-0.0017351
-0.000140205
2.25184e-06
-0.00169082
-4.19219e-06
-0.00163136
-0.000127275
4.19613e-05
7.71644e-06
-0.00199954
2.51554e-05
9.51159e-06
-0.0020133
5.6067e-06
1.08436e-05
-0.00202406
-1.70497e-05
1.17255e-05
-0.00203103
-4.31346e-05
1.20263e-05
-0.00203269
-7.27182e-05
1.15332e-05
-0.00202695
-0.000104919
9.92365e-06
-0.00201022
-0.00013632
6.76641e-06
-0.00197739
-0.000158442
1.45732e-06
-0.00192258
-5.99521e-06
-0.00184485
-0.000148908
4.40492e-05
6.26572e-06
-0.0022363
2.74787e-05
7.74795e-06
-0.00225288
8.11183e-06
8.90804e-06
-0.00226613
-1.45964e-05
9.73687e-06
-0.00227542
-4.12564e-05
1.01294e-05
-0.00227905
-7.23304e-05
9.8762e-06
-0.00227458
-0.000107557
8.66646e-06
-0.00225757
-0.00014418
6.00859e-06
-0.00222111
-0.000173959
1.19281e-06
-0.00215625
-6.67285e-06
-0.00205908
-0.000169591
4.38991e-05
3.73576e-06
-0.00246968
2.81361e-05
4.58902e-06
-0.00248832
9.68045e-06
5.36447e-06
-0.00250339
-1.21707e-05
5.93981e-06
-0.0025144
-3.84127e-05
6.30851e-06
-0.00251973
-7.00202e-05
6.30779e-06
-0.00251686
-0.000107472
5.7628e-06
-0.00250075
-0.000148844
4.25101e-06
-0.00246262
-0.000186532
1.20591e-06
-0.00238903
-5.30086e-06
-0.00227125
-0.000189163
4.24731e-05
-0.00268984
2.76729e-05
-0.00271032
1.04308e-05
-0.00272729
-1.00692e-05
-0.00273989
-3.48373e-05
-0.00274637
-6.51127e-05
-0.00274404
-0.000102158
-0.00272782
-0.00014572
-0.00268817
-0.000189449
-0.00260845
-0.0024707
-0.000201698
1.81985e-06
3.77682e-06
-0.000571052
-5.02034e-06
3.98595e-06
-0.000571346
-1.18088e-05
4.06764e-06
-0.000571052
-1.81593e-05
4.02871e-06
-0.000570179
-2.36496e-05
3.86777e-06
-0.00056875
-2.78241e-05
3.58162e-06
-0.000566807
-3.02258e-05
3.17282e-06
-0.000564481
-3.04444e-05
2.6479e-06
-0.00056213
-2.80756e-05
2.0157e-06
-0.000560668
1.30657e-06
-0.000561148
-2.23452e-05
5.62035e-06
6.30734e-06
-0.000804941
-3.58554e-06
6.85253e-06
-0.000805803
-1.30966e-05
7.12265e-06
-0.000805638
-2.24165e-05
7.13538e-06
-0.000804394
-3.0934e-05
6.886e-06
-0.000802018
-3.78837e-05
6.35919e-06
-0.000798488
-4.23414e-05
5.54958e-06
-0.000793851
-4.32989e-05
4.47883e-06
-0.000788277
-3.98555e-05
3.22183e-06
-0.000782142
1.95228e-06
-0.000776122
-3.16263e-05
1.16835e-05
7.7177e-06
-0.00104061
3.68528e-07
8.63379e-06
-0.0010426
-1.17051e-05
9.16665e-06
-0.00104308
-2.40304e-05
9.31987e-06
-0.00104189
-3.59352e-05
9.07152e-06
-0.00103884
-4.6466e-05
8.3755e-06
-0.00103376
-5.43038e-05
7.19669e-06
-0.00102655
-5.77348e-05
5.53842e-06
-0.00101729
-5.47667e-05
3.48277e-06
-0.0010065
1.29923e-06
-0.000995378
-4.37969e-05
1.87705e-05
8.36074e-06
-0.00127606
5.76194e-06
9.64456e-06
-0.00127984
-8.54749e-06
1.04621e-05
-0.00128164
-2.37488e-05
1.08089e-05
-0.00128115
-3.91882e-05
1.06241e-05
-0.00127797
-5.38201e-05
9.82069e-06
-0.00127164
-6.59781e-05
8.3152e-06
-0.00126172
-7.31649e-05
6.06396e-06
-0.00124798
-7.20244e-05
3.12041e-06
-0.00123085
-1.23816e-07
-0.00121227
-5.91775e-05
2.58206e-05
8.5661e-06
-0.00151308
1.14192e-05
1.01342e-05
-0.00151913
-4.76737e-06
1.11848e-05
-0.00152282
-2.24901e-05
1.17126e-05
-0.00152362
-4.11972e-05
1.16126e-05
-0.00152089
-5.98843e-05
1.07505e-05
-0.00151377
-7.66826e-05
8.97494e-06
-0.00150128
-8.83864e-05
6.16218e-06
-0.0014826
-9.01352e-05
2.28095e-06
-0.00145768
-2.18153e-06
-0.00142921
-7.6106e-05
3.18717e-05
8.32462e-06
-0.00174923
1.64831e-05
1.00613e-05
-0.00175796
-1.1039e-06
1.12632e-05
-0.00176391
-2.08155e-05
1.19338e-05
-0.00176645
-4.22692e-05
1.19345e-05
-0.0017646
-6.46285e-05
1.1091e-05
-0.00175708
-8.59981e-05
9.17709e-06
-0.00174222
-0.000102647
5.96818e-06
-0.00171825
-0.000108269
1.29714e-06
-0.00168421
-4.2937e-06
-0.00164338
-9.41359e-05
3.64831e-05
7.65525e-06
-0.00198521
2.05291e-05
9.36215e-06
-0.00199665
2.11047e-06
1.05842e-05
-0.00200496
-1.88806e-05
1.13256e-05
-0.00200943
-4.23202e-05
1.1442e-05
-0.00200875
-6.764e-05
1.07255e-05
-0.00200126
-9.31209e-05
8.8817e-06
-0.00198445
-0.000114771
5.57051e-06
-0.00195534
-0.000125049
4.34876e-07
-0.00191144
-6.12855e-06
-0.00185625
-0.000111817
3.88808e-05
6.19891e-06
-0.00222118
2.29548e-05
7.63033e-06
-0.00223522
4.45164e-06
8.70753e-06
-0.00224575
-1.69362e-05
9.42121e-06
-0.00225213
-4.13764e-05
9.64876e-06
-0.00225282
-6.86478e-05
9.18432e-06
-0.00224577
-9.74197e-05
7.72576e-06
-0.00222764
-0.000123789
4.83805e-06
-0.00219401
-0.000139485
4.79026e-08
-0.00214016
-6.89272e-06
-0.00206913
-0.000128676
3.92372e-05
3.71549e-06
-0.00245393
2.39328e-05
4.54787e-06
-0.00246993
6.1182e-06
5.27957e-06
-0.00248215
-1.46582e-05
5.78335e-06
-0.00248998
-3.89284e-05
6.03784e-06
-0.00249185
-6.69709e-05
5.88009e-06
-0.00248551
-9.81229e-05
5.12878e-06
-0.00246701
-0.000128936
3.38547e-06
-0.00243036
-0.000150678
2.46308e-07
-0.00236749
-5.43223e-06
-0.0022794
-0.000143989
3.82211e-05
-0.00267361
2.37491e-05
-0.0026913
6.98486e-06
-0.00270525
-1.26644e-05
-0.00271445
-3.57948e-05
-0.0027172
-6.29434e-05
-0.00271101
-9.40463e-05
-0.00269159
-0.000126866
-0.00265196
-0.000153202
-0.00258186
-0.00247694
-0.000152395
1.44347e-06
3.15143e-06
-0.000569948
-3.01616e-06
3.31336e-06
-0.0005702
-7.40037e-06
3.36528e-06
-0.000570033
-1.14267e-05
3.31454e-06
-0.000569467
-1.48113e-05
3.16524e-06
-0.000568531
-1.72777e-05
2.9214e-06
-0.000567262
-1.85876e-05
2.59336e-06
-0.000565764
-1.85788e-05
2.19193e-06
-0.000564331
-1.71387e-05
1.7202e-06
-0.000563829
1.17372e-06
-0.000565659
-1.38013e-05
3.99831e-06
5.45098e-06
-0.000801123
-2.64351e-06
5.89332e-06
-0.000801741
-9.40599e-06
6.08613e-06
-0.000801597
-1.58639e-05
6.04936e-06
-0.000800671
-2.15416e-05
5.78748e-06
-0.000798962
-2.59091e-05
5.30103e-06
-0.000796501
-2.84033e-05
4.60332e-06
-0.000793367
-2.85017e-05
3.73031e-06
-0.000789718
-2.58748e-05
2.75616e-06
-0.000785804
1.81203e-06
-0.000782003
-2.06313e-05
8.83082e-06
6.94658e-06
-0.00103403
-1.15175e-07
7.7087e-06
-0.00103547
-9.52212e-06
8.11202e-06
-0.0010357
-1.88889e-05
8.16338e-06
-0.00103464
-2.75967e-05
7.85228e-06
-0.0010322
-3.4862e-05
7.15549e-06
-0.00102835
-3.97386e-05
6.06858e-06
-0.00102313
-4.11883e-05
4.62842e-06
-0.00101674
-3.82665e-05
2.93955e-06
-0.00100961
1.2267e-06
-0.00100249
-3.05674e-05
1.47654e-05
7.75122e-06
-0.00126726
3.85899e-06
8.86083e-06
-0.00127009
-7.97747e-06
9.51886e-06
-0.00127121
-2.0244e-05
9.72005e-06
-0.00127044
-3.2239e-05
9.41962e-06
-0.00126754
-4.29728e-05
8.55896e-06
-0.00126231
-5.10953e-05
7.09939e-06
-0.00125463
-5.49048e-05
5.0572e-06
-0.0012446
-5.25547e-05
2.54726e-06
-0.00123281
-7.62901e-08
-0.00122066
-4.28644e-05
2.10231e-05
8.11883e-06
-0.0015025
8.4194e-06
9.51238e-06
-0.00150718
-5.56873e-06
1.03945e-05
-0.0015097
-2.05253e-05
1.07518e-05
-0.0015097
-3.57551e-05
1.04961e-05
-0.00150673
-5.01626e-05
9.52219e-06
-0.00150032
-6.20543e-05
7.7346e-06
-0.00149003
-6.90062e-05
5.09538e-06
-0.00147569
-6.7993e-05
1.68551e-06
-0.00145783
-2.02034e-06
-0.0014387
-5.6554e-05
2.66459e-05
8.0065e-06
-0.00173721
1.27597e-05
9.588e-06
-0.00174415
-2.92719e-06
1.06302e-05
-0.00174846
-2.01334e-05
1.11261e-05
-0.00174962
-3.82429e-05
1.09486e-05
-0.00174694
-5.61734e-05
9.94921e-06
-0.00173958
-7.20094e-05
7.9625e-06
-0.00172661
-8.2663e-05
4.86929e-06
-0.00170737
-8.38e-05
6.70796e-07
-0.00168206
-4.053e-06
-0.00165385
-7.12921e-05
3.11622e-05
7.42383e-06
-0.00197204
1.64512e-05
9.00886e-06
-0.00198136
-3.63531e-07
1.0094e-05
-0.00198761
-1.91612e-05
1.06746e-05
-0.00199018
-3.9501e-05
1.06091e-05
-0.00198808
-6.04457e-05
9.71277e-06
-0.00198008
-8.00287e-05
7.74756e-06
-0.00196465
-9.46453e-05
4.48395e-06
-0.00194034
-9.86202e-05
-2.24581e-07
-0.00190657
-5.83003e-06
-0.00186743
-8.56604e-05
3.37096e-05
6.00306e-06
-0.00220699
1.87998e-05
7.35691e-06
-0.00221866
1.62518e-06
8.32894e-06
-0.00222681
-1.7882e-05
8.90837e-06
-0.00223086
-3.95227e-05
8.96618e-06
-0.00222954
-6.26145e-05
8.31537e-06
-0.00222128
-8.53545e-05
6.6958e-06
-0.00220385
-0.000103882
3.76983e-06
-0.00217477
-0.000111431
-7.08948e-07
-0.00213213
-6.62758e-06
-0.00208059
-9.91702e-05
3.44689e-05
3.6125e-06
-0.00243899
1.99656e-05
4.40696e-06
-0.00245248
3.21332e-06
5.07995e-06
-0.00246215
-1.59818e-05
5.49971e-06
-0.00246738
-3.77256e-05
5.63471e-06
-0.00246677
-6.17359e-05
5.33052e-06
-0.00245852
-8.6692e-05
4.42342e-06
-0.00243978
-0.000108904
2.5836e-06
-0.00240696
-0.0001207
-4.11621e-07
-0.00235599
-5.17336e-06
-0.00229104
-0.000110509
3.38009e-05
-0.00265807
1.99845e-05
-0.00267307
4.09415e-06
-0.00268428
-1.42263e-05
-0.00269063
-3.51816e-05
-0.00269061
-5.87361e-05
-0.00268213
-8.39753e-05
-0.00266193
-0.000107905
-0.00262545
-0.000122894
-0.00256729
-0.002489
-0.000116007
1.18666e-06
2.57434e-06
-0.000569826
-1.65471e-06
2.70032e-06
-0.000570059
-4.44311e-06
2.73685e-06
-0.000569981
-6.98524e-06
2.69081e-06
-0.000569616
-9.09867e-06
2.56902e-06
-0.000568986
-1.0619e-05
2.37841e-06
-0.00056812
-1.14222e-05
2.13135e-06
-0.000567092
-1.14487e-05
1.83731e-06
-0.000566142
-1.06819e-05
1.49112e-06
-0.000566087
1.05803e-06
-0.000568607
-8.79191e-06
2.85323e-06
4.5913e-06
-0.000798882
-1.77562e-06
4.94537e-06
-0.000799357
-6.44532e-06
5.08387e-06
-0.000799274
-1.08234e-05
5.02724e-06
-0.00079863
-1.45646e-05
4.78598e-06
-0.000797438
-1.73181e-05
4.36956e-06
-0.000795738
-1.87524e-05
3.79944e-06
-0.000793601
-1.86071e-05
3.11351e-06
-0.000791139
-1.67882e-05
2.3752e-06
-0.000788507
1.67861e-06
-0.000785898
-1.35141e-05
6.63516e-06
6.08436e-06
-0.00102934
-1.861e-07
6.70313e-06
-0.00103041
-7.27087e-06
7.0001e-06
-0.00103053
-1.41829e-05
6.98575e-06
-0.00102968
-2.04186e-05
6.65985e-06
-0.00102784
-2.53982e-05
6.01715e-06
-0.00102502
-2.84923e-05
5.07223e-06
-0.00102131
-2.90984e-05
3.875e-06
-0.0010169
-2.67792e-05
2.52549e-06
-0.00101208
1.19603e-06
-0.00100729
-2.14944e-05
1.14594e-05
6.99253e-06
-0.00126039
2.64113e-06
7.92838e-06
-0.00126249
-6.81222e-06
8.44189e-06
-0.0012632
-1.63988e-05
8.53122e-06
-0.0012624
-2.54771e-05
8.16911e-06
-0.00125998
-3.32298e-05
7.3244e-06
-0.00125587
-3.86657e-05
5.99277e-06
-0.00125011
-4.06989e-05
4.22417e-06
-0.00124292
-3.836e-05
2.15096e-06
-0.00123477
6.30596e-08
-0.00122657
-3.13076e-05
1.68366e-05
7.49254e-06
-0.00149372
6.17289e-06
8.6996e-06
-0.00149728
-5.51433e-06
9.41637e-06
-0.00149899
-1.77346e-05
9.62712e-06
-0.00149857
-2.97798e-05
9.26581e-06
-0.00149579
-4.0649e-05
8.26085e-06
-0.00149039
-4.89829e-05
6.56669e-06
-0.00148227
-5.30933e-05
4.20417e-06
-0.00147155
-5.12083e-05
1.30831e-06
-0.00145888
-1.71283e-06
-0.00144578
-4.23514e-05
2.18805e-05
7.50493e-06
-0.00172679
9.73858e-06
8.90926e-06
-0.00173222
-3.81311e-06
9.78434e-06
-0.00173527
-1.8356e-05
1.01161e-05
-0.00173557
-3.31815e-05
9.79963e-06
-0.00173265
-4.7192e-05
8.72225e-06
-0.00172603
-5.87187e-05
6.78055e-06
-0.0017153
-6.54473e-05
3.93934e-06
-0.00170038
-6.46186e-05
3.02351e-07
-0.00168188
-3.60195e-06
-0.00166222
-5.43618e-05
2.61356e-05
7.03034e-06
-0.00196029
1.29586e-05
8.46713e-06
-0.00196774
-1.93129e-06
9.40099e-06
-0.00197234
-1.82363e-05
9.81917e-06
-0.00197358
-3.53416e-05
9.5972e-06
-0.00197077
-5.21727e-05
8.58523e-06
-0.00196311
-6.68721e-05
6.61397e-06
-0.00194978
-7.65514e-05
3.55718e-06
-0.00193028
-7.7307e-05
-5.84224e-07
-0.00190493
-5.24973e-06
-0.00187712
-6.59647e-05
2.86824e-05
5.67765e-06
-0.00219402
1.50945e-05
6.93014e-06
-0.00220353
-3.97504e-07
7.7826e-06
-0.0022097
-1.76525e-05
8.22311e-06
-0.00221201
-3.62181e-05
8.12795e-06
-0.0022095
-5.51683e-05
7.34052e-06
-0.00220109
-7.26402e-05
5.66279e-06
-0.00218543
-8.53389e-05
2.86501e-06
-0.00216138
-8.83052e-05
-1.12198e-06
-0.00212863
-6.02764e-06
-0.00209141
-7.67142e-05
2.97294e-05
3.42613e-06
-0.00242516
1.63315e-05
4.16578e-06
-0.00243631
9.93711e-07
4.76812e-06
-0.0024438
-1.62453e-05
5.09841e-06
-0.00244702
-3.51639e-05
5.12185e-06
-0.00244485
-5.51046e-05
4.70082e-06
-0.00243594