/*--------------------------------*- C++ -*----------------------------------*\
| =========                 |                                                 |
| \\      /  F ield         | foam-extend: Open Source CFD                    |
|  \\    /   O peration     | Version:     4.0                                |
|   \\  /    A nd           | Web:         http://www.foam-extend.org         |
|    \\/     M anipulation  |                                                 |
\*---------------------------------------------------------------------------*/
FoamFile
{
    version     2.0;
    format      ascii;
    class       volScalarField;
    location    "2200";
    object      rho;
}
// * * * * * * * * * * * * * * * * * * * * * * * * * * * * * * * * * * * * * //

dimensions      [1 -3 0 0 0 0 0];

internalField   nonuniform List<scalar> 
34480
(
1.34787
1.34643
1.34587
1.3466
1.34922
1.35436
1.36269
1.37234
1.37579
1.39538
1.34207
1.33926
1.33702
1.33567
1.33591
1.33869
1.3453
1.3555
1.35978
1.37519
1.33772
1.33367
1.33004
1.32697
1.32497
1.32517
1.32931
1.33816
1.34108
1.34927
1.33464
1.32935
1.32447
1.31991
1.31597
1.31376
1.31529
1.32213
1.32292
1.32307
1.33262
1.3263
1.32049
1.31482
1.30942
1.30524
1.30447
1.30914
1.30755
1.29998
1.33189
1.3249
1.31844
1.31199
1.30558
1.29993
1.29731
1.29992
1.29599
1.2821
1.33002
1.32253
1.31574
1.30889
1.30196
1.29542
1.29149
1.29227
1.28607
1.26667
1.33015
1.32257
1.31572
1.30886
1.3019
1.29512
1.29048
1.28974
1.28119
1.25594
1.32706
1.31951
1.31275
1.3063
1.30012
1.29416
1.28967
1.28777
1.27677
1.24569
1.32446
1.31671
1.30972
1.30322
1.29746
1.29252
1.28916
1.2878
1.27587
1.23888
1.36385
1.36278
1.36259
1.36358
1.3661
1.37056
1.37769
1.38846
1.40392
1.4253
1.35593
1.35376
1.35235
1.35192
1.35301
1.35635
1.36303
1.37451
1.39279
1.42304
1.35013
1.3468
1.34415
1.34229
1.34166
1.34316
1.34831
1.35921
1.37829
1.41426
1.34612
1.34152
1.33759
1.33431
1.33197
1.33148
1.33455
1.34401
1.3628
1.40273
1.34368
1.33796
1.33293
1.32846
1.32468
1.32237
1.32335
1.33091
1.34865
1.3908
1.34276
1.3362
1.33032
1.32491
1.31997
1.31615
1.31523
1.3207
1.33675
1.37917
1.34092
1.33368
1.32722
1.32116
1.31544
1.3105
1.30805
1.31146
1.3254
1.36657
1.3411
1.33354
1.32674
1.32034
1.31422
1.30864
1.30506
1.30654
1.31789
1.35664
1.33838
1.33062
1.32357
1.31706
1.31103
1.30557
1.30164
1.30162
1.3101
1.34728
1.33556
1.3277
1.32044
1.31374
1.30767
1.30248
1.29893
1.29885
1.30547
1.34378
1.37521
1.3748
1.37527
1.37685
1.3797
1.38401
1.38999
1.3978
1.40758
1.41883
1.36653
1.3653
1.36496
1.36575
1.36801
1.37213
1.37868
1.38822
1.40138
1.41882
1.35943
1.35725
1.35593
1.35567
1.35689
1.36018
1.36642
1.37677
1.39249
1.41562
1.3542
1.35089
1.34847
1.34704
1.34701
1.34912
1.35447
1.36478
1.38218
1.41051
1.35076
1.3464
1.34298
1.34049
1.33929
1.34016
1.34437
1.35412
1.37249
1.40517
1.349
1.3438
1.33954
1.33617
1.33396
1.33369
1.33673
1.34558
1.36437
1.40048
1.34657
1.34066
1.33577
1.33173
1.32876
1.32756
1.32953
1.33733
1.35602
1.39453
1.34638
1.34005
1.3347
1.33021
1.32672
1.32484
1.3259
1.33252
1.35045
1.39019
1.34392
1.33726
1.33152
1.32667
1.32289
1.32073
1.32134
1.32705
1.34352
1.38464
1.34107
1.33429
1.3283
1.32318
1.31911
1.31671
1.31717
1.32275
1.33785
1.38115
1.38197
1.38181
1.38231
1.38358
1.38568
1.38865
1.39251
1.39724
1.40271
1.40806
1.37425
1.37352
1.37357
1.37459
1.37674
1.38018
1.3851
1.39164
1.39973
1.40842
1.3671
1.36561
1.36496
1.3653
1.36696
1.37029
1.37575
1.38382
1.3948
1.40764
1.36145
1.35902
1.35748
1.35698
1.35788
1.3607
1.36616
1.37518
1.38867
1.4059
1.35756
1.35417
1.35177
1.35042
1.35047
1.3526
1.35771
1.36718
1.38276
1.40426
1.35532
1.35113
1.34795
1.34583
1.3451
1.34648
1.35107
1.36062
1.37784
1.40325
1.35255
1.34765
1.34385
1.34109
1.3397
1.34039
1.34442
1.35379
1.3722
1.40104
1.35208
1.34672
1.34243
1.3392
1.33728
1.3374
1.34084
1.34977
1.36874
1.4004
1.34959
1.34388
1.3392
1.33558
1.3333
1.33307
1.33616
1.34467
1.36348
1.39796
1.34661
1.34078
1.33586
1.332
1.32945
1.32895
1.33175
1.34003
1.35825
1.39576
1.38568
1.38562
1.38601
1.38688
1.38826
1.39011
1.3924
1.39509
1.39817
1.40127
1.3796
1.37917
1.37937
1.38029
1.382
1.38452
1.38786
1.39192
1.39653
1.40109
1.37308
1.37209
1.37182
1.3724
1.37401
1.3768
1.38095
1.38652
1.39341
1.40064
1.36751
1.36576
1.36484
1.36488
1.36614
1.36893
1.37359
1.38045
1.38965
1.40001
1.3635
1.36092
1.3593
1.35871
1.35947
1.36202
1.3669
1.37474
1.38615
1.39983
1.36101
1.3577
1.35541
1.35421
1.35442
1.35661
1.3615
1.37005
1.38349
1.40053
1.35805
1.35406
1.35119
1.34944
1.34915
1.35094
1.35572
1.36473
1.37995
1.40026
1.3574
1.35295
1.3496
1.3474
1.34667
1.34807
1.35262
1.3618
1.37834
1.40167
1.35491
1.35011
1.3464
1.34383
1.34275
1.34387
1.34827
1.35752
1.37473
1.4011
1.3519
1.34696
1.34302
1.34024
1.33892
1.33979
1.34395
1.35312
1.37034
1.39973
1.38733
1.38731
1.38755
1.38808
1.38889
1.38995
1.39123
1.39272
1.39449
1.39652
1.38303
1.38277
1.38296
1.38365
1.38485
1.38654
1.38866
1.3911
1.3937
1.39612
1.37752
1.37686
1.37678
1.37736
1.37868
1.38079
1.38371
1.38734
1.39151
1.3956
1.37241
1.37117
1.37063
1.37092
1.37218
1.37456
1.37817
1.38304
1.38903
1.39526
1.36857
1.36664
1.36557
1.36544
1.36647
1.36893
1.37306
1.37905
1.38695
1.3956
1.36605
1.36348
1.36186
1.36128
1.36199
1.36439
1.36887
1.37583
1.38565
1.39693
1.36304
1.35985
1.35774
1.35671
1.35709
1.35935
1.36404
1.3718
1.38346
1.39745
1.36232
1.35869
1.35613
1.35473
1.35478
1.35684
1.3616
1.36992
1.38314
1.39978
1.35986
1.35589
1.35301
1.35128
1.35106
1.35294
1.35774
1.36648
1.38079
1.40009
1.35688
1.35277
1.34967
1.34776
1.34734
1.34904
1.35371
1.36256
1.37727
1.39905
1.38778
1.38776
1.3879
1.3882
1.38865
1.38923
1.38992
1.39074
1.39183
1.39337
1.38504
1.38489
1.38502
1.38548
1.38626
1.38732
1.38862
1.39006
1.39154
1.39287
1.38069
1.38024
1.38024
1.38071
1.3817
1.3832
1.38516
1.38748
1.38999
1.39236
1.37623
1.37536
1.37505
1.3754
1.37649
1.37835
1.381
1.38435
1.3882
1.392
1.37277
1.37134
1.37065
1.37076
1.3718
1.37392
1.37718
1.38156
1.38691
1.39243
1.37039
1.36843
1.3673
1.36711
1.36802
1.37027
1.37405
1.37942
1.38637
1.39384
1.36746
1.36496
1.36343
1.3629
1.36364
1.36594
1.37011
1.37638
1.38495
1.39454
1.36676
1.36386
1.36195
1.36113
1.36166
1.36393
1.36837
1.37537
1.38542
1.39714
1.36435
1.36114
1.35895
1.35787
1.3582
1.3604
1.36502
1.37263
1.38388
1.39775
1.36146
1.3581
1.35573
1.35449
1.35468
1.35677
1.36138
1.36922
1.38105
1.39679
1.38759
1.38758
1.38766
1.38781
1.38805
1.38836
1.38873
1.38918
1.38991
1.39121
1.38608
1.38598
1.38607
1.38635
1.38682
1.38746
1.38822
1.38906
1.3899
1.39064
1.38284
1.38254
1.38255
1.3829
1.38359
1.3846
1.38588
1.38734
1.38887
1.39027
1.3791
1.37849
1.37832
1.37864
1.37948
1.38086
1.38274
1.38499
1.38746
1.38983
1.37614
1.37511
1.37466
1.37486
1.37577
1.37747
1.37992
1.38305
1.38664
1.39019
1.37402
1.37256
1.37179
1.3718
1.37271
1.37464
1.37765
1.38166
1.3865
1.39146
1.37127
1.36935
1.36826
1.36805
1.3689
1.371
1.37448
1.37935
1.38551
1.39205
1.37068
1.36841
1.36702
1.36659
1.36734
1.36953
1.37337
1.379
1.38643
1.39459
1.36835
1.36579
1.36417
1.36355
1.36419
1.36639
1.3705
1.37675
1.38528
1.3951
1.36561
1.36291
1.36114
1.3604
1.36094
1.36311
1.36728
1.37383
1.38294
1.39411
1.38713
1.38713
1.38717
1.38724
1.38737
1.38752
1.38772
1.38798
1.38851
1.38969
1.3865
1.38644
1.38649
1.38665
1.38692
1.38729
1.38773
1.38821
1.38868
1.3891
1.38424
1.38404
1.38405
1.38428
1.38473
1.38539
1.3862
1.38711
1.38804
1.38888
1.38118
1.38077
1.38067
1.38092
1.38154
1.38251
1.38378
1.38528
1.38687
1.38836
1.37877
1.37804
1.37775
1.37795
1.37869
1.37996
1.38174
1.38392
1.38633
1.38864
1.37698
1.37591
1.37539
1.3755
1.3763
1.37785
1.38013
1.38305
1.3864
1.38971
1.37447
1.37302
1.37226
1.37224
1.37306
1.37483
1.37759
1.38125
1.38562
1.39009
1.37406
1.37232
1.37132
1.37116
1.37196
1.37389
1.37703
1.38138
1.38677
1.39243
1.37181
1.36982
1.36865
1.36835
1.3691
1.37111
1.37455
1.37947
1.38576
1.39263
1.36928
1.36716
1.36586
1.36548
1.36618
1.3682
1.37176
1.37698
1.38378
1.39159
1.38661
1.38661
1.38663
1.38667
1.38673
1.38681
1.38691
1.38707
1.38748
1.3886
1.38655
1.38651
1.38654
1.38663
1.38679
1.38699
1.38724
1.38751
1.38778
1.38801
1.3851
1.38497
1.38497
1.38512
1.3854
1.38581
1.38631
1.38687
1.38743
1.38794
1.38264
1.38237
1.3823
1.38248
1.38291
1.38356
1.38441
1.38538
1.38639
1.38734
1.38077
1.38025
1.38007
1.38025
1.3808
1.38172
1.38296
1.38444
1.38604
1.38755
1.37932
1.37856
1.37821
1.37835
1.379
1.38018
1.38185
1.38391
1.3862
1.38842
1.37708
1.37602
1.3755
1.37556
1.37628
1.37769
1.37978
1.38246
1.38552
1.38856
1.37689
1.3756
1.3749
1.37488
1.37563
1.37722
1.37968
1.38293
1.38677
1.39067
1.37475
1.37323
1.3724
1.3723
1.37305
1.37476
1.3775
1.38124
1.38577
1.39052
1.37246
1.37084
1.36991
1.36975
1.37048
1.37224
1.37512
1.37913
1.38407
1.38947
1.38614
1.38614
1.38615
1.38617
1.3862
1.38624
1.38629
1.38639
1.38673
1.38781
1.38641
1.38639
1.3864
1.38645
1.38654
1.38665
1.38679
1.38694
1.38709
1.38722
1.3856
1.38551
1.38551
1.3856
1.38577
1.38602
1.38632
1.38666
1.387
1.3873
1.38362
1.38344
1.3834
1.38352
1.3838
1.38423
1.38478
1.3854
1.38603
1.38663
1.38224
1.38189
1.38177
1.3819
1.3823
1.38294
1.38378
1.38477
1.38582
1.38679
1.38113
1.38059
1.38037
1.38049
1.38099
1.38185
1.38303
1.38446
1.386
1.38747
1.37916
1.37839
1.37805
1.37815
1.37872
1.3798
1.38133
1.38323
1.38534
1.3874
1.37922
1.37828
1.3778
1.37786
1.37849
1.37975
1.3816
1.38396
1.38664
1.38929
1.37717
1.37604
1.37547
1.37548
1.37614
1.37753
1.37963
1.38238
1.38558
1.38882
1.37518
1.37397
1.37332
1.37329
1.37396
1.3754
1.37763
1.38061
1.38412
1.38781
1.38576
1.38576
1.38577
1.38577
1.38579
1.38581
1.38584
1.3859
1.38619
1.38724
1.38618
1.38617
1.38618
1.3862
1.38625
1.38631
1.38639
1.38647
1.38656
1.38664
1.38587
1.38581
1.38581
1.38586
1.38596
1.38611
1.38629
1.38649
1.38669
1.38687
1.38424
1.38413
1.3841
1.38418
1.38436
1.38463
1.38498
1.38537
1.38576
1.38613
1.38329
1.38306
1.38298
1.38308
1.38335
1.38378
1.38434
1.38499
1.38566
1.38629
1.38248
1.38211
1.38197
1.38207
1.38243
1.38304
1.38385
1.38481
1.38584
1.3868
1.38077
1.38023
1.38
1.3801
1.38054
1.38133
1.38242
1.38373
1.38516
1.38653
1.38109
1.38042
1.3801
1.38019
1.3807
1.38164
1.38299
1.38465
1.38648
1.38826
1.37912
1.3783
1.37791
1.37797
1.37852
1.37959
1.38114
1.38311
1.38532
1.3875
1.37745
1.37657
1.37612
1.37616
1.37673
1.37786
1.37952
1.38167
1.3841
1.3866
1.38549
1.38549
1.3855
1.3855
1.3855
1.38551
1.38553
1.38557
1.38582
1.38684
1.38592
1.38592
1.38592
1.38594
1.38596
1.386
1.38604
1.38609
1.38614
1.38618
1.38601
1.38598
1.38597
1.386
1.38606
1.38615
1.38625
1.38637
1.38649
1.38659
1.38462
1.38454
1.38453
1.38458
1.38469
1.38486
1.38507
1.38531
1.38556
1.38579
1.38404
1.38388
1.38383
1.3839
1.38408
1.38436
1.38472
1.38514
1.38556
1.38596
1.38346
1.38322
1.38313
1.38321
1.38346
1.38387
1.38442
1.38505
1.38572
1.38634
1.38199
1.38162
1.38147
1.38155
1.38187
1.38243
1.38318
1.38406
1.38501
1.38592
1.38257
1.3821
1.3819
1.38198
1.38236
1.38305
1.38399
1.38513
1.38637
1.38754
1.38064
1.38006
1.3798
1.37987
1.3803
1.38109
1.3822
1.38357
1.38507
1.38652
1.37933
1.3787
1.37841
1.37848
1.37892
1.37977
1.38097
1.38247
1.38412
1.38578
1.38533
1.38533
1.38534
1.38534
1.38534
1.38534
1.38535
1.38538
1.38559
1.38656
1.38566
1.38566
1.38567
1.38568
1.38569
1.38571
1.38573
1.38576
1.38579
1.38582
1.38609
1.38607
1.38606
1.38608
1.38612
1.38617
1.38623
1.3863
1.38637
1.38642
1.38483
1.38478
1.38477
1.3848
1.38487
1.38497
1.3851
1.38524
1.38539
1.38553
1.38454
1.38444
1.38441
1.38446
1.38457
1.38475
1.38498
1.38524
1.38551
1.38576
1.38416
1.384
1.38394
1.384
1.38417
1.38444
1.3848
1.38521
1.38563
1.38603
1.38288
1.38264
1.38254
1.3826
1.38283
1.38321
1.38371
1.38429
1.38491
1.3855
1.38371
1.3834
1.38327
1.38334
1.38362
1.38409
1.38474
1.3855
1.38631
1.38707
1.38179
1.38138
1.38122
1.38128
1.3816
1.38216
1.38293
1.38386
1.38485
1.38581
1.38088
1.38045
1.38025
1.38032
1.38066
1.38126
1.3821
1.38312
1.38421
1.3853
1.38529
1.38529
1.3853
1.38529
1.38529
1.38529
1.3853
1.38531
1.38549
1.3864
1.38541
1.38541
1.38542
1.38542
1.38543
1.38544
1.38546
1.38547
1.38549
1.38551
1.38615
1.38613
1.38613
1.38614
1.38616
1.38619
1.38623
1.38627
1.38631
1.38634
1.38492
1.38489
1.38488
1.3849
1.38494
1.385
1.38508
1.38517
1.38526
1.38534
1.38488
1.38482
1.3848
1.38483
1.3849
1.38501
1.38516
1.38532
1.38548
1.38563
1.38463
1.38453
1.38449
1.38453
1.38464
1.38481
1.38504
1.3853
1.38557
1.38582
1.38353
1.38337
1.38331
1.38335
1.3835
1.38375
1.38408
1.38445
1.38484
1.38522
1.38459
1.38438
1.3843
1.38436
1.38455
1.38487
1.3853
1.38579
1.38632
1.38679
1.38261
1.38233
1.38223
1.38228
1.38251
1.38289
1.3834
1.38402
1.38467
1.38528
1.38217
1.38188
1.38175
1.38181
1.38205
1.38247
1.38303
1.38371
1.38442
1.38511
1.3854
1.3854
1.3854
1.3854
1.38539
1.38539
1.38539
1.3854
1.38554
1.38637
1.38515
1.38516
1.38516
1.38517
1.38517
1.38518
1.38519
1.3852
1.38521
1.38522
1.38621
1.3862
1.3862
1.3862
1.38621
1.38623
1.38625
1.38628
1.3863
1.38632
1.38495
1.38493
1.38492
1.38493
1.38495
1.38499
1.38503
1.38508
1.38513
1.38519
1.38509
1.38505
1.38504
1.38506
1.3851
1.38517
1.38526
1.38535
1.38545
1.38555
1.38491
1.38485
1.38483
1.38485
1.38492
1.38503
1.38517
1.38534
1.3855
1.38565
1.38398
1.38388
1.38384
1.38387
1.38397
1.38413
1.38433
1.38457
1.38481
1.38505
1.38524
1.38511
1.38506
1.3851
1.38523
1.38544
1.38572
1.38603
1.38637
1.38665
1.38315
1.38297
1.3829
1.38294
1.38309
1.38335
1.38368
1.38408
1.38449
1.38488
1.38329
1.3831
1.38303
1.38307
1.38324
1.38352
1.38389
1.38432
1.38476
1.3852
1.38576
1.38576
1.38576
1.38575
1.38575
1.38574
1.38574
1.38574
1.38584
1.38656
1.38486
1.38487
1.38487
1.38488
1.38488
1.38488
1.38489
1.38489
1.3849
1.38491
1.38626
1.38626
1.38626
1.38626
1.38627
1.38628
1.38629
1.38631
1.38633
1.38633
1.38493
1.38492
1.38491
1.38491
1.38493
1.38494
1.38497
1.385
1.38502
1.38505
1.38518
1.38516
1.38515
1.38516
1.38519
1.38523
1.38528
1.38534
1.38541
1.38546
1.38504
1.385
1.38499
1.385
1.38505
1.38512
1.3852
1.3853
1.38541
1.3855
1.38428
1.38422
1.3842
1.38421
1.38428
1.38437
1.3845
1.38464
1.38478
1.38493
1.38566
1.38558
1.38555
1.38557
1.38566
1.3858
1.38598
1.38618
1.38639
1.38655
1.38341
1.3833
1.38326
1.38329
1.38339
1.38355
1.38376
1.38401
1.38426
1.38452
1.38442
1.38429
1.38425
1.38428
1.38439
1.38457
1.38481
1.38508
1.38536
1.38562
1.38659
1.3866
1.3866
1.3866
1.38659
1.38659
1.38658
1.38658
1.38664
1.38721
1.38446
1.38446
1.38447
1.38447
1.38447
1.38447
1.38446
1.38446
1.38447
1.38447
1.38624
1.38624
1.38624
1.38624
1.38625
1.38626
1.38628
1.38629
1.3863
1.38631
1.3849
1.38489
1.38488
1.38488
1.38489
1.3849
1.38491
1.38492
1.38493
1.38495
1.38518
1.38516
1.38516
1.38517
1.38518
1.38521
1.38524
1.38528
1.38532
1.38535
1.38504
1.38502
1.38501
1.38502
1.38504
1.38509
1.38514
1.38521
1.38527
1.38533
1.38445
1.38441
1.38439
1.38441
1.38444
1.3845
1.38458
1.38467
1.38475
1.38484
1.38575
1.38569
1.38567
1.38569
1.38575
1.38584
1.38596
1.38609
1.38624
1.38633
1.38335
1.38328
1.38325
1.38327
1.38334
1.38344
1.38357
1.38373
1.38388
1.38406
1.38579
1.38571
1.38568
1.38571
1.38578
1.3859
1.38605
1.38623
1.3864
1.38656
1.38812
1.38814
1.38814
1.38815
1.38815
1.38817
1.38818
1.38819
1.38824
1.38863
1.38379
1.38378
1.38378
1.38378
1.38377
1.38376
1.38375
1.38374
1.38373
1.38371
1.38601
1.38602
1.38602
1.38603
1.38604
1.38605
1.38606
1.38608
1.3861
1.38612
1.38489
1.38488
1.38488
1.38488
1.38488
1.38488
1.38489
1.38489
1.3849
1.3849
1.38511
1.3851
1.3851
1.38511
1.38512
1.38514
1.38516
1.38519
1.38521
1.38524
1.38497
1.38495
1.38494
1.38495
1.38497
1.385
1.38504
1.38508
1.38513
1.38517
1.38452
1.38449
1.38448
1.38449
1.38452
1.38456
1.38461
1.38466
1.38472
1.38477
1.38537
1.38533
1.38532
1.38533
1.38537
1.38544
1.38552
1.38562
1.38574
1.38583
1.38283
1.38279
1.38277
1.38278
1.38283
1.3829
1.38299
1.38309
1.38317
1.38329
1.38763
1.38757
1.38755
1.38756
1.38761
1.3877
1.38781
1.38794
1.38806
1.3882
1.3898
1.3898
1.38982
1.38983
1.38986
1.3899
1.38994
1.39
1.39008
1.39031
1.38298
1.38298
1.38297
1.38296
1.38295
1.38293
1.3829
1.38287
1.38283
1.38274
1.38565
1.38565
1.38565
1.38566
1.38567
1.38568
1.38569
1.38571
1.38574
1.38577
1.38494
1.38494
1.38493
1.38493
1.38493
1.38494
1.38494
1.38494
1.38495
1.38494
1.38507
1.38506
1.38505
1.38506
1.38507
1.38508
1.3851
1.38513
1.38515
1.38517
1.38492
1.3849
1.38489
1.3849
1.38492
1.38494
1.38497
1.38501
1.38505
1.38509
1.38457
1.38454
1.38453
1.38454
1.38457
1.3846
1.38465
1.3847
1.38475
1.38479
1.38477
1.38474
1.38472
1.38473
1.38477
1.38483
1.3849
1.38499
1.38509
1.38521
1.3821
1.38206
1.38205
1.38206
1.3821
1.38216
1.38224
1.38232
1.38238
1.38241
1.38945
1.38938
1.38935
1.38936
1.38941
1.38948
1.38958
1.3897
1.38983
1.38999
1.53313
1.55011
1.54495
1.53348
1.54817
1.56807
1.56084
1.54966
1.55654
1.57739
1.5734
1.5609
1.56015
1.58181
1.58449
1.57003
1.56374
1.58635
1.595
1.57928
1.57296
1.59827
1.61452
1.60501
1.58277
1.61021
1.63205
1.62929
1.59241
1.62103
1.6465
1.64854
1.59018
1.61875
1.6463
1.65201
1.57464
1.60163
1.63034
1.64009
1.44107
1.45231
1.45557
1.45006
1.44998
1.4632
1.46807
1.46382
1.45409
1.46914
1.47505
1.47286
1.45762
1.47421
1.48155
1.48172
1.46231
1.47999
1.48936
1.49133
1.46718
1.48513
1.49547
1.4979
1.47076
1.4887
1.49966
1.50251
1.47582
1.49351
1.50489
1.5097
1.4756
1.4926
1.50447
1.51136
1.47186
1.4879
1.50067
1.50921
1.42566
1.4306
1.43175
1.43005
1.43272
1.43853
1.4405
1.43987
1.43594
1.44308
1.44612
1.44604
1.43858
1.44712
1.45152
1.45216
1.44227
1.45208
1.45778
1.4592
1.44774
1.45867
1.46554
1.4681
1.45273
1.46457
1.47243
1.47606
1.45903
1.47144
1.47995
1.48454
1.46126
1.4737
1.48249
1.48787
1.46146
1.47346
1.48181
1.48702
1.40882
1.41142
1.41226
1.41142
1.41407
1.41692
1.41835
1.4184
1.41634
1.42
1.42212
1.42269
1.41835
1.42287
1.4258
1.42712
1.4213
1.42665
1.43035
1.43246
1.42559
1.43167
1.43606
1.43897
1.42931
1.43602
1.44102
1.44479
1.43473
1.44194
1.44749
1.45214
1.43656
1.44401
1.44994
1.4553
1.43563
1.44332
1.44937
1.45468
1.39997
1.40152
1.402
1.40142
1.40389
1.40538
1.40624
1.40647
1.40517
1.40723
1.40853
1.40912
1.40661
1.40924
1.41107
1.41218
1.40902
1.41222
1.41456
1.41621
1.41282
1.41657
1.41942
1.42164
1.41616
1.42044
1.42375
1.42655
1.42138
1.4261
1.42982
1.43322
1.42359
1.42856
1.43256
1.43639
1.42342
1.42859
1.43266
1.43624
1.39421
1.39527
1.39555
1.39504
1.39752
1.39831
1.39884
1.39908
1.39804
1.39922
1.40005
1.40054
1.39892
1.4005
1.40169
1.40256
1.40081
1.40279
1.40435
1.40561
1.40397
1.40634
1.40826
1.40994
1.40666
1.40941
1.41167
1.41378
1.41132
1.4144
1.41697
1.41952
1.41342
1.41673
1.41952
1.42232
1.41333
1.41686
1.41975
1.4223
1.39058
1.39142
1.39158
1.39105
1.39361
1.39406
1.39437
1.39455
1.39376
1.39446
1.39498
1.39533
1.39416
1.39513
1.39591
1.39652
1.39557
1.39684
1.39788
1.39877
1.39815
1.3997
1.40101
1.4022
1.40025
1.40207
1.40364
1.40512
1.40434
1.40642
1.40821
1.40999
1.40613
1.40839
1.41033
1.41226
1.40594
1.40834
1.41036
1.41211
1.3882
1.38893
1.38902
1.38847
1.39104
1.39129
1.39148
1.3916
1.39111
1.39153
1.39185
1.39209
1.39114
1.39174
1.39225
1.39267
1.39216
1.39297
1.39366
1.39427
1.39419
1.3952
1.39609
1.39691
1.39569
1.39691
1.39798
1.39901
1.39919
1.40059
1.40183
1.40307
1.40053
1.40206
1.40342
1.40474
1.40014
1.40178
1.40319
1.40439
1.38661
1.38729
1.38734
1.38676
1.3893
1.38944
1.38955
1.38964
1.3894
1.38965
1.38986
1.39002
1.38918
1.38956
1.38989
1.39017
1.38991
1.39044
1.3909
1.39131
1.39148
1.39216
1.39276
1.39331
1.39247
1.39329
1.39402
1.39473
1.39544
1.39639
1.39724
1.39809
1.39623
1.39728
1.39823
1.39913
1.39565
1.39677
1.39775
1.39858
1.38553
1.3862
1.38623
1.38561
1.3881
1.38817
1.38824
1.3883
1.38825
1.38841
1.38854
1.38864
1.38785
1.3881
1.38831
1.38849
1.38838
1.38872
1.38903
1.3893
1.38959
1.39004
1.39044
1.39082
1.39015
1.3907
1.3912
1.39168
1.39267
1.39332
1.39391
1.39448
1.39294
1.39366
1.39431
1.39492
1.39224
1.393
1.39368
1.39424
1.3848
1.38547
1.38548
1.38485
1.38725
1.38729
1.38733
1.38737
1.3875
1.38759
1.38767
1.38774
1.38695
1.38711
1.38724
1.38736
1.38733
1.38756
1.38776
1.38794
1.38824
1.38854
1.38881
1.38907
1.38846
1.38883
1.38917
1.38949
1.39063
1.39107
1.39147
1.39186
1.39045
1.39094
1.39138
1.39181
1.3897
1.39022
1.39068
1.39107
1.38433
1.385
1.38501
1.38435
1.38662
1.38664
1.38666
1.38669
1.387
1.38706
1.38711
1.38714
1.38633
1.38643
1.38652
1.38659
1.38664
1.38678
1.38691
1.38703
1.38731
1.3875
1.38768
1.38785
1.38723
1.38748
1.38771
1.38793
1.38916
1.38945
1.38972
1.38998
1.38861
1.38893
1.38924
1.38952
1.38789
1.38824
1.38855
1.38882
1.38405
1.38473
1.38474
1.38407
1.38614
1.38615
1.38616
1.38619
1.38668
1.38671
1.38674
1.38677
1.38591
1.38597
1.38602
1.38607
1.38618
1.38628
1.38636
1.38644
1.38667
1.3868
1.38691
1.38702
1.38638
1.38654
1.38669
1.38683
1.38813
1.38832
1.3885
1.38868
1.38726
1.38748
1.38768
1.38787
1.38666
1.38689
1.3871
1.38728
1.38395
1.38463
1.38463
1.38395
1.38576
1.38576
1.38577
1.38579
1.38648
1.38651
1.38652
1.38653
1.3856
1.38564
1.38567
1.3857
1.3859
1.38596
1.38601
1.38606
1.38624
1.38632
1.3864
1.38647
1.38579
1.38589
1.38599
1.38609
1.38745
1.38758
1.3877
1.38781
1.3863
1.38644
1.38657
1.3867
1.3859
1.38605
1.38619
1.38631
1.38399
1.38466
1.38467
1.384
1.38544
1.38544
1.38544
1.38546
1.38638
1.3864
1.38641
1.38641
1.38538
1.3854
1.38542
1.38544
1.38572
1.38576
1.38579
1.38582
1.38595
1.386
1.38605
1.38609
1.3854
1.38547
1.38553
1.38559
1.38704
1.38712
1.3872
1.38727
1.38561
1.3857
1.38578
1.38587
1.38552
1.38561
1.3857
1.38578
1.38421
1.38486
1.38486
1.38421
1.38515
1.38514
1.38514
1.38516
1.38635
1.38637
1.38637
1.38637
1.3852
1.38521
1.38522
1.38524
1.3856
1.38563
1.38565
1.38566
1.38574
1.38577
1.3858
1.38583
1.38515
1.38519
1.38523
1.38527
1.38681
1.38686
1.38691
1.38695
1.38509
1.38515
1.38521
1.38526
1.38547
1.38553
1.38559
1.38564
1.38471
1.3853
1.3853
1.38471
1.38483
1.38481
1.38482
1.38483
1.38637
1.38638
1.38638
1.38638
1.38505
1.38506
1.38506
1.38507
1.3855
1.38551
1.38553
1.38553
1.38556
1.38558
1.38559
1.38561
1.38498
1.385
1.38503
1.38505
1.38666
1.38669
1.38672
1.38675
1.38465
1.38469
1.38472
1.38476
1.38579
1.38583
1.38587
1.3859
1.38575
1.38624
1.38624
1.38575
1.38438
1.38436
1.38437
1.38439
1.38635
1.38636
1.38636
1.38636
1.38494
1.38494
1.38494
1.38495
1.38538
1.38539
1.3854
1.3854
1.38537
1.38538
1.38539
1.3854
1.38485
1.38486
1.38488
1.3849
1.38643
1.38646
1.38648
1.38649
1.38413
1.38415
1.38417
1.3842
1.38666
1.38669
1.38671
1.38673
1.3877
1.38804
1.38804
1.3877
1.38362
1.38359
1.38359
1.38362
1.38617
1.38619
1.38619
1.38618
1.38488
1.38488
1.38488
1.38489
1.38526
1.38527
1.38527
1.38527
1.3852
1.38521
1.38521
1.38522
1.38476
1.38477
1.38478
1.38479
1.38596
1.38598
1.38599
1.38599
1.38329
1.3833
1.38332
1.38334
1.38827
1.38828
1.3883
1.38832
1.39016
1.39029
1.39029
1.39016
1.38258
1.38253
1.38253
1.38259
1.38581
1.38583
1.38583
1.38582
1.38492
1.38491
1.38492
1.38493
1.38519
1.38519
1.3852
1.3852
1.38511
1.38512
1.38513
1.38513
1.38477
1.38477
1.38478
1.3848
1.38537
1.3854
1.38542
1.38541
1.38221
1.38217
1.38219
1.38225
1.39008
1.3901
1.39011
1.39012
1.45335
1.42589
1.40615
1.38915
1.37722
1.36878
1.36241
1.35737
1.35339
1.35022
1.46696
1.43149
1.40652
1.38925
1.37704
1.36798
1.36082
1.35497
1.35009
1.34575
1.47383
1.43517
1.40702
1.39
1.37731
1.36759
1.35964
1.35298
1.34728
1.34223
1.48152
1.44071
1.41039
1.39316
1.37943
1.36881
1.35993
1.35235
1.34568
1.33996
1.49095
1.44676
1.41513
1.39651
1.38169
1.3701
1.36037
1.35199
1.34452
1.33844
1.50124
1.45416
1.42108
1.40075
1.38493
1.37239
1.36191
1.35288
1.34477
1.33823
1.5109
1.45901
1.42517
1.40283
1.38619
1.37273
1.3616
1.35201
1.34339
1.33664
1.5226
1.46386
1.43065
1.40614
1.38906
1.37482
1.36324
1.35319
1.34428
1.33709
1.52875
1.46291
1.43132
1.40511
1.38804
1.37324
1.36136
1.35096
1.34193
1.33436
1.534
1.46191
1.43213
1.40426
1.38682
1.37131
1.35892
1.34807
1.33882
1.331
1.44028
1.42368
1.41073
1.40021
1.39142
1.38406
1.37795
1.37297
1.369
1.36594
1.4494
1.42926
1.41331
1.40026
1.38962
1.381
1.37394
1.3681
1.36333
1.35921
1.45637
1.43387
1.41474
1.4003
1.38857
1.37909
1.37127
1.36471
1.35917
1.35429
1.46316
1.43933
1.41814
1.40258
1.38987
1.37956
1.37087
1.36341
1.3569
1.3512
1.46949
1.44599
1.42268
1.40588
1.39215
1.38093
1.37137
1.36308
1.35567
1.34942
1.47827
1.45394
1.42884
1.41057
1.39581
1.38363
1.37326
1.36422
1.35606
1.34919
1.4874
1.46016
1.43372
1.41367
1.39792
1.38477
1.37362
1.36391
1.35507
1.34781
1.49937
1.46677
1.4401
1.41811
1.40165
1.38764
1.37589
1.36559
1.3563
1.34848
1.5074
1.46804
1.44205
1.41859
1.40178
1.38709
1.37483
1.36404
1.35446
1.3462
1.51459
1.46782
1.44287
1.41801
1.40067
1.38533
1.37262
1.36145
1.35171
1.34325
1.42825
1.41973
1.41104
1.40321
1.39641
1.39062
1.3858
1.38186
1.37879
1.37655
1.43466
1.42353
1.41221
1.40222
1.39377
1.38673
1.38089
1.37604
1.37214
1.3689
1.4402
1.42689
1.41302
1.40137
1.39167
1.38363
1.37693
1.3713
1.36664
1.36263
1.44583
1.43118
1.41549
1.40267
1.39194
1.38297
1.37533
1.36878
1.36317
1.3583
1.45212
1.43665
1.41931
1.40528
1.39347
1.38353
1.37499
1.36758
1.36105
1.35556
1.46045
1.44372
1.42491
1.40943
1.39651
1.38557
1.37618
1.36799
1.36069
1.3545
1.46868
1.4497
1.42955
1.4123
1.39827
1.38633
1.37611
1.36723
1.35921
1.35258
1.47982
1.45666
1.43587
1.41673
1.40184
1.38901
1.37815
1.36864
1.36013
1.35291
1.48741
1.45912
1.43855
1.41797
1.40259
1.389
1.37753
1.36747
1.35857
1.35091
1.4934
1.45967
1.43951
1.41758
1.40159
1.38736
1.37548
1.36505
1.35597
1.3481
1.41302
1.40893
1.40449
1.40018
1.39612
1.39244
1.38922
1.38652
1.38439
1.38285
1.41681
1.41196
1.40603
1.40009
1.39452
1.38952
1.38515
1.38143
1.37842
1.37596
1.4211
1.41501
1.40725
1.39965
1.39268
1.38651
1.38117
1.37661
1.37282
1.36957
1.42598
1.41899
1.4098
1.40088
1.39273
1.3855
1.37915
1.37363
1.36889
1.36479
1.43186
1.42406
1.41356
1.40334
1.39402
1.38576
1.37846
1.37203
1.36637
1.36159
1.43972
1.43068
1.41893
1.40728
1.39679
1.38749
1.37929
1.37204
1.36559
1.36007
1.44749
1.43641
1.42345
1.41011
1.39845
1.3881
1.37903
1.37104
1.36385
1.35783
1.45773
1.44348
1.42968
1.41455
1.40193
1.39066
1.38087
1.37223
1.3645
1.35789
1.46467
1.44673
1.43265
1.41607
1.40273
1.39062
1.38018
1.37098
1.36284
1.35582
1.46959
1.4477
1.43336
1.41547
1.40153
1.38884
1.37804
1.36852
1.36021
1.353
1.40412
1.40168
1.39926
1.39687
1.39453
1.39231
1.39031
1.38859
1.38722
1.38623
1.40604
1.40385
1.40075
1.39729
1.39378
1.39043
1.38739
1.38473
1.38256
1.38079
1.40888
1.40603
1.40177
1.39702
1.39229
1.38786
1.38387
1.38037
1.37743
1.37493
1.41263
1.4093
1.40406
1.39815
1.39229
1.38679
1.38178
1.37732
1.37348
1.37015
1.41755
1.41374
1.40756
1.40048
1.39349
1.38694
1.38095
1.37557
1.37082
1.3668
1.42422
1.41966
1.41255
1.40418
1.39606
1.38847
1.38156
1.37533
1.36979
1.36502
1.43072
1.42488
1.41676
1.40692
1.39763
1.38899
1.38118
1.37419
1.36789
1.36258
1.43959
1.43165
1.42274
1.41133
1.40104
1.39145
1.38289
1.37522
1.36836
1.36247
1.44557
1.4352
1.42578
1.41299
1.40184
1.39138
1.38214
1.37393
1.36663
1.36037
1.44928
1.43616
1.42626
1.41229
1.40056
1.38958
1.38
1.37149
1.36402
1.35757
1.39816
1.39646
1.39509
1.39381
1.39253
1.39128
1.39012
1.3891
1.38828
1.38767
1.39908
1.3981
1.3965
1.39455
1.39243
1.39031
1.38831
1.38652
1.38505
1.38383
1.40075
1.39948
1.39722
1.39438
1.39134
1.38832
1.38547
1.38291
1.38073
1.37887
1.40338
1.40194
1.39905
1.39532
1.39131
1.38731
1.38352
1.38007
1.37706
1.37444
1.40722
1.40562
1.4021
1.39742
1.39241
1.38742
1.38269
1.37835
1.37449
1.37121
1.41264
1.41072
1.40654
1.40082
1.39477
1.38881
1.38318
1.378
1.37336
1.36935
1.4178
1.41522
1.41028
1.40335
1.39622
1.38925
1.38274
1.37679
1.3714
1.36685
1.42521
1.42144
1.41583
1.40761
1.39951
1.39162
1.38434
1.37772
1.37177
1.36665
1.43002
1.42481
1.41867
1.40921
1.40021
1.39148
1.38354
1.37639
1.37001
1.36454
1.43242
1.42549
1.41888
1.40846
1.39893
1.38971
1.38145
1.37402
1.36746
1.36179
1.39432
1.39295
1.39209
1.39141
1.39072
1.39004
1.38939
1.38882
1.38834
1.38798
1.39465
1.3942
1.39336
1.39227
1.39102
1.38972
1.38847
1.38733
1.38638
1.38557
1.39558
1.39505
1.39385
1.39219
1.39028
1.38827
1.38632
1.38452
1.38297
1.38164
1.39724
1.39669
1.39513
1.39284
1.39017
1.38735
1.38459
1.38201
1.37974
1.37775
1.40009
1.39958
1.39762
1.39462
1.39112
1.38745
1.38384
1.38045
1.37741
1.37482
1.40433
1.40379
1.40139
1.39761
1.39324
1.3887
1.38425
1.38007
1.37631
1.37304
1.40823
1.40745
1.40452
1.3998
1.39451
1.38905
1.38377
1.37885
1.37437
1.37059
1.41429
1.41295
1.40952
1.4038
1.39761
1.39131
1.3853
1.37973
1.37472
1.37037
1.41791
1.41584
1.41192
1.40516
1.39815
1.39107
1.38445
1.37839
1.37295
1.36828
1.41922
1.41617
1.41189
1.40439
1.39689
1.38938
1.38244
1.37612
1.37049
1.36563
1.39176
1.39054
1.38995
1.38957
1.38921
1.38885
1.3885
1.38819
1.38792
1.38771
1.39172
1.39151
1.39107
1.39046
1.38975
1.38899
1.38823
1.38753
1.38695
1.38643
1.3923
1.39208
1.39144
1.39047
1.38928
1.38799
1.38669
1.38548
1.38441
1.3835
1.39321
1.39306
1.39222
1.39082
1.38907
1.38714
1.38519
1.38332
1.38168
1.38021
1.39525
1.39522
1.39415
1.39225
1.38986
1.38722
1.38454
1.38198
1.37967
1.37769
1.39848
1.39856
1.39723
1.39478
1.39169
1.38832
1.38491
1.38164
1.37868
1.37609
1.40128
1.40137
1.3997
1.39656
1.39271
1.38855
1.38439
1.38045
1.37683
1.37377
1.40617
1.4061
1.40407
1.40018
1.39559
1.39068
1.38586
1.38132
1.3772
1.37362
1.40871
1.40832
1.40589
1.4012
1.3959
1.39034
1.38497
1.37998
1.37544
1.37156
1.40919
1.40833
1.40564
1.4004
1.39469
1.38875
1.38308
1.37783
1.37312
1.36906
1.39001
1.38886
1.38842
1.3882
1.38801
1.38783
1.38764
1.38747
1.38732
1.3872
1.38975
1.38965
1.38942
1.38909
1.38869
1.38826
1.38782
1.38741
1.38706
1.38673
1.39016
1.39008
1.38973
1.38916
1.38843
1.38762
1.38678
1.38599
1.38529
1.38468
1.39056
1.39055
1.39009
1.38923
1.3881
1.38682
1.38548
1.38418
1.38302
1.38198
1.39199
1.39213
1.39154
1.39034
1.38873
1.38688
1.38495
1.38308
1.38137
1.37991
1.39442
1.39471
1.39398
1.3924
1.39026
1.38781
1.38528
1.3828
1.38054
1.37856
1.39631
1.39673
1.3958
1.39373
1.39099
1.3879
1.38472
1.38165
1.37881
1.37641
1.40025
1.4007
1.39955
1.39695
1.39361
1.3899
1.38615
1.38255
1.37926
1.37638
1.40184
1.4022
1.40074
1.39757
1.39368
1.38943
1.3852
1.3812
1.37752
1.37438
1.40176
1.40194
1.40031
1.39675
1.39252
1.38795
1.38346
1.37922
1.37538