/*--------------------------------*- C++ -*----------------------------------*\
| =========                 |                                                 |
| \\      /  F ield         | foam-extend: Open Source CFD                    |
|  \\    /   O peration     | Version:     4.0                                |
|   \\  /    A nd           | Web:         http://www.foam-extend.org         |
|    \\/     M anipulation  |                                                 |
\*---------------------------------------------------------------------------*/
FoamFile
{
    version     2.0;
    format      ascii;
    class       volScalarField;
    location    "3050";
    object      divFlux;
}
// * * * * * * * * * * * * * * * * * * * * * * * * * * * * * * * * * * * * * //

dimensions      [1 -3 -1 0 0 0 0];

internalField   nonuniform List<scalar> 
34480
(
1.7194e-05
6.14024e-06
6.74468e-06
6.26128e-06
5.7803e-06
5.41874e-06
5.14035e-06
0.000299873
0.000258765
4.58365e-06
5.18628e-06
2.81016e-06
2.75105e-06
2.55546e-06
2.41262e-06
2.35122e-06
2.34314e-06
2.35087e-06
0.00342511
2.26554e-06
2.20485e-06
7.83052e-07
9.09834e-07
8.62274e-07
8.48848e-07
8.74507e-07
9.19731e-07
9.47497e-07
0.00333259
9.31094e-07
9.64315e-07
2.52923e-07
3.64836e-07
3.26272e-07
3.3849e-07
3.43263e-07
3.68005e-07
3.84157e-07
0.000802991
3.73962e-07
4.03488e-07
8.59439e-08
1.64426e-07
1.25414e-07
1.44331e-07
1.3916e-07
1.53691e-07
1.56375e-07
1.62397e-07
1.53495e-07
1.80127e-07
3.87746e-08
7.23945e-08
5.42386e-08
6.23715e-08
6.20279e-08
6.39752e-08
7.291e-08
6.72971e-08
6.53498e-08
1.39253e-07
5.80378e-09
4.0321e-08
2.16878e-08
3.04444e-08
2.68807e-08
3.19208e-08
3.1259e-08
3.02917e-08
3.2379e-08
5.9651e-08
6.50634e-09
1.76863e-08
1.20047e-08
1.37916e-08
1.41123e-08
1.4204e-08
1.73197e-08
1.40207e-08
1.57618e-08
3.21724e-08
1.91608e-09
1.24962e-08
5.99816e-09
8.70567e-09
7.66432e-09
8.03921e-09
9.0389e-09
7.49771e-09
9.45544e-09
1.43758e-08
4.46738e-09
7.7511e-09
3.97101e-09
6.91108e-09
3.47463e-09
6.91108e-09
2.59643e-09
7.56019e-09
4.54375e-09
2.53309e-05
8.54883e-06
8.54599e-06
7.98505e-06
7.48831e-06
7.12143e-06
6.87934e-06
6.75451e-06
6.74684e-06
0.0010598
8.13061e-06
4.16235e-06
4.03888e-06
3.79524e-06
3.6158e-06
3.53546e-06
3.54233e-06
3.59136e-06
3.72282e-06
0.00344793
2.34209e-06
1.4591e-06
1.45301e-06
1.42613e-06
1.41544e-06
1.46519e-06
1.5606e-06
1.62799e-06
1.73354e-06
0.00430951
8.90658e-07
6.04782e-07
5.0983e-07
7.13257e-07
5.8753e-07
6.82163e-07
7.01118e-07
7.45736e-07
7.91526e-07
0.00150019
3.29821e-07
4.01795e-07
8.89024e-08
5.08283e-07
2.17844e-07
3.18552e-07
3.26706e-07
3.4989e-07
3.61329e-07
3.81551e-07
1.19511e-07
3.39537e-07
1.90241e-07
2.93535e-07
9.72237e-08
1.4722e-07
1.68358e-07
1.57815e-07
1.74481e-07
1.81622e-07
1.80601e-08
4.71056e-07
3.63101e-07
2.41373e-07
3.66792e-08
7.29799e-08
7.66241e-08
8.17356e-08
8.9308e-08
9.13017e-08
1.50002e-08
3.31263e-07
1.82904e-07
1.02868e-07
3.29687e-08
2.93055e-08
5.36274e-08
3.61634e-08
5.09865e-08
4.45919e-08
7.56096e-08
2.42483e-07
9.80852e-08
5.71551e-08
2.00585e-08
2.36984e-08
3.69804e-08
7.55098e-09
4.32923e-08
3.80937e-08
6.05069e-08
1.02442e-07
2.23625e-09
2.34984e-08
1.79255e-08
2.83968e-08
2.6977e-09
4.60739e-08
6.81524e-09
2.22338e-08
2.29996e-05
6.47864e-06
6.67082e-06
6.2784e-06
5.90925e-06
5.645e-06
5.50169e-06
5.47954e-06
3.14308e-05
0.000869422
7.04054e-06
2.97658e-06
2.95352e-06
2.77394e-06
2.61872e-06
2.51517e-06
2.48824e-06
2.53353e-06
8.0949e-05
0.00135098
2.19391e-06
1.09623e-06
1.03628e-06
9.66272e-07
9.24694e-07
9.11428e-07
9.3784e-07
9.8615e-07
0.000120573
0.00127461
8.39382e-07
3.97531e-07
3.82484e-07
3.83837e-07
3.68526e-07
3.74532e-07
3.80405e-07
4.07893e-07
4.67026e-07
5.76896e-07
4.08426e-07
1.7508e-07
1.48776e-07
1.83339e-07
1.57657e-07
1.61221e-07
1.63992e-07
1.69762e-07
2.03477e-07
2.51684e-07
1.76777e-07
6.57328e-08
7.98891e-08
8.0582e-08
7.11775e-08
7.50878e-08
6.29609e-08
8.1671e-08
9.31049e-08
1.10887e-07
8.58026e-08
2.19549e-08
3.48463e-08
3.88061e-08
3.48463e-08
3.12385e-08
3.29544e-08
3.74422e-08
3.78821e-08
5.33584e-08
3.80246e-08
5.54373e-10
2.17393e-08
1.90863e-08
1.80963e-08
1.6552e-08
1.11271e-08
2.4036e-08
1.82151e-08
2.71766e-08
3.16256e-08
5.75972e-09
1.66672e-08
1.11595e-08
9.89951e-09
8.71157e-09
1.02235e-08
1.61992e-08
5.21974e-09
1.21359e-08
1.99547e-08
2.0129e-09
1.13844e-08
5.14775e-09
1.01635e-08
2.47488e-09
1.23084e-08
1.45193e-09
1.60042e-08
1.41377e-08
2.26382e-05
5.84165e-06
6.06808e-06
5.7364e-06
5.42166e-06
5.19917e-06
5.08376e-06
5.07652e-06
1.51628e-05
0.000372983
6.93027e-06
2.72375e-06
2.72066e-06
2.5597e-06
2.41996e-06
2.32498e-06
2.28297e-06
2.30037e-06
3.51281e-05
0.00114332
2.02788e-06
1.09905e-06
1.06338e-06
9.89537e-07
9.21692e-07
8.83114e-07
8.77923e-07
8.94783e-07
0.000122394
0.00229192
8.2971e-07
4.59441e-07
4.16924e-07
3.88211e-07
3.64988e-07
3.56706e-07
3.57381e-07
3.67074e-07
0.000114461
0.00211195
3.9205e-07
1.77222e-07
1.58028e-07
1.66021e-07
1.53558e-07
1.49876e-07
1.59027e-07
1.52821e-07
4.6159e-05
0.00157894
2.04379e-07
6.00031e-08
7.76728e-08
7.54181e-08
6.63992e-08
7.77648e-08
6.13836e-08
6.94362e-08
1.11827e-05
0.000996852
1.40876e-07
9.03933e-09
4.20063e-08
3.27625e-08
3.41531e-08
3.14945e-08
3.19444e-08
3.46848e-08
3.81206e-08
0.000421353
7.77487e-08
4.56466e-09
2.45166e-08
1.67862e-08
1.62708e-08
2.15717e-08
9.49743e-09
1.96575e-08
1.96207e-08
0.000159636
6.24168e-08
1.24491e-08
1.91086e-08
1.04077e-08
1.08093e-08
1.21813e-08
2.54336e-09
2.24886e-08
6.82691e-09
7.88524e-09
3.72005e-08
5.18432e-09
1.22399e-08
4.07997e-09
1.12889e-08
3.37441e-10
1.62585e-08
2.82223e-09
1.31909e-08
1.54418e-08
2.18602e-05
5.15612e-06
5.39108e-06
5.10493e-06
4.82597e-06
4.63231e-06
4.53007e-06
4.53261e-06
1.96774e-05
0.000143886
7.01908e-06
2.59027e-06
2.57945e-06
2.41458e-06
2.27132e-06
2.1714e-06
2.11609e-06
2.10133e-06
3.06868e-06
0.000580033
1.78551e-06
8.96706e-07
9.2203e-07
8.94139e-07
8.52937e-07
8.25149e-07
8.13753e-07
8.13377e-07
7.74378e-05
0.00133761
7.44339e-07
4.49613e-07
4.24917e-07
3.9349e-07
3.67739e-07
3.48061e-07
3.44382e-07
3.39791e-07
8.06061e-05
0.00142657
3.39338e-07
2.02298e-07
1.73699e-07
1.67245e-07
1.57126e-07
1.44904e-07
1.52775e-07
1.45588e-07
5.4841e-05
0.00128876
1.77744e-07
7.52873e-08
7.50306e-08
7.46884e-08
6.34809e-08
7.30629e-08
6.51064e-08
6.27537e-08
4.23734e-05
0.00102732
1.31815e-07
1.74149e-08
3.87844e-08
3.30047e-08
3.3499e-08
3.04571e-08
3.21682e-08
3.11416e-08
6.32915e-06
0.000678002
8.4433e-08
6.15987e-10
2.18675e-08
1.86165e-08
1.33464e-08
2.20729e-08
1.26962e-08
1.7453e-08
9.48387e-06
0.000511277
7.18127e-08
1.06709e-08
1.77641e-08
1.16042e-08
7.99539e-09
1.67996e-08
1.11998e-09
2.13418e-08
1.03287e-08
0.00031461
4.48839e-08
5.50396e-09
1.18349e-08
3.79288e-09
1.21201e-08
9.69609e-10
1.60841e-08
1.99625e-09
1.11505e-08
0.000415369
2.09926e-05
4.55434e-06
4.79727e-06
4.55747e-06
4.31595e-06
4.13737e-06
4.03e-06
3.99514e-06
4.04869e-06
2.5518e-05
6.42849e-06
2.24902e-06
2.28644e-06
2.1665e-06
2.05432e-06
1.97423e-06
1.92488e-06
1.9075e-06
1.49705e-05
0.000224143
2.11174e-06
9.05126e-07
8.81712e-07
8.31478e-07
7.85094e-07
7.5942e-07
7.42877e-07
7.35751e-07
3.6085e-05
0.00072113
6.18821e-07
3.53846e-07
3.6453e-07
3.52573e-07
3.40086e-07
3.25638e-07
3.21078e-07
3.14212e-07
4.3434e-05
0.000853096
2.74808e-07
1.88381e-07
1.7302e-07
1.62022e-07
1.55159e-07
1.41616e-07
1.44615e-07
1.37934e-07
3.91289e-05
0.000870981
1.38815e-07
8.77258e-08
7.77443e-08
7.45629e-08
6.56154e-08
6.74049e-08
6.58142e-08
6.14399e-08
3.82859e-05
0.000790014
9.63756e-08
3.34395e-08
3.62321e-08
3.32275e-08
3.33335e-08
2.91624e-08
3.13186e-08
2.9728e-08
2.14596e-05
0.000605464
7.233e-08
8.01701e-09
1.78792e-08
1.9279e-08
1.32981e-08
1.85473e-08
1.5175e-08
1.62249e-08
2.93804e-05
0.000537805
6.76223e-08
4.45389e-09
1.30435e-08
1.15396e-08
6.16025e-09
1.87411e-08
2.05342e-09
1.90013e-08
1.06716e-05
0.000460239
4.3901e-08
3.02228e-09
1.09492e-08
4.4804e-09
9.75615e-09
7.15804e-10
1.39449e-08
1.59068e-09
2.89748e-05
0.000539955
1.96158e-05
3.88199e-06
4.12457e-06
3.93756e-06
3.73919e-06
3.59641e-06
3.51572e-06
3.48945e-06
3.50749e-06
1.0971e-06
6.11075e-06
1.96522e-06
1.99121e-06
1.88152e-06
1.78448e-06
1.71649e-06
1.67561e-06
1.66485e-06
9.96662e-06
7.23849e-05
2.02698e-06
8.7323e-07
8.58029e-07
8.0231e-07
7.46945e-07
7.14561e-07
6.88062e-07
6.73185e-07
1.43139e-05
0.000380137
7.45432e-07
3.52213e-07
3.44524e-07
3.27148e-07
3.13667e-07
3.00654e-07
2.9538e-07
2.8811e-07
1.80227e-05
0.000494162
2.43292e-07
1.50368e-07
1.52776e-07
1.46269e-07
1.42087e-07
1.34608e-07
1.32665e-07
1.29158e-07
1.95945e-05
0.000548383
1.05779e-07
7.95197e-08
7.37896e-08
7.07581e-08
6.51019e-08
6.30317e-08
6.34013e-08
5.84845e-08
2.32848e-05
0.000544662
5.92534e-08
4.03205e-08
3.61143e-08
3.1941e-08
3.28282e-08
2.89177e-08
2.98707e-08
2.85234e-08
1.85174e-05
0.000450787
4.97737e-08
1.83661e-08
1.53198e-08
1.86322e-08
1.4403e-08
1.58226e-08
1.5586e-08
1.54381e-08
2.96282e-05
0.000444955
5.03663e-08
4.49002e-09
1.09427e-08
1.26904e-08
4.30181e-09
1.81752e-08
4.83954e-10
1.54596e-08
2.19596e-05
0.00042137
3.54986e-08
1.55269e-09
8.45351e-09
5.37279e-09
8.45351e-09
3.62293e-09
1.06223e-08
3.45041e-09
3.70585e-05
0.000483542
1.81758e-05
3.26878e-06
3.4866e-06
3.32507e-06
3.14865e-06
3.0124e-06
2.93069e-06
2.90968e-06
2.93399e-06
3.11507e-06
5.74328e-06
1.76972e-06
1.79394e-06
1.69232e-06
1.59733e-06
1.5299e-06
1.48148e-06
1.45783e-06
2.63921e-06
1.52935e-05
1.62222e-06
6.60927e-07
6.94139e-07
6.74289e-07
6.43248e-07
6.24552e-07
6.07973e-07
5.97361e-07
5.37284e-06
0.000182022
7.69952e-07
3.54466e-07
3.37832e-07
3.12996e-07
2.94139e-07
2.7998e-07
2.70586e-07
2.62888e-07
6.34691e-06
0.000269411
2.94311e-07
1.46543e-07
1.44304e-07
1.36566e-07
1.30793e-07
1.25804e-07
1.22191e-07
1.1846e-07
7.27633e-06
0.000325523
1.05303e-07
6.59167e-08
6.6226e-08
6.32704e-08
6.0796e-08
5.80122e-08
5.73936e-08
5.58471e-08
1.05156e-05
0.000355814
3.76245e-08
3.65364e-08
3.36953e-08
3.04877e-08
2.99684e-08
2.77994e-08
2.83799e-08
2.60276e-08
1.10824e-05
0.0003094
2.54839e-08
2.23526e-08
1.56715e-08
1.61939e-08
1.61389e-08
1.38569e-08
1.47368e-08
1.55066e-08
2.28307e-05
0.000334879
2.82373e-08
1.11975e-08
9.49791e-09
1.25972e-08
4.49901e-09
1.58965e-08
3.19929e-09
1.20223e-08
2.07649e-05
0.000321223
2.28402e-08
4.12409e-09
8.72933e-09
5.43005e-09
6.7131e-09
5.33841e-09
7.42336e-09
4.83435e-09
3.42979e-05
0.000377934
1.64531e-05
2.70573e-06
2.92346e-06
2.81253e-06
2.67653e-06
2.56803e-06
2.49983e-06
2.46839e-06
2.48256e-06
2.63382e-06
4.95389e-06
1.4358e-06
1.47586e-06
1.40215e-06
1.33346e-06
1.28241e-06
1.2448e-06
1.22576e-06
1.21519e-06
9.01736e-08
1.76941e-06
6.37169e-07
6.38038e-07
6.02612e-07
5.65884e-07
5.45538e-07
5.27059e-07
5.1888e-07
1.8118e-06
8.03828e-05
5.48929e-07
2.67777e-07
2.76467e-07
2.66712e-07
2.56254e-07
2.46456e-07
2.39448e-07
2.31376e-07
2.18081e-06
0.000137026
2.93148e-07
1.39883e-07
1.33785e-07
1.27797e-07
1.18522e-07
1.15054e-07
1.1038e-07
1.06948e-07
1.91078e-06
0.000179152
1.23355e-07
6.31635e-08
6.30677e-08
5.78599e-08
5.60708e-08
5.38024e-08
5.31315e-08
1.20564e-05
3.23201e-06
0.000218558
4.25816e-08
2.96488e-08
3.10972e-08
2.82857e-08
2.76041e-08
2.61557e-08
2.53889e-08
2.4537e-08
5.11868e-06
0.000194408
1.42445e-08
2.0473e-08
1.55145e-08
1.39043e-08
1.55656e-08
1.28052e-08
1.32653e-08
9.80259e-06
1.5336e-05
0.000233652
1.29699e-08
1.16644e-08
9.99138e-09
1.13855e-08
5.53011e-09
1.28958e-08
4.87951e-09
1.03167e-08
1.56657e-05
0.000220407
1.54639e-08
4.28119e-09
7.8595e-09
6.79452e-09
4.77108e-09
6.30464e-09
6.45373e-09
4.55001e-06
2.74899e-05
0.000272201
1.49129e-05
2.17762e-06
2.37026e-06
2.2831e-06
2.16281e-06
2.07153e-06
2.01001e-06
1.98112e-06
1.98138e-06
2.08539e-06
4.43229e-06
1.2083e-06
1.23622e-06
1.17284e-06
1.11245e-06
1.06962e-06
1.03992e-06
1.02445e-06
1.0178e-06
9.43961e-07
1.49078e-06
5.19816e-07
5.40465e-07
5.15896e-07
4.86504e-07
4.66473e-07
4.487e-07
4.3834e-07
1.98831e-07
3.19364e-05
5.98362e-07
2.49489e-07
2.45192e-07
2.33094e-07
2.21313e-07
2.13491e-07
2.07314e-07
2.01057e-07
7.33518e-07
6.49861e-05
2.24388e-07
1.13781e-07
1.1317e-07
1.10183e-07
1.03699e-07
1.00508e-07
9.64691e-08
9.24298e-08
7.97347e-08
9.22244e-05
1.15197e-07
5.75607e-08
5.59568e-08
5.26897e-08
5.01057e-08
4.80563e-08
4.66604e-08
1.72954e-05
1.55485e-07
0.000127815
5.21147e-08
2.77738e-08
2.6401e-08
2.60841e-08
2.42625e-08
2.35497e-08
2.35233e-08
2.24408e-08
1.72301e-06
0.000111424
1.37438e-08
1.7393e-08
1.55634e-08
1.21893e-08
1.38763e-08
1.24507e-08
1.18329e-08
1.83739e-05
9.52095e-06
0.000154197
9.51616e-09
8.61871e-09
9.20193e-09
1.01956e-08
6.52344e-09
9.43954e-09
5.76741e-09
8.81312e-09
1.01941e-05
0.000140135
1.57471e-08
2.61369e-09
5.84121e-09
6.15802e-09
4.13835e-09
6.13822e-09
4.79177e-09
9.64806e-06
2.01771e-05
0.00018525
1.28931e-05
1.66635e-06
1.86074e-06
1.8207e-06
1.74576e-06
1.67539e-06
1.62795e-06
1.612e-06
1.62383e-06
1.72177e-06
3.80208e-06
9.90219e-07
1.02263e-06
9.71803e-07
9.19921e-07
8.80631e-07
8.5382e-07
8.40622e-07
8.3637e-07
7.95852e-07
1.29452e-06
4.04471e-07
4.30226e-07
4.17702e-07
3.9738e-07
3.82912e-07
3.70144e-07
3.59453e-07
3.47768e-07
1.09604e-05
5.13529e-07
2.1163e-07
2.10489e-07
1.99518e-07
1.88566e-07
1.81663e-07
1.75478e-07
1.71834e-07
1.2749e-07
2.76708e-05
2.17022e-07
9.96842e-08
9.7286e-08
9.45407e-08
8.93655e-08
8.63362e-08
8.28966e-08
8.06562e-08
3.35941e-07
4.45687e-05
9.34432e-08
4.78778e-08
4.80158e-08
4.53099e-08
4.3598e-08
4.1113e-08
4.01743e-08
1.65974e-05
1.51362e-06
7.25993e-05
4.97393e-08
2.48869e-08
2.31443e-08
2.3807e-08
2.14999e-08
2.09109e-08
2.05918e-08
1.97082e-08
2.16889e-07
5.79039e-05
1.61235e-08
1.491e-08
1.3916e-08
1.07352e-08
1.20164e-08
1.12212e-08
9.03703e-07
2.05194e-05
5.53774e-06
9.86998e-05
1.48702e-08
4.63868e-09
8.87574e-09
8.3938e-09
6.36563e-09
8.0725e-09
5.86361e-09
7.22911e-09
5.65826e-06
8.19812e-05
2.06389e-08
2.83475e-09
4.78594e-09
5.66949e-09
4.04964e-09
5.20931e-09
4.9516e-09
1.07129e-05
1.38966e-05
0.000120709
1.15717e-05
1.10268e-06
1.25602e-06
1.24461e-06
1.18227e-06
1.11106e-06
1.04126e-06
9.78767e-07
9.08265e-07
8.36603e-07
3.13345e-06
7.48925e-07
7.79958e-07
7.4297e-07
7.01028e-07
6.68993e-07
6.46174e-07
6.3411e-07
6.28309e-07
6.00122e-07
1.19927e-06
3.41635e-07
3.57406e-07
3.43401e-07
3.25413e-07
3.10915e-07
2.98225e-07
2.91099e-07
2.83584e-07
3.4327e-06
4.14239e-07
1.65475e-07
1.677e-07
1.60821e-07
1.52709e-07
1.4696e-07
1.41278e-07
1.37172e-07
1.31542e-07
9.04124e-06
1.91643e-07
8.43681e-08
8.1992e-08
8.02905e-08
7.44528e-08
7.26047e-08
7.03165e-08
6.79697e-08
2.8241e-07
1.9996e-05
8.46265e-08
4.10693e-08
4.02736e-08
3.90929e-08
3.6757e-08
3.53966e-08
1.20361e-06
1.40985e-05
1.91216e-06
4.05195e-05
4.06391e-08
2.14017e-08
1.99414e-08
1.93254e-08
1.85953e-08
1.8253e-08
1.67243e-08
1.61311e-08
1.31627e-07
2.59239e-05
1.47924e-08
1.13967e-08
1.2711e-08
9.87717e-09
1.01441e-08
9.2406e-09
1.62457e-05
1.9752e-05
2.96728e-06
6.24481e-05
2.37377e-08
1.53077e-09
7.14979e-09
7.63516e-09
6.38441e-09
6.49642e-09
5.05899e-09
6.17907e-09
2.40147e-06
4.25313e-05
1.80873e-08
5.40746e-09
3.57645e-09
4.20961e-09
3.76469e-09
4.20961e-09
4.10693e-09
9.76165e-06
9.11592e-06
7.5987e-05
1.46137e-05
1.88839e-06
2.05369e-06
2.13049e-06
2.19508e-06
2.23776e-06
2.28009e-06
2.33434e-06
2.41065e-06
2.55e-06
2.35439e-06
5.44845e-07
6.02926e-07
6.06934e-07
5.97986e-07
5.83048e-07
5.64651e-07
5.45251e-07
5.11605e-07
4.10874e-07
9.37908e-07
2.44215e-07
2.63954e-07
2.61892e-07
2.53283e-07
2.46105e-07
2.38889e-07
2.32819e-07
4.06783e-07
2.26036e-06
3.62415e-07
1.34885e-07
1.33231e-07
1.28426e-07
1.21999e-07
1.16257e-07
1.11516e-07
1.07937e-07
1.0108e-07
1.02674e-07
1.53715e-07
6.60778e-08
6.51778e-08
6.28053e-08
5.98873e-08
5.72965e-08
5.5633e-08
5.42421e-08
1.52227e-07
8.37091e-06
7.27317e-08
3.31923e-08
3.27866e-08
3.1689e-08
3.00425e-08
2.95652e-08
8.84378e-06
1.15642e-05
1.91169e-06
2.25402e-05
3.37562e-08
1.85595e-08
1.64384e-08
1.6396e-08
1.489e-08
1.46991e-08
1.41476e-08
1.37234e-08
1.29386e-08
8.20029e-06
2.91863e-06
8.43767e-09
1.05184e-08
9.29671e-09
7.9986e-09
1.56416e-05
2.39887e-05
1.80285e-05
1.3649e-06
3.97975e-05
3.03225e-08
1.52718e-09
4.0262e-09
6.05666e-09
5.60544e-09
5.39719e-09
4.87656e-09
4.6336e-09
3.33151e-07
1.72697e-05
6.18062e-09
8.28813e-09
4.05657e-09
2.78392e-09
3.46797e-09
3.83386e-09
1.9428e-06
8.06922e-06
5.75907e-06
4.65641e-05
1.60521e-05
3.97359e-06
4.7076e-06
4.95751e-06
4.96593e-06
4.87155e-06
4.68144e-06
4.36781e-06
3.93376e-06
3.36284e-06
3.18774e-06
5.77382e-07
4.59457e-07
3.74007e-07
3.24606e-07
2.95524e-07
2.90244e-07
3.12693e-07
3.54974e-07
3.72609e-07
5.84732e-05
6.74436e-06
9.35792e-06
7.08039e-06
5.80513e-06
4.85759e-06
3.67968e-06
1.44503e-06
1.80629e-06
4.0142e-06
2.73708e-07
1.05754e-07
1.0361e-07
9.9898e-08
9.53579e-08
9.11726e-08
8.73128e-08
8.41924e-08
8.2817e-08
6.75734e-08
1.2661e-07
5.20226e-08
5.06282e-08
4.91325e-08
4.56592e-08
4.43409e-08
4.24141e-08
3.9955e-08
9.70227e-08
3.60505e-06
9.74975e-06
2.6287e-08
2.60874e-08
2.4712e-08
2.37359e-08
7.36234e-06
1.18759e-05
9.52486e-06
1.79442e-06
1.2753e-05
2.7005e-08
1.43944e-08
1.36057e-08
1.31324e-08
1.2462e-08
1.23437e-08
1.15155e-08
1.07268e-08
1.0569e-08
9.99785e-09
5.03811e-05
4.56043e-05
4.10419e-05
3.64422e-05
3.46367e-05
3.21939e-05
2.73759e-05
1.63154e-05
3.61124e-07
2.61538e-05
2.97239e-08
4.16236e-09
2.59744e-09
4.01716e-09
4.48503e-09
4.06556e-09
4.16236e-09
3.66223e-09
4.17849e-09
2.07296e-06
9.04384e-09
6.72888e-09
5.20564e-09
1.98169e-09
3.03169e-09
3.09085e-09
5.04116e-06
6.23843e-06
3.51282e-06
2.78517e-05
0.00013967
2.3099e-05
2.33188e-05
2.19088e-05
2.05252e-05
1.87262e-05
1.6412e-05
1.37031e-05
1.07362e-05
7.53331e-06
2.77056e-06
1.62792e-07
7.63022e-10
1.42273e-07
2.36269e-07
2.7077e-07
2.65367e-07
2.63779e-07
3.11952e-07
4.30722e-07
0.000200791
0.000127847
6.97218e-05
3.97838e-05
2.23946e-05
1.25791e-05
6.45688e-06
1.5173e-06
3.82915e-06
7.11409e-06
1.99203e-07
7.68384e-08
7.2219e-08
7.06655e-08
6.90844e-08
6.78334e-08
6.63211e-08
6.35439e-08
6.23066e-08
5.56919e-08
9.6355e-08
3.95475e-08
3.77799e-08
3.67429e-08
3.57766e-08
3.29013e-08
3.26892e-08
1.64247e-07
1.43036e-07
2.11933e-06
3.93527e-05
3.00054e-05
1.96563e-05
1.57298e-05
1.50223e-05
1.42866e-05
1.23211e-05
7.91367e-06
1.67129e-06
7.44771e-06
2.02739e-08
1.07052e-08
1.03936e-08
9.89867e-09
8.96379e-09
9.34874e-09
8.85381e-09
8.48719e-09
7.88227e-09
7.59535e-09
0.000219305
4.34229e-05
7.98681e-05
7.00621e-05
5.45736e-05
4.06633e-05
2.85785e-05
1.50608e-05
3.26936e-07
1.82085e-05
1.54625e-08
9.53871e-09
2.78962e-09
3.32955e-09
3.52452e-09
3.7345e-09
3.05959e-09
3.32955e-09
3.04459e-09
3.03108e-09
1.16893e-08
9.89866e-10
4.20693e-09
2.26844e-09
2.32344e-09
1.78726e-09
5.24402e-06
4.32697e-06
1.99326e-06
1.58407e-05
0.000542328
5.61319e-05
6.38607e-05
6.12448e-05
5.31146e-05
4.27993e-05
3.23266e-05
2.2562e-05
1.35643e-05
4.91519e-06
1.2693e-05
3.14276e-06
2.02576e-06
1.4304e-06
1.17113e-06
9.82176e-07
7.22714e-07
3.09384e-07
3.53267e-07
1.33499e-06
0.000340696
0.000241607
0.00011735
6.11442e-05
3.07975e-05
1.50156e-05
6.2019e-06
3.43854e-08
6.66165e-06
1.1215e-05
1.16404e-07
5.84336e-08
5.09058e-08
4.64453e-08
4.38508e-08
4.27772e-08
4.30328e-08
4.36591e-08
4.24194e-08
3.4016e-08
1.83419e-05
2.74312e-08
2.6993e-08
2.02075e-07
1.59167e-06
2.41471e-06
2.47051e-06
1.63713e-06
2.42542e-07
1.8367e-06
3.98353e-05
4.50415e-05
3.52197e-05
2.63273e-05
2.00126e-05
1.51723e-05
1.09477e-05
6.36658e-06
1.52775e-06
4.37196e-06
1.49988e-08
6.61191e-09
7.49805e-09
7.29356e-09
6.90161e-09
6.66304e-09
6.15181e-09
5.6917e-09
5.81099e-09
5.56147e-09
0.000486677
1.6458e-05
8.40673e-05
8.3099e-05
6.35751e-05
4.44814e-05
2.88185e-05
1.43715e-05
9.06672e-07
1.36753e-05
1.03614e-08
9.07667e-09
4.69867e-09
2.69093e-09
2.81642e-09
2.35631e-09
2.07745e-09
2.37025e-09
2.31448e-09
2.27929e-09
5.79038e-09
2.13439e-09
1.96824e-09
1.3292e-09
1.5976e-09
3.5735e-08
2.91536e-06
2.18614e-06
9.02871e-07
7.56416e-06
0.00151182
0.000193329
0.000175432
0.000129149
8.85671e-05
5.75474e-05
3.46056e-05
1.73116e-05
3.24068e-06
9.67802e-06
3.0215e-05
5.24173e-06
4.9909e-06
4.63321e-06
3.78596e-06
2.55789e-06
1.05857e-06
7.09394e-07
2.87923e-06
5.44304e-06
0.000488273
0.000365511
0.000159454
7.50447e-05
3.31286e-05
1.3244e-05
3.33989e-06
3.01648e-06
1.04771e-05
1.6469e-05
7.43464e-08
4.4698e-08
3.79493e-08
3.14383e-08
2.53312e-08
2.21351e-08
1.77509e-08
1.68122e-08
1.64796e-08
2.37125e-08
5.89618e-05
3.53887e-05
2.04573e-05
1.32016e-05
8.96427e-06
6.18576e-06
4.06203e-06
2.132e-06
3.18029e-07
1.59038e-06
2.92963e-05
3.72127e-05
3.07651e-05
2.29237e-05
1.6658e-05
1.18461e-05
8.00044e-06
4.50643e-06
1.2565e-06
2.3111e-06
1.07953e-08
3.88127e-09
4.64169e-09
4.38822e-09
3.88127e-09
4.48327e-09
4.02385e-09
4.56248e-09
3.45354e-09
3.38322e-09
0.000834062
0.000119096
6.19345e-05
7.98976e-05
6.34645e-05
4.39653e-05
2.76527e-05
1.36834e-05
1.49551e-06
1.06353e-05
2.61692e-08
4.01809e-10
1.69797e-09
2.47566e-09
1.59427e-09
1.71093e-09
1.69797e-09
1.36097e-09
1.71093e-09
1.33428e-09
2.24208e-08
1.43766e-09
1.39013e-09
1.36637e-09
9.98042e-10
1.11686e-09
1.3426e-09
2.67511e-07
2.18132e-07
2.11429e-06
0.00512601
0.000104804
7.76002e-05
4.17348e-05
1.73792e-05
2.62152e-06
6.45343e-06
1.28587e-05
1.87247e-05
2.53438e-05
3.08689e-05
2.32488e-05
1.72702e-05
1.17491e-05
7.00858e-06
3.10319e-06
2.26818e-07
3.37294e-06
6.76508e-06
1.03259e-05
0.000554626
0.000460324
0.000178876
7.53749e-05
2.83649e-05
8.36551e-06
1.68571e-07
4.99142e-06
1.13048e-05
1.7843e-05
1.6835e-08
3.02203e-08
2.79228e-08
2.20908e-08
1.5088e-08
6.63829e-09
1.83354e-09
1.25365e-08
2.29413e-08
4.54639e-08
5.06494e-05
3.43271e-05
1.94225e-05
1.21062e-05
7.79257e-06
5.04773e-06
3.12454e-06
1.60046e-06
2.97961e-07
9.82896e-07
1.66323e-05
2.0086e-05
1.70534e-05
1.27651e-05
9.17526e-06
6.39281e-06
4.22441e-06
2.39351e-06
7.95883e-07
8.80025e-07
8.82288e-09
3.56399e-09
2.6509e-09
2.47417e-09
2.73926e-09
1.70836e-09
2.4889e-09
2.22381e-09
1.79672e-09
1.82967e-09
0.0010671
0.000214837
2.12261e-05
5.83831e-05
5.04469e-05
3.56308e-05
2.24362e-05
1.13819e-05
1.94045e-06
7.17583e-06
8.5662e-09
4.0125e-09
2.33761e-09
8.91666e-10
9.63964e-10
1.16881e-09
1.20495e-09
6.74774e-10
7.47072e-10
8.8004e-10
1.23593e-06
7.95038e-07
2.12072e-09
8.61542e-10
8.72588e-10
5.02865e-07
8.26981e-07
4.07443e-07
1.40233e-07
1.19175e-06
0.00330789
0.000588576
0.000399405
0.00027018
0.000189239
0.000130031
8.27692e-05
4.4331e-05
2.36873e-06
3.23701e-05
2.39391e-05
1.32947e-05
6.22055e-06
1.13441e-06
1.77858e-06
3.42142e-06
4.50237e-06
5.45793e-06
6.50956e-06
7.12474e-06
0.000287885
0.000372865
0.000125326
4.66219e-05
1.37725e-05
1.24692e-06
3.36136e-06
5.78749e-06
9.4757e-06
1.42583e-05
2.68358e-08
2.80322e-09
1.49916e-08
2.59786e-08
3.53226e-08
4.26233e-08
4.88253e-08
5.43907e-08
5.69064e-08
5.70787e-08
2.07207e-05
1.53455e-05
8.43705e-06
5.11487e-06
3.19937e-06
2.01853e-06
1.23185e-06
6.45542e-07
1.64673e-07
3.1971e-07
6.30083e-06
5.90543e-06
5.01442e-06
3.76148e-06
2.69682e-06
1.87023e-06
1.23622e-06
7.24155e-07
2.99714e-07
1.44438e-07
5.16068e-09
2.90248e-09
2.09471e-09
2.4233e-09
1.6566e-09
1.51969e-09
1.72506e-09
8.21457e-10
1.47862e-09
7.77971e-10
0.000713073
0.00017734
7.27695e-06
2.48313e-05
2.4488e-05
1.80023e-05
1.162e-05
6.2438e-06
1.68615e-06
2.72427e-06
3.91049e-08
1.26019e-08
4.04381e-09
1.2994e-09
1.00815e-10
6.27294e-10
5.93689e-10
7.84118e-10
7.28109e-10
1.49505e-10
9.18227e-05
0.00012981
8.60139e-05
5.11524e-05
2.95055e-05
1.68857e-05
9.33194e-06
4.11682e-06
1.60851e-07
4.91905e-06
0.00681429
0.000680537
0.000510589
0.000386676
0.000291505
0.000216612
0.000156512
0.000107458
6.60557e-05
3.24636e-05
1.51775e-05
3.19588e-05
2.22206e-05
1.4707e-05
9.57311e-06
6.12286e-06
3.70813e-06
1.79985e-06
1.00888e-07
2.50894e-06
9.69352e-05
8.38994e-05
2.00495e-05
5.87858e-06
6.02123e-07
9.33053e-07
1.25812e-06
1.4172e-06
1.98232e-06
3.23938e-06
1.75339e-08
2.53438e-08
1.39176e-08
4.70602e-09
4.00919e-09
1.09012e-08
1.86427e-08
2.60406e-08
3.20067e-08
3.85932e-08
1.73471e-06
1.81225e-06
9.62385e-07
5.72856e-07
3.53136e-07
2.23009e-07
1.39013e-07
8.19184e-08
3.58209e-08
1.59713e-08
8.15179e-07
4.73485e-07
3.90094e-07
2.91354e-07
2.09996e-07
1.47868e-07
1.00745e-07
6.58509e-08
4.02637e-08
1.29153e-08
4.4706e-09
1.50186e-09
3.691e-10
4.58193e-10
3.05462e-10
1.01821e-10
3.94555e-10
4.96376e-10
1.40003e-10
2.03641e-10
5.24542e-05
2.77509e-05
1.95647e-06
3.20424e-06
3.4881e-06
2.72545e-06
1.90546e-06
1.20643e-06
6.2682e-07
3.94046e-08
6.49975e-08
1.98897e-09
2.29097e-10
3.95712e-10
3.33231e-10
2.29097e-10
3.12404e-10
1.45789e-10
5.20674e-11
1.56202e-10
0.000267131
0.000162642
9.7512e-05
5.68066e-05
3.31066e-05
1.95485e-05
1.14979e-05
6.15693e-06
1.82249e-06
2.8928e-06
0.524126
0.417685
0.528709
0.917357
0.684873
0.622853
0.738094
1.11409
0.849201
0.791174
0.93749
1.44068
0.617045
0.593532
0.703122
1.10024
0.451504
0.449961
0.534198
0.864727
0.299793
0.296157
0.367263
0.624804
0.200203
0.190971
0.254994
0.457946
0.129795
0.119573
0.171262
0.318862
0.0899814
0.0821025
0.123919
0.234337
0.0679428
0.062641
0.10109
0.191321
0.0357128
0.0017932
1.31192e-05
0.0189744
0.0783886
0.00651323
9.90437e-06
0.0408989
0.136576
0.0151986
5.28762e-06
0.0704019
0.125083
0.0170329
2.73515e-06
0.0604107
0.110553
0.0170265
1.3982e-06
0.049002
0.0857538
0.0142991
7.12489e-07
0.0377104
0.0649529
0.0111452
3.7731e-07
0.0307164
0.0470488
0.0084364
2.286e-07
0.0234335
0.0363496
0.00725717
0.00105628
0.0186969
0.0307071
0.00839936
0.00388959
0.0157708
0.0170556
0.0134149
0.0140963
0.019641
0.0386684
0.0266359
0.0261515
0.0407757
0.0749447
0.0486874
0.0492561
0.079667
0.0711331
0.0431151
0.0447241
0.0750514
0.065275
0.0371501
0.0396502
0.0700875
0.0522622
0.0281693
0.0308048
0.0569001
0.0407675
0.0208146
0.0233936
0.0454835
0.030343
0.0147163
0.0168737
0.0340138
0.0239084
0.010627
0.0125814
0.0263495
0.0204952
0.00866907
0.0107606
0.0218929
0.00192349
0.00138895
0.00133814
0.00194933
0.00609217
0.00417269
0.00386215
0.00631322
0.0162427
0.0110126
0.0104804
0.0165985
0.0190751
0.0125721
0.0124089
0.0189886
0.0207814
0.0132051
0.0136346
0.0207719
0.0190587
0.0116879
0.0124998
0.0191106
0.0165735
0.0097494
0.0107641
0.0168405
0.013575
0.00769826
0.00869957
0.0138029
0.0113954
0.00593256
0.00701744
0.0113879
0.0101513
0.00517993
0.00659699
0.0102414
0.000614254
0.000571843
0.000601703
0.000819367
0.00226936
0.002105
0.00236618
0.00340876
0.00609879
0.00574691
0.0064073
0.00889707
0.00730948
0.00656003
0.00706903
0.00961214
0.00841132
0.00715665
0.00765219
0.0103715
0.00818746
0.00659415
0.00707231
0.00955153
0.00752807
0.00572961
0.00622271
0.00846416
0.00658113
0.004752
0.00523077
0.00711744
0.00594356
0.0039376
0.00452401
0.00612528
0.00570528
0.00376108
0.00464098
0.00591929
0.000115821
0.000106406
0.000106241
0.000165632
0.000768836
0.000723264
0.000847154
0.00123609
0.00245859
0.00249177
0.00298917
0.00411226
0.00302829
0.00306012
0.00354939
0.00472476
0.00359967
0.00356266
0.00404947
0.00532562
0.00363942
0.0034687
0.00388662
0.00505574
0.0034597
0.00315695
0.00351757
0.00454641
0.00320054
0.00277208
0.00307906
0.00393464
0.00311088
0.00247973
0.00283316
0.00351429
0.00309158
0.0024262
0.00294156
0.00342018
1.2804e-05
1.08847e-05
6.24931e-06
2.51308e-05
0.000272688
0.000252688
0.000302052
0.000461102
0.0011761
0.00119997
0.00148221
0.00207048
0.00149716
0.00157544
0.00190028
0.00253213
0.0018079
0.00192084
0.00228269
0.00298427
0.00185652
0.00194327
0.00227135
0.00292704
0.00176727
0.00181123
0.00209333
0.00266241
0.00169476
0.00166332
0.00189372
0.00237284
0.00172656
0.00158005
0.00181334
0.0021647
0.00172839
0.00156007
0.00185926
0.00208675
1.08432e-05
3.94793e-06
3.81825e-06
3.93985e-06
7.6117e-05
6.37292e-05
7.59549e-05
0.000130012
0.000537834
0.000530174
0.000660759
0.000948318
0.000758305
0.000797981
0.000974683
0.00130703
0.000959771
0.00103953
0.00125909
0.00165111
0.00102867
0.00111463
0.00133257
0.00171996
0.000981708
0.00106348
0.00125953
0.00159494
0.000973677
0.00102304
0.00118866
0.00148151
0.000978629
0.000980681
0.00112835
0.00132632
0.000994972
0.000996121
0.00117192
0.00130259
8.97771e-06
3.12284e-06
2.99638e-06
3.08182e-06
1.24386e-05
6.22661e-06
6.04201e-06
2.0228e-05
0.000233515
0.000210656
0.000262421
0.000401533
0.000378618
0.000392189
0.000480646
0.000650647
0.000506223
0.00055052
0.00067232
0.000885988
0.000582112
0.00063904
0.00077149
0.000999816
0.000560007
0.000624052
0.000747813
0.00094457
0.000582842
0.000634955
0.000745935
0.000929257
0.000557228
0.000592283
0.000681178
0.000797755
0.000590061
0.000634159
0.000738368
0.000820288
7.01379e-06
2.29035e-06
2.20619e-06
2.30437e-06
1.95303e-06
7.90078e-07
7.86416e-07
8.88415e-07
8.7953e-05
6.06672e-05
7.37856e-05
0.000138529
0.000182483
0.000182594
0.000223218
0.000306493
0.00025761
0.000277858
0.000340874
0.000453022
0.000324006
0.00035606
0.00043199
0.000563854
0.000310383
0.000352
0.000424311
0.000534326
0.000348326
0.000386566
0.000456857
0.000571111
0.000318515
0.000350865
0.000403339
0.000472965
0.000355946
0.000399541
0.000461702
0.000513898
6.2124e-06
2.11444e-06
2.02737e-06
2.09298e-06
1.80503e-06
5.91731e-07
5.68171e-07
6.20506e-07
2.23327e-05
2.84949e-07
2.78984e-07
2.17731e-05
8.36414e-05
7.88514e-05
9.54201e-05
0.000133671
0.0001259
0.000132967
0.000163609
0.000220669
0.000178231
0.000194131
0.000236328
0.000312178
0.000164859
0.00018933
0.00022919
0.000287165
0.000207248
0.000231255
0.000274558
0.000346012
0.000179816
0.000201973
0.000232177
0.000272808
0.000215336
0.000247607
0.000285102
0.000317677
1.21912e-06
3.31693e-07
4.25841e-07
5.76178e-07
1.3808e-06
4.91684e-07
4.82632e-07
5.32616e-07
4.84651e-07
1.75139e-07
1.69037e-07
1.9198e-07
3.49254e-05
2.95657e-05
3.47806e-05
4.9886e-05
5.76979e-05
5.86074e-05
7.22419e-05
9.99525e-05
9.69149e-05
0.000103717
0.000126556
0.000170206
8.1938e-05
9.54186e-05
0.000115943
0.000143621
0.000123295
0.000136813
0.000163158
0.000208513
9.68369e-05
0.000109825
0.000126234
0.000148356
0.000128972
0.00015008
0.000172947
0.000192431
1.07901e-05
2.82073e-06
2.3713e-06
2.15053e-06
9.58881e-07
3.36393e-07
3.35364e-07
4.10015e-07
4.00129e-07
1.42502e-07