/*--------------------------------*- C++ -*----------------------------------*\
| =========                 |                                                 |
| \\      /  F ield         | foam-extend: Open Source CFD                    |
|  \\    /   O peration     | Version:     4.0                                |
|   \\  /    A nd           | Web:         http://www.foam-extend.org         |
|    \\/     M anipulation  |                                                 |
\*---------------------------------------------------------------------------*/
FoamFile
{
    version     2.0;
    format      ascii;
    class       volVectorField;
    location    "3050";
    object      U;
}
// * * * * * * * * * * * * * * * * * * * * * * * * * * * * * * * * * * * * * //

dimensions      [0 1 -1 0 0 0 0];

internalField   nonuniform List<vector> 
34480
(
(209.006 2.16685 3.26215)
(209.326 1.19971 1.52481)
(209.483 0.413842 -0.272705)
(209.489 -0.210308 -2.17604)
(209.34 -0.705094 -4.32565)
(208.998 -1.06673 -6.89886)
(208.382 -1.26884 -10.2974)
(207.216 -1.18842 -14.8665)
(204.545 -0.590057 -22.7773)
(197.607 1.98009 -50.0421)
(209.939 3.08106 2.87488)
(210.198 2.25955 1.054)
(210.325 1.53438 -0.770453)
(210.298 0.899833 -2.66947)
(210.063 0.327858 -4.7632)
(209.56 -0.192614 -7.2614)
(208.753 -0.671662 -10.6256)
(207.46 -1.04631 -15.599)
(204.324 -1.14607 -24.4048)
(196.165 0.637007 -55.1002)
(210.628 2.71752 3.2899)
(210.862 1.83734 1.40632)
(210.956 1.06184 -0.498569)
(210.886 0.40744 -2.44283)
(210.59 -0.171017 -4.55753)
(210.063 -0.696752 -7.10234)
(209.311 -1.18618 -10.608)
(208.167 -1.55842 -16.1048)
(204.866 -1.63529 -25.7843)
(195.656 0.361671 -59.4547)
(210.635 3.26165 3.23991)
(210.87 2.42895 1.30076)
(210.98 1.68501 -0.636495)
(210.942 1.06065 -2.60827)
(210.708 0.511905 -4.75359)
(210.293 0.0147093 -7.36195)
(209.677 -0.450182 -10.9672)
(208.697 -0.790491 -16.8198)
(205.371 -0.819736 -27.1189)
(195.357 1.32587 -62.7272)
(210.794 2.72728 3.74626)
(211.059 1.82052 1.7687)
(211.206 1.02583 -0.247779)
(211.23 0.376448 -2.29456)
(211.088 -0.18868 -4.53645)
(210.809 -0.691493 -7.27536)
(210.341 -1.14343 -11.0425)
(209.544 -1.43927 -17.2756)
(206.317 -1.38321 -28.2387)
(195.66 0.926819 -65.3968)
(210.68 3.41708 3.52174)
(210.955 2.52637 1.54657)
(211.122 1.74778 -0.430941)
(211.181 1.11891 -2.4465)
(211.106 0.589511 -4.65805)
(210.943 0.134167 -7.39251)
(210.628 -0.258143 -11.1656)
(210.047 -0.482588 -17.5872)
(207.067 -0.320922 -29.0315)
(196.01 2.08755 -67.3687)
(210.761 2.58074 4.03778)
(211.077 1.59507 2.0617)
(211.273 0.742397 0.042065)
(211.37 0.0525142 -2.00522)
(211.354 -0.530513 -4.26798)
(211.288 -1.0236 -7.07487)
(211.114 -1.41146 -10.9458)
(210.749 -1.57074 -17.6129)
(208.099 -1.20993 -29.6316)
(196.748 1.49031 -68.9926)
(210.589 3.357 3.56671)
(210.909 2.35905 1.62277)
(211.084 1.52562 -0.317295)
(211.14 0.862746 -2.29875)
(211.083 0.33819 -4.47306)
(211 -0.0837067 -7.17438)
(210.871 -0.37813 -10.9066)
(210.663 -0.415217 -17.4916)
(208.421 0.250201 -29.6951)
(197.105 3.31537 -69.591)
(210.534 2.04082 4.11464)
(210.898 0.925632 2.22401)
(211.104 -0.0310363 0.308476)
(211.198 -0.845243 -1.64905)
(211.192 -1.54879 -3.84204)
(211.153 -2.14759 -6.58128)
(211.093 -2.56111 -10.4058)
(211.024 -2.61219 -17.1068)
(209.112 -1.55741 -29.679)
(197.68 2.45886 -69.545)
(209.569 2.78742 3.53088)
(209.843 1.57017 1.59849)
(209.79 0.616378 -0.31188)
(209.431 -0.169547 -2.27864)
(208.813 -0.775549 -4.43742)
(208.027 -1.21635 -7.07443)
(207.158 -1.40003 -10.6665)
(206.371 -1.10918 -16.8187)
(204.433 0.415543 -28.5361)
(194.247 5.28069 -66.5005)
(205.891 1.91222 3.00056)
(206.369 1.10968 1.5439)
(206.556 0.426581 -0.00997684)
(206.473 -0.117374 -1.61008)
(206.095 -0.546489 -3.31983)
(205.333 -0.861297 -5.1516)
(203.985 -1.0659 -7.15911)
(201.62 -1.17177 -9.31733)
(198.154 -1.25686 -11.245)
(193.579 -1.15902 -14.3934)
(207.19 2.86859 2.79791)
(207.621 2.16426 1.16179)
(207.793 1.51941 -0.49227)
(207.704 0.943896 -2.18912)
(207.292 0.416522 -3.99635)
(206.437 -0.068766 -5.97184)
(204.943 -0.527086 -8.20874)
(202.358 -0.993363 -10.9582)
(198.189 -1.5838 -14.0068)
(192.505 -1.82407 -20.5815)
(208.139 2.57762 3.30712)
(208.548 1.77155 1.54473)
(208.706 1.04488 -0.256784)
(208.606 0.422728 -2.09024)
(208.169 -0.133475 -4.02985)
(207.295 -0.636259 -6.15937)
(205.811 -1.11493 -8.66773)
(203.233 -1.58619 -12.0869)
(198.689 -2.15706 -16.3332)
(192.07 -2.07112 -26.7166)
(208.382 3.17801 3.30356)
(208.797 2.40348 1.45615)
(208.976 1.69445 -0.403418)
(208.918 1.08828 -2.29704)
(208.545 0.546457 -4.31008)
(207.773 0.0572769 -6.56894)
(206.401 -0.412378 -9.29946)
(203.916 -0.855364 -13.2587)
(199.143 -1.36351 -18.4766)
(191.71 -0.933518 -32.4541)
(208.736 2.66844 3.8384)
(209.178 1.80903 1.93579)
(209.396 1.04217 -0.0203696)
(209.403 0.408607 -2.00868)
(209.121 -0.146899 -4.14619)
(208.485 -0.63564 -6.58672)
(207.264 -1.09249 -9.57247)
(204.941 -1.48862 -14.063)
(200.089 -1.90225 -20.2309)
(191.949 -1.07296 -37.6931)
(208.771 3.3931 3.63432)
(209.228 2.54122 1.71995)
(209.472 1.7836 -0.206794)
(209.521 1.16373 -2.17561)
(209.313 0.634908 -4.29773)
(208.805 0.182713 -6.7731)
(207.75 -0.224107 -9.8435)
(205.648 -0.547999 -14.6623)
(200.884 -0.830109 -21.5476)
(192.218 0.364665 -42.21)
(208.977 2.56685 4.16009)
(209.469 1.61607 2.23758)
(209.744 0.786408 0.259116)
(209.839 0.114211 -1.74956)
(209.699 -0.450704 -3.93585)
(209.306 -0.919929 -6.51578)
(208.412 -1.30999 -9.74448)
(206.556 -1.56823 -14.9178)
(201.998 -1.65621 -22.5677)
(192.908 0.00108811 -46.245)
(208.891 3.37382 3.69577)
(209.392 2.40956 1.80353)
(209.656 1.59812 -0.0881991)
(209.725 0.950779 -2.02436)
(209.569 0.441181 -4.12039)
(209.197 0.0372381 -6.62283)
(208.398 -0.263974 -9.78133)
(206.762 -0.418408 -15.0053)
(202.533 -0.208124 -23.0527)
(193.316 1.83443 -49.2174)
(208.903 2.05541 4.24516)
(209.436 0.977347 2.402)
(209.728 0.0661217 0.526)
(209.834 -0.688953 -1.3777)
(209.735 -1.31844 -3.48069)
(209.437 -1.83477 -6.03048)
(208.759 -2.19007 -9.33541)
(207.35 -2.32164 -14.7937)
(203.46 -1.74188 -23.4886)
(193.992 1.00291 -51.498)
(207.981 2.86378 3.63696)
(208.458 1.69308 1.78959)
(208.575 0.7963 -0.034681)
(208.362 0.0677815 -1.90547)
(207.834 -0.474205 -3.92989)
(207.026 -0.855639 -6.35387)
(205.826 -1.0133 -9.46978)
(204.024 -0.832118 -14.5641)
(200.282 0.222238 -23.038)
(191.635 4.03739 -51.3446)
(203.517 1.42792 2.33437)
(204.02 0.833573 1.21629)
(204.201 0.302542 -0.0132743)
(204.097 -0.13174 -1.26342)
(203.697 -0.482346 -2.55463)
(202.95 -0.746699 -3.83245)
(201.764 -0.934577 -5.04907)
(199.988 -1.0715 -6.0548)
(197.434 -1.24287 -6.4985)
(194.217 -1.43223 -6.5169)
(204.912 2.41429 2.31325)
(205.407 1.87196 0.94613)
(205.587 1.34567 -0.448807)
(205.464 0.855025 -1.86579)
(205 0.389936 -3.33137)
(204.112 -0.0549444 -4.84816)
(202.638 -0.492929 -6.37975)
(200.31 -0.955649 -7.86299)
(196.687 -1.55449 -8.80245)
(191.847 -2.13656 -9.81071)
(205.947 2.21206 2.94809)
(206.447 1.52886 1.39543)
(206.627 0.890654 -0.208769)
(206.502 0.327198 -1.83809)
(206.014 -0.193556 -3.53885)
(205.061 -0.681528 -5.32777)
(203.445 -1.16148 -7.21466)
(200.801 -1.66357 -9.29203)
(196.299 -2.33214 -11.0028)
(189.857 -2.91116 -13.584)
(206.344 2.89696 2.99422)
(206.866 2.22033 1.3181)
(207.072 1.57957 -0.380875)
(206.982 1.01447 -2.11237)
(206.531 0.491552 -3.94035)
(205.615 0.00105439 -5.92309)
(203.983 -0.488913 -8.10652)
(201.17 -0.995783 -10.7406)
(195.931 -1.68091 -13.2006)
(187.995 -2.16622 -17.5586)
(206.846 2.42643 3.56884)
(207.4 1.64998 1.80548)
(207.643 0.940747 -0.0195656)
(207.609 0.340546 -1.87744)
(207.228 -0.20109 -3.86953)
(206.401 -0.692657 -6.08635)
(204.828 -1.16964 -8.60264)
(201.97 -1.63807 -11.8317)
(196.184 -2.2861 -15.1301)
(186.926 -2.57768 -21.5717)
(207.012 3.20019 3.38977)
(207.585 2.41739 1.59388)
(207.855 1.70782 -0.222486)
(207.863 1.11492 -2.08444)
(207.545 0.59412 -4.0923)
(206.815 0.13309 -6.38756)
(205.342 -0.303616 -9.06306)
(202.542 -0.715556 -12.7147)
(196.409 -1.2766 -16.715)
(186.061 -1.34 -25.333)
(207.33 2.39049 3.93883)
(207.935 1.50288 2.11668)
(208.234 0.720185 0.231295)
(208.288 0.0785667 -1.68947)
(208.032 -0.470387 -3.78536)
(207.402 -0.934983 -6.22109)
(206.047 -1.33766 -9.12172)
(203.367 -1.66923 -13.2321)
(197.06 -2.06866 -18.0275)
(185.783 -1.79922 -28.9562)
(207.337 3.23553 3.47887)
(207.95 2.33244 1.68355)
(208.243 1.56579 -0.117608)
(208.28 0.94862 -1.97012)
(208.017 0.454339 -3.98472)
(207.414 0.0566665 -6.36734)
(206.145 -0.257227 -9.26059)
(203.617 -0.487873 -13.5544)
(197.326 -0.620566 -18.8722)
(185.387 -0.0696716 -31.8725)
(207.429 1.90357 4.0328)
(208.061 0.887434 2.27502)
(208.376 0.0349022 0.472701)
(208.441 -0.66069 -1.3616)
(208.22 -1.23124 -3.38785)
(207.68 -1.68699 -5.81521)
(206.521 -1.99264 -8.87653)
(204.188 -2.1267 -13.515)
(198.029 -1.86074 -19.6421)
(185.306 -0.799297 -34.2637)
(206.573 2.76958 3.39227)
(207.153 1.67667 1.66375)
(207.338 0.850637 -0.0526518)
(207.166 0.187343 -1.82458)
(206.629 -0.293665 -3.74855)
(205.717 -0.615382 -6.03825)
(204.201 -0.726516 -8.92243)
(201.631 -0.547163 -13.3058)
(195.609 0.217591 -19.5469)
(182.828 2.30022 -34.6944)
(201.781 0.949116 1.70179)
(202.218 0.547713 0.911411)
(202.369 0.165646 0.00790019)
(202.27 -0.15786 -0.896417)
(201.922 -0.428582 -1.80008)
(201.307 -0.641158 -2.62149)
(200.395 -0.807813 -3.29566)
(199.161 -0.952059 -3.68718)
(197.602 -1.12929 -3.58049)
(195.871 -1.36487 -2.75287)
(203.103 1.90749 1.7914)
(203.57 1.53202 0.718127)
(203.733 1.13485 -0.387723)
(203.602 0.741826 -1.49712)
(203.154 0.354144 -2.6017)
(202.344 -0.0309807 -3.67095)
(201.095 -0.424206 -4.62883)
(199.303 -0.847997 -5.34701)
(196.838 -1.37055 -5.40303)
(194.04 -1.93788 -4.6197)
(204.092 1.7599 2.50355)
(204.602 1.22002 1.20607)
(204.778 0.690204 -0.150835)
(204.636 0.204644 -1.51801)
(204.136 -0.26013 -2.91217)
(203.208 -0.712443 -4.31343)
(201.717 -1.17171 -5.65532)
(199.468 -1.66422 -6.84636)
(196.113 -2.29566 -7.29998)
(192.034 -2.9915 -6.92402)
(204.551 2.52658 2.58712)
(205.108 1.97218 1.13178)
(205.313 1.42081 -0.354578)
(205.191 0.916121 -1.8612)
(204.69 0.43289 -3.42373)
(203.723 -0.0381791 -5.05639)
(202.095 -0.526164 -6.71337)
(199.508 -1.05351 -8.37937)
(195.292 -1.75933 -9.29351)
(189.827 -2.52566 -9.54029)
(205.137 2.101 3.20277)
(205.738 1.43199 1.62536)
(205.978 0.800238 -0.0199734)
(205.897 0.249936 -1.68743)
(205.432 -0.261433 -3.45168)
(204.489 -0.74181 -5.35628)
(202.811 -1.22415 -7.38188)
(200.008 -1.72773 -9.61126)
(195.04 -2.44203 -11.1402)
(188.235 -3.18121 -12.3679)
(205.394 2.92936 3.05271)
(206.023 2.2393 1.41839)
(206.29 1.59624 -0.243829)
(206.243 1.04566 -1.94383)
(205.817 0.548769 -3.75866)
(204.923 0.093082 -5.7801)
(203.254 -0.35909 -8.01117)
(200.343 -0.826348 -10.6685)
(194.77 -1.5068 -12.7413)
(186.758 -2.1665 -15.1349)
(205.797 2.14606 3.63089)
(206.458 1.34319 1.94758)
(206.753 0.623358 0.194419)
(206.746 0.0242313 -1.58899)
(206.368 -0.498199 -3.52107)
(205.538 -0.951726 -5.71768)
(203.916 -1.36288 -8.22172)
(200.976 -1.74468 -11.3675)
(194.945 -2.30045 -14.1235)
(185.843 -2.77402 -17.9493)
(205.884 3.04182 3.18187)
(206.553 2.21934 1.51796)
(206.846 1.51089 -0.159339)
(206.828 0.933844 -1.88665)
(206.444 0.463295 -3.75591)
(205.631 0.076994 -5.92617)
(204.048 -0.24701 -8.4676)
(201.147 -0.535988 -11.8565)
(194.857 -0.880729 -15.1101)
(184.869 -1.19392 -20.3181)
(206.044 1.7084 3.76452)
(206.724 0.770867 2.12356)
(207.034 -0.0164549 0.423875)
(207.039 -0.652882 -1.30799)
(206.689 -1.16974 -3.21031)
(205.919 -1.57419 -5.43811)
(204.393 -1.84576 -8.14337)
(201.582 -1.99543 -11.8892)
(195.221 -1.94755 -15.9862)
(184.257 -1.89923 -22.3805)
(205.256 2.64802 3.10259)
(205.889 1.6452 1.51469)
(206.107 0.893048 -0.0759247)
(205.943 0.293624 -1.72675)
(205.373 -0.131746 -3.51646)
(204.349 -0.403141 -5.61281)
(202.583 -0.481759 -8.16709)
(199.582 -0.316639 -11.7257)
(193.24 0.228205 -16.0578)
(181.785 1.20164 -22.863)
(200.571 0.551123 1.19394)
(200.913 0.29492 0.666107)
(201.028 0.0340591 0.0357589)
(200.953 -0.195278 -0.58309)
(200.694 -0.396652 -1.18743)
(200.256 -0.562393 -1.69751)
(199.643 -0.702061 -2.06662)
(198.881 -0.830794 -2.20479)
(198.016 -0.975072 -2.02032)
(197.164 -1.14158 -1.42912)
(201.727 1.43452 1.31136)
(202.121 1.20003 0.510248)
(202.258 0.920748 -0.321244)
(202.144 0.62218 -1.14562)
(201.771 0.31353 -1.93592)
(201.123 -0.00394845 -2.64897)
(200.178 -0.33477 -3.21066)
(198.934 -0.688739 -3.5126)
(197.411 -1.09411 -3.32757)
(195.914 -1.51127 -2.51764)
(202.577 1.29271 2.05043)
(203.048 0.890615 1.01564)
(203.209 0.47081 -0.0832999)
(203.076 0.0689962 -1.18039)
(202.623 -0.329599 -2.26759)
(201.814 -0.729614 -3.30342)
(200.583 -1.14427 -4.20336)
(198.865 -1.59106 -4.83741)
(196.582 -2.12526 -4.81326)
(194.193 -2.6942 -3.92696)
(203.017 2.11734 2.14837)
(203.559 1.69109 0.935482)
(203.755 1.23756 -0.315484)
(203.626 0.803257 -1.5742)
(203.135 0.372906 -2.8471)
(202.225 -0.0600206 -4.11447)
(200.775 -0.519658 -5.29415)
(198.642 -1.02521 -6.27061)
(195.552 -1.66461 -6.46641)
(192.083 -2.36903 -5.60752)
(203.616 1.72875 2.79424)
(204.221 1.17895 1.43094)
(204.453 0.635779 -0.00657093)
(204.349 0.145936 -1.45388)
(203.858 -0.32287 -2.95357)
(202.908 -0.776605 -4.50654)
(201.317 -1.24378 -6.04465)
(198.86 -1.74673 -7.49225)
(194.996 -2.42631 -8.08612)
(190.379 -3.19381 -7.53434)
(203.913 2.60713 2.66958)
(204.561 2.02454 1.22687)
(204.822 1.46014 -0.251863)
(204.742 0.962253 -1.75774)
(204.264 0.500795 -3.33669)
(203.308 0.0646028 -5.02976)
(201.637 -0.383711 -6.78409)
(198.952 -0.87043 -8.60572)
(194.393 -1.55924 -9.55977)
(188.652 -2.35305 -9.45945)
(204.362 1.85338 3.27561)
(205.05 1.15109 1.76109)
(205.338 0.505807 0.169066)
(205.29 -0.0419405 -1.44485)
(204.84 -0.529037 -3.16834)
(203.907 -0.962438 -5.06306)
(202.205 -1.37095 -7.11184)
(199.37 -1.77957 -9.39676)
(194.214 -2.37968 -10.8781)
(187.39 -3.09954 -11.5021)
(204.504 2.80595 2.83929)
(205.204 2.07976 1.3339)
(205.495 1.44067 -0.193552)
(205.439 0.912173 -1.76646)
(204.98 0.473526 -3.44903)
(204.044 0.106128 -5.34441)
(202.327 -0.2186 -7.4584)
(199.42 -0.543153 -9.9907)
(193.839 -0.991218 -11.8663)
(186.055 -1.65653 -13.2454)
(204.717 1.47464 3.45728)
(205.425 0.63049 1.95861)
(205.729 -0.0843254 0.3864)
(205.692 -0.659601 -1.21512)
(205.257 -1.12418 -2.95751)
(204.348 -1.48265 -4.93718)
(202.645 -1.72717 -7.22515)
(199.715 -1.89029 -10.0745)
(193.889 -1.98183 -12.6837)
(185.057 -2.39471 -14.8185)
(203.991 2.50146 2.77471)
(204.656 1.59933 1.34467)
(204.897 0.925128 -0.103768)
(204.741 0.389857 -1.61327)
(204.154 0.0174477 -3.24031)
(203.069 -0.209341 -5.10204)
(201.2 -0.264033 -7.2727)
(198.102 -0.118998 -10.0005)
(192.174 0.260005 -12.811)
(182.634 0.640324 -15.1308)
(199.739 0.251689 0.824879)
(199.993 0.0931345 0.488407)
(200.075 -0.0795451 0.0636004)
(200.023 -0.236485 -0.342713)
(199.848 -0.382072 -0.735395)
(199.56 -0.507318 -1.0465)
(199.175 -0.618469 -1.25087)
(198.724 -0.723 -1.29412)
(198.247 -0.831639 -1.14383)
(197.791 -0.94319 -0.777497)
(200.717 1.04045 0.910864)
(201.019 0.911084 0.336729)
(201.126 0.72823 -0.260153)
(201.038 0.512484 -0.845171)
(200.755 0.277257 -1.38648)
(200.276 0.0267744 -1.84332)
(199.612 -0.237715 -2.15828)
(198.794 -0.51678 -2.25868)
(197.885 -0.815343 -2.03778)
(197.078 -1.10364 -1.43094)
(201.39 0.861576 1.63603)
(201.788 0.575042 0.842237)
(201.926 0.254819 -0.015275)
(201.813 -0.0660484 -0.86378)
(201.436 -0.395741 -1.68088)
(200.784 -0.734748 -2.41796)
(199.839 -1.08965 -2.99864)
(198.61 -1.46913 -3.31459)
(197.136 -1.89524 -3.14387)
(195.749 -2.32525 -2.34647)
(201.758 1.71206 1.7204)
(202.246 1.40389 0.746227)
(202.423 1.04626 -0.26925)
(202.301 0.685483 -1.28317)
(201.86 0.315188 -2.28034)
(201.068 -0.0669872 -3.22109)
(199.871 -0.477707 -4.01849)
(198.23 -0.929459 -4.5453)
(196.096 -1.46849 -4.43725)
(193.955 -2.0407 -3.43905)
(202.316 1.34314 2.3775)
(202.884 0.910907 1.23665)
(203.097 0.459466 0.0179796)
(202.986 0.0360137 -1.20019)
(202.514 -0.381504 -2.43267)
(201.634 -0.795713 -3.64945)
(200.239 -1.22835 -4.76371)
(198.235 -1.69894 -5.64697)
(195.416 -2.29713 -5.7744)
(192.408 -2.96203 -4.76565)
(202.61 2.25827 2.26784)
(203.236 1.78729 1.03187)
(203.482 1.30764 -0.246575)
(203.383 0.869459 -1.54192)
(202.897 0.452087 -2.87082)
(201.964 0.0473252 -4.23245)
(200.423 -0.377629 -5.54366)
(198.122 -0.849219 -6.712)
(194.641 -1.48311 -7.0464)
(190.724 -2.22636 -6.09534)
(203.07 1.53071 2.89455)
(203.747 0.936758 1.56774)
(204.02 0.373372 0.156804)
(203.945 -0.116316 -1.26716)
(203.464 -0.560799 -2.76059)
(202.511 -0.965118 -4.33686)
(200.874 -1.35695 -5.93766)
(198.341 -1.76595 -7.50453)
(194.246 -2.34316 -8.22477)
(189.396 -3.07467 -7.55855)
(203.24 2.54059 2.46827)
(203.937 1.92022 1.14019)
(204.218 1.35843 -0.217928)
(204.135 0.885176 -1.61531)
(203.639 0.485198 -3.08705)
(202.659 0.144 -4.68431)
(200.957 -0.168894 -6.36136)
(198.267 -0.501237 -8.14045)
(193.685 -0.97333 -9.13445)
(187.954 -1.71693 -8.79334)
(203.488 1.21048 3.12312)
(204.196 0.469751 1.78554)
(204.487 -0.167026 0.360795)
(204.418 -0.67945 -1.08806)
(203.935 -1.09255 -2.64478)
(202.963 -1.40836 -4.35252)
(201.236 -1.62842 -6.21898)
(198.442 -1.79478 -8.27892)
(193.523 -1.95811 -9.8322)
(186.815 -2.51403 -9.91441)
(202.813 2.33617 2.41847)
(203.482 1.54218 1.15875)
(203.733 0.949059 -0.134028)
(203.582 0.478214 -1.48548)
(202.994 0.15647 -2.92838)
(201.899 -0.0308396 -4.53214)
(200.048 -0.0680782 -6.30676)
(197.093 0.0555963 -8.29696)
(191.995 0.313709 -9.98369)
(184.568 0.412593 -10.0824)
(199.165 0.0421321 0.576357)
(199.35 -0.0565696 0.369757)
(199.406 -0.170411 0.0876294)
(199.374 -0.275799 -0.172446)
(199.263 -0.379256 -0.425537)
(199.085 -0.47139 -0.616464)
(198.855 -0.556055 -0.736408)
(198.596 -0.635519 -0.752734)
(198.335 -0.712791 -0.658274)
(198.074 -0.78402 -0.451625)
(199.988 0.74071 0.599024)
(200.205 0.682389 0.20023)
(200.283 0.57208 -0.211217)
(200.22 0.42359 -0.609823)
(200.019 0.251729 -0.966818)
(199.689 0.0621848 -1.25029)
(199.247 -0.139702 -1.42133)
(198.73 -0.34957 -1.43692)
(198.196 -0.562287 -1.25227)
(197.759 -0.754266 -0.850816)
(200.485 0.495522 1.28423)
(200.799 0.296426 0.694332)
(200.909 0.0590791 0.0457462)
(200.82 -0.189333 -0.591076)
(200.528 -0.453063 -1.18891)
(200.034 -0.729382 -1.7022)
(199.348 -1.01955 -2.07147)
(198.506 -1.32478 -2.2226)
(197.579 -1.64854 -2.04286)
(196.775 -1.9576 -1.47323)
(200.757 1.34208 1.33066)
(201.169 1.13256 0.573953)
(201.319 0.861554 -0.222735)
(201.215 0.57186 -1.01234)
(200.845 0.263706 -1.76785)
(200.199 -0.0613163 -2.44286)
(199.266 -0.411787 -2.96163)
(198.062 -0.792669 -3.22039)
(196.637 -1.22216 -3.01373)
(195.324 -1.65797 -2.19301)
(201.238 0.972689 1.97819)
(201.741 0.646443 1.05178)
(201.928 0.283064 0.0480884)
(201.824 -0.0725513 -0.948048)
(201.401 -0.433706 -1.93193)
(200.638 -0.799312 -2.85721)
(199.486 -1.18347 -3.63817)
(197.931 -1.59947 -4.14865)
(195.952 -2.09689 -4.06604)
(194.019 -2.62781 -3.11849)
(201.497 1.90627 1.86994)
(202.07 1.54175 0.84199)
(202.292 1.14715 -0.231723)
(202.189 0.772177 -1.31392)
(201.731 0.404864 -2.39861)
(200.88 0.0407102 -3.4575)
(199.546 -0.345493 -4.39854)
(197.675 -0.77507 -5.09976)
(195.127 -1.31992 -5.10525)
(192.504 -1.94569 -4.03103)
(201.938 1.19696 2.50641)
(202.573 0.711097 1.3748)
(202.824 0.232235 0.155128)
(202.735 -0.195338 -1.06965)
(202.262 -0.591729 -2.32911)
(201.356 -0.959299 -3.60164)
(199.882 -1.32165 -4.80837)
(197.74 -1.70679 -5.82717)
(194.631 -2.22172 -6.09922)
(191.266 -2.86457 -5.07339)
(202.11 2.25996 2.08454)
(202.774 1.74816 0.943384)
(203.037 1.26776 -0.233649)
(202.94 0.854133 -1.44322)
(202.442 0.497867 -2.69431)
(201.488 0.188606 -3.9975)
(199.91 -0.102017 -5.27599)
(197.561 -0.417636 -6.45331)
(193.978 -0.857834 -6.88314)
(189.88 -1.53912 -5.9233)
(202.378 0.926454 2.77515)
(203.058 0.293489 1.60957)
(203.331 -0.262305 0.34588)
(203.243 -0.711175 -0.935482)
(202.747 -1.07367 -2.29248)
(201.781 -1.34941 -3.72572)
(200.147 -1.54597 -5.20101)
(197.646 -1.70589 -6.629)
(193.705 -1.88954 -7.46374)
(188.791 -2.41859 -6.70007)
(201.741 2.16027 2.04526)
(202.387 1.47794 0.962287)
(202.636 0.967422 -0.165708)
(202.492 0.560752 -1.34766)
(201.924 0.287417 -2.59386)
(200.867 0.134968 -3.93394)
(199.132 0.110292 -5.33125)
(196.475 0.213103 -6.71451)
(192.319 0.384837 -7.61551)
(186.787 0.372406 -6.78109)
(198.759 -0.0985009 0.417775)
(198.896 -0.162724 0.295556)
(198.934 -0.239685 0.107029)
(198.915 -0.310319 -0.0578449)
(198.848 -0.383474 -0.222986)
(198.743 -0.449996 -0.343346)
(198.609 -0.512445 -0.420361)
(198.463 -0.570403 -0.432977)
(198.317 -0.62368 -0.383266)
(198.15 -0.668238 -0.273328)
(199.463 0.530701 0.367254)
(199.611 0.516941 0.0967101)
(199.665 0.457863 -0.176584)
(199.623 0.360809 -0.43799)
(199.489 0.240388 -0.66491)
(199.271 0.102599 -0.835113)
(198.989 -0.045356 -0.924325)
(198.671 -0.197153 -0.908709)
(198.359 -0.344791 -0.771815)
(198.117 -0.470625 -0.513377)
(199.805 0.204894 1.00205)
(200.038 0.0667167 0.574556)
(200.122 -0.106027 0.0960966)
(200.057 -0.293452 -0.37078)
(199.843 -0.49811 -0.800165)
(199.488 -0.715643 -1.15462)
(199.011 -0.943933 -1.39157)
(198.452 -1.17945 -1.46532)
(197.876 -1.41711 -1.32178)
(197.406 -1.63212 -0.946309)
(199.982 1.02644 0.994566)
(200.311 0.892916 0.424439)
(200.432 0.695111 -0.180676)
(200.349 0.470005 -0.776288)
(200.056 0.221821 -1.33176)
(199.557 -0.0450504 -1.8032)
(198.861 -0.332441 -2.13148)
(198.01 -0.639456 -2.24268)
(197.075 -0.967789 -2.02958)
(196.271 -1.28564 -1.4235)
(200.369 0.639164 1.61502)
(200.791 0.401526 0.883271)
(200.949 0.117548 0.0789837)
(200.858 -0.172792 -0.713866)
(200.502 -0.476225 -1.47949)
(199.876 -0.788495 -2.16742)
(198.969 -1.11701 -2.70374)
(197.809 -1.46802 -2.98659)
(196.453 -1.86399 -2.83143)
(195.218 -2.26678 -2.08454)
(200.573 1.57168 1.49515)
(201.072 1.3016 0.664706)
(201.265 0.98724 -0.211052)
(201.168 0.675476 -1.08916)
(200.763 0.361277 -1.94901)
(200.029 0.0436776 -2.74881)
(198.93 -0.294045 -3.40237)
(197.472 -0.666035 -3.79556)
(195.657 -1.11001 -3.64697)
(193.921 -1.60336 -2.7122)
(200.977 0.870663 2.12903)
(201.546 0.485726 1.18915)
(201.769 0.0894607 0.161013)
(201.677 -0.274851 -0.865977)
(201.24 -0.619879 -1.90117)
(200.428 -0.945115 -2.90243)
(199.168 -1.2687 -3.78746)
(197.434 -1.61285 -4.42103)
(195.149 -2.04658 -4.44745)
(192.849 -2.56756 -3.45688)
(201.127 1.97915 1.70436)
(201.734 1.57217 0.750237)
(201.972 1.17317 -0.242402)
(201.87 0.820973 -1.26113)
(201.401 0.511525 -2.29432)
(200.524 0.238293 -3.32552)
(199.138 -0.0225358 -4.26586)
(197.18 -0.305829 -5.00177)
(194.477 -0.683611 -5.08972)
(191.604 -1.24165 -4.02933)
(201.403 0.634423 2.42787)
(202.032 0.107767 1.43666)
(202.28 -0.367113 0.340276)
(202.184 -0.75315 -0.767086)
(201.705 -1.06636 -1.92179)
(200.799 -1.30417 -3.09464)
(199.335 -1.47734 -4.22895)
(197.207 -1.62394 -5.18396)
(194.167 -1.79831 -5.56507)
(190.666 -2.23199 -4.57254)
(200.79 1.98328 1.6678)
(201.391 1.41181 0.761357)
(201.627 0.983323 -0.198145)
(201.493 0.639595 -1.20546)
(200.963 0.412113 -2.2518)
(199.986 0.29028 -3.33739)
(198.433 0.274578 -4.39692)
(196.157 0.358302 -5.31039)
(192.902 0.468957 -5.695)
(188.926 0.424343 -4.59117)
(198.46 -0.191759 0.321277)
(198.567 -0.236984 0.252214)
(198.592 -0.291962 0.122489)
(198.582 -0.340128 0.0170245)
(198.543 -0.392367 -0.0945616)
(198.483 -0.440071 -0.174413)
(198.407 -0.485286 -0.229687)
(198.325 -0.526531 -0.245343)
(198.241 -0.562579 -0.226319)
(198.122 -0.590005 -0.173602)
(199.082 0.396301 0.199424)
(199.179 0.408974 0.0190414)
(199.215 0.38439 -0.155802)
(199.189 0.324873 -0.320392)
(199.102 0.244156 -0.458594)
(198.965 0.147908 -0.556189)
(198.789 0.0433917 -0.598977)
(198.598 -0.0628709 -0.574078)
(198.416 -0.163147 -0.477324)
(198.28 -0.244473 -0.311625)
(199.297 -0.0129459 0.785434)
(199.463 -0.111522 0.481371)
(199.523 -0.236468 0.134749)
(199.478 -0.375124 -0.202078)
(199.328 -0.529748 -0.507351)
(199.083 -0.695855 -0.752841)
(198.764 -0.86959 -0.909794)
(198.402 -1.04537 -0.952067)
(198.047 -1.21543 -0.854311)
(197.772 -1.36179 -0.621802)
(199.394 0.772722 0.717083)
(199.644 0.693821 0.299586)
(199.738 0.554538 -0.145918)
(199.675 0.3851 -0.581618)
(199.454 0.191548 -0.978613)
(199.085 -0.0201866 -1.30019)
(198.587 -0.247586 -1.50354)
(198.001 -0.486233 -1.54014)
(197.395 -0.729942 -1.35772)
(196.902 -0.955073 -0.931545)
(199.685 0.356108 1.29887)
(200.023 0.187961 0.735199)
(200.15 -0.0281382 0.106958)
(200.076 -0.258866 -0.508553)
(199.791 -0.506563 -1.09112)
(199.301 -0.7649 -1.59404)
(198.615 -1.03642 -1.95892)
(197.777 -1.32147 -2.11244)
(196.862 -1.62674 -1.9542)
(196.077 -1.92105 -1.41125)
(199.825 1.26979 1.15768)
(200.241 1.07823 0.505681)
(200.402 0.835626 -0.187854)
(200.318 0.583893 -0.879832)
(199.977 0.32292 -1.54232)
(199.375 0.0544923 -2.13057)
(198.507 -0.230281 -2.57195)
(197.408 -0.539159 -2.77556)
(196.142 -0.886705 -2.57469)
(195.003 -1.25723 -1.84128)
(200.182 0.56774 1.77725)
(200.672 0.27171 1.01654)
(200.862 -0.0477068 0.171317)
(200.777 -0.350465 -0.668491)
(200.394 -0.643271 -1.49885)
(199.702 -0.923066 -2.2693)
(198.671 -1.20266 -2.90499)
(197.318 -1.49699 -3.28526)
(195.677 -1.84701 -3.1966)
(194.125 -2.2454 -2.37603)
(200.294 1.7122 1.3426)
(200.826 1.40097 0.567046)
(201.034 1.07964 -0.246114)
(200.937 0.788032 -1.07971)
(200.516 0.526434 -1.90799)
(199.749 0.291538 -2.69978)
(198.585 0.0652415 -3.36782)
(197.018 -0.178083 -3.80029)
(195.032 -0.485344 -3.70297)
(193.052 -0.910363 -2.75645)
(200.569 0.346109 2.09531)
(201.13 -0.0808716 1.27276)
(201.348 -0.477962 0.342413)
(201.253 -0.803556 -0.592755)
(200.815 -1.06952 -1.55273)
(200.007 -1.27151 -2.49086)
(198.754 -1.42127 -3.34289)
(197.018 -1.5501 -3.96244)
(194.741 -1.70149 -4.08202)
(192.304 -2.03016 -3.14716)
(199.969 1.81517 1.29872)
(200.506 1.34963 0.562049)
(200.721 1.00025 -0.231131)
(200.6 0.716966 -1.06539)
(200.123 0.532282 -1.91751)
(199.258 0.437126 -2.76897)
(197.924 0.42779 -3.54129)
(196.053 0.494874 -4.10949)
(193.583 0.562945 -4.17924)
(190.809 0.519247 -3.11544)
(198.232 -0.255804 0.265842)
(198.319 -0.290743 0.22954)
(198.337 -0.333197 0.135469)
(198.332 -0.367329 0.0658001)
(198.31 -0.405653 -0.0140066)
(198.276 -0.440139 -0.0711383)
(198.233 -0.472752 -0.115479)
(198.187 -0.501784 -0.135259)
(198.137 -0.525875 -0.13599)
(198.043 -0.542318 -0.116915)
(198.8 0.320922 0.0782184)
(198.862 0.348761 -0.0403)
(198.886 0.346667 -0.147104)
(198.87 0.313617 -0.245248)
(198.816 0.262377 -0.324156)
(198.731 0.197925 -0.37533)
(198.625 0.126631 -0.390985)
(198.511 0.0543371 -0.363989)
(198.405 -0.0126051 -0.295271)
(198.326 -0.0646513 -0.185938)
(198.916 -0.167989 0.624925)
(199.028 -0.242241 0.411074)
(199.07 -0.333259 0.16249)
(199.04 -0.434578 -0.0787438)
(198.939 -0.548837 -0.295607)
(198.777 -0.672408 -0.468023)
(198.569 -0.80084 -0.577343)
(198.34 -0.928363 -0.609502)
(198.123 -1.04747 -0.552199)
(197.96 -1.14553 -0.417671)
(198.954 0.579837 0.495814)
(199.137 0.537822 0.198412)
(199.207 0.443182 -0.119646)
(199.161 0.319581 -0.428799)
(199.002 0.173358 -0.704641)
(198.739 0.0109855 -0.918877)
(198.394 -0.163032 -1.04216)
(198 -0.342753 -1.04428)
(197.611 -0.519505 -0.902055)
(197.308 -0.676246 -0.609707)
(199.156 0.129432 1.03353)
(199.416 0.0128562 0.608901)
(199.515 -0.147804 0.129487)
(199.457 -0.326548 -0.337736)
(199.239 -0.523133 -0.772493)
(198.87 -0.730472 -1.13574)
(198.37 -0.947864 -1.38416)
(197.781 -1.1719 -1.46911)
(197.172 -1.40165 -1.33823)
(196.674 -1.61139 -0.963668)
(199.235 1.00975 0.866135)
(199.568 0.879692 0.368469)
(199.697 0.698191 -0.164654)
(199.627 0.500844 -0.694164)
(199.353 0.29054 -1.19043)
(198.88 0.0708783 -1.61234)
(198.22 -0.160922 -1.90292)
(197.417 -0.408015 -1.99706)
(196.547 -0.671585 -1.79857)
(195.805 -0.9407 -1.25425)
(199.543 0.300164 1.46164)
(199.948 0.0784833 0.86109)
(200.106 -0.17255 0.183109)
(200.031 -0.41792 -0.487083)
(199.711 -0.660004 -1.13801)
(199.147 -0.893839 -1.71956)
(198.335 -1.12798 -2.16947)
(197.314 -1.37038 -2.3923)
(196.157 -1.64415 -2.2674)
(195.12 -1.93653 -1.63859)
(199.605 1.47062 1.01132)
(200.053 1.24247 0.399044)
(200.228 0.992038 -0.246684)
(200.141 0.757751 -0.908244)
(199.781 0.542982 -1.55198)
(199.139 0.346861 -2.14158)
(198.2 0.157242 -2.59941)
(196.989 -0.0438261 -2.83415)
(195.562 -0.284675 -2.65422)
(194.219 -0.594797 -1.88853)
(199.876 0.0717148 1.78968)
(200.359 -0.266196 1.12322)
(200.545 -0.591336 0.350732)
(200.458 -0.860557 -0.421497)
(200.075 -1.08225 -1.20235)
(199.386 -1.25078 -1.93802)
(198.356 -1.37756 -2.56668)
(196.99 -1.48632 -2.96)
(195.327 -1.60996 -2.94808)
(193.664 -1.84764 -2.17773)
(199.279 1.66538 0.949167)
(199.741 1.29739 0.369857)
(199.929 1.02194 -0.26485)
(199.823 0.795286 -0.933943)
(199.41 0.649784 -1.60485)
(198.672 0.577639 -2.24967)
(197.57 0.572806 -2.78836)
(196.088 0.625861 -3.1146)
(194.265 0.664535 -3.01089)
(192.377 0.633191 -2.10692)
(198.051 -0.304379 0.23755)
(198.126 -0.333756 0.220995)
(198.139 -0.369451 0.147726)
(198.137 -0.39515 0.0987492)
(198.125 -0.424543 0.0372719)
(198.106 -0.450112 -0.00769669)
(198.081 -0.473914 -0.0468944)
(198.056 -0.49436 -0.0705256)
(198.024 -0.51029 -0.0839964)
(197.945 -0.519626 -0.0851087)
(198.587 0.289416 -0.0112694)
(198.626 0.326104 -0.0878335)
(198.642 0.338385 -0.148355)
(198.632 0.323622 -0.201467)
(198.6 0.293647 -0.240953)
(198.549 0.252588 -0.261999)
(198.485 0.205675 -0.260763)
(198.418 0.157756 -0.23298)
(198.355 0.113643 -0.18174)
(198.309 0.0805408 -0.105151)
(198.625 -0.273122 0.509453)
(198.699 -0.333073 0.359345)
(198.726 -0.400731 0.181146)
(198.707 -0.474531 0.00780052)
(198.641 -0.557711 -0.147801)
(198.536 -0.647626 -0.272106)
(198.404 -0.740186 -0.353212)
(198.262 -0.830355 -0.384052)
(198.131 -0.911985 -0.357698)
(198.035 -0.976484 -0.288268)
(198.63 0.441139 0.324004)
(198.758 0.422562 0.11819)
(198.808 0.360647 -0.101761)
(198.777 0.273326 -0.314202)
(198.666 0.166396 -0.500174)
(198.486 0.0460121 -0.638974)
(198.252 -0.0829224 -0.71138)
(197.993 -0.214337 -0.699086)
(197.746 -0.339822 -0.593724)
(197.559 -0.44761 -0.395095)
(198.754 -0.0410536 0.817311)