/*--------------------------------*- C++ -*----------------------------------*\
| =========                 |                                                 |
| \\      /  F ield         | foam-extend: Open Source CFD                    |
|  \\    /   O peration     | Version:     4.0                                |
|   \\  /    A nd           | Web:         http://www.foam-extend.org         |
|    \\/     M anipulation  |                                                 |
\*---------------------------------------------------------------------------*/
FoamFile
{
    version     2.0;
    format      ascii;
    class       volScalarField;
    location    "2650";
    object      k;
}
// * * * * * * * * * * * * * * * * * * * * * * * * * * * * * * * * * * * * * //

dimensions      [0 2 -2 0 0 0 0];

internalField   nonuniform List<scalar> 
34480
(
8.76721
8.7648
8.76467
8.76645
8.77026
8.77638
8.79132
8.85472
9.07726
9.68613
9.27993
8.6682
8.5755
8.85514
9.45425
10.3411
11.9397
15.8518
28.7375
67.0237
15.0401
13.5707
13.1246
13.2728
13.8433
14.8761
17.2096
22.9052
41.6354
101.406
14.4916
12.9641
12.5139
12.7082
13.4187
14.8332
18.0053
25.4063
49.2499
127.781
13.4285
12.0127
11.6617
11.9287
12.7802
14.4903
18.2598
26.956
55.27
151.575
12.2197
10.9462
10.6337
10.9156
11.8072
13.7006
17.9422
27.9025
61.0605
176.657
11.3267
10.2065
9.95191
10.2269
11.122
13.0877
17.5896
28.4199
65.5181
198.015
9.83981
9.00352
8.79867
9.0144
9.72696
11.3972
15.4914
26.1247
64.5441
205.594
6.88243
6.61387
6.56522
6.67524
7.00468
7.72929
9.72987
16.2735
43.4114
149.668
9.23849
9.23874
9.24461
9.25751
9.27562
9.29723
9.32324
9.36181
9.43284
9.506
8.67858
8.67557
8.675
8.67677
8.68154
8.68989
8.70314
8.73419
8.80843
9.06734
7.92998
7.5101
7.41675
7.57446
8.02148
8.86387
10.3054
12.1078
15.4274
41.173
12.2354
11.1727
10.8805
11.0837
11.7624
13.0235
15.2213
18.1223
23.7875
66.4124
12.1394
10.9712
10.6524
10.8956
11.7007
13.2512
16.0319
20.0142
28.3901
86.179
11.5988
10.4649
10.1981
10.4742
11.3669
13.1083
16.297
21.0753
31.8418
104.294
10.8053
9.75491
9.49951
9.77334
10.6717
12.4985
15.9681
21.4559
34.8376
123.7
10.2148
9.26268
9.0455
9.29908
10.1726
12.0009
15.608
21.5521
37.1092
140.952
9.05419
8.33229
8.14815
8.33971
9.01746
10.5151
13.6622
19.285
35.7043
147.363
6.64487
6.39753
6.34333
6.4175
6.68221
7.26722
8.61409
11.5618
22.4916
102.418
9.11132
9.10663
9.10719
9.1144
9.12708
9.1429
9.16388
9.19961
9.27262
9.45787
8.57684
8.57397
8.57307
8.57405
8.57719
8.58215
8.58793
8.60085
8.62963
8.69529
6.78266
6.57104
6.51699
6.5929
6.82432
7.27133
8.06586
9.35979
11.1353
16.4367
9.69145
9.07134
8.918
9.0856
9.60528
10.5602
12.1753
14.5698
17.5471
29.1787
9.88907
9.15108
8.96572
9.17962
9.83903
11.0948
13.2872
16.6419
21.1137
40.7607
9.75966
9.00447
8.84166
9.0784
9.81692
11.2606
13.8637
17.9406
23.778
52.2519
9.33104
8.60362
8.43611
8.67403
9.42841
10.9742
13.8889
18.6188
26.0239
64.9004
9.01604
8.33163
8.18541
8.40803
9.14955
10.7176
13.8025
18.9564
27.7477
76.9244
8.19529
7.66695
7.53769
7.70809
8.28313
9.5656
12.2713
17.1625
26.652
82.8779
6.3736
6.18137
6.14153
6.20248
6.41342
6.87617
7.92508
10.3685
16.6987
57.1062
8.99179
8.98403
8.98151
8.98543
8.99505
9.00816
9.02618
9.05974
9.13853
9.33855
8.46138
8.45956
8.45905
8.45981
8.46198
8.46475
8.46595
8.46934
8.47827
8.49768
6.00864
5.91784
5.89074
5.92158
6.0218
6.21441
6.55112
7.13252
7.99599
9.88094
7.80874
7.49609
7.42321
7.51865
7.82014
8.38298
9.33404
10.821
12.6576
17.0736
8.1248
7.70735
7.60361
7.74109
8.16723
8.98955
10.4232
12.7267
15.5982
23.5538
8.24747
7.78885
7.69199
7.84982
8.34806
9.33565
11.1225
14.0847
17.8846
30.1247
8.08392
7.61549
7.50587
7.67284
8.20243
9.30158
11.3876
14.9953
19.8641
37.6352
7.9759
7.51159
7.41212
7.57364
8.11061
9.25626
11.5228
15.5771
21.3677
44.9592
7.44531
7.07502
6.98298
7.11142
7.53533
8.48137
10.4799
14.3819
20.6524
48.7681
6.13163
5.98466
5.95476
6.00073
6.15814
6.49613
7.22481
8.98541
12.9806
33.0376
8.85789
8.85009
8.84727
8.85065
8.85976
8.87339
8.89224
8.92615
8.99932
9.15519
8.33371
8.33288
8.3327
8.33319
8.33437
8.33523
8.33364
8.33226
8.33219
8.33433
5.53764
5.50319
5.4901
5.49998
5.53616
5.60492
5.72018
5.91163
6.17865
6.62113
6.56605
6.42837
6.39757
6.43784
6.57422
6.83252
7.27154
7.98206
8.87903
10.3566
6.87206
6.65541
6.59879
6.66954
6.89677
7.33941
8.11413
9.40819
11.0453
14.0195
7.10208
6.84234
6.78599
6.8733
7.1588
7.72695
8.75924
10.5599
12.8858
17.7757
7.09732
6.81071
6.739
6.8395
7.1633
7.83576
9.11553
11.4644
14.6137
22.2336
7.12085
6.81805
6.74996
6.8519
7.1968
7.92878
9.37335
12.1313
15.9826
26.6474
6.81344
6.56183
6.49574
6.58181
6.86391
7.4852
8.77849
11.4747
15.6918
29.0131
5.91844
5.80756
5.78481
5.81662
5.92763
6.15995
6.6303
7.74139
10.1054
19.2393
8.71445
8.70675
8.70373
8.7066
8.71506
8.72848
8.74696
8.7784
8.83992
8.95244
8.19475
8.19468
8.19477
8.19504
8.1955
8.19509
8.19261
8.19005
8.18787
8.18655
5.27035
5.25895
5.25261
5.25487
5.26617
5.28801
5.32348
5.37806
5.44749
5.53731
5.80943
5.75799
5.74828
5.7617
5.81271
5.90956
6.07212
6.33471
6.67419
7.13889
6.04301
5.93932
5.91054
5.94302
6.05125
6.25973
6.61645
7.21169
7.98782
9.10662
6.28232
6.14566
6.11581
6.15945
6.30771
6.59747
7.11205
8.02113
9.23791
11.2029
6.35109
6.18551
6.14131
6.19751
6.38054
6.75304
7.44439
8.7405
10.5397
13.8037
6.44214
6.25418
6.2104
6.27054
6.47787
6.90716
7.72903
9.3406
11.6534
16.3938
6.29321
6.13032
6.08551
6.14047
6.31824
6.69919
7.46011
9.07706
11.6574
17.7686
5.73294
5.65179
5.63556
5.6569
5.73315
5.88843
6.184
6.83623
8.10064
11.8449
8.56053
8.55321
8.55018
8.55265
8.56041
8.57304
8.59038
8.61824
8.66627
8.74103
8.04508
8.04552
8.0458
8.04593
8.0459
8.04471
8.0424
8.03992
8.03767
8.03601
5.12661
5.12321
5.11975
5.11968
5.12257
5.12897
5.13907
5.15344
5.16958
5.18565
5.37594
5.361
5.36013
5.36299
5.37801
5.40721
5.45622
5.53389
5.63282
5.75051
5.52655
5.47963
5.46569
5.47946
5.52757
5.61833
5.76706
6.0038
6.30875
6.68033
5.72719
5.65976
5.64548
5.66546
5.73716
5.87328
6.1045
6.49907
7.0314
7.75011
5.81506
5.72399
5.69811
5.7277
5.82544
6.01857
6.36061
6.98392
7.86727
9.18691
5.92897
5.81721
5.79061
5.82393
5.94244
6.18
6.61215
7.43969
8.65435
10.6616
5.88357
5.78311
5.75428
5.78767
5.89431
6.11618
6.53636
7.40181
8.80328
11.4704
5.57813
5.52016
5.50919
5.52294
5.57398
5.67522
5.85871
6.23086
6.89041
8.32521
8.39559
8.38887
8.38599
8.38811
8.39503
8.40639
8.42194
8.44565
8.48223
8.53152
7.88502
7.88578
7.88618
7.88621
7.88591
7.88456
7.88269
7.8807
7.87891
7.87757
5.05199
5.05077
5.04852
5.048
5.04863
5.05066
5.05362
5.05744
5.061
5.0634
5.13787
5.13622
5.13826
5.13785
5.14011
5.14557
5.15602
5.17355
5.19603
5.22002
5.21961
5.19897
5.19235
5.19795
5.21874
5.25716
5.31721
5.40615
5.51476
5.62678
5.36809
5.33677
5.33078
5.33922
5.37218
5.43287
5.53108
5.68807
5.89271
6.12695
5.44708
5.39922
5.38478
5.39966
5.44976
5.54585
5.70754
5.98376
6.36787
6.85609
5.55773
5.49379
5.47855
5.49601
5.56125
5.68792
5.90593
6.29792
6.86484
7.64809
5.57427
5.51557
5.49806
5.51747
5.57853
5.70232
5.92565
6.3573
7.04571
8.13535
5.45382
5.41323
5.40624
5.41484
5.44842
5.51343
5.62684
5.83778
6.18542
6.75857
8.21908
8.21316
8.21055
8.21234
8.21835
8.22809
8.24144
8.26084
8.28805
8.32096
7.71466
7.71561
7.71608
7.71606
7.7156
7.71448
7.71309
7.71163
7.71033
7.70934
5.01365
5.01275
5.01108
5.01064
5.01093
5.01192
5.01317
5.01455
5.0155
5.01564
5.01144
5.01361
5.01608
5.01508
5.01375
5.01243
5.01195
5.01303
5.01553
5.01856
5.04476
5.03553
5.03231
5.03459
5.04369
5.06023
5.08501
5.11906
5.1579
5.19173
5.1454
5.13164
5.12958
5.13287
5.14749
5.17374
5.21451
5.27517
5.34997
5.42253
5.20532
5.18121
5.17349
5.18071
5.20561
5.25217
5.32728
5.44636
5.60504
5.77831
5.30062
5.26518
5.25694
5.26565
5.30064
5.36668
5.4751
5.65553
5.90512
6.19341
5.35055
5.31836
5.30842
5.31925
5.35258
5.41879
5.5342
5.74205
6.06228
6.49185
5.35788
5.3298
5.32565
5.33096
5.35294
5.39451
5.46461
5.58462
5.76939
6.02091
8.03061
8.0256
8.02335
8.02483
8.02985
8.03783
8.04885
8.06411
8.08383
8.10571
7.53417
7.53501
7.53551
7.53547
7.53501
7.53422
7.53324
7.53222
7.53133
7.5306
4.99322
4.99239
4.99108
4.99082
4.99116
4.99192
4.99283
4.99375
4.99433
4.99423
4.94616
4.94879
4.95088
4.95005
4.94828
4.94586
4.94332
4.94113
4.93966
4.93897
4.94928
4.94483
4.94313
4.94412
4.94834
4.95593
4.96687
4.98092
4.99593
5.00713
5.01295
5.00711
5.00665
5.00783
5.01425
5.02557
5.04258
5.06624
5.09365
5.11683
5.05336
5.04169
5.03771
5.04114
5.05325
5.07543
5.1101
5.16146
5.22692
5.29111
5.13022
5.11096
5.10672
5.11094
5.12947
5.16363
5.21765
5.30112
5.41039
5.51828
5.19569
5.17943
5.17427
5.18011
5.19734
5.23111
5.28882
5.38657
5.53155
5.70581
5.28669
5.26729
5.26504
5.26837
5.28292
5.30978
5.35334
5.42231
5.52054
5.64046
7.82987
7.82583
7.82398
7.82517
7.82919
7.83546
7.84419
7.85576
7.86967
7.88398
7.34328
7.34395
7.34438
7.34434
7.34404
7.3435
7.34284
7.34215
7.34156
7.34101
4.98135
4.98063
4.97967
4.97952
4.97986
4.98054
4.98135
4.98216
4.98272
4.98262
4.91316
4.91532
4.91688
4.91636
4.91498
4.91301
4.91082
4.90874
4.9072
4.90635
4.89944
4.897
4.89603
4.89651
4.89866
4.90246
4.90779
4.91429
4.92088
4.92515
4.93748
4.93492
4.93492
4.93534
4.93828
4.94342
4.95091
4.96067
4.97119
4.97929
4.96218
4.95671
4.95471
4.95634
4.96216
4.97264
4.98862
5.01099
5.03837
5.06425
5.02226
5.01175
5.00965
5.01172
5.02164
5.03952
5.06687
5.1065
5.15535
5.19849
5.09316
5.08591
5.08361
5.08667
5.09501
5.11121
5.13865
5.18313
5.2465
5.3217
5.23574
5.22222
5.22116
5.22339
5.23332
5.25108
5.27851
5.31882
5.37093
5.43181
7.6167
7.6136
7.61216
7.61308
7.61615
7.62089
7.62754
7.636
7.64554
7.65473
7.14175
7.14229
7.14263
7.14262
7.14243
7.14207
7.14164
7.14119
7.14079
7.14036
4.97347
4.97291
4.97226
4.97218
4.97249
4.97306
4.97376
4.97446
4.975
4.97486
4.89666
4.89827
4.89937
4.89911
4.8982
4.8969
4.89545
4.89407
4.89313
4.89263
4.87472
4.87323
4.87265
4.87291
4.87409
4.87614
4.87896
4.8823
4.88565
4.88753
4.89636
4.89504
4.89504
4.89522
4.89676
4.89943
4.9032
4.9078
4.91235
4.91573
4.91008
4.90757
4.90657
4.90737
4.91017
4.91514
4.92253
4.93242
4.94409
4.95558
4.95689
4.95095
4.94991
4.95103
4.95657
4.9663
4.98068
5.0004
5.02319
5.04216
5.02816
5.02567
5.02497
5.02655
5.03021
5.03731
5.04926
5.06827
5.09394
5.12882
5.20037
5.19076
5.1904
5.19207
5.19916
5.21129
5.22897
5.25309
5.28069
5.31355
7.39105
7.38879
7.38774
7.38842
7.39063
7.39411
7.39899
7.40495
7.4113
7.41709
6.92935
6.9298
6.93007
6.93007
6.92996
6.92973
6.92945
6.92915
6.9289
6.92854
4.96746
4.9671
4.9667
4.96667
4.96693
4.96737
4.96792
4.96848
4.96899
4.96874
4.88842
4.88959
4.89035
4.89025
4.88972
4.88897
4.88813
4.88736
4.88696
4.88674
4.86323
4.86231
4.86197
4.86212
4.86277
4.86388
4.86541
4.86721
4.86908
4.87002
4.87503
4.87413
4.87402
4.87413
4.8751
4.87678
4.87907
4.88173
4.88415
4.88599
4.88185
4.88068
4.88018
4.88058
4.88196
4.88436
4.88783
4.8923
4.89739
4.90306
4.91901
4.9154
4.91485
4.91558
4.9189
4.92458
4.93263
4.94318
4.95461
4.96419
4.98843
4.98821
4.98835
4.98917
4.99053
4.99313
4.99747
5.00457
5.0131
5.03088
5.17623
5.16923
5.16927
5.17066
5.17599
5.18458
5.19633
5.21124
5.2258
5.24495
7.15297
7.15142
7.15072
7.15119
7.1527
7.15521
7.15864
7.16267
7.16676
7.17034
6.70592
6.70632
6.70652
6.70653
6.70647
6.70632
6.70614
6.70595
6.70578
6.70546
4.96235
4.96222
4.96202
4.96203
4.96222
4.96253
4.96293
4.96335
4.96382
4.96346
4.88422
4.88509
4.8856
4.88559
4.88533
4.88495
4.88456
4.88421
4.88418
4.88417
4.85845
4.85792
4.85776
4.85784
4.85815
4.8587
4.85946
4.86039
4.86147
4.862
4.86459
4.86384
4.86362
4.86371
4.86442
4.86565
4.86728
4.86911
4.87071
4.87198
4.86743
4.86685
4.86658
4.86679
4.8675
4.86871
4.87039
4.87248
4.87478
4.8779
4.89783
4.89543
4.89509
4.89565
4.89783
4.90143
4.90631
4.91248
4.91882
4.92462
4.96448
4.96519
4.96573
4.96618
4.96649
4.96704
4.96787
4.96965
4.97065
4.98099
5.15953
5.1544
5.15466
5.15594
5.16005
5.16639
5.17452
5.18409
5.19163
5.20392
6.90272
6.90165
6.90122
6.90152
6.90256
6.90429
6.9066
6.90922
6.91174
6.91392
6.47141
6.47175
6.4719
6.47192
6.47189
6.4718
6.47168
6.47156
6.47144
6.47115
4.95775
4.95784
4.95779
4.95784
4.95797
4.95817
4.95843
4.95871
4.95918
4.95871
4.88198
4.88264
4.88296
4.88301
4.88291
4.88279
4.88268
4.88261
4.88284
4.88298
4.85696
4.85671
4.85667
4.8567
4.85681
4.85699
4.85727
4.85768
4.85828
4.85863
4.85988
4.85922
4.85894
4.85901
4.85955
4.86051
4.86175
4.86312
4.86432
4.86531
4.86061
4.86026
4.86009
4.8602
4.86059
4.86125
4.86212
4.86315
4.86424
4.86613
4.88611
4.88438
4.88413
4.8846
4.88613
4.88857
4.89176
4.89568
4.89957
4.90373
4.94944
4.95038
4.95107
4.95134
4.95125
4.951
4.95044
4.95008
4.94804
4.95504
5.14739
5.1436
5.14402
5.14521
5.14849
5.15336
5.15921
5.16563
5.16928
5.17803
6.6405
6.63981
6.63953
6.63973
6.64042
6.64155
6.64304
6.64465
6.64612
6.64743
6.22587
6.22616
6.22627
6.22629
6.22628
6.22623
6.22615
6.22607
6.22599
6.22571
4.95347
4.95377
4.95384
4.95394
4.95402
4.95411
4.95425
4.95442
4.95492
4.95441
4.88063
4.88113
4.8813
4.88135
4.88136
4.8814
4.88147
4.88159
4.88198
4.88229
4.85702
4.85695
4.85699
4.85699
4.85697
4.85694
4.85694
4.85704
4.85735
4.85764
4.85804
4.85747
4.85719
4.85723
4.85764
4.85836
4.8593
4.86032
4.86124
4.86205
4.85775
4.85749
4.85736
4.85742
4.85765
4.85803
4.85851
4.85907
4.85962
4.86082
4.87923
4.87793
4.87772
4.8781
4.8792
4.88091
4.88309
4.88569
4.88825
4.89155
4.93853
4.93935
4.94005
4.94025
4.94009
4.93964
4.93871
4.93771
4.93472
4.94011
5.13759
5.13481
5.1353
5.13643
5.13912
5.14298
5.14736
5.15182
5.15324
5.16
6.36667
6.36624
6.36607
6.3662
6.36663
6.36733
6.36822
6.36915
6.36995
6.37071
5.96959
5.96984
5.96992
5.96994
5.96994
5.9699
5.96985
5.9698
5.96973
5.96947
4.94938
4.94989
4.95004
4.95018
4.95023
4.95025
4.95027
4.95035
4.95092
4.95047
4.87956
4.8799
4.87995
4.87999
4.88005
4.88018
4.88036
4.88059
4.88107
4.88157
4.85775
4.85776
4.85782
4.8578
4.85772
4.8576
4.85748
4.85742
4.85755
4.85786
4.85756
4.85709
4.85685
4.85686
4.85714
4.85765
4.85831
4.85904
4.85973
4.86037
4.85687
4.85666
4.85655
4.85657
4.85671
4.85693
4.85721
4.85752
4.85781
4.85858
4.87434
4.87336
4.87318
4.87345
4.87421
4.87538
4.87684
4.87855
4.88027
4.88293
4.92852
4.92907
4.92969
4.92986
4.92974
4.92935
4.9285
4.9275
4.92454
4.92896
5.12816
5.12619
5.12669
5.12776
5.12999
5.13309
5.13645
5.13959
5.13968
5.14511
6.08174
6.0815
6.0814
6.08148
6.08173
6.08212
6.08262
6.08311
6.08349
6.08391
5.70321
5.70342
5.70349
5.7035
5.7035
5.70348
5.70345
5.7034
5.70334
5.70311
4.94521
4.94586
4.94608
4.94626
4.9463
4.94626
4.94619
4.94618
4.94677
4.94657
4.87839
4.87852
4.87849
4.87849
4.87856
4.87872
4.87895
4.87924
4.87971
4.88042
4.85859
4.85858
4.85862
4.8586
4.85851
4.85838
4.85824
4.85815
4.85819
4.85854
4.85769
4.85734
4.85715
4.85715
4.85732
4.85763
4.85805
4.85853
4.85901
4.8595
4.85697
4.85681
4.85674
4.85673
4.8568
4.85691
4.85705
4.8572
4.85734
4.85779
4.8697
4.86899
4.86883
4.869
4.86947
4.87019
4.87108
4.87211
4.8732
4.87524
4.91724
4.91752
4.918
4.91814
4.91805
4.91774
4.91707
4.91626
4.91381
4.91738
5.11634
5.11506
5.11552
5.11649
5.11829
5.12073
5.12328
5.12542
5.1247
5.12893
5.78656
5.78643
5.78638
5.78642
5.78655
5.78675
5.787
5.78721
5.78737
5.78758
5.42759
5.42776
5.4278
5.42781
5.42781
5.4278
5.42778
5.42775
5.4277
5.42751
4.93954
4.94018
4.94056
4.94079
4.94084
4.94075
4.94058
4.94042
4.94078
4.94109
4.87679
4.87667
4.87656
4.87651
4.87657
4.87672
4.87695
4.87723
4.87765
4.87849
4.8591
4.85904
4.85905
4.85901
4.85895
4.85886
4.85877
4.85871
4.85874
4.85908
4.85815
4.85791
4.85779
4.85778
4.85787
4.85804
4.85827
4.85855
4.85884
4.85918
4.8576
4.85751
4.85746
4.85745
4.85747
4.8575
4.85754
4.85758
4.85763
4.85783
4.86472
4.86428
4.86417
4.86424
4.86448
4.86484
4.86528
4.86578
4.86637
4.86774
4.90353
4.90357
4.90386
4.90391
4.90378
4.90347
4.90293
4.9023
4.90068
4.9033
5.09505
5.09435
5.09474
5.09554
5.09688
5.09865
5.10044
5.10169
5.10054
5.10334
5.48212
5.48206
5.48205
5.48206
5.4821
5.48216
5.48224
5.4823
5.48235
5.48245
5.14253
5.14263
5.14264
5.14265
5.14264
5.14264
5.14264
5.14263
5.14263
5.14254
4.92471
4.92528
4.92589
4.92622
4.92631
4.92619
4.9259
4.92549
4.92509
4.92571
4.87368
4.87333
4.87313
4.87303
4.87304
4.87316
4.87336
4.87364
4.87404
4.87487
4.85937
4.8593
4.85928
4.85925
4.85922
4.85919
4.85915
4.85914
4.85916
4.85939
4.85895
4.85883
4.85877
4.85876
4.8588
4.85888
4.85899
4.85912
4.85927
4.85945
4.85863
4.85859
4.85857
4.85856
4.85856
4.85855
4.85854
4.85853
4.85853
4.85857
4.86083
4.86064
4.86059
4.86061
4.8607
4.86083
4.86098
4.86115
4.86139
4.86202
4.88685
4.88669
4.88675
4.88669
4.88651
4.8862
4.88578
4.88536
4.88479
4.88649
5.04091
5.04062
5.04087
5.04138
5.04217
5.0432
5.04422
5.04478
5.04377
5.04482
5.16848
5.16845
5.16846
5.16846
5.16847
5.16847
5.16847
5.16846
5.16843
5.16849
11.269
11.3841
11.3385
11.1223
82.8103
84.8876
85.3474
85.9967
143.137
148.611
149.081
147.836
202.8
212.237
212.104
207.815
264.482
278.143
276.938
269.486
332.777
351.058
348.958
340.215
395.161
417.813
415.43
408.038
433.169
459.441
457.494
452.919
345.683
368.26
365.71
364.361
11.4769
11.7155
11.5594
11.1514
9.71377
9.77314
9.77597
9.73198
76.0776
79.3215
80.081
80.2023
133.884
144.804
145.906
143.741
192.905
214.535
215.07
209.174
256.139
290.982
290.035
280.086
329.511
380.274
378.5
365.624
399.602
466.623
465.656
452.625
446.088
527.577
528.618
517.427
350.523
422.883
420.974
416.139
10.7115
10.9424
10.8719
10.6516
8.77684
8.78981
8.7888
8.77729
26.5381
28.9548
28.2176
25.7085
49.3567
53.7628
52.0988
47.4252
74.5823
81.3417
78.2224
70.7071
103.456
112.996
107.818
96.7358
139.442
152.805
145.178
129.285
177.31
194.675
184.516
163.493
207.529
228.706
216.447
190.911
164.729
181.623
170.14
149.304
9.91284
10.0036
9.98042
9.88121
8.51189
8.51445
8.51511
8.51415
11.4729
11.7225
11.693
11.4959
21.2126
21.9399
21.8765
21.3344
31.997
33.4838
33.2319
31.9163
44.5103
46.9439
46.2797
43.7578
60.6338
64.4024
63.0828
58.7667
78.0555
83.1686
80.902
74.4581
92.5756
99.1264
95.8398
87.1478
71.9352
77.0758
73.5641
65.9628
9.4487
9.49313
9.49006
9.44965
8.33287
8.33397
8.33423
8.33357
7.04185
7.13341
7.15861
7.12876
11.6778
11.9741
12.0571
11.9711
16.871
17.4855
17.586
17.3194
22.8365
23.8564
23.8923
23.2885
30.7128
32.338
32.2254
31.0367
39.2231
41.458
41.0404
39.0612
46.2615
49.1978
48.381
45.4009
34.4011
36.6199
35.4297
32.5497
9.09836
9.12229
9.12391
9.10695
8.18255
8.18347
8.18356
8.18279
5.60668
5.62097
5.62619
5.62447
7.45584
7.52578
7.55851
7.55988
9.93736
10.1211
10.1884
10.1633
12.8335
13.1794
13.2657
13.1652
16.796
17.4126
17.5025
17.2348
21.0456
21.9425
21.966
21.4368
24.4783
25.7304
25.6289
24.6927
17.4809
18.3751
18.0207
17.017
8.81282
8.82473
8.82709
8.82094
8.03171
8.0326
8.03267
8.03189
5.19692
5.20011
5.20099
5.2
5.8231
5.83891
5.84756
5.84977
6.91424
6.96714
6.99232
6.99342
8.2589
8.37117
8.41552
8.40581
10.2336
10.4613
10.5312
10.4824
12.3586
12.7064
12.7767
12.6576
14.0531
14.5728
14.6195
14.3553
10.2219
10.5581
10.4797
10.1884
8.56539
8.57086
8.57293
8.57153
7.87347
7.87434
7.87441
7.87366
5.06321
5.06438
5.06439
5.06345
5.23312
5.2355
5.23694
5.23759
5.68403
5.6964
5.70295
5.70433
6.26557
6.29593
6.31049
6.31202
7.19408
7.2697
7.30037
7.29467
8.21561
8.33661
8.37649
8.35783
9.06872
9.26925
9.31386
9.24846
7.33897
7.45172
7.44567
7.37957
8.33738
8.33965
8.34111
8.34133
7.70549
7.70632
7.70639
7.70568
5.01329
5.01422
5.01416
5.01323
5.02032
5.02044
5.0205
5.02054
5.20441
5.20675
5.20804
5.20841
5.45535
5.46197
5.46557
5.46668
5.88057
5.90357
5.91413
5.914
6.35901
6.39485
6.41019
6.41047
6.80641
6.87773
6.90025
6.88558
6.19855
6.23249
6.23683
6.22631
8.11415
8.11494
8.11584
8.11639
7.52702
7.5278
7.52787
7.52721
4.99133
4.99219
4.99214
4.99126
4.93893
4.93883
4.93873
4.93864
5.00959
5.00982
5.00995
5.01
5.12348
5.12438
5.12496
5.12535
5.32339
5.33041
5.33373
5.33366
5.55978
5.56824
5.57287
5.57493
5.81409
5.83896
5.84805
5.8438
5.69867
5.70624
5.70891
5.70967
7.88847
7.88859
7.88909
7.88962
7.3377
7.33842
7.33848
7.33787
4.97959
4.98037
4.98032
4.97948
4.90613
4.9061
4.90602
4.9059
4.92538
4.92527
4.92522
4.92523
4.9803
4.98016
4.9801
4.98018
5.07668
5.07925
5.08037
5.08006
5.20667
5.20777
5.20885
5.21021
5.36632
5.37604
5.37937
5.37667
5.45416
5.45323
5.45381
5.4561
7.65708
7.65692
7.65719
7.6576
7.13733
7.13799
7.13803
7.13748
4.97183
4.97253
4.97246
4.97167
4.89242
4.89243
4.89237
4.89225
4.8873
4.88718
4.88713
4.88714
4.91575
4.91554
4.91541
4.9154
4.96187
4.96314
4.9636
4.96325
5.04267
5.04221
5.0423
5.04305
5.15355
5.15841
5.15956
5.15698
5.32496
5.32165
5.32115
5.32309
7.41818
7.41797
7.4181
7.41837
6.92579
6.92637
6.92641
6.92591
4.9658
4.9664
4.9663
4.96555
4.88654
4.88656
4.88651
4.88638
4.86973
4.86964
4.86961
4.86964
4.88596
4.88583
4.88574
4.8857
4.90699
4.9078
4.90805
4.90773
4.96376
4.96323
4.96312
4.96349
5.04878
5.052
5.05235
5.04977
5.25296
5.24941
5.24851
5.2498
7.17064
7.17049
7.17055
7.17068
6.70303
6.70353
6.70355
6.70311
4.96066
4.96114
4.96102
4.96031
4.88397
4.884
4.88395
4.88382
4.86175
4.8617
4.86169
4.86171
4.87203
4.87197
4.87191
4.87186
4.88064
4.88121
4.88136
4.8811
4.92485
4.92457
4.92447
4.92458
4.99617
4.9988
4.99884
4.99626
5.21089
5.20785
5.20687
5.20752
6.91368
6.91364
6.91367
6.91367
6.46905
6.46946
6.46947
6.46909
4.9561
4.95647
4.95631
4.95565
4.88285
4.88289
4.88284
4.88271
4.85849
4.85848
4.85847
4.85848
4.86542
4.8654
4.86536
4.86532
4.8681
4.86851
4.8686
4.86838
4.90484
4.90484
4.90479
4.90471
4.96894
4.97136
4.97128
4.96867
5.18476
5.1825
5.18159
5.1816
6.64681
6.64692
6.64693
6.64682
6.22399
6.22431
6.2243
6.22397
4.95205
4.95231
4.95212
4.95151
4.88233
4.88241
4.88237
4.88221
4.85766
4.85768
4.85768
4.85767
4.86219
4.86219
4.86217
4.86214
4.86223
4.86251
4.86256
4.86238
4.89336
4.89359
4.89358
4.89337
4.95328
4.9557
4.95557
4.95289
5.16679
5.16544
5.16468
5.16406
6.36982
6.37007
6.37008
6.36987
5.96819
5.96841
5.96837
5.96811
4.94847
4.94864
4.94844
4.94788
4.88193
4.88208
4.88205
4.88185
4.85805
4.85811
4.85812
4.85808
4.86054
4.86056
4.86055
4.86053
4.85952
4.85971
4.85973
4.85959
4.88513
4.88551
4.88554
4.88523
4.94148
4.94401
4.94389
4.9411
5.15202
5.15169
5.15113
5.14988
6.08284
6.08321
6.08322
6.08294
5.70235
5.70246
5.70239
5.7022
4.94521
4.94538
4.9452
4.94467
4.88123
4.88148
4.88147
4.8812
4.85888
4.85898
4.85899
4.85892
4.85969
4.85972
4.85973
4.85971
4.85835
4.85846
4.85846
4.85837
4.87745
4.87789
4.87795
4.87762
4.92868
4.93133
4.93126
4.92843
5.13572
5.13661
5.13633
5.13438
5.78641
5.78685
5.78687
5.78656
5.42738
5.42735
5.42726
5.42716
4.941
4.94139
4.94128
4.94066
4.8796
4.87994
4.87994
4.8796
4.85947
4.85959
4.8596
4.85952
4.85936
4.8594
4.85941
4.85941
4.85808
4.85813
4.85812
4.85808
4.86956
4.86996
4.87001
4.86974
4.91187
4.91428
4.91426
4.91179
5.10925
5.11165
5.11172
5.10891
5.48142
5.48193
5.48196
5.48162
5.14313
5.14289
5.1428
5.14287
4.92732
4.92821
4.92819
4.92723
4.87564
4.87587
4.87584
4.87558
4.85963
4.8597
4.85971
4.85965
4.85958
4.85961
4.85962
4.85963
4.85863
4.85863
4.85863
4.85863
4.86301
4.86323
4.86327
4.86313
4.89063
4.8918
4.89177
4.89056
5.04765
5.05118
5.05149
5.04806
5.16797
5.16853
5.16854
5.16817
10.1126
9.36666
9.05458
8.94205
8.87758
8.83212
8.80185
8.78482
8.77537
8.76974
103.674
49.1182
35.7479
29.9539
24.5569
19.9494
16.3633
13.6895
11.7815
10.4194
160.952
70.8604
51.0936
43.7433
37.1921
31.4261
26.5934
22.7127
19.6689
17.2943
206.427
82.5937
55.9826
46.7289
39.3629
32.7674
27.2293
22.8357
19.4441
16.8563
242.065
88.9525
58.8268
47.9662
40.0782
32.7371
26.6774
21.9549
18.3683
15.7228
278.039
94.692
60.975
48.3032
39.8462
31.7878
25.3531
20.4653
16.8824
14.3311
307.097
98.1603
61.6915
47.7818
39.0466
30.5203
23.9439
19.0745
15.5949
13.2106
315.211
93.7538
56.6289
42.2285
33.918
25.7873
19.9245
15.7972
13.0461
11.2292
224.475
56.135
30.5437
21.1163
16.2835
12.2242
9.95523
8.61312
7.80414
7.27996
9.5692
9.54455
9.38915
9.363
9.31642
9.29029
9.26953
9.25848
9.25102
9.2446
9.36711
9.05697
8.90474
8.81914
8.7652
8.72957
8.70644
8.69269
8.68529
8.68059
53.1033
28.6708
22.5566
19.4496
16.6689
14.1981
12.1633
10.6007
9.46098
8.66883
89.9993
46.2746
35.8008
31.0213
27.1817
23.5094
20.2909
17.6319
15.5038
13.8849
122.266
58.6124
42.8652
35.6348
30.551
25.7672
21.6966
18.4234
15.8733
13.9868
152.565
68.7684
47.857
38.521
32.3853
26.679
21.978
18.2986
15.4861
13.4758
186.44
78.8766
52.1459
40.4765
33.2588
26.6703
21.4547
17.4964
14.5918
12.5916
217.208
86.4761
54.7144
41.2509
33.3542
26.1783
20.6986
16.6614
13.7711
11.8536
233.199
86.7515
51.9189
37.485
29.5789
22.5779
17.5746
14.0837
11.7636
10.2832
167.41
54.7566
29.0628
19.3798
14.695
11.2267
9.27464
8.12957
7.43364
7.00277
9.81853
9.50198
9.33081
9.26753
9.21263
9.17935
9.1552
9.14044
9.13005
9.12103
8.73773
8.69631
8.66357
8.63635
8.61504
8.59959
8.58927
8.58309
8.57966
8.5772
19.9483
16.5765
14.5028
12.6846
11.1149
9.81192
8.79764
8.04874
7.50998
7.13739
35.9207
28.7124
24.9255
21.6897
18.9141
16.5059
14.5108
12.9064
11.6311
10.6693
51.0379
37.9365
31.5411
26.3508
22.2597
18.8402
16.097
13.9477
12.2883
11.0745
66.1291
45.6929
36.6305
29.5942
24.3797
20.1259
16.8138
14.2908
12.3793
11.0261
83.2269
53.3446
41.1448
32.085
25.7359
20.662
16.8424
14.0204
11.9744
10.5808
99.1255
59.1917
44.1512
33.4589
26.3369
20.7058
16.598
13.6545
11.5707
10.1995
108.42
59.7592
42.6004
31.0011
23.7649
18.2182
14.4248
11.857
10.1704
9.0976
75.9449
36.6499
23.8687
16.273
12.2257
9.68248
8.28975
7.4715
6.9627
6.64329
9.57148
9.377
9.24303
9.16318
9.10555
9.0695
9.04442
9.02731
9.01466
9.00377
8.50933
8.49926
8.48821
8.47827
8.47074
8.4656
8.4624
8.46077
8.46037
8.4599
10.9415
10.1335
9.28432
8.43992
7.73277
7.19007
6.79127
6.50324
6.29469
6.14962
19.8679
18.0287
16.1768
14.3039
12.6882
11.36
10.2986
9.4628
8.80356
8.30902
28.4781
24.6334
21.1905
17.9887
15.4008
13.3286
11.705
10.4521
9.49364
8.79844
37.2436
30.6671
25.4315
20.8638
17.3677
14.6403
12.5635
11.0096
9.84185
9.01753
47.4706
36.9716
29.525
23.3603
18.8651
15.4401
12.9155
11.0864
9.77448
8.88362
57.0696
42.0775
32.5537
25.0138
19.76
15.8316
13.027
11.0614
9.68098
8.7694
62.7995
43.2657
32.0894
23.7128
18.2357
14.3066
11.6799
9.94109
8.80282
8.06976
42.7464
26.2045
17.9728
12.7917
10.0236
8.39138
7.47314
6.91841
6.55962
6.32898
9.32682
9.18825
9.08109
9.0114
8.96315
8.93148
8.90873
8.89239
8.88006
8.86963
8.33339
8.3319
8.33039
8.32921
8.32851
8.32821
8.32824
8.3287
8.3298
8.33083
6.99879
6.75859
6.50563
6.26724
6.06892
5.91252
5.79217
5.70052
5.63117
5.58321
11.6111
10.9252
10.1514
9.37378
8.68702
8.11474
7.65554
7.29396
7.00548
6.78755
16.4401
14.9574
13.3756
11.8596
10.5721
9.52174
8.69355
8.05535
7.56707
7.21427
21.5365
18.9349
16.3583
14.0119
12.1133
10.6149
9.47269
8.62379
7.98362
7.52913
27.768
23.4444
19.5089
16.0873
13.4439
11.4221
9.93342
8.86351
8.09576
7.5718
33.736
27.3833
22.0661
17.6424
14.3795
11.9552
10.2306
9.03393
8.18815
7.62146
37.3946
28.7913
22.2628
17.1546
13.6364
11.1587
9.5088
8.42156
7.7002
7.22515
24.529
17.3349
12.8095
9.95726
8.36371
7.40495
6.83004
6.46704
6.22052
6.05874
9.05264
8.96954
8.89791
8.84681
8.80936
8.78254
8.76232
8.74712
8.73538
8.7256
8.18336
8.18351
8.18387
8.18446
8.18519
8.18597
8.18677
8.18776
8.18925
8.19101
5.60801
5.56478
5.51342
5.46125
5.41405
5.37359
5.34009
5.31314
5.29257
5.2796
7.50457
7.31349
7.06509
6.80572
6.5705
6.37233
6.21225
6.08443
5.97781
5.89485
9.97773
9.47192
8.85067
8.22743
7.67865
7.22431
6.86234
6.57997
6.36005
6.20032
12.7362
11.7743
10.6616
9.59966
8.70702
7.99566
7.45055
7.04307
6.7281
6.50018
16.3274
14.6099
12.7535
11.061
9.69841
8.64825
7.87072
7.30843
6.89761
6.61332
19.8649
17.2468
14.5836
12.268
10.4874
9.16072
8.21199
7.55017
7.06993
6.74
22.1187
18.4206
14.998
12.2243
10.2383
8.84213
7.90163
7.27198
6.84164
6.55062
14.3944
11.5385
9.42803
8.05203
7.21594
6.68001
6.33283
6.10284
5.93849
5.82918
8.79753
8.75141
8.70718
8.6717
8.64335
8.62131
8.60391
8.59031
8.57956
8.57073
8.03259
8.03292
8.03348
8.03423
8.03509
8.03593
8.03675
8.03769
8.0391
8.0409
5.1967
5.18854
5.17887
5.16821
5.15757
5.14755
5.13863
5.13124
5.12618
5.12429
5.83875
5.7928
5.73041
5.66328
5.60091
5.54739
5.50338
5.46695
5.43312
5.40494
6.95006
6.79203
6.58424
6.3681
6.17123
6.00317
5.86452
5.75207
5.66101
5.59416
8.29791
7.96325
7.5444
7.13203
6.77524
6.48488
6.25686
6.0815
5.93868
5.83182
10.2207
9.55382
8.76949
8.03164
7.41933
6.93867
6.57423
6.30298
6.09724
5.95214
12.1905
11.1262
9.92521
8.84939
7.99557
7.34972
6.87718
6.53873
6.28123
6.09834
13.5197
11.9508
10.34
8.99926
8.00466
7.29201
6.79593
6.45176
6.20676
6.03685
9.42637
8.38642
7.50737
6.8848
6.46193
6.16836
5.96314
5.82084
5.71383
5.64229
8.56198
8.53744
8.5107
8.48641
8.46534
8.44782
8.43336
8.42167
8.41218
8.40453
7.87436
7.87462
7.87504
7.87561
7.87625
7.87688
7.87747
7.87817
7.87933
7.88091
5.06296
5.06119
5.05922
5.05687
5.05424
5.05148
5.04889
5.04683
5.04609
5.047
5.23563
5.22717
5.21543
5.20229
5.18989
5.17938
5.17106
5.16392
5.15498
5.14623
5.69442
5.65146
5.59144
5.52541
5.46178
5.40433
5.35414
5.3111
5.27461
5.24773
6.28733
6.18741
6.05373
5.91586
5.79086
5.68441
5.59688
5.52647
5.4647
5.41642
7.22115
6.98852
6.69979
6.41673
6.17134
5.97026
5.81045
5.68574
5.58659
5.51564
8.2291
7.83677
7.36141
6.91979
6.55429
6.26682
6.04674
5.88214
5.74897
5.65087
8.98515
8.36912
7.69629
7.11402
6.66034
6.32045
6.07147
5.89051
5.75608
5.66116
7.18617
6.82362
6.46922
6.18828
5.97537
5.81564
5.69602
5.60962
5.54126
5.49572
8.33714
8.32378
8.30742
8.29096
8.27566
8.2622
8.25063
8.24097
8.23294
8.22655
7.70636
7.70653
7.70681
7.70719
7.70761
7.70801
7.70836
7.7088
7.70968
7.71102
5.01329
5.01254
5.0118
5.01096
5.00997
5.00886
5.00781
5.00712
5.00735
5.0086
5.02002
5.01895
5.01783
5.01664
5.01585
5.01578
5.01646
5.01712
5.0156
5.01306
5.20582
5.19451
5.17767
5.15772
5.13713
5.11729
5.09886
5.08212
5.06736
5.05657
5.46129
5.43457
5.39596
5.35329
5.312
5.27473
5.24247
5.21527
5.18907
5.16741
5.89253
5.81798
5.72104
5.61962
5.52587
5.44424
5.37553
5.31907
5.27213
5.23843
6.38044
6.25269
6.08408
5.91751
5.77047
5.64772
5.54823
5.47018
5.40261
5.35087
6.80416
6.58126
6.32452
6.08764
5.89038
5.73347
5.61194
5.51944
5.44803
5.39726
6.17815
6.04687
5.90094
5.77168
5.66399
5.57727
5.5082
5.45649
5.41339