/*--------------------------------*- C++ -*----------------------------------*\
| =========                 |                                                 |
| \\      /  F ield         | foam-extend: Open Source CFD                    |
|  \\    /   O peration     | Version:     4.0                                |
|   \\  /    A nd           | Web:         http://www.foam-extend.org         |
|    \\/     M anipulation  |                                                 |
\*---------------------------------------------------------------------------*/
FoamFile
{
    version     2.0;
    format      ascii;
    class       surfaceScalarField;
    location    "2650";
    object      phi;
}
// * * * * * * * * * * * * * * * * * * * * * * * * * * * * * * * * * * * * * //

dimensions      [1 0 -1 0 0 0 0];

internalField   nonuniform List<scalar> 
97302
(
-0.000109786
9.51653e-07
-0.000869497
0.000878773
-0.0001196
1.14098e-06
-0.0008705
0.000879173
-0.000129523
1.2001e-06
-0.000871025
0.000879748
-0.000140125
1.13813e-06
-0.000871064
0.000880527
-0.000152232
9.46025e-07
-0.000870612
0.000881773
-0.000167325
6.13657e-07
-0.000869445
0.000883924
-0.000188496
1.14548e-07
-0.000866958
0.000888013
-0.000222747
-5.95611e-07
-0.000861331
0.000896178
-0.000271325
-1.63919e-06
-0.000851542
0.00090176
-4.39609e-06
-0.000824043
-0.000352996
0.00091011
-0.000150901
1.6031e-06
-0.00116596
0.00117606
-0.000161173
1.96537e-06
-0.00116691
0.00117636
-0.000171518
2.0839e-06
-0.0011675
0.00117697
-0.000182473
1.99193e-06
-0.00116753
0.00117763
-0.000194834
1.67448e-06
-0.00116673
0.00117836
-0.000210314
1.12026e-06
-0.00116472
0.0011797
-0.000232766
2.71701e-07
-0.00116113
0.00118342
-0.000271568
-9.66372e-07
-0.00115434
0.00119351
-0.00032835
-2.89692e-06
-0.00114203
0.00120007
-7.45978e-06
-0.00110414
-0.000432769
0.00121163
-0.000191208
1.89654e-06
-0.00146133
0.00147218
-0.000201778
2.39273e-06
-0.00146234
0.00147248
-0.000212297
2.57425e-06
-0.00146296
0.00147299
-0.000223274
2.49783e-06
-0.00146276
0.00147323
-0.000235634
2.14534e-06
-0.00146141
0.0014733
-0.000251511
1.50621e-06
-0.00145874
0.00147423
-0.000275388
5.01196e-07
-0.00145486
0.00147851
-0.000318359
-9.68125e-07
-0.00144829
0.00149126
-0.000381693
-3.35352e-06
-0.00143513
0.00149892
-9.13513e-06
-0.00138641
-0.000500693
0.00150709
-0.000231437
2.08603e-06
-0.00175271
0.00176398
-0.0002423
2.72194e-06
-0.00175394
0.00176448
-0.000253115
2.98222e-06
-0.00175482
0.00176522
-0.000264406
2.94665e-06
-0.00175482
0.00176566
-0.000277164
2.5865e-06
-0.00175364
0.00176596
-0.000293713
1.89299e-06
-0.00175121
0.00176737
-0.000318864
7.63806e-07
-0.00174765
0.00177254
-0.00036497
-8.9263e-07
-0.00174142
0.00178745
-0.000432991
-3.67997e-06
-0.00172781
0.00179616
-1.06292e-05
-0.00166796
-0.000560755
0.00179722
-0.000271568
2.31871e-06
-0.00204524
0.00205669
-0.000282602
3.02394e-06
-0.00204685
0.00205758
-0.000293585
3.32199e-06
-0.00204823
0.00205887
-0.000305071
3.30269e-06
-0.0020487
0.00205983
-0.000318118
2.93504e-06
-0.00204805
0.00206075
-0.000335169
2.20994e-06
-0.00204624
0.00206298
-0.000361326
1.0108e-06
-0.00204332
0.00206924
-0.000409968
-7.46258e-07
-0.00203779
0.00208628
-0.000481932
-3.81491e-06
-0.00202453
0.00209663
-1.18637e-05
-0.00195288
-0.000615169
0.00208735
-0.000312271
2.4044e-06
-0.00233637
0.00234812
-0.000323408
3.13521e-06
-0.00233843
0.00234945
-0.000334459
3.4211e-06
-0.0023402
0.00235116
-0.000346003
3.37412e-06
-0.00234109
0.00235256
-0.00035915
2.97221e-06
-0.00234096
0.00235407
-0.000376428
2.21512e-06
-0.00233991
0.00235718
-0.000403211
9.84974e-07
-0.00233791
0.00236472
-0.000453747
-7.84449e-07
-0.00233348
0.00238406
-0.000529016
-3.91255e-06
-0.00232173
0.0023971
-1.28333e-05
-0.00223797
-0.000665773
0.0023757
-0.000352796
2.38373e-06
-0.00262733
0.0026392
-0.000363875
3.02228e-06
-0.00262998
0.00264118
-0.00037485
3.23732e-06
-0.00263232
0.00264348
-0.000386303
3.1044e-06
-0.00263367
0.00264539
-0.000399399
2.62839e-06
-0.00263412
0.00264756
-0.000416696
1.80189e-06
-0.00263388
0.00265159
-0.000443818
5.61068e-07
-0.00263302
0.00266057
-0.000495694
-1.10966e-06
-0.00263019
0.00268239
-0.000573748
-3.86131e-06
-0.0026211
0.0026991
-1.29897e-05
-0.002525
-0.00071251
0.00266392
-0.000394592
2.0248e-06
-0.00291886
0.00293116
-0.000405723
2.47412e-06
-0.00292211
0.00293379
-0.000416697
2.50276e-06
-0.00292456
0.00293626
-0.000428101
2.16397e-06
-0.00292585
0.0029382
-0.000441062
1.49388e-06
-0.0029262
0.00294029
-0.000458083
4.90599e-07
-0.00292612
0.00294445
-0.000484931
-8.17655e-07
-0.00292596
0.00295419
-0.000536998
-2.36008e-06
-0.00292457
0.00297789
-0.000616519
-4.14955e-06
-0.00291883
0.00299864
-1.21413e-05
-0.00281223
-0.00075568
0.00295055
-0.000435788
1.06837e-06
-0.00320674
0.00321918
-0.000446493
1.13583e-06
-0.00321084
0.00322289
-0.000457073
8.44897e-07
-0.00321391
0.00322615
-0.000468174
1.11304e-07
-0.00321582
0.00322897
-0.000480963
-9.4816e-07
-0.00321695
0.00323219
-0.000497828
-2.30823e-06
-0.00321788
0.00323755
-0.00052453
-3.78327e-06
-0.00321913
0.0032488
-0.000576323
-5.09818e-06
-0.00322004
0.00327457
-0.000655776
-5.50571e-06
-0.00321668
0.00329749
-1.01952e-05
-0.00309932
-0.000792426
0.00323402
-0.0004772
-0.00347532
0.00348833
-0.000488545
-0.00347892
0.0034914
-0.000499733
-0.00347963
0.00349166
-0.000511446
-0.00347707
0.00348889
-0.000524721
-0.00347191
0.00348424
-0.000541688
-0.00346521
0.00347987
-0.00056758
-0.00345815
0.00348026
-0.000616584
-0.00345221
0.00349612
-0.000689675
-0.0034486
0.00351618
-0.00333961
-0.000818675
0.00345842
1.43957e-05
8.88984e-07
-0.000861041
5.31241e-06
1.11362e-06
-0.00086253
-3.79163e-06
1.19434e-06
-0.000863115
-1.31001e-05
1.13667e-06
-0.000862892
-2.28124e-05
9.30665e-07
-0.00086183
-3.31465e-05
5.57992e-07
-0.000859669
-4.42496e-05
-1.55001e-08
-0.000855839
-5.55407e-05
-8.68603e-07
-0.000849171
-6.62354e-05
-2.19721e-06
-0.00083865
-3.96822e-06
-0.000822397
-6.39127e-05
1.54088e-05
1.51383e-06
-0.00115611
5.39046e-06
1.93006e-06
-0.00115771
-4.61748e-06
2.08375e-06
-0.00115839
-1.49324e-05
2.00453e-06
-0.00115808
-2.58193e-05
1.67049e-06
-0.00115658
-3.7641e-05
1.05937e-06
-0.0011534
-5.12338e-05
1.09401e-07
-0.00114766
-6.76412e-05
-1.29559e-06
-0.0011375
-8.82616e-05
-3.54268e-06
-0.00112007
-6.60875e-06
-0.00109112
-9.86422e-05
1.67379e-05
1.82472e-06
-0.00145028
6.00706e-06
2.38872e-06
-0.00145207
-4.63109e-06
2.61223e-06
-0.00145285
-1.55085e-05
2.54997e-06
-0.00145243
-2.6963e-05
2.16882e-06
-0.00145045
-3.97282e-05
1.44514e-06
-0.00144636
-5.55499e-05
2.86972e-07
-0.00143922
-7.71568e-05
-1.42764e-06
-0.00142655
-0.000108636
-4.28353e-06
-0.00140291
-8.39587e-06
-0.00135938
-0.000133882
1.79544e-05
2.03296e-06
-0.00174097
6.74001e-06
2.75428e-06
-0.00174309
-4.38346e-06
3.06527e-06
-0.00174415
-1.58115e-05
3.04916e-06
-0.00174389
-2.79996e-05
2.65856e-06
-0.00174194
-4.19398e-05
1.87189e-06
-0.0017377
-5.99424e-05
5.56493e-07
-0.00172991
-8.61301e-05
-1.40123e-06
-0.00171526
-0.000128053
-4.7945e-06
-0.00168538
-9.90581e-06
-0.00162551
-0.000168998
1.90695e-05
2.27923e-06
-0.0020331
7.5686e-06
3.07922e-06
-0.00203567
-3.83537e-06
3.43407e-06
-0.00203719
-1.55989e-05
3.44023e-06
-0.00203733
-2.83156e-05
3.04627e-06
-0.00203572
-4.31631e-05
2.23004e-06
-0.00203175
-6.29174e-05
8.19846e-07
-0.00202383
-9.29969e-05
-1.28825e-06
-0.00200782
-0.000144892
-5.07617e-06
-0.00197236
-1.1064e-05
-0.00189522
-0.000201392
1.97737e-05
2.3976e-06
-0.00232381
8.09563e-06
3.23226e-06
-0.0023269
-3.43904e-06
3.58264e-06
-0.00232882
-1.53453e-05
3.57146e-06
-0.00232932
-2.83368e-05
3.1543e-06
-0.00232808
-4.37546e-05
2.31896e-06
-0.00232458
-6.48032e-05
8.73832e-07
-0.00231692
-9.80695e-05
-1.27499e-06
-0.00230023
-0.000159356
-5.20872e-06
-0.00226031
-1.18829e-05
-0.00216571
-0.000230799
2.01861e-05
2.36869e-06
-0.0026145
8.53081e-06
3.10954e-06
-0.00261821
-2.95362e-06
3.39437e-06
-0.00262065
-1.47989e-05
3.31e-06
-0.00262157
-2.78485e-05
2.85148e-06
-0.00262077
-4.3554e-05
1.98944e-06
-0.00261784
-6.54984e-05
5.4843e-07
-0.00261075
-0.000101308
-1.5653e-06
-0.00259409
-0.000171275
-5.24599e-06
-0.00255109
-1.22485e-05
-0.00243911
-0.000256801
1.99279e-05
2.03385e-06
-0.00290561
8.27084e-06
2.58918e-06
-0.00290993
-3.10708e-06
2.71797e-06
-0.0029125
-1.47854e-05
2.48046e-06
-0.00291335
-2.76627e-05
1.90756e-06
-0.00291238
-4.32647e-05
9.66257e-07
-0.0029095
-6.5474e-05
-4.35754e-07
-0.00290276
-0.000102751
-2.40749e-06
-0.00288645
-0.000180119
-5.22071e-06
-0.00284148
-1.18991e-05
-0.00271328
-0.000279419
1.93976e-05
1.07391e-06
-0.00319321
8.2105e-06
1.2188e-06
-0.00319829
-2.66284e-06
1.05877e-06
-0.00320138
-1.3833e-05
4.74186e-07
-0.00320264
-2.6353e-05
-4.03988e-07
-0.00320212
-4.18591e-05
-1.58509e-06
-0.00319982
-6.44382e-05
-3.01068e-06
-0.00319398
-0.00010304
-4.67525e-06
-0.00317917
-0.000186368
-6.149e-06
-0.00313242
-1.00753e-05
-0.00298565
-0.000301861
1.82422e-05
-0.00346151
6.80365e-06
-0.00346626
-4.11888e-06
-0.00346765
-1.52137e-05
-0.0034655
-2.74209e-05
-0.00346011
-4.23451e-05
-0.00345187
-6.39064e-05
-0.0034396
-0.000101289
-0.0034195
-0.000186016
-0.00337002
-0.0032157
-0.000320007
1.20259e-05
7.77622e-07
-0.000854369
4.42315e-06
1.01766e-06
-0.000855945
-3.29477e-06
1.10567e-06
-0.000856503
-1.10379e-05
1.04121e-06
-0.00085619
-1.86828e-05
8.17716e-07
-0.000855003
-2.59847e-05
4.19388e-07
-0.000852786
-3.23915e-05
-1.75788e-07
-0.000849256
-3.65994e-05
-1.00573e-06
-0.000843958
-3.67275e-05
-2.15418e-06
-0.000836368
-3.43237e-06
-0.000826722
-2.89702e-05
1.38779e-05
1.36204e-06
-0.0011476
4.85237e-06
1.80217e-06
-0.00114947
-4.23422e-06
1.96523e-06
-0.00115016
-1.34727e-05
1.87457e-06
-0.00114968
-2.28693e-05
1.50868e-06
-0.00114788
-3.2273e-05
8.4301e-07
-0.00114442
-4.12831e-05
-1.75885e-07
-0.00113865
-4.87474e-05
-1.62051e-06
-0.00112942
-5.22013e-05
-3.70593e-06
-0.00111506
-6.12803e-06
-0.00109587
-4.47545e-05
1.59824e-05
1.70825e-06
-0.00144012
5.78021e-06
2.30332e-06
-0.00144237
-4.41648e-06
2.53689e-06
-0.00144323
-1.4803e-05
2.45665e-06
-0.00144262
-2.54747e-05
2.02464e-06
-0.0014403
-3.64947e-05
1.20561e-06
-0.0014357
-4.79769e-05
-9.52879e-08
-0.00142782
-5.94529e-05
-1.97586e-06
-0.00141472
-6.8512e-05
-4.846e-06
-0.00139271
-8.36587e-06
-0.00136071
-6.49449e-05
1.76322e-05
1.96709e-06
-0.00172977
6.64086e-06
2.73058e-06
-0.00173253
-4.34191e-06
3.05372e-06
-0.00173368
-1.56269e-05
3.01504e-06
-0.00173316
-2.746e-05
2.56045e-06
-0.00173064
-4.01708e-05
1.65229e-06
-0.00172543
-5.43203e-05
1.42536e-07
-0.001716
-7.01002e-05
-2.08945e-06
-0.00169937
-8.58011e-05
-5.70612e-06
-0.00166882
-1.03348e-05
-0.00162111
-8.82321e-05
1.90374e-05
2.25858e-06
-0.00202122
7.53715e-06
3.10754e-06
-0.00202455
-3.93392e-06
3.47855e-06
-0.00202615
-1.57946e-05
3.46334e-06
-0.00202591
-2.84701e-05
3.00301e-06
-0.00202349
-4.25424e-05
2.05564e-06
-0.00201808
-5.90247e-05
4.18075e-07
-0.00200763
-7.89061e-05
-2.05851e-06
-0.00198797
-0.000101936
-6.30189e-06
-0.00194873
-1.19702e-05
-0.0018834
-0.000112116
1.99753e-05
2.42595e-06
-0.00231132
8.13834e-06
3.31396e-06
-0.00231527
-3.61578e-06
3.68511e-06
-0.00231727
-1.57998e-05
3.66e-06
-0.00231733
-2.89966e-05
3.1822e-06
-0.00231506
-4.40384e-05
2.21837e-06
-0.0023097
-6.24245e-05
5.35207e-07
-0.00229865
-8.60491e-05
-2.0395e-06
-0.00227662
-0.000116871
-6.63834e-06
-0.00222916
-1.31802e-05
-0.00214515
-0.000136227
2.05274e-05
2.42042e-06
-0.00260159
8.60984e-06
3.21453e-06
-0.00260619
-3.18667e-06
3.52606e-06
-0.00260869
-1.54207e-05
3.44112e-06
-0.00260911
-2.88414e-05
2.94652e-06
-0.00260711
-4.4491e-05
1.99607e-06
-0.00260197
-6.43532e-05
3.5422e-07
-0.00259071
-9.12585e-05
-2.20176e-06
-0.00256702
-0.000129977
-6.76622e-06
-0.00251225
-1.39492e-05
-0.00240905
-0.000159273
2.03512e-05
2.09684e-06
-0.00289221
8.40331e-06
2.70164e-06
-0.00289747
-3.30963e-06
2.87386e-06
-0.00290014
-1.54091e-05
2.67674e-06
-0.00290048
-2.87391e-05
2.12616e-06
-0.00289823
-4.4531e-05
1.17545e-06
-0.00289288
-6.52373e-05
-3.27327e-07
-0.00288138
-9.45838e-05
-2.64758e-06
-0.00285666
-0.000140685
-6.40228e-06
-0.00279575
-1.37381e-05
-0.0026736
-0.000180578
1.97382e-05
1.15071e-06
-0.0031795
8.243e-06
1.32807e-06
-0.00318542
-2.96976e-06
1.2479e-06
-0.00318854
-1.45264e-05
7.72627e-07
-0.00318918
-2.74287e-05
2.58086e-08
-0.00318712
-4.31507e-05
-1.01354e-06
-0.00318191
-6.46506e-05
-2.33688e-06
-0.00317047
-9.64407e-05
-4.09059e-06
-0.00314594
-0.000148897
-6.3712e-06
-0.00308
-1.15129e-05
-0.00293619
-0.000200579
1.85761e-05
-0.00344765
6.99887e-06
-0.00345336
-4.1057e-06
-0.00345529
-1.54475e-05
-0.00345338
-2.79186e-05
-0.00344761
-4.30035e-05
-0.0034378
-6.37008e-05
-0.00342124
-9.54116e-05
-0.00339188
-0.00015068
-0.00332112
-0.00316254
-0.000215349
9.33366e-06
6.0871e-07
-0.000849538
3.46344e-06
8.52236e-07
-0.000850927
-2.58791e-06
9.44352e-07
-0.000851396
-8.54705e-06
8.78279e-07
-0.000851109
-1.41072e-05
6.52619e-07
-0.000850095
-1.88457e-05
2.58485e-07
-0.000848306
-2.21201e-05
-3.11061e-07
-0.000845671
-2.28923e-05
-1.05821e-06
-0.000842127
-1.95793e-05
-1.97941e-06
-0.000837702
-2.86306e-06
-0.000832856
-1.05822e-05
1.17248e-05
1.11594e-06
-0.00114077
4.1069e-06
1.56631e-06
-0.00114257
-3.63966e-06
1.73457e-06
-0.0011432
-1.13772e-05
1.63645e-06
-0.0011427
-1.88896e-05
1.25478e-06
-0.00114097
-2.57879e-05
5.71529e-07
-0.00113784
-3.13125e-05
-4.44789e-07
-0.00113299
-3.39459e-05
-1.81633e-06
-0.00112603
-3.08493e-05
-3.60313e-06
-0.00111654
-5.41815e-06
-0.00110601
-1.81517e-05
1.44341e-05
1.4871e-06
-0.00143135
5.2574e-06
2.09861e-06
-0.00143372
-3.98593e-06
2.33504e-06
-0.00143459
-1.32964e-05
2.23425e-06
-0.00143391
-2.25677e-05
1.75997e-06
-0.00143153
-3.15048e-05
8.77487e-07
-0.00142707
-3.94302e-05
-4.90625e-07
-0.00141985
-4.47344e-05
-2.39715e-06
-0.00140883
-4.3491e-05
-5.03615e-06
-0.00139252
-7.8933e-06
-0.00137302
-2.87078e-05
1.65212e-05
1.79851e-06
-0.00171967
6.2258e-06
2.59106e-06
-0.00172273
-4.1328e-06
2.91798e-06
-0.00172391
-1.4692e-05
2.84881e-06
-0.00172322
-2.54968e-05
2.32989e-06
-0.00172041
-3.64584e-05
1.31928e-06
-0.00171491
-4.71094e-05
-3.19075e-07
-0.00170552
-5.58656e-05
-2.67757e-06
-0.00169033
-5.78753e-05
-6.17838e-06
-0.00166566
-1.01735e-05
-0.00163382
-4.28843e-05
1.82719e-05
2.14103e-06
-0.00201014
7.19084e-06
3.02836e-06
-0.0020139
-3.92246e-06
3.407e-06
-0.00201552
-1.53443e-05
3.35845e-06
-0.002015
-2.73116e-05
2.82223e-06
-0.00201201
-3.99858e-05
1.74706e-06
-0.00200584
-5.32041e-05
-6.77606e-08
-0.00199466
-6.55998e-05
-2.76811e-06
-0.00197548
-7.19267e-05
-7.05496e-06
-0.00194153
-1.21925e-05
-0.00189468
-5.86283e-05
1.95045e-05
2.36859e-06
-0.0022994
7.87326e-06
3.30107e-06
-0.00230392
-3.73269e-06
3.68466e-06
-0.00230594
-1.57156e-05
3.63224e-06
-0.00230562
-2.84892e-05
3.08092e-06
-0.00230255
-4.24905e-05
1.98302e-06
-0.00229593
-5.79591e-05
9.4256e-08
-0.00228334
-7.39575e-05
-2.78345e-06
-0.00226061
-8.55261e-05
-7.60727e-06
-0.00221704
-1.37668e-05
-0.0021533
-7.58005e-05
2.0261e-05
2.40711e-06
-0.00258903
8.39426e-06
3.24722e-06
-0.00259427
-3.40132e-06
3.57656e-06
-0.00259679
-1.56062e-05
3.47548e-06
-0.00259675
-2.88218e-05
2.92153e-06
-0.00259374
-4.37448e-05
1.85694e-06
-0.00258692
-6.10761e-05
2.19262e-08
-0.0025733
-8.04486e-05
-2.86689e-06
-0.00254757
-9.78697e-05
-7.85535e-06
-0.00249458
-1.48967e-05
-0.00241265
-9.31307e-05
2.02412e-05
2.11182e-06
-0.00287906
8.27159e-06
2.75933e-06
-0.00288501
-3.51515e-06
2.96169e-06
-0.00288774
-1.56847e-05
2.78375e-06
-0.00288762
-2.89511e-05
2.22349e-06
-0.00288426
-4.42604e-05
1.22623e-06
-0.00287694
-6.28401e-05
-4.01483e-07
-0.00286237
-8.50383e-05
-3.02077e-06
-0.00283431
-0.000108508
-7.33073e-06
-0.0027728
-1.48307e-05
-0.00267208
-0.00011009
1.96935e-05
1.19965e-06
-0.00316593
8.11864e-06
1.40481e-06
-0.00317249
-3.22929e-06
1.38956e-06
-0.00317562
-1.49165e-05
9.99269e-07
-0.00317571
-2.77958e-05
3.45834e-07
-0.00317236
-4.30467e-05
-6.07642e-07
-0.00316483
-6.25185e-05
-1.8952e-06
-0.0031495
-8.767e-05
-3.75205e-06
-0.00312005
-0.000117052
-6.49582e-06
-0.00305145
-1.22158e-05
-0.00292921
-0.000126646
1.86062e-05
-0.00343398
7.07076e-06
-0.00344042
-4.05807e-06
-0.00344277
-1.54503e-05
-0.00344099
-2.78757e-05
-0.00343484
-4.25532e-05
-0.00342373
-6.14333e-05
-0.00340425
-8.70675e-05
-0.00337
-0.000119682
-0.003295
-0.00315503
-0.000139404
6.84916e-06
4.2369e-07
-0.000846192
2.57469e-06
6.5427e-07
-0.000847307
-1.89889e-06
7.4496e-07
-0.000847667
-6.24117e-06
6.82625e-07
-0.00084745
-1.01075e-05
4.70796e-07
-0.0008467
-1.30929e-05
1.08572e-07
-0.000845429
-1.47038e-05
-3.95628e-07
-0.000843664
-1.43362e-05
-1.02051e-06
-0.000841475
-1.13196e-05
-1.72036e-06
-0.000838998
-2.3287e-06
-0.000836483
-5.36401e-06
9.38711e-06
8.21587e-07
-0.00113556
3.29718e-06
1.26123e-06
-0.00113708
-2.9688e-06
1.42791e-06
-0.00113762
-9.13087e-06
1.32879e-06
-0.00113718
-1.48465e-05
9.52448e-07
-0.00113573
-1.96462e-05
2.92206e-07
-0.00113322
-2.28143e-05
-6.57005e-07
-0.00112956
-2.32474e-05
-1.87332e-06
-0.00112474
-1.92824e-05
-3.31364e-06
-0.00111891
-4.63245e-06
-0.00111323
-9.7644e-06
1.24559e-05
1.18739e-06
-0.00142418
4.59116e-06
1.7955e-06
-0.00142639
-3.40655e-06
2.02847e-06
-0.00142719
-1.13543e-05
1.91213e-06
-0.00142654
-1.89771e-05
1.4155e-06
-0.00142437
-2.58026e-05
5.1403e-07
-0.00142047
-3.09546e-05
-8.38591e-07
-0.00141451
-3.28544e-05
-2.64463e-06
-0.00140616
-2.86145e-05
-4.92417e-06
-0.00139515
-7.1405e-06
-0.00138374
-1.53859e-05
1.48905e-05
1.53316e-06
-0.00171098
5.63897e-06
2.33865e-06
-0.00171402
-3.7517e-06
2.66389e-06
-0.00171515
-1.32151e-05
2.56636e-06
-0.00171441
-2.25873e-05
1.99738e-06
-0.00171162
-3.15024e-05
9.21479e-07
-0.0017064
-3.90682e-05
-7.63952e-07
-0.00169803
-4.33523e-05
-3.10106e-06
-0.00168559
-4.00334e-05
-6.26983e-06
-0.00166764
-9.53718e-06
-0.00164761
-2.38428e-05
1.69728e-05
1.91868e-06
-0.00200021
6.66652e-06
2.83229e-06
-0.00200409
-3.74486e-06
3.21371e-06
-0.00200566
-1.43386e-05
3.13055e-06
-0.00200497
-2.5121e-05
2.52498e-06
-0.00200176
-3.59145e-05
1.34629e-06
-0.00199547
-4.59411e-05
-5.7634e-07
-0.00198482
-5.30692e-05
-3.3458e-06
-0.00196811
-5.16609e-05
-7.37627e-06
-0.00194183
-1.17704e-05
-0.00191047
-3.36387e-05
1.8516e-05
2.20673e-06
-0.00228843
7.43009e-06
3.17567e-06
-0.00229317
-3.70331e-06
3.56761e-06
-0.00229516
-1.51054e-05
3.48402e-06
-0.00229457
-2.69533e-05
2.85962e-06
-0.00229103
-3.93133e-05
1.64039e-06
-0.00228387
-5.16591e-05
-3.99167e-07
-0.00227118
-6.1872e-05
-3.43179e-06
-0.00225031
-6.33681e-05
-8.12185e-06
-0.00221479
-1.35879e-05
-0.00216984
-4.50069e-05
1.95095e-05
2.30244e-06
-0.0025772
8.00655e-06
3.18477e-06
-0.00258277
-3.49311e-06
3.52913e-06
-0.00258525
-1.53157e-05
3.40749e-06
-0.00258485
-2.78318e-05
2.78967e-06
-0.00258115
-4.13655e-05
1.60912e-06
-0.00257336
-5.57438e-05
-3.89129e-07
-0.00255894
-6.90374e-05
-3.47953e-06
-0.00253423
-7.42166e-05
-8.48663e-06
-0.00248903
-1.49513e-05
-0.00242865
-5.6855e-05
1.96924e-05
2.04646e-06
-0.00286651
7.98139e-06
2.73746e-06
-0.00287285
-3.61869e-06
2.9657e-06
-0.00287557
-1.55463e-05
2.79858e-06
-0.00287508
-2.8298e-05
2.21737e-06
-0.00287094
-4.2452e-05
1.15881e-06
-0.00286234
-5.83086e-05
-5.8907e-07
-0.00284632
-7.43921e-05
-3.40843e-06
-0.00281829
-8.38714e-05
-7.91073e-06
-0.0027639
-1.50076e-05
-0.00268685
-6.90452e-05
1.92698e-05
1.19966e-06
-0.00315284
7.86657e-06
1.4334e-06
-0.00315978
-3.38691e-06
1.47502e-06
-0.00316288
-1.49378e-05
1.15378e-06
-0.00316252
-2.74303e-05
5.70596e-07
-0.00315822
-4.16494e-05
-3.27273e-07
-0.00314912
-5.83931e-05
-1.6067e-06
-0.00313174
-7.72893e-05
-3.5383e-06
-0.00310103
-9.15605e-05
-6.47539e-06
-0.00303861
-1.2078e-05
-0.00294222
-8.14825e-05
1.82916e-05
-0.00342081
7.00165e-06
-0.00342769
-3.9664e-06
-0.00343033
-1.51894e-05
-0.00342862
-2.72613e-05
-0.0034222
-4.10524e-05
-0.00341027
-5.75076e-05
-0.0033894
-7.70926e-05
-0.00335396
-9.41524e-05
-0.00328442
-0.00317041
-9.08528e-05
4.81643e-06
2.50716e-07
-0.000843933
1.84256e-06
4.5539e-07
-0.000844788
-1.31467e-06
5.39743e-07
-0.00084505
-4.3463e-06
4.85207e-07
-0.000844903
-6.94564e-06
2.99191e-07
-0.0008444
-8.79006e-06
-1.33057e-08
-0.000843572
-9.55037e-06
-4.33992e-07
-0.00084247
-8.91207e-06
-9.30891e-07
-0.000841182
-6.64592e-06
-1.4476e-06
-0.000839816
-1.86607e-06
-0.000838417
-2.84597e-06
7.16924e-06
5.20407e-07
-0.00113173
2.51916e-06
9.28625e-07
-0.00113291
-2.32272e-06
1.08663e-06
-0.00113332
-7.02499e-06
9.93382e-07
-0.00113299
-1.1215e-05
6.43046e-07
-0.00113189
-1.44512e-05
4.01218e-08
-0.00113004
-1.61746e-05
-7.98849e-07
-0.00112747
-1.57043e-05
-1.82553e-06
-0.00112432
-1.22592e-05
-2.9515e-06
-0.00112085
-3.90771e-06
-0.00111779
-5.6521e-06
1.03344e-05
8.48123e-07
-0.00141854
3.86887e-06
1.42924e-06
-0.00142043
-2.77478e-06
1.6514e-06
-0.00142111
-9.29143e-06
1.52788e-06
-0.00142056
-1.53073e-05
1.03456e-06
-0.00141875
-2.03022e-05
1.61335e-07
-0.0014156
-2.34788e-05
-1.10392e-06
-0.00141103
-2.36622e-05
-2.72163e-06
-0.00140508
-1.91471e-05
-4.61253e-06
-0.001398
-6.31299e-06
-0.00139139
-9.09066e-06
1.29533e-05
1.19953e-06
-0.00170381
4.94842e-06
1.99571e-06
-0.00170658
-3.261e-06
2.31259e-06
-0.0017076
-1.14352e-05
2.1942e-06
-0.0017069
-1.92469e-05
1.60007e-06
-0.00170437
-2.61813e-05
5.08617e-07
-0.00169982
-3.12794e-05
-1.13861e-06
-0.0016929
-3.28877e-05
-3.33067e-06
-0.00168337
-2.80245e-05
-6.07384e-06
-0.00167104
-8.68535e-06
-0.00165872
-1.45454e-05
1.52829e-05
1.60937e-06
-0.00199166
6.01556e-06
2.52997e-06
-0.00199536
-3.42927e-06
2.90805e-06
-0.00199681
-1.29319e-05
2.7952e-06
-0.00199607
-2.22881e-05
2.14041e-06
-0.00199294
-3.10799e-05
9.02553e-07
-0.00198707
-3.82934e-05
-1.04156e-06
-0.0019777
-4.18769e-05
-3.73501e-06
-0.00196412
-3.73982e-05
-7.34528e-06
-0.00194504
-1.09852e-05
-0.0019247
-2.08735e-05
1.71003e-05
1.94787e-06
-0.00227867
6.84787e-06
2.93845e-06
-0.00228333
-3.53049e-06
3.33344e-06
-0.00228521
-1.40553e-05
3.22044e-06
-0.00228447
-2.46644e-05
2.53655e-06
-0.00228082
-3.51117e-05
1.23091e-06
-0.00227375
-4.44662e-05
-8.79618e-07
-0.00226198
-5.04417e-05
-3.91239e-06
-0.00224416
-4.72133e-05
-8.23817e-06
-0.00221713
-1.29081e-05
-0.00218661
-2.85175e-05
1.83248e-05
2.1059e-06
-0.00256643
7.47615e-06
3.02114e-06
-0.00257201
-3.44793e-06
3.37685e-06
-0.00257437
-1.45842e-05
3.23492e-06
-0.00257373
-2.60514e-05
2.56147e-06
-0.00256971
-3.78169e-05
1.28885e-06
-0.00256165
-4.9149e-05
-8.08365e-07
-0.00254767
-5.76871e-05
-3.9515e-06
-0.00252565
-5.6445e-05
-8.6893e-06
-0.00248982
-1.43508e-05
-0.00244717
-3.64855e-05
1.87299e-05
1.89524e-06
-0.00285486
7.5519e-06
2.62654e-06
-0.00286128
-3.59968e-06
2.8761e-06
-0.00286392
-1.49953e-05
2.71459e-06
-0.00286317
-2.68834e-05
2.11017e-06
-0.0028586
-3.9458e-05
9.97994e-07
-0.00284947
-5.23275e-05
-8.26956e-07
-0.00283343
-6.33403e-05
-3.71016e-06
-0.00280752
-6.4862e-05
-8.09815e-06
-0.00276297
-1.44353e-05
-0.00270666
-4.49762e-05
1.84649e-05
1.14395e-06
-0.00314054
7.4893e-06
1.40469e-06
-0.00314758
-3.42708e-06
1.49467e-06
-0.00315058
-1.45708e-05
1.22791e-06
-0.00314989
-2.63523e-05
6.96147e-07
-0.00314503
-3.9157e-05
-1.64512e-07
-0.00313516
-5.29372e-05
-1.43836e-06
-0.00311735
-6.63029e-05
-3.37884e-06
-0.00308799
-7.1261e-05
-6.289e-06
-0.00303547
-1.12878e-05
-0.00296302
-5.36126e-05
1.7624e-05
-0.00340842
6.79124e-06
-0.00341546
-3.81531e-06
-0.00341823
-1.4639e-05
-0.00341656
-2.60689e-05
-0.00341007
-3.86065e-05
-0.0033979
-5.23918e-05
-0.00337706
-6.65668e-05
-0.00334316
-7.36969e-05
-0.00328358
-0.00319582
-5.95783e-05
3.29099e-06
1.06819e-07
-0.000842409
1.28805e-06
2.78568e-07
-0.000843064
-8.66486e-07
3.53415e-07
-0.000843249
-2.92019e-06
3.08733e-07
-0.000843158
-4.63259e-06
1.54551e-07
-0.000842842
-5.77056e-06
-1.01098e-07
-0.000842333
-6.12986e-06
-4.35623e-07
-0.000841675
-5.55921e-06
-8.15734e-07
-0.000840937
-4.01133e-06
-1.18941e-06
-0.000840175
-1.4757e-06
-0.000839307
-1.64568e-06
5.24903e-06
2.44311e-07
-0.00112897
1.83116e-06
6.05504e-07
-0.00112982
-1.7673e-06
7.49003e-07
-0.00113012
-5.22961e-06
6.66979e-07
-0.00112988
-8.21496e-06
3.58071e-07
-0.00112911
-1.03601e-05
-1.64913e-07
-0.00112783
-1.12714e-05
-8.71897e-07
-0.00112613
-1.05667e-05
-1.70321e-06
-0.00112414
-7.94657e-06
-2.56213e-06
-0.0011221
-3.2528e-06
-0.00112043
-3.53708e-06
8.28509e-06
5.06879e-07
-0.00141424
3.15589e-06
1.03843e-06
-0.00141573
-2.16827e-06
1.24242e-06
-0.00141628
-7.33236e-06
1.12048e-06
-0.00141585
-1.19358e-05
6.55165e-07
-0.00141444
-1.5492e-05
-1.49625e-07
-0.00141206
-1.7373e-05
-1.27796e-06
-0.00140874
-1.68205e-05
-2.66183e-06
-0.00140468
-1.29826e-05
-4.17802e-06
-0.00140023
-5.46971e-06
-0.00139638
-5.77704e-06
1.09002e-05
8.32825e-07
-0.00169809
4.20953e-06
1.5943e-06
-0.00170045
-2.7286e-06
1.89499e-06
-0.00170132
-9.56157e-06
1.76556e-06
-0.00170071
-1.58696e-05
1.17525e-06
-0.00169858
-2.10948e-05
1.19223e-07
-0.00169486
-2.43881e-05
-1.41761e-06
-0.00168947
-2.45461e-05
-3.37935e-06
-0.0016825
-1.98145e-05
-5.66802e-06
-0.00167428
-7.7233e-06
-0.00166674
-9.54048e-06
1.33486e-05
1.24181e-06
-0.00198454
5.28003e-06
2.14412e-06
-0.00198784
-3.02414e-06
2.51089e-06
-0.00198912
-1.12884e-05
2.37702e-06
-0.00198842
-1.91567e-05
1.7012e-06
-0.0019856
-2.60807e-05
4.58228e-07
-0.00198049
-3.10471e-05
-1.42165e-06
-0.00197273
-3.24058e-05
-3.92112e-06
-0.00196222
-2.72133e-05
-7.03009e-06
-0.00194887
-9.98202e-06
-0.00193583
-1.38202e-05
1.536e-05
1.61225e-06
-0.00227027
6.15683e-06
2.60237e-06
-0.00227458
-3.24365e-06
2.99297e-06
-0.00227629
-1.26808e-05
2.85636e-06
-0.00227551
-2.18964e-05
2.1363e-06
-0.00227204
-3.04299e-05
7.93716e-07
-0.00226555
-3.72139e-05
-1.29876e-06
-0.00225532
-4.02438e-05
-4.19119e-06
-0.00224086
-3.52501e-05
-8.01282e-06
-0.00222114
-1.18946e-05
-0.0022008
-1.91551e-05
1.67725e-05
1.82924e-06
-0.00255692
6.82307e-06
2.76076e-06
-0.00256222
-3.28009e-06
3.1218e-06
-0.00256439
-1.34848e-05
2.96304e-06
-0.00256363
-2.36837e-05
2.2513e-06
-0.00255963
-3.35638e-05
9.26773e-07
-0.0025519
-4.21058e-05
-1.18848e-06
-0.00253924
-4.70696e-05
-4.23747e-06
-0.00252064
-4.287e-05
-8.50879e-06
-0.00249353
-1.32801e-05
-0.00246409
-2.45663e-05
1.7393e-05
1.66332e-06
-0.00284435
6.99508e-06
2.42541e-06
-0.00285055
-3.46354e-06
2.69004e-06
-0.00285303
-1.40727e-05
2.53145e-06
-0.00285213
-2.48456e-05
1.90907e-06
-0.00284748
-3.56491e-05
7.64192e-07
-0.00283851
-4.56549e-05
-1.08022e-06
-0.00282353
-5.26162e-05
-3.8898e-06
-0.00280091
-4.9989e-05
-7.91766e-06
-0.00276619
-1.32844e-05
-0.00272615
-3.0492e-05
1.72976e-05
1.03251e-06
-0.00312932
6.99072e-06
1.31494e-06
-0.00313617
-3.35195e-06
1.44408e-06
-0.00313899
-1.38373e-05
1.21937e-06
-0.00313809
-2.46464e-05
7.26086e-07
-0.00313304
-3.58165e-05
-1.04265e-07
-0.00312312
-4.67386e-05
-1.35912e-06
-0.00310615
-5.55504e-05
-3.23936e-06
-0.00307983
-5.51164e-05
-5.95536e-06
-0.00303786
-1.01073e-05
-0.00298517
-3.61378e-05
1.6615e-05
-0.00339708
6.44345e-06
-0.00340397
-3.60029e-06
-0.00340674
-1.38041e-05
-0.00340514
-2.4348e-05
-0.0033988
-3.53958e-05
-0.00338695
-4.65287e-05
-0.00336728
-5.61808e-05
-0.00333675
-5.7376e-05
-0.00328834
-0.00322361
-3.96876e-05
2.21188e-06
-1.67447e-09
-0.000841366
8.93562e-07
1.36153e-07
-0.000841882
-5.42972e-07
2.00385e-07
-0.000842013
-1.90623e-06
1.65785e-07
-0.000841961
-3.02093e-06
4.39835e-08
-0.000841771
-3.72703e-06
-1.56335e-07
-0.00084147
-3.90065e-06
-4.12505e-07
-0.000841089
-3.47113e-06
-6.94996e-07
-0.000840671
-2.44937e-06
-9.61334e-07
-0.000840235
-1.15659e-06
-0.00083963
-9.69419e-07
3.69416e-06
1.25995e-08
-0.00112699
1.26091e-06
3.18731e-07
-0.00112757
-1.32605e-06
4.44221e-07
-0.00112778
-3.79931e-06
3.76417e-07
-0.00112762
-5.87774e-06
1.17048e-07
-0.0011271
-7.28497e-06
-3.16652e-07
-0.00112626
-7.75929e-06
-8.88983e-07
-0.00112518
-7.09732e-06
-1.5398e-06
-0.00112395
-5.21297e-06
-2.18146e-06
-0.00112276
-2.67472e-06
-0.00112183
-2.29045e-06
6.4497e-06
1.93268e-07
-0.00141101
2.50233e-06
6.58001e-07
-0.00141212
-1.63124e-06
8.37774e-07
-0.00141254
-5.60407e-06
7.2457e-07
-0.00141223
-9.04155e-06
3.06243e-07
-0.00141119
-1.15315e-05
-4.03058e-07
-0.00140948
-1.26146e-05
-1.36888e-06
-0.00140718
-1.1835e-05
-2.51029e-06
-0.00140449
-8.82533e-06
-3.69463e-06
-0.00140172
-4.66023e-06
-0.00139947
-3.74685e-06
8.8928e-06
4.67139e-07
-0.00169366
3.47492e-06
1.16989e-06
-0.00169554
-2.20622e-06
1.4466e-06
-0.00169625
-7.74963e-06
1.31594e-06
-0.00169576
-1.27103e-05
7.56552e-07
-0.00169407
-1.65609e-05
-2.20766e-07
-0.00169119
-1.86212e-05
-1.59712e-06
-0.00168718
-1.80878e-05
-3.28627e-06
-0.00168226
-1.40468e-05
-5.14009e-06
-0.00167688
-6.72607e-06
-0.00167227
-6.45181e-06
1.13193e-05
8.48517e-07
-0.00197877
4.50711e-06
1.70509e-06
-0.00198156
-2.57548e-06
2.05161e-06
-0.00198264
-9.555e-06
1.90701e-06
-0.00198203
-1.59937e-05
1.24076e-06
-0.00197964
-2.13085e-05
4.57661e-08
-0.00197544
-2.46098e-05
-1.69899e-06
-0.00196933
-2.4692e-05
-3.92685e-06
-0.0019615
-1.98186e-05
-6.51765e-06
-0.00195236
-8.85859e-06
-0.00194406
-9.45608e-06
1.3419e-05
1.22745e-06
-0.00226326
5.39584e-06
2.19013e-06
-0.00226705
-2.87783e-06
2.56727e-06
-0.00226853
-1.11042e-05
2.41546e-06
-0.00226779
-1.88931e-05
1.688e-06
-0.0022647
-2.56756e-05
3.62922e-07
-0.00225909
-3.04247e-05
-1.62942e-06
-0.00225064
-3.15584e-05
-4.27509e-06
-0.00223938
-2.63097e-05
-7.53005e-06
-0.00222538
-1.06713e-05
-0.00221196
-1.33377e-05
1.49474e-05
1.49232e-06
-0.00254878
6.07697e-06
2.41732e-06
-0.00255357
-3.0135e-06
2.7756e-06
-0.00255551
-1.21106e-05
2.60595e-06
-0.00255472
-2.0934e-05
1.87961e-06
-0.00255099
-2.89927e-05
5.51737e-07
-0.00254403
-3.51951e-05
-1.50043e-06
-0.00253317
-3.76504e-05
-4.33592e-06
-0.00251812
-3.2441e-05
-8.03369e-06
-0.00249823
-1.1912e-05
-0.00247821
-1.70764e-05
1.57523e-05
1.36358e-06
-0.00283514
6.33327e-06
2.1408e-06
-0.00284085
-3.22545e-06
2.41268e-06
-0.00284311
-1.28462e-05
2.25694e-06
-0.00284216
-2.23471e-05
1.6286e-06
-0.00283773
-3.13616e-05
4.8186e-07
-0.00282942
-3.88668e-05
-1.31988e-06
-0.00281621
-4.28116e-05
-3.94724e-06
-0.00279735
-3.83391e-05
-7.47142e-06
-0.00277122
-1.18e-05
-0.00274329
-2.13097e-05
1.58176e-05
8.70918e-07
-0.00311936
6.38532e-06
1.16586e-06