/*--------------------------------*- C++ -*----------------------------------*\
| =========                 |                                                 |
| \\      /  F ield         | foam-extend: Open Source CFD                    |
|  \\    /   O peration     | Version:     4.0                                |
|   \\  /    A nd           | Web:         http://www.foam-extend.org         |
|    \\/     M anipulation  |                                                 |
\*---------------------------------------------------------------------------*/
FoamFile
{
    version     2.0;
    format      ascii;
    class       volVectorField;
    location    "2650";
    object      Urel;
}
// * * * * * * * * * * * * * * * * * * * * * * * * * * * * * * * * * * * * * //

dimensions      [0 1 -1 0 0 0 0];

internalField   nonuniform List<vector> 
34480
(
(209.006 -9.79389 -19.0913)
(209.326 -9.29358 -21.5539)
(209.483 -8.56826 -23.9805)
(209.49 -7.64377 -26.414)
(209.34 -6.55893 -28.9928)
(208.998 -5.31653 -31.8924)
(208.383 -3.89689 -35.513)
(207.216 -2.18377 -40.1992)
(204.545 0.0514454 -48.1214)
(197.607 4.25578 -75.292)
(209.939 -12.8026 -26.8101)
(210.198 -11.6754 -29.5941)
(210.325 -10.3937 -32.2539)
(210.298 -8.9717 -34.857)
(210.063 -7.44596 -37.5207)
(209.56 -5.8363 -40.4523)
(208.753 -4.1617 -44.1115)
(207.46 -2.36815 -49.2403)
(204.324 -0.294202 -58.0613)
(196.165 3.65904 -88.6315)
(210.628 -17.1 -33.7471)
(210.862 -15.5488 -36.8323)
(210.956 -13.8205 -39.7795)
(210.886 -11.909 -42.6022)
(210.59 -9.87015 -45.428)
(210.063 -7.7382 -48.5136)
(209.311 -5.5406 -52.3873)
(208.167 -3.20765 -58.078)
(204.866 -0.572444 -67.7765)
(195.656 4.13215 -101.291)
(210.635 -20.4953 -41.1593)
(210.87 -18.4133 -44.539)
(210.98 -16.1556 -47.7257)
(210.942 -13.704 -50.7506)
(210.708 -11.1152 -53.7484)
(210.294 -8.42644 -57.005)
(209.677 -5.67016 -61.0515)
(208.697 -2.76754 -67.1365)
(205.371 0.454391 -77.4584)
(195.357 5.84586 -112.88)
(210.794 -24.9721 -48.0211)
(211.059 -22.4805 -51.6783)
(211.206 -19.7754 -55.1515)
(211.23 -16.8384 -58.4262)
(211.088 -13.7453 -61.6621)
(210.809 -10.5334 -65.1567)
(210.341 -7.22965 -69.4384)
(209.544 -3.74439 -75.9425)
(206.317 0.102384 -86.932)
(195.66 6.19694 -123.872)
(210.679 -28.2268 -55.6174)
(210.955 -25.2351 -59.5114)
(211.122 -22.0156 -63.1531)
(211.181 -18.5474 -66.5715)
(211.106 -14.8976 -69.9185)
(210.943 -11.1093 -73.5163)
(210.628 -7.21103 -77.8771)
(210.047 -3.11594 -84.6084)
(207.066 1.37625 -96.0829)
(196.01 8.10817 -134.171)
(210.761 -33.0088 -62.4756)
(211.077 -29.6281 -66.6098)
(211.272 -25.9841 -70.5012)
(211.37 -22.066 -74.1261)
(211.354 -17.9488 -77.6659)
(211.288 -13.669 -81.4439)
(211.114 -9.2313 -85.9759)
(210.749 -4.53242 -92.9912)
(208.099 0.698901 -105.044)
(196.748 8.26169 -144.125)
(210.589 -36.1792 -70.3227)
(210.909 -32.3265 -74.664)
(211.084 -28.1647 -78.6834)
(211.14 -23.7085 -82.4175)
(211.083 -19.0116 -86.0104)
(211 -14.1314 -89.7905)
(210.87 -9.06512 -94.257)
(210.662 -3.7053 -101.229)
(208.421 2.37074 -113.47)
(197.104 10.8377 -153.055)
(210.533 -41.4427 -77.1519)
(210.897 -37.2229 -81.6793)
(211.104 -32.6856 -85.8818)
(211.198 -27.8697 -89.7669)
(211.192 -22.8305 -93.5202)
(211.153 -17.5978 -97.4459)
(211.092 -12.1154 -102.078)
(211.024 -6.23074 -109.204)
(209.112 0.774864 -121.818)
(197.68 10.7322 -161.342)
(209.569 -44.6439 -85.1138)
(209.843 -40.0419 -89.9223)
(209.79 -35.0029 -94.3273)
(209.431 -29.6475 -98.3967)
(208.813 -23.9894 -102.257)
(208.027 -18.0692 -106.189)
(207.158 -11.8217 -110.662)
(206.371 -5.05624 -117.278)
(204.433 2.95958 -129.041)
(194.247 14.3052 -166.631)
(205.891 1.91219 3.00057)
(206.369 1.10965 1.54391)
(206.556 0.426551 -0.00997151)
(206.473 -0.117405 -1.61008)
(206.095 -0.54652 -3.31983)
(205.333 -0.861327 -5.1516)
(203.986 -1.06593 -7.15911)
(201.62 -1.1718 -9.31733)
(198.154 -1.25688 -11.245)
(193.579 -1.15905 -14.3934)
(207.19 2.86852 2.79794)
(207.621 2.16419 1.16181)
(207.793 1.51934 -0.492249)
(207.704 0.943824 -2.18911)
(207.292 0.416452 -3.99634)
(206.437 -0.0688352 -5.97183)
(204.943 -0.527154 -8.20874)
(202.359 -0.993431 -10.9582)
(198.189 -1.58386 -14.0068)
(192.505 -1.82414 -20.5815)
(208.139 2.57753 3.30716)
(208.548 1.77146 1.54477)
(208.706 1.04479 -0.256748)
(208.606 0.422644 -2.09021)
(208.169 -0.133558 -4.02983)
(207.295 -0.636341 -6.15935)
(205.811 -1.11502 -8.66771)
(203.233 -1.58628 -12.0868)
(198.689 -2.15715 -16.3332)
(192.07 -2.0712 -26.7166)
(208.382 3.17792 3.30361)
(208.797 2.40339 1.4562)
(208.976 1.69437 -0.403372)
(208.918 1.0882 -2.297)
(208.545 0.546373 -4.31005)
(207.773 0.0571931 -6.56892)
(206.401 -0.412464 -9.29945)
(203.916 -0.855453 -13.2587)
(199.143 -1.36361 -18.4766)
(191.71 -0.933608 -32.4541)
(208.735 2.66836 3.83846)
(209.178 1.80895 1.93585)
(209.396 1.04209 -0.0203184)
(209.403 0.408528 -2.00863)
(209.121 -0.146978 -4.14615)
(208.485 -0.635718 -6.58669)
(207.264 -1.09257 -9.57246)
(204.941 -1.4887 -14.063)
(200.089 -1.90234 -20.2309)
(191.949 -1.07304 -37.6931)
(208.771 3.39303 3.63438)
(209.228 2.54115 1.72001)
(209.471 1.78354 -0.206742)
(209.521 1.16366 -2.17557)
(209.313 0.63484 -4.2977)
(208.805 0.182645 -6.77307)
(207.75 -0.224176 -9.84349)
(205.648 -0.54807 -14.6623)
(200.884 -0.830183 -21.5476)
(192.218 0.364595 -42.21)
(208.976 2.56681 4.16015)
(209.469 1.61602 2.23764)
(209.743 0.78636 0.259166)
(209.839 0.11416 -1.74952)
(209.699 -0.450757 -3.93582)
(209.306 -0.919983 -6.51575)
(208.412 -1.31004 -9.74446)
(206.556 -1.56829 -14.9178)
(201.998 -1.65626 -22.5677)
(192.908 0.00103835 -46.2451)
(208.891 3.3738 3.69582)
(209.392 2.40954 1.80358)
(209.656 1.59809 -0.088156)
(209.725 0.950746 -2.02432)
(209.569 0.441145 -4.12036)
(209.197 0.0372015 -6.62281)
(208.398 -0.264011 -9.78131)
(206.762 -0.418444 -15.0053)
(202.533 -0.208158 -23.0527)
(193.316 1.8344 -49.2174)
(208.903 2.05541 4.24521)
(209.436 0.977342 2.40205)
(209.728 0.0661122 0.526038)
(209.834 -0.688967 -1.37767)
(209.735 -1.31845 -3.48067)
(209.437 -1.83478 -6.03046)
(208.759 -2.19009 -9.3354)
(207.35 -2.32165 -14.7936)
(203.46 -1.7419 -23.4885)
(193.992 1.0029 -51.498)
(207.981 2.86379 3.637)
(208.458 1.69309 1.78962)
(208.575 0.796307 -0.0346508)
(208.362 0.0677836 -1.90544)
(207.834 -0.474206 -3.92987)
(207.026 -0.855641 -6.35386)
(205.826 -1.01331 -9.46976)
(204.024 -0.832121 -14.564)
(200.282 0.222237 -23.038)
(191.635 4.03739 -51.3447)
(203.517 1.42789 2.33438)
(204.02 0.833545 1.2163)
(204.202 0.302512 -0.0132669)
(204.098 -0.13177 -1.26341)
(203.697 -0.482375 -2.55463)
(202.95 -0.746728 -3.83245)
(201.765 -0.934606 -5.04907)
(199.989 -1.07153 -6.0548)
(197.434 -1.2429 -6.4985)
(194.217 -1.43226 -6.5169)
(204.912 2.41423 2.31328)
(205.407 1.87189 0.946156)
(205.587 1.3456 -0.448784)
(205.464 0.854957 -1.86577)
(205 0.389869 -3.33136)
(204.112 -0.0550111 -4.84815)
(202.639 -0.492995 -6.37974)
(200.311 -0.955716 -7.86299)
(196.687 -1.55455 -8.80245)
(191.847 -2.13662 -9.81071)
(205.947 2.21198 2.94813)
(206.447 1.52878 1.39547)
(206.627 0.890573 -0.208734)
(206.502 0.327118 -1.83806)
(206.014 -0.193635 -3.53882)
(205.061 -0.681607 -5.32775)
(203.445 -1.16155 -7.21464)
(200.801 -1.66365 -9.29203)
(196.299 -2.33222 -11.0028)
(189.857 -2.91124 -13.584)
(206.344 2.89689 2.99427)
(206.866 2.22025 1.31815)
(207.072 1.57948 -0.380833)
(206.982 1.01439 -2.11234)
(206.531 0.491472 -3.94032)
(205.615 0.000975349 -5.92306)
(203.983 -0.488993 -8.1065)
(201.17 -0.995865 -10.7406)
(195.931 -1.68099 -13.2006)
(187.995 -2.1663 -17.5587)
(206.846 2.42635 3.5689)
(207.4 1.64991 1.80553)
(207.642 0.940673 -0.0195183)
(207.609 0.340472 -1.8774)
(207.228 -0.201164 -3.8695)
(206.401 -0.692731 -6.08632)
(204.828 -1.16972 -8.60263)
(201.97 -1.63814 -11.8317)
(196.184 -2.28618 -15.1301)
(186.926 -2.57776 -21.5717)
(207.012 3.20013 3.38983)
(207.585 2.41733 1.59394)
(207.855 1.70776 -0.222438)
(207.863 1.11486 -2.0844)
(207.544 0.594057 -4.09226)
(206.815 0.133027 -6.38754)
(205.341 -0.303679 -9.06305)
(202.542 -0.715621 -12.7147)
(196.409 -1.27667 -16.715)
(186.061 -1.34007 -25.333)
(207.329 2.39044 3.93889)
(207.935 1.50284 2.11673)
(208.234 0.720139 0.231341)
(208.288 0.0785188 -1.68943)
(208.032 -0.470436 -3.78533)
(207.402 -0.935033 -6.22107)
(206.047 -1.33771 -9.12171)
(203.367 -1.66928 -13.2321)
(197.06 -2.06871 -18.0275)
(185.782 -1.79926 -28.9562)
(207.337 3.23551 3.47893)
(207.95 2.33242 1.6836)
(208.243 1.56577 -0.117568)
(208.28 0.948589 -1.97008)
(208.017 0.454306 -3.9847)
(207.414 0.0566326 -6.36732)
(206.145 -0.257261 -9.26057)
(203.617 -0.487905 -13.5544)
(197.326 -0.620597 -18.8723)
(185.387 -0.0696973 -31.8726)
(207.429 1.90357 4.03284)
(208.061 0.887429 2.27507)
(208.376 0.0348929 0.472735)
(208.441 -0.660703 -1.36157)
(208.22 -1.23125 -3.38783)
(207.679 -1.687 -5.8152)
(206.521 -1.99266 -8.87652)
(204.187 -2.12672 -13.515)
(198.029 -1.86075 -19.6421)
(185.306 -0.799305 -34.2637)
(206.573 2.7696 3.39231)
(207.153 1.67668 1.66378)
(207.338 0.850643 -0.052624)
(207.166 0.187345 -1.82456)
(206.629 -0.293666 -3.74853)
(205.717 -0.615384 -6.03823)
(204.201 -0.726519 -8.92242)
(201.63 -0.547165 -13.3058)
(195.609 0.21759 -19.5469)
(182.827 2.30022 -34.6945)
(201.781 0.949089 1.7018)
(202.218 0.547686 0.911421)
(202.369 0.165618 0.00790889)
(202.27 -0.157889 -0.89641)
(201.922 -0.42861 -1.80007)
(201.307 -0.641187 -2.62148)
(200.395 -0.807842 -3.29566)
(199.161 -0.952087 -3.68718)
(197.602 -1.12932 -3.58049)
(195.871 -1.3649 -2.75287)
(203.103 1.90743 1.79142)
(203.57 1.53196 0.718153)
(203.733 1.13479 -0.3877)
(203.602 0.741762 -1.4971)
(203.154 0.354081 -2.60169)
(202.344 -0.0310439 -3.67094)
(201.095 -0.424269 -4.62883)
(199.303 -0.848061 -5.34701)
(196.838 -1.37061 -5.40303)
(194.04 -1.93793 -4.6197)
(204.092 1.75983 2.50358)
(204.602 1.21995 1.2061)
(204.778 0.69013 -0.150802)
(204.636 0.20457 -1.51798)
(204.136 -0.260204 -2.91215)
(203.208 -0.712517 -4.31341)
(201.717 -1.17179 -5.6553)
(199.468 -1.6643 -6.84635)
(196.113 -2.29573 -7.29998)
(192.034 -2.99156 -6.92402)
(204.551 2.52651 2.58717)
(205.108 1.97211 1.13183)
(205.313 1.42074 -0.354539)
(205.19 0.916047 -1.86117)
(204.69 0.432817 -3.42371)
(203.723 -0.0382526 -5.05637)
(202.095 -0.526239 -6.71336)
(199.508 -1.05358 -8.37936)
(195.292 -1.75941 -9.29351)
(189.827 -2.52573 -9.5403)
(205.137 2.10093 3.20282)
(205.738 1.43192 1.62541)
(205.978 0.80017 -0.0199305)
(205.897 0.249868 -1.68739)
(205.432 -0.261502 -3.45165)
(204.489 -0.741879 -5.35626)
(202.811 -1.22422 -7.38187)
(200.008 -1.7278 -9.61126)
(195.04 -2.44211 -11.1402)
(188.235 -3.18128 -12.3679)
(205.394 2.92931 3.05276)
(206.023 2.23924 1.41844)
(206.29 1.59618 -0.243786)
(206.243 1.0456 -1.9438)
(205.817 0.54871 -3.75864)
(204.923 0.0930234 -5.78008)
(203.254 -0.359149 -8.01116)
(200.343 -0.826409 -10.6685)
(194.77 -1.50686 -12.7413)
(186.758 -2.16656 -15.135)
(205.796 2.14602 3.63094)
(206.458 1.34315 1.94763)
(206.753 0.623316 0.19446)
(206.746 0.0241872 -1.58896)
(206.368 -0.498245 -3.52104)
(205.538 -0.951772 -5.71766)
(203.915 -1.36293 -8.22171)
(200.976 -1.74473 -11.3675)
(194.944 -2.3005 -14.1236)
(185.842 -2.77406 -17.9494)
(205.883 3.0418 3.18191)
(206.553 2.21932 1.518)
(206.846 1.51086 -0.159303)
(206.828 0.933815 -1.88662)
(206.444 0.463265 -3.75588)
(205.63 0.0769629 -5.92615)
(204.048 -0.247041 -8.46759)
(201.147 -0.536018 -11.8565)
(194.857 -0.880758 -15.1101)
(184.868 -1.19394 -20.3182)
(206.044 1.7084 3.76456)
(206.724 0.770862 2.1236)
(207.033 -0.0164639 0.423906)
(207.039 -0.652894 -1.30797)
(206.689 -1.16976 -3.21029)
(205.919 -1.5742 -5.4381)
(204.393 -1.84578 -8.14336)
(201.582 -1.99544 -11.8892)
(195.221 -1.94756 -15.9862)
(184.257 -1.89924 -22.3805)
(205.256 2.64803 3.10262)
(205.889 1.64521 1.51472)
(206.107 0.893053 -0.0758996)
(205.943 0.293626 -1.72673)
(205.373 -0.131747 -3.51645)
(204.348 -0.403143 -5.6128)
(202.582 -0.481762 -8.16708)
(199.582 -0.316642 -11.7257)
(193.24 0.228205 -16.0578)
(181.785 1.20164 -22.8631)
(200.571 0.551097 1.19395)
(200.914 0.294894 0.666118)
(201.028 0.0340322 0.0357683)
(200.953 -0.195305 -0.583083)
(200.694 -0.39668 -1.18742)
(200.256 -0.56242 -1.69751)
(199.643 -0.702088 -2.06661)
(198.881 -0.830822 -2.20479)
(198.016 -0.975099 -2.02032)
(197.164 -1.14161 -1.42912)
(201.727 1.43447 1.31138)
(202.121 1.19997 0.510274)
(202.258 0.920689 -0.321222)
(202.144 0.622121 -1.1456)
(201.771 0.313472 -1.9359)
(201.123 -0.00400698 -2.64896)
(200.178 -0.334828 -3.21065)
(198.934 -0.688798 -3.5126)
(197.411 -1.09417 -3.32757)
(195.914 -1.51132 -2.51764)
(202.577 1.29265 2.05047)
(203.048 0.890548 1.01567)
(203.209 0.470742 -0.0832693)
(203.076 0.0689288 -1.18036)
(202.623 -0.329666 -2.26757)
(201.814 -0.729682 -3.30341)
(200.583 -1.14433 -4.20335)
(198.865 -1.59112 -4.83741)
(196.582 -2.12533 -4.81326)
(194.193 -2.69425 -3.92697)
(203.017 2.11727 2.14841)
(203.559 1.69103 0.935523)
(203.755 1.23749 -0.315449)
(203.626 0.80319 -1.57418)
(203.135 0.37284 -2.84707)
(202.225 -0.0600878 -4.11446)
(200.775 -0.519726 -5.29414)
(198.642 -1.02528 -6.27061)
(195.552 -1.66468 -6.46642)
(192.083 -2.3691 -5.60754)
(203.616 1.72869 2.79429)
(204.221 1.17889 1.43098)
(204.453 0.635718 -0.00653271)
(204.349 0.145875 -1.45385)
(203.858 -0.322933 -2.95355)
(202.908 -0.776668 -4.50652)
(201.317 -1.24384 -6.04464)
(198.86 -1.74679 -7.49225)
(194.996 -2.42638 -8.08613)
(190.379 -3.19387 -7.53436)
(203.913 2.60708 2.66963)
(204.56 2.02449 1.22691)
(204.822 1.46009 -0.251825)
(204.742 0.9622 -1.75771)
(204.264 0.500742 -3.33667)
(203.308 0.0645492 -5.02974)
(201.637 -0.383765 -6.78409)
(198.952 -0.870485 -8.60572)
(194.393 -1.55929 -9.55978)
(188.652 -2.3531 -9.45948)
(204.362 1.85334 3.27566)
(205.049 1.15105 1.76114)
(205.338 0.505769 0.169102)
(205.29 -0.0419805 -1.44482)
(204.839 -0.529078 -3.16832)
(203.906 -0.96248 -5.06304)
(202.205 -1.37099 -7.11183)
(199.37 -1.77961 -9.39676)
(194.214 -2.37972 -10.8781)
(187.389 -3.09958 -11.5021)
(204.504 2.80593 2.83933)
(205.204 2.07974 1.33394)
(205.495 1.44064 -0.19352)
(205.439 0.912147 -1.76643)
(204.98 0.473498 -3.44901)
(204.044 0.1061 -5.3444)
(202.327 -0.218629 -7.4584)
(199.42 -0.543181 -9.9907)
(193.839 -0.991246 -11.8663)
(186.055 -1.65655 -13.2455)
(204.717 1.47463 3.45732)
(205.425 0.630484 1.95864)
(205.729 -0.0843341 0.386427)
(205.692 -0.659612 -1.21509)
(205.256 -1.12419 -2.9575)
(204.348 -1.48266 -4.93717)
(202.645 -1.72719 -7.22514)
(199.715 -1.89031 -10.0745)
(193.889 -1.98184 -12.6837)
(185.057 -2.39472 -14.8185)
(203.99 2.50147 2.77474)
(204.655 1.59933 1.3447)
(204.897 0.925132 -0.103745)
(204.741 0.389858 -1.61325)
(204.153 0.0174469 -3.24029)
(203.068 -0.209343 -5.10203)
(201.2 -0.264035 -7.27269)
(198.102 -0.119 -10.0005)
(192.174 0.260004 -12.8111)
(182.633 0.640326 -15.1308)
(199.739 0.251665 0.824892)
(199.993 0.0931097 0.488419)
(200.075 -0.0795703 0.0636099)
(200.023 -0.236511 -0.342705)
(199.848 -0.382098 -0.735389)
(199.56 -0.507344 -1.0465)
(199.175 -0.618495 -1.25087)
(198.724 -0.723026 -1.29412)
(198.247 -0.831666 -1.14383)
(197.791 -0.943215 -0.777499)
(200.717 1.0404 0.91089)
(201.019 0.911032 0.336753)
(201.126 0.728178 -0.260132)
(201.038 0.512431 -0.845154)
(200.754 0.277204 -1.38647)
(200.276 0.0267212 -1.84331)
(199.612 -0.237769 -2.15828)
(198.794 -0.516834 -2.25868)
(197.885 -0.815397 -2.03778)
(197.078 -1.10368 -1.43095)
(201.39 0.86152 1.63606)
(201.788 0.574983 0.842269)
(201.926 0.25476 -0.0152473)
(201.813 -0.0661082 -0.863757)
(201.436 -0.395801 -1.68087)
(200.784 -0.734809 -2.41794)
(199.839 -1.08971 -2.99863)
(198.61 -1.46919 -3.31459)
(197.136 -1.8953 -3.14388)
(195.749 -2.3253 -2.34648)
(201.758 1.712 1.72044)
(202.246 1.40383 0.746264)
(202.423 1.04621 -0.269219)
(202.301 0.685424 -1.28314)
(201.86 0.315128 -2.28032)
(201.068 -0.0670473 -3.22107)
(199.87 -0.477768 -4.01849)
(198.23 -0.929521 -4.5453)
(196.096 -1.46855 -4.43725)
(193.954 -2.04076 -3.43907)
(202.315 1.34308 2.37755)
(202.884 0.910853 1.23668)
(203.097 0.459412 0.0180132)
(202.986 0.035959 -1.20017)
(202.514 -0.38156 -2.43265)
(201.634 -0.79577 -3.64944)
(200.239 -1.22841 -4.76371)
(198.234 -1.69899 -5.64698)
(195.416 -2.29719 -5.77441)
(192.408 -2.96208 -4.76567)
(202.61 2.25823 2.26788)
(203.236 1.78724 1.03191)
(203.482 1.3076 -0.246542)
(203.383 0.869413 -1.54189)
(202.897 0.45204 -2.8708)
(201.964 0.0472771 -4.23244)
(200.423 -0.377678 -5.54365)
(198.122 -0.849269 -6.71201)
(194.641 -1.48316 -7.04641)
(190.723 -2.22641 -6.09536)
(203.07 1.53068 2.89459)
(203.746 0.936725 1.56778)
(204.02 0.373337 0.156835)
(203.945 -0.116352 -1.26714)
(203.464 -0.560836 -2.76057)
(202.51 -0.965156 -4.33685)
(200.874 -1.35699 -5.93765)
(198.341 -1.76599 -7.50453)
(194.246 -2.3432 -8.22479)
(189.396 -3.07471 -7.55858)
(203.239 2.54057 2.46831)
(203.937 1.9202 1.14022)
(204.217 1.35841 -0.217899)
(204.135 0.885152 -1.61528)
(203.639 0.485173 -3.08703)
(202.659 0.143974 -4.68429)
(200.957 -0.16892 -6.36135)
(198.267 -0.501263 -8.14046)
(193.684 -0.973356 -9.13446)
(187.954 -1.71696 -8.79337)
(203.488 1.21048 3.12315)
(204.196 0.469745 1.78557)
(204.487 -0.167034 0.36082)
(204.418 -0.67946 -1.08804)
(203.934 -1.09256 -2.64477)
(202.962 -1.40837 -4.35251)
(201.236 -1.62843 -6.21897)
(198.442 -1.79479 -8.27892)
(193.522 -1.95812 -9.83222)
(186.815 -2.51404 -9.91445)
(202.812 2.33617 2.4185)
(203.481 1.54219 1.15877)
(203.733 0.949062 -0.134008)
(203.582 0.478215 -1.48547)
(202.994 0.156469 -2.92837)
(201.898 -0.0308417 -4.53213)
(200.047 -0.0680808 -6.30676)
(197.093 0.0555938 -8.29696)
(191.995 0.313708 -9.9837)
(184.567 0.412594 -10.0824)
(199.165 0.0421098 0.576369)
(199.35 -0.0565924 0.369768)
(199.406 -0.170434 0.0876385)
(199.374 -0.275822 -0.172439)
(199.263 -0.37928 -0.425531)
(199.085 -0.471414 -0.61646)
(198.855 -0.556079 -0.736406)
(198.596 -0.635544 -0.752733)
(198.335 -0.712816 -0.658275)
(198.074 -0.784043 -0.451627)
(199.987 0.740667 0.599048)
(200.205 0.682343 0.200252)
(200.283 0.572034 -0.211197)
(200.22 0.423543 -0.609808)
(200.019 0.251682 -0.966805)
(199.689 0.0621375 -1.25028)
(199.247 -0.13975 -1.42133)
(198.73 -0.349618 -1.43692)
(198.196 -0.562336 -1.25228)
(197.758 -0.754307 -0.850821)
(200.485 0.495474 1.28426)
(200.798 0.296375 0.694361)
(200.909 0.0590277 0.0457708)
(200.82 -0.189385 -0.591056)
(200.528 -0.453116 -1.18889)
(200.034 -0.729435 -1.70219)
(199.348 -1.0196 -2.07147)
(198.506 -1.32483 -2.2226)
(197.579 -1.6486 -2.04287)
(196.775 -1.95765 -1.47324)
(200.757 1.34203 1.33069)
(201.169 1.13251 0.573985)
(201.319 0.861504 -0.222708)
(201.215 0.571809 -1.01232)
(200.845 0.263654 -1.76783)
(200.199 -0.0613689 -2.44285)
(199.265 -0.411841 -2.96163)
(198.062 -0.792724 -3.22039)
(196.637 -1.22222 -3.01374)
(195.324 -1.65802 -2.19302)
(201.238 0.972645 1.97822)
(201.74 0.646397 1.05181)
(201.928 0.283017 0.0481174)
(201.823 -0.0725989 -0.948025)
(201.401 -0.433754 -1.93191)
(200.638 -0.799362 -2.8572)
(199.486 -1.18352 -3.63816)
(197.931 -1.59952 -4.14865)
(195.952 -2.09694 -4.06605)
(194.019 -2.62785 -3.1185)
(201.497 1.90623 1.86998)
(202.07 1.54171 0.842024)
(202.292 1.14711 -0.231694)
(202.189 0.772136 -1.3139)
(201.731 0.404822 -2.3986)
(200.88 0.0406678 -3.45749)
(199.546 -0.345536 -4.39854)
(197.675 -0.775115 -5.09977)
(195.126 -1.31996 -5.10526)
(192.504 -1.94573 -4.03105)
(201.938 1.19694 2.50645)
(202.573 0.711068 1.37483)
(202.824 0.232205 0.155155)
(202.735 -0.19537 -1.06962)
(202.262 -0.591761 -2.32909)
(201.356 -0.959332 -3.60163)
(199.882 -1.32169 -4.80837)
(197.739 -1.70683 -5.82718)
(194.631 -2.22176 -6.09923)
(191.266 -2.8646 -5.07342)
(202.11 2.25994 2.08458)
(202.774 1.74815 0.943413)
(203.037 1.26774 -0.233625)
(202.939 0.854112 -1.4432)
(202.442 0.497845 -2.6943)
(201.488 0.188583 -3.99749)
(199.91 -0.102041 -5.27598)
(197.561 -0.41766 -6.45331)
(193.978 -0.857858 -6.88316)
(189.879 -1.53914 -5.92333)
(202.378 0.92645 2.77518)
(203.058 0.293483 1.6096)
(203.331 -0.262313 0.345901)
(203.243 -0.711185 -0.935465)
(202.746 -1.07368 -2.29247)
(201.78 -1.34943 -3.72571)
(200.147 -1.54598 -5.20101)
(197.646 -1.70591 -6.62901)
(193.704 -1.88955 -7.46376)
(188.79 -2.4186 -6.7001)
(201.74 2.16027 2.04528)
(202.387 1.47794 0.962306)
(202.636 0.967424 -0.165692)
(202.492 0.560752 -1.34764)
(201.924 0.287416 -2.59385)
(200.867 0.134966 -3.93394)
(199.131 0.11029 -5.33125)
(196.475 0.213101 -6.71451)
(192.319 0.384836 -7.61553)
(186.787 0.372407 -6.78111)
(198.759 -0.0985211 0.417787)
(198.896 -0.162745 0.295566)
(198.934 -0.239706 0.107038)
(198.915 -0.31034 -0.0578379)
(198.848 -0.383495 -0.22298)
(198.743 -0.450018 -0.343342)
(198.609 -0.512467 -0.420359)
(198.463 -0.570425 -0.432977)
(198.317 -0.623702 -0.383268)
(198.15 -0.668259 -0.273331)
(199.463 0.530664 0.367275)
(199.611 0.516901 0.0967303)
(199.665 0.457823 -0.176566)
(199.623 0.360768 -0.437976)
(199.489 0.240347 -0.664899)
(199.271 0.102558 -0.835105)
(198.989 -0.0453978 -0.92432)
(198.671 -0.197196 -0.908708)
(198.359 -0.344833 -0.771817)
(198.117 -0.470661 -0.513382)
(199.805 0.204854 1.00208)
(200.038 0.0666739 0.574581)
(200.122 -0.10607 0.096118)
(200.057 -0.293496 -0.370763)
(199.843 -0.498155 -0.800152)
(199.488 -0.715688 -1.15461)
(199.011 -0.943979 -1.39157)
(198.452 -1.1795 -1.46532)
(197.875 -1.41715 -1.32178)
(197.406 -1.63216 -0.94632)
(199.982 1.0264 0.994597)
(200.311 0.892874 0.424467)
(200.432 0.695068 -0.180652)
(200.349 0.469961 -0.776269)
(200.056 0.221777 -1.33175)
(199.557 -0.0450955 -1.80319)
(198.861 -0.332487 -2.13148)
(198.009 -0.639503 -2.24268)
(197.075 -0.967837 -2.02959)
(196.27 -1.28568 -1.42351)
(200.369 0.639127 1.61505)
(200.791 0.401487 0.8833)
(200.949 0.117508 0.0790084)
(200.858 -0.172833 -0.713846)
(200.502 -0.476266 -1.47948)
(199.876 -0.788537 -2.16741)
(198.969 -1.11705 -2.70374)
(197.809 -1.46806 -2.9866)
(196.452 -1.86403 -2.83144)
(195.218 -2.26682 -2.08455)
(200.572 1.57164 1.49518)
(201.072 1.30156 0.664735)
(201.265 0.987206 -0.211028)
(201.168 0.675441 -1.08914)
(200.762 0.361241 -1.949)
(200.029 0.0436409 -2.7488)
(198.93 -0.294083 -3.40237)
(197.471 -0.666073 -3.79556)
(195.657 -1.11005 -3.64698)
(193.921 -1.6034 -2.71222)
(200.976 0.870639 2.12906)
(201.546 0.485701 1.18917)
(201.769 0.0894347 0.161036)
(201.677 -0.274878 -0.865959)
(201.24 -0.619907 -1.90116)
(200.428 -0.945144 -2.90243)
(199.168 -1.26873 -3.78746)
(197.434 -1.61288 -4.42104)
(195.148 -2.04661 -4.44746)
(192.849 -2.56759 -3.4569)
(201.127 1.97913 1.70438)
(201.734 1.57215 0.750262)
(201.971 1.17315 -0.242382)
(201.87 0.820954 -1.26111)
(201.4 0.511505 -2.29431)
(200.524 0.238272 -3.32551)
(199.137 -0.0225568 -4.26586)
(197.18 -0.30585 -5.00178)
(194.477 -0.683633 -5.08973)
(191.604 -1.24167 -4.02935)
(201.402 0.634419 2.42789)
(202.032 0.107762 1.43668)
(202.28 -0.36712 0.340294)
(202.184 -0.753158 -0.767073)
(201.705 -1.06637 -1.92178)
(200.799 -1.30418 -3.09463)
(199.335 -1.47735 -4.22896)
(197.207 -1.62395 -5.18397)
(194.167 -1.79832 -5.56509)
(190.666 -2.232 -4.57257)
(200.79 1.98329 1.66782)
(201.391 1.41181 0.761374)
(201.626 0.983325 -0.198131)
(201.493 0.639595 -1.20545)
(200.962 0.412112 -2.25179)
(199.986 0.290277 -3.33739)
(198.433 0.274575 -4.39692)
(196.157 0.3583 -5.3104)
(192.901 0.468956 -5.69502)
(188.926 0.424343 -4.59119)
(198.46 -0.191777 0.321287)
(198.567 -0.237002 0.252223)
(198.592 -0.291981 0.122496)
(198.582 -0.340146 0.0170307)
(198.543 -0.392386 -0.094557)
(198.483 -0.44009 -0.17441)
(198.406 -0.485305 -0.229685)
(198.325 -0.526551 -0.245343)
(198.241 -0.562599 -0.22632)
(198.122 -0.590024 -0.173605)
(199.082 0.39627 0.199444)
(199.178 0.408941 0.0190593)
(199.215 0.384356 -0.155786)
(199.188 0.324839 -0.32038)
(199.102 0.244122 -0.458584)
(198.964 0.147873 -0.556182)
(198.789 0.043356 -0.598974)
(198.598 -0.0629073 -0.574077)
(198.416 -0.163184 -0.477326)
(198.28 -0.244504 -0.31163)
(199.297 -0.0129785 0.785458)
(199.463 -0.111557 0.481392)
(199.523 -0.236504 0.134767)
(199.478 -0.375161 -0.202063)
(199.328 -0.529785 -0.50734)
(199.083 -0.695893 -0.752835)
(198.764 -0.869629 -0.909791)
(198.402 -1.04541 -0.952068)
(198.047 -1.21547 -0.854316)
(197.771 -1.36182 -0.621812)
(199.394 0.77269 0.717109)
(199.644 0.693787 0.29961)
(199.738 0.554503 -0.145898)
(199.675 0.385064 -0.581603)
(199.454 0.191512 -0.978602)
(199.085 -0.0202245 -1.30018)
(198.587 -0.247624 -1.50354)
(198.001 -0.486273 -1.54014)
(197.395 -0.729983 -1.35773)
(196.902 -0.955107 -0.931558)
(199.685 0.356078 1.2989)
(200.023 0.187929 0.735223)
(200.15 -0.0281712 0.106978)
(200.076 -0.2589 -0.508537)
(199.791 -0.506598 -1.09111)
(199.301 -0.764936 -1.59403)
(198.615 -1.03646 -1.95892)
(197.777 -1.3215 -2.11244)
(196.862 -1.62678 -1.95421)
(196.077 -1.92108 -1.41127)
(199.825 1.26976 1.15771)
(200.241 1.0782 0.505706)
(200.402 0.835597 -0.187834)
(200.318 0.583864 -0.879817)
(199.976 0.322889 -1.54231)
(199.375 0.0544609 -2.13057)
(198.507 -0.230314 -2.57195)
(197.408 -0.539192 -2.77557)
(196.142 -0.886739 -2.5747)
(195.003 -1.25726 -1.8413)
(200.182 0.56772 1.77728)
(200.672 0.271689 1.01657)
(200.862 -0.0477289 0.171336)
(200.777 -0.350488 -0.668476)
(200.394 -0.643296 -1.49884)
(199.702 -0.923091 -2.26929)
(198.67 -1.20269 -2.90499)
(197.318 -1.49702 -3.28527)
(195.676 -1.84704 -3.19661)
(194.124 -2.24542 -2.37605)
(200.294 1.71218 1.34262)
(200.826 1.40096 0.567067)
(201.033 1.07963 -0.246097)
(200.937 0.788016 -1.0797)
(200.515 0.526416 -1.90798)
(199.749 0.29152 -2.69978)
(198.585 0.0652229 -3.36782)
(197.018 -0.178101 -3.80029)
(195.032 -0.485364 -3.70298)
(193.052 -0.910381 -2.75647)
(200.569 0.346105 2.09533)
(201.13 -0.0808768 1.27277)
(201.348 -0.477969 0.342427)
(201.253 -0.803564 -0.592744)
(200.815 -1.06953 -1.55272)
(200.007 -1.27152 -2.49086)
(198.754 -1.42128 -3.34289)
(197.017 -1.55011 -3.96245)
(194.741 -1.7015 -4.08204)
(192.304 -2.03017 -3.14719)
(199.969 1.81518 1.29873)
(200.506 1.34963 0.562063)
(200.721 1.00025 -0.23112)
(200.6 0.716966 -1.06538)
(200.123 0.532281 -1.91751)
(199.257 0.437123 -2.76897)
(197.924 0.427787 -3.54129)
(196.053 0.494872 -4.1095)
(193.583 0.562944 -4.17925)
(190.809 0.519247 -3.11546)
(198.232 -0.255819 0.265851)
(198.319 -0.290759 0.229548)
(198.337 -0.333213 0.135475)
(198.332 -0.367345 0.0658054)
(198.31 -0.40567 -0.0140026)
(198.276 -0.440156 -0.0711357)
(198.233 -0.472769 -0.115478)
(198.187 -0.501802 -0.135259)
(198.137 -0.525893 -0.135992)
(198.043 -0.542335 -0.116918)
(198.8 0.320897 0.0782353)
(198.862 0.348734 -0.0402845)
(198.886 0.34664 -0.14709)
(198.869 0.313589 -0.245238)
(198.816 0.262348 -0.324148)
(198.731 0.197896 -0.375325)
(198.625 0.126601 -0.390983)
(198.511 0.0543067 -0.363989)
(198.405 -0.0126355 -0.295273)
(198.326 -0.0646764 -0.185944)
(198.916 -0.168015 0.624945)
(199.028 -0.242269 0.411092)
(199.07 -0.333288 0.162506)
(199.04 -0.434608 -0.0787319)
(198.939 -0.548867 -0.295598)
(198.776 -0.672439 -0.468018)
(198.568 -0.800872 -0.577342)
(198.34 -0.928395 -0.609504)
(198.123 -1.0475 -0.552204)
(197.96 -1.14556 -0.41768)
(198.954 0.579812 0.495836)
(199.137 0.537794 0.198432)
(199.207 0.443153 -0.119629)
(199.161 0.319552 -0.428786)
(199.002 0.173328 -0.704633)
(198.739 0.0109544 -0.918872)
(198.393 -0.163064 -1.04216)
(198 -0.342785 -1.04428)
(197.611 -0.519538 -0.902062)
(197.308 -0.676273 -0.609718)
(199.156 0.129408 1.03355)
(199.416 0.0128302 0.608922)
(199.515 -0.147831 0.129504)
(199.457 -0.326576 -0.337723)
(199.238 -0.523162 -0.772484)
(198.87 -0.730501 -1.13574)
(198.37 -0.947895 -1.38416)
(197.78 -1.17193 -1.46912)
(197.172 -1.40168 -1.33824)
(196.674 -1.61141 -0.963681)
(199.235 1.00973 0.866157)
(199.568 0.879669 0.368489)
(199.697 0.698167 -0.164638)
(199.627 0.50082 -0.694151)
(199.353 0.290515 -1.19042)
(198.88 0.070852 -1.61234)
(198.219 -0.16095 -1.90292)
(197.416 -0.408043 -1.99707)
(196.547 -0.671614 -1.79858)
(195.805 -0.940726 -1.25426)
(199.543 0.300148 1.46166)
(199.948 0.0784656 0.861109)
(200.105 -0.172568 0.183125)
(200.031 -0.41794 -0.487072)
(199.711 -0.660024 -1.13801)
(199.146 -0.89386 -1.71955)
(198.334 -1.128 -2.16947)
(197.313 -1.3704 -2.39231)
(196.156 -1.64417 -2.26741)
(195.12 -1.93655 -1.6386)
(199.604 1.47061 1.01134)
(200.053 1.24246 0.399062)
(200.228 0.992025 -0.24667)
(200.141 0.757737 -0.908233)
(199.781 0.542967 -1.55198)
(199.139 0.346845 -2.14158)
(198.2 0.157225 -2.59941)
(196.989 -0.0438428 -2.83416)
(195.562 -0.284692 -2.65423)
(194.219 -0.594813 -1.88855)
(199.876 0.0717111 1.7897)
(200.358 -0.2662 1.12323)
(200.545 -0.591342 0.350744)
(200.458 -0.860564 -0.421488)
(200.075 -1.08226 -1.20235)
(199.385 -1.25079 -1.93801)
(198.355 -1.37756 -2.56669)
(196.989 -1.48633 -2.96)
(195.327 -1.60997 -2.9481)
(193.663 -1.84765 -2.17775)
(199.279 1.66539 0.949179)
(199.741 1.2974 0.369868)
(199.929 1.02194 -0.264841)
(199.823 0.795285 -0.933936)
(199.41 0.649783 -1.60484)
(198.672 0.577637 -2.24967)
(197.57 0.572804 -2.78836)
(196.088 0.625859 -3.11461)
(194.265 0.664533 -3.01091)
(192.377 0.633191 -2.10694)
(198.051 -0.304392 0.237558)
(198.126 -0.333769 0.221002)
(198.139 -0.369465 0.147731)
(198.137 -0.395164 0.0987537)
(198.125 -0.424557 0.0372751)
(198.105 -0.450126 -0.00769458)
(198.081 -0.473928 -0.0468935)
(198.055 -0.494375 -0.0705257)
(198.024 -0.510304 -0.0839976)
(197.945 -0.51964 -0.085111)
(198.587 0.289396 -0.0112551)
(198.626 0.326082 -0.0878203)
(198.642 0.338363 -0.148344)
(198.632 0.323599 -0.201459)
(198.6 0.293624 -0.240946)
(198.549 0.252565 -0.261995)
(198.485 0.205651 -0.260762)
(198.418 0.157731 -0.232981)
(198.355 0.113618 -0.181742)
(198.308 0.0805206 -0.105156)
(198.624 -0.273142 0.50947)
(198.698 -0.333095 0.35936)
(198.726 -0.400754 0.181159)
(198.707 -0.474554 0.00781005)
(198.641 -0.557735 -0.147794)
(198.536 -0.64765 -0.272102)
(198.404 -0.740211 -0.353211)
(198.262 -0.830381 -0.384054)
(198.131 -0.912012 -0.357702)
(198.035 -0.976505 -0.288275)
(198.63 0.441119 0.324022)
(198.758 0.42254 0.118206)
(198.808 0.360624 -0.101748)
(198.777 0.273302 -0.314192)
(198.666 0.166372 -0.500167)
(198.485 0.045987 -0.63897)
(198.252 -0.0829482 -0.71138)
(197.993 -0.214364 -0.69909)
(197.745 -0.339849 -0.593731)
(197.559 -0.447632 -0.395105)
(198.754 -0.0410725 0.817329)